<LesHouchesEvents version="3.0">
  <!--
  <scalesfunctionalform>
    muR  H_T/2 := sum_i mT(i)/2, i=final state
    muF1 H_T/2 := sum_i mT(i)/2, i=final state
    muF2 H_T/2 := sum_i mT(i)/2, i=final state
    QES  H_T/2 := sum_i mT(i)/2, i=final state
  </scalesfunctionalform>
HERWIG6   
  -->
  <header>
      869
  </header>
  <init>
   2212   2212 0.65000000D+04 0.65000000D+04 -1 -1   244800   244800 -4   1
 0.23635884D-02 0.64619543D-05 0.29493621D-05     66
  </init>
  <event>
  8     66 0.29493621E-05 0.18848880E+03 0.75467711E-02 0.98778289E-01
        3 -1    0    0  501    0 0.00000000E+00 0.00000000E+00 0.55882278E+03 0.55882301E+03 0.50000000E+00 0.0000E+00 0.9000E+01
       -4 -1    0    0    0  501 0.00000000E+00 0.00000000E+00 -.93199883E+02 0.93212771E+02 0.15500000E+01 0.0000E+00 0.9000E+01
       25  2    1    2    0    0 0.28289014E+02 -.79112543E+02 0.42934246E+03 0.53020578E+03 0.29953990E+03 0.0000E+00 0.0000E+00
       23  2    3    3    0    0 -.57061198E+02 0.23868804E+02 0.58606333E+02 0.12566858E+03 0.92369850E+02 0.0000E+00 0.0000E+00
      -24  1    1    2    0    0 -.28289014E+02 0.79112543E+02 0.36280437E+02 0.12183000E+03 0.80419002E+02 0.0000E+00 0.9000E+01
      -13  1    4    4    0    0 -.73818081E+02 0.31653122E+02 0.19852672E+02 0.82735536E+02 0.10565837E+00 0.0000E+00 0.9000E+01
       13  1    4    4    0    0 0.16756882E+02 -.77843181E+01 0.38753661E+02 0.42933042E+02 0.10565837E+00 0.0000E+00 0.9000E+01
       23  1    3    3    0    0 0.85350213E+02 -.10298135E+03 0.37073613E+03 0.40453720E+03 0.91188000E+02 0.0000E+00 0.9000E+01
#aMCatNLO 1  0  0  1  2 0.25478722D+03 0.00000000D+00  -5  7  0 0.00000000D+00 0.00000000D+00 0.00000000D+00 0.00000000D+00 0.00000000D+00
  <mgrwgt>
 0.1441732936D-03    5    2    0
 0.228224653881917D+03 0.000000000000000D+00 0.000000000000000D+00 0.228224653881917D+03
 0.228224653881917D+03 0.000000000000000D+00 0.000000000000000D+00 -.228224653881917D+03
 0.137024017456701D+03 -.282890154409875D+02 0.791125461253629D+02 -.724520673034630D+02
 0.979357707551517D+02 -.738181968692863D+02 0.316531722845477D+02 -.560389658068173D+02
 0.217970328320238D+02 0.167569982014062D+02 -.778436850650200D+01 0.115636178816741D+02
 0.199692486719958D+03 0.853502141088676D+02 -.102981349903409D+03 0.116927415228606D+03
 0.000000000000000D+00 -.000000000000000D+00 0.000000000000000D+00 0.000000000000000D+00
 0.557310296142428D+03 0.000000000000000D+00 0.000000000000000D+00 0.557310296142428D+03
 0.316212265807499D+03 0.000000000000000D+00 0.000000000000000D+00 -.316212265807499D+03
 0.111273784220529D+03 -.210464966836670D+02 0.149124787069491D+02 -.724520673034630D+02
 0.899838773181105D+02 -.683368290647945D+02 -.169354740669452D+02 -.560389658068173D+02
 0.303292381287179D+02 0.182774526421310D+02 -.212621765553238D+02 0.115636178816741D+02
 0.291158256750603D+03 0.996676816523439D+02 -.229896089423144D+03 0.116927415228606D+03
 0.350777405531966D+03 -.285618085460134D+02 0.253181261338464D+03 0.241098030334930D+03
0.812333011451D-05 0.000000000000D+00 0.000000000000D+00 0.652552657659D-06 0.000000000000D+00  7 3 -4 -24 -13 13 23 21 0 0.85973744D-01 0.14339452D-01 0.35528026D+05 0.35528026D+05 0.35528026D+05 0.11605819D+01  1  2  2  1  7  1        3 0.142510572537D-03 0.100000000000D+01
-.431217385524D-06 0.000000000000D+00 -.311957265617D-07 0.652552657659D-06 0.000000000000D+00  7 3 -4 -24 -13 13 23 21 2 0.85973744D-01 0.14339452D-01 0.35528026D+05 0.35528026D+05 0.35528026D+05 0.11605819D+01  1  2  3  1  7  1        3 -.101896858496D-04 0.100000000000D+01
0.515281285995D-06 0.000000000000D+00 0.000000000000D+00 0.652552657659D-06 0.000000000000D+00  7 3 -4 -24 -13 13 23 21 2 0.85973744D-01 0.14339452D-01 0.35528026D+05 0.35528026D+05 0.35528026D+05 0.11605819D+01  1  2 15  1  7  1        3 0.121761195275D-04 0.100000000000D+01
-.849703395391D-06 0.000000000000D+00 -.255838861795D-05 0.652552657659D-06 0.000000000000D+00  7 3 -4 -24 -13 13 23 21 2 0.25134646D+00 0.14339452D-01 0.35528026D+05 0.35528026D+05 0.35528026D+05 0.11605819D+01  1  2  5  1  7  1        3 -.769468656738D-06 0.100000000000D+01
0.307193321270D-07 0.000000000000D+00 -.310752890023D-06 0.652552657659D-06 0.000000000000D+00  7 21 -4 -24 -13 13 23 -3 2 0.25134646D+00 0.14339452D-01 0.35528026D+05 0.35528026D+05 0.35528026D+05 0.11605819D+01  1  2  5  3  7  1        3 0.445756078548D-06 0.100000000000D+01
  </mgrwgt>
  </event>
  <event>
  8     66 0.29493621E-05 0.29553293E+03 0.75467711E-02 0.97407869E-01
        1 -1    0    0  501    0 0.00000000E+00 0.00000000E+00 0.12269482E+04 0.12269483E+04 0.32000000E+00 0.0000E+00 0.9000E+01
       -2 -1    0    0    0  501 0.00000000E+00 0.00000000E+00 -.17709129E+03 0.17709158E+03 0.32000000E+00 0.0000E+00 0.9000E+01
       25  2    1    2    0    0 -.18284665E+03 -.18210411E+03 0.88004985E+02 0.40492965E+03 0.29937992E+03 0.0000E+00 0.0000E+00
       23  2    3    3    0    0 -.11539897E+03 -.16894157E+03 -.46481717E+02 0.22850865E+03 0.90539935E+02 0.0000E+00 0.0000E+00
      -24  1    1    2    0    0 0.18284665E+03 0.18210411E+03 0.96185196E+03 0.99911022E+03 0.80419002E+02 0.0000E+00 0.9000E+01
      -13  1    4    4    0    0 0.75181319E+00 -.83819450E+01 -.28281243E+02 0.29506984E+02 0.10565837E+00 0.0000E+00 0.9000E+01
       13  1    4    4    0    0 -.11615078E+03 -.16055962E+03 -.18200475E+02 0.19900167E+03 0.10565837E+00 0.0000E+00 0.9000E+01
       23  1    3    3    0    0 -.67447680E+02 -.13162546E+02 0.13448670E+03 0.17642099E+03 0.91188000E+02 0.0000E+00 0.9000E+01
#aMCatNLO 1  0  0  1  1 0.17850732D+03 0.00000000D+00  -5  7  0 0.00000000D+00 0.00000000D+00 0.00000000D+00 0.00000000D+00 0.00000000D+00
  <mgrwgt>
 0.1336557600D-02    4    2    0
 0.466135259417232D+03 0.000000000000000D+00 0.000000000000000D+00 0.466135259417232D+03
 0.466135259417232D+03 0.000000000000000D+00 0.000000000000000D+00 -.466135259417232D+03
 0.421533870605426D+03 0.182846651359595D+03 0.182104111631466D+03 0.323463727064905D+03
 0.762867957623068D+02 0.751972362672678D+00 -.838173776802728D+01 -.758212121852039D+02
 0.320201568625889D+03 -.116150944038514D+03 -.160559827362630D+03 -.251512513777593D+03
 0.114248283840843D+03 -.674476796837530D+02 -.131625465008086D+02 0.386999889789227D+01
 0.000000000000000D+00 0.000000000000000D+00 -.000000000000000D+00 -.000000000000000D+00
 0.514202348710987D+03 0.000000000000000D+00 0.000000000000000D+00 0.514202348710987D+03
 0.675775234180985D+03 0.000000000000000D+00 0.000000000000000D+00 -.675775234180985D+03
 0.451678557831054D+03 0.157503022041980D+03 0.260979537456282D+03 0.323463727064905D+03
 0.761006503517552D+02 -.367083567487198D+01 0.538309689439778D+01 -.758212121852039D+02
 0.303552424350214D+03 -.134254431195326D+03 -.104217452696695D+03 -.251512513777593D+03
 0.117874975739396D+03 -.741846953917537D+02 0.780465500366178D+01 0.386999889789227D+01
 0.240770974619553D+03 0.546069402199718D+02 -.169949836657647D+03 -.161572885469998D+03
0.113269872568D-03 0.000000000000D+00 0.000000000000D+00 0.482345434726D-05 0.000000000000D+00  7 1 -2 -24 -13 13 23 21 0 0.18876129D+00 0.27244839D-01 0.87339711D+05 0.87339711D+05 0.87339711D+05 0.11265785D+01  1  2  2  1  7  1        1 0.155886609190D-02 0.100000000000D+01
-.470395668257D-05 0.000000000000D+00 -.434986135303D-06 0.482345434726D-05 0.000000000000D+00  7 1 -2 -24 -13 13 23 21 2 0.18876129D+00 0.27244839D-01 0.87339711D+05 0.87339711D+05 0.87339711D+05 0.11265785D+01  1  2  3  1  7  1        1 -.821638156988D-04 0.100000000000D+01
0.677865781541D-05 0.000000000000D+00 0.000000000000D+00 0.482345434726D-05 0.000000000000D+00  7 1 -2 -24 -13 13 23 21 2 0.18876129D+00 0.27244839D-01 0.87339711D+05 0.87339711D+05 0.87339711D+05 0.11265785D+01  1  2 15  1  7  1        1 0.118402534083D-03 0.100000000000D+01
-.148020739925D-04 0.000000000000D+00 0.000000000000D+00 0.482345434726D-05 0.000000000000D+00  7 1 -2 -24 -13 13 23 21 2 0.18876129D+00 0.27244839D-01 0.87339711D+05 0.87339711D+05 0.87339711D+05 0.11265785D+01  1  2  4  1  7  1        1 -.258547210689D-03 0.100000000000D+01
  </mgrwgt>
  </event>
  <event>
  8     66 0.29493621E-05 0.38212595E+03 0.75467711E-02 0.93229309E-01
        1 -1    0    0  501    0 0.00000000E+00 0.00000000E+00 0.24634099E+04 0.24634099E+04 0.32000000E+00 0.0000E+00 0.9000E+01
       -2 -1    0    0    0  501 0.00000000E+00 0.00000000E+00 -.15292260E+03 0.15292293E+03 0.32000000E+00 0.0000E+00 0.9000E+01
       25  2    1    2    0    0 -.34025533E+02 -.53647469E+03 0.79061359E+03 0.10021934E+04 0.30059765E+03 0.0000E+00 0.0000E+00
       23  2    3    3    0    0 0.24073491E+02 -.43331102E+02 0.91881807E+02 0.14015660E+03 0.93511976E+02 0.0000E+00 0.0000E+00
      -24  1    1    2    0    0 0.34025533E+02 0.53647469E+03 0.15198737E+04 0.16141394E+04 0.80419002E+02 0.0000E+00 0.9000E+01
      -11  1    4    4    0    0 0.31258975E+02 -.37055209E+02 0.70712744E+00 0.48484142E+02 0.51099893E-03 0.0000E+00 0.9000E+01
       11  1    4    4    0    0 -.71854834E+01 -.62758934E+01 0.91174680E+02 0.91672462E+02 0.51099893E-03 0.0000E+00 0.9000E+01
       23  1    3    3    0    0 -.58099024E+02 -.49314359E+03 0.69873178E+03 0.86203681E+03 0.91188000E+02 0.0000E+00 0.9000E+01
#aMCatNLO 1  0  0  1  2 0.25927906D+02 0.00000000D+00  -5  7  0 0.00000000D+00 0.00000000D+00 0.00000000D+00 0.00000000D+00 0.00000000D+00
  <mgrwgt>
 0.1614887577D-02    9    2    0
 0.613768280984906D+03 0.000000000000000D+00 0.000000000000000D+00 0.613768280984906D+03
 0.613768280984906D+03 0.000000000000000D+00 0.000000000000000D+00 -.613768280984906D+03
 0.579597514464686D+03 0.340255332093952D+02 0.536474689674682D+03 0.201254150882762D+03
 0.102006610023694D+03 0.312589745423215D+02 -.370552085738754D+02 -.897504123479941D+02
 0.237774858852097D+02 -.718548338031923D+01 -.627589340070629D+01 0.217795965443686D+02
 0.522154951596222D+03 -.580990243713975D+02 -.493143587700101D+03 -.133283335079136D+03
 0.000000000000000D+00 0.000000000000000D+00 0.000000000000000D+00 0.000000000000000D+00
 0.629710943245397D+03 0.000000000000000D+00 0.000000000000000D+00 0.629710943245397D+03
 0.624538264266670D+03 0.000000000000000D+00 0.000000000000000D+00 -.624538264266670D+03
 0.568504915059173D+03 0.314256846138968D+02 0.524633029451133D+03 0.201254150882762D+03
 0.102652244339373D+03 0.307955297995969D+02 -.391660834860671D+02 -.897504123479941D+02
 0.239448105979881D+02 -.729354930048042D+01 -.676810664362737D+01 0.217795965443686D+02
 0.532708384780932D+03 -.604877354245222D+02 -.504023569216069D+03 -.133283335079136D+03
 0.264388527346001D+02 0.556007031150888D+01 0.253247298946305D+02 0.517267897872646D+01
0.167670952591D-03 0.000000000000D+00 0.000000000000D+00 0.177303640187D-05 0.000000000000D+00  7 1 -2 -24 -11 11 23 21 0 0.37898616D+00 0.23526581D-01 0.30603679D+06 0.30603679D+06 0.30603679D+06 0.10839123D+01  1  2  2  1  7  1        1 0.419885378283D-03 0.100000000000D+01
-.919281931855D-05 0.000000000000D+00 -.643900606726D-06 0.177303640187D-05 0.000000000000D+00  7 1 -2 -24 -11 11 23 21 2 0.37898616D+00 0.23526581D-01 0.30603679D+06 0.30603679D+06 0.30603679D+06 0.10839123D+01  1  2  3  1  7  1        1 -.270464293033D-04 0.100000000000D+01
0.107110232217D-04 0.000000000000D+00 0.000000000000D+00 0.177303640187D-05 0.000000000000D+00  7 1 -2 -24 -11 11 23 21 2 0.37898616D+00 0.23526581D-01 0.30603679D+06 0.30603679D+06 0.30603679D+06 0.10839123D+01  1  2 15  1  7  1        1 0.315131759140D-04 0.100000000000D+01
0.238792683937D-03 0.000000000000D+00 0.000000000000D+00 0.177303640187D-05 0.000000000000D+00  7 1 -2 -24 -11 11 23 21 2 0.39208306D+00 0.23526581D-01 0.32101100D+06 0.32101100D+06 0.32101100D+06 0.10823835D+01  1  2 12  1  7  1        1 0.609912136263D-03 0.100000000000D+01
-.207269809230D-03 0.000000000000D+00 0.000000000000D+00 0.177303640187D-05 0.000000000000D+00  7 1 -2 -24 -11 11 23 21 2 0.37898616D+00 0.23526581D-01 0.30603679D+06 0.30603679D+06 0.30603679D+06 0.10839123D+01  1  2  4  1  7  1        1 -.609813817478D-03 0.100000000000D+01
-.322567924994D-02 0.000000000000D+00 -.449520169520D-03 0.177303640187D-05 0.000000000000D+00  7 1 -2 -24 -11 11 23 21 2 0.39158717D+00 0.23526581D-01 0.30603679D+06 0.30603679D+06 0.30603679D+06 0.10839123D+01  1  2  5  1  7  1        1 -.832650592010D-02 0.100000000000D+01
0.323889000594D-02 0.000000000000D+00 0.449279818598D-03 0.177303640187D-05 0.000000000000D+00  7 1 -2 -24 -11 11 23 21 2 0.37898616D+00 0.23526581D-01 0.30603679D+06 0.30603679D+06 0.30603679D+06 0.10839123D+01  1  2  6  1  7  1        1 0.952922129012D-02 0.100000000000D+01
0.417680916661D-05 0.000000000000D+00 0.000000000000D+00 0.177303640187D-05 0.000000000000D+00  7 21 -2 -24 -11 11 23 -1 2 0.39208306D+00 0.23526581D-01 0.32101100D+06 0.32101100D+06 0.32101100D+06 0.10823835D+01  1  2 12  3  7  1        1 0.346762450465D-05 0.100000000000D+01
-.186739239314D-04 0.000000000000D+00 -.262645412373D-05 0.177303640187D-05 0.000000000000D+00  7 21 -2 -24 -11 11 23 -1 2 0.39158717D+00 0.23526581D-01 0.30603679D+06 0.30603679D+06 0.30603679D+06 0.10839123D+01  1  2  5  3  7  1        1 -.157458608731D-04 0.100000000000D+01
  </mgrwgt>
  </event>
  <event>
  8     66 0.29493621E-05 0.19134583E+03 0.75467711E-02 0.99703770E-01
        1 -1    0    0  501    0 0.00000000E+00 0.00000000E+00 0.27906860E+04 0.27906860E+04 0.32000000E+00 0.0000E+00 0.9000E+01
       -2 -1    0    0    0  501 0.00000000E+00 0.00000000E+00 -.52101574E+02 0.52102557E+02 0.32000000E+00 0.0000E+00 0.9000E+01
       25  2    1    2    0    0 0.18790838E+03 0.17741371E+03 0.91988736E+03 0.10040631E+04 0.30848784E+03 0.0000E+00 0.0000E+00
       23  2    3    3    0    0 0.45766109E+02 0.19154615E+03 0.37295040E+03 0.43147297E+03 0.91062942E+02 0.0000E+00 0.0000E+00
      -24  1    1    2    0    0 -.18790838E+03 -.17741371E+03 0.18186971E+04 0.18387255E+04 0.80419002E+02 0.0000E+00 0.9000E+01
      -11  1    4    4    0    0 0.18349908E+02 0.17915918E+03 0.27267550E+03 0.32678228E+03 0.51099893E-03 0.0000E+00 0.9000E+01
       11  1    4    4    0    0 0.27416201E+02 0.12386971E+02 0.10027489E+03 0.10469069E+03 0.51099893E-03 0.0000E+00 0.9000E+01
       23  1    3    3    0    0 0.14214227E+03 -.14132443E+02 0.54693696E+03 0.57259011E+03 0.91188000E+02 0.0000E+00 0.9000E+01
#aMCatNLO 1  0  0  1  2 0.38314403D+01 0.00000000D+00  -5  7  0 0.00000000D+00 0.00000000D+00 0.00000000D+00 0.00000000D+00 0.00000000D+00
  <mgrwgt>
 0.1922507823D-02   11    2    0
 0.381314251204406D+03 0.000000000000000D+00 0.000000000000000D+00 0.381314251204406D+03
 0.381314251204406D+03 0.000000000000000D+00 0.000000000000000D+00 -.381314251204406D+03
 0.323161737365455D+03 -.187908383572208D+03 -.177413708569281D+03 0.176581731607953D+03
 0.238947348571424D+03 0.183499077683903D+02 0.179159180724897D+03 -.157038543791608D+03
 0.301617627619232D+02 0.274162011971640D+02 0.123869706447716D+02 -.215564446714341D+01
 0.170357653710011D+03 0.142142274606653D+03 -.141324428003881D+02 -.173875433492024D+02
 0.000000000000000D+00 -.000000000000000D+00 -.000000000000000D+00 0.000000000000000D+00
 0.407250324661306D+03 0.000000000000000D+00 0.000000000000000D+00 0.407250324661306D+03
 0.381460590841969D+03 0.000000000000000D+00 0.000000000000000D+00 -.381460590841969D+03
 0.321951086222339D+03 -.186413181207604D+03 -.176788868144380D+03 0.176581731607953D+03
 0.239382485762002D+03 0.194585508974763D+02 0.179622479245713D+03 -.157038543791608D+03
 0.303132269232422D+02 0.275563663655973D+02 0.124455452333848D+02 -.215564446714341D+01
 0.170991328004999D+03 0.142933432038274D+03 -.138018205666088D+02 -.173875433492024D+02
 0.260727885906931D+02 -.353516809374365D+01 -.147733576810900D+01 0.257897338193363D+02
0.829032806790D-04 0.000000000000D+00 0.000000000000D+00 0.421330911570D-07 0.000000000000D+00  7 1 -2 -24 -11 11 23 21 0 0.42933639D+00 0.80157038D-02 0.10572281D+06 0.10572281D+06 0.10572281D+06 0.11197441D+01  1  2  2  1  7  1        1 0.723427810946D-03 0.100000000000D+01
-.446356788324D-05 0.000000000000D+00 -.318370426742D-06 0.421330911570D-07 0.000000000000D+00  7 1 -2 -24 -11 11 23 21 2 0.42933639D+00 0.80157038D-02 0.10572281D+06 0.10572281D+06 0.10572281D+06 0.11197441D+01  1  2  3  1  7  1        1 -.488363497141D-04 0.100000000000D+01
0.532946490387D-05 0.000000000000D+00 0.000000000000D+00 0.421330911570D-07 0.000000000000D+00  7 1 -2 -24 -11 11 23 21 2 0.42933639D+00 0.80157038D-02 0.10572281D+06 0.10572281D+06 0.10572281D+06 0.11197441D+01  1  2 15  1  7  1        1 0.583102169930D-04 0.100000000000D+01
0.532525656538D-03 0.000000000000D+00 0.000000000000D+00 0.421330911570D-07 0.000000000000D+00  7 1 -2 -24 -11 11 23 21 2 0.45861810D+00 0.80157038D-02 0.10694581D+06 0.10694581D+06 0.10694581D+06 0.11193366D+01  1  2 12  1  7  1        1 0.424096864565D-02 0.100000000000D+01
-.876916246136D-02 0.000000000000D+00 0.000000000000D+00 0.421330911570D-07 0.000000000000D+00  7 1 -2 -24 -11 11 23 21 2 0.42933639D+00 0.80157038D-02 0.10572281D+06 0.10572281D+06 0.10572281D+06 0.11197441D+01  1  2  4  1  7  1        1 -.959442974466D-01 0.100000000000D+01
-.920071485430D-02 0.000000000000D+00 -.103215147437D-03 0.421330911570D-07 0.000000000000D+00  7 1 -2 -24 -11 11 23 21 2 0.45858502D+00 0.80157038D-02 0.10572281D+06 0.10572281D+06 0.10572281D+06 0.11197441D+01  1  2  5  1  7  1        1 -.733901120169D-01 0.100000000000D+01
0.918778037449D-02 0.000000000000D+00 0.102991396742D-03 0.421330911570D-07 0.000000000000D+00  7 1 -2 -24 -11 11 23 21 2 0.42933639D+00 0.80157038D-02 0.10572281D+06 0.10572281D+06 0.10572281D+06 0.11197441D+01  1  2  6  1  7  1        1 0.100524438566D+00 0.100000000000D+01
0.825591552385D-02 0.000000000000D+00 0.000000000000D+00 0.421330911570D-07 0.192241906634D-07  7 1 -2 -24 -11 11 23 21 2 0.45853881D+00 0.80187801D-02 0.10694581D+06 0.10694581D+06 0.10694581D+06 0.11193366D+01  1  2 11  1  7  1        1 0.657679671868D-01 0.100000000000D+01
0.786841022779D-05 0.000000000000D+00 0.000000000000D+00 0.421330911570D-07 0.000000000000D+00  7 21 -2 -24 -11 11 23 -1 2 0.45861810D+00 0.80157038D-02 0.10694581D+06 0.10694581D+06 0.10694581D+06 0.11193366D+01  1  2 12  3  7  1        1 0.149257760449D-04 0.100000000000D+01
-.104957689980D-03 0.000000000000D+00 -.115844818549D-05 0.421330911570D-07 0.000000000000D+00  7 21 -2 -24 -11 11 23 -1 2 0.45858502D+00 0.80157038D-02 0.10572281D+06 0.10572281D+06 0.10572281D+06 0.11197441D+01  1  2  5  3  7  1        1 -.199581376112D-03 0.100000000000D+01
0.923400842743D-04 0.000000000000D+00 0.000000000000D+00 0.421330911570D-07 0.214921552788D-09  7 21 -2 -24 -11 11 23 -1 2 0.45853881D+00 0.80187801D-02 0.10694581D+06 0.10694581D+06 0.10694581D+06 0.11193366D+01  1  2 11  3  7  1        1 0.175296809653D-03 0.100000000000D+01
  </mgrwgt>
  </event>
  <event>
  8     66 0.29493621E-05 0.63048547E+02 0.75467711E-02 0.10686202E+00
        1 -1    0    0  501    0 0.00000000E+00 0.00000000E+00 0.10439794E+04 0.10439794E+04 0.32000000E+00 0.0000E+00 0.9000E+01
       -2 -1    0    0    0  501 0.00000000E+00 0.00000000E+00 -.43339256E+02 0.43340438E+02 0.32000000E+00 0.0000E+00 0.9000E+01
       25  2    1    2    0    0 -.38713972E+02 0.70247170E+02 0.75769613E+03 0.81913628E+03 0.30074471E+03 0.0000E+00 0.0000E+00
       23  2    3    3    0    0 -.11855892E+03 0.48600743E+02 0.20889666E+03 0.25669526E+03 0.76396309E+02 0.0000E+00 0.0000E+00
      -24  1    1    2    0    0 0.38713972E+02 -.70247170E+02 0.24294400E+03 0.26818359E+03 0.80419002E+02 0.0000E+00 0.9000E+01
      -13  1    4    4    0    0 -.37356375E+02 0.28984908E+02 0.14202386E+03 0.14968771E+03 0.10565837E+00 0.0000E+00 0.9000E+01
       13  1    4    4    0    0 -.81202543E+02 0.19615834E+02 0.66872800E+02 0.10700755E+03 0.10565837E+00 0.0000E+00 0.9000E+01
       23  1    3    3    0    0 0.79844946E+02 0.21646428E+02 0.54879947E+03 0.56244102E+03 0.91188000E+02 0.0000E+00 0.9000E+01
#aMCatNLO 1  0  0  1  2 0.17278219D+02 0.00000000D+00  -5  7  0 0.00000000D+00 0.00000000D+00 0.00000000D+00 0.00000000D+00 0.00000000D+00
  <mgrwgt>
 0.5547977787D-02    9    2    0
 0.212710975866374D+03 0.000000000000000D+00 0.000000000000000D+00 0.212710975866374D+03
 0.212710975866374D+03 0.000000000000000D+00 0.000000000000000D+00 -.212710975866374D+03
 0.114008822556044D+03 0.387140056372899D+02 -.702472306339621D+02 -.986651012363350D+01
 0.485249981280559D+02 -.373562940812284D+02 0.289849342247602D+02 0.109112934077923D+02
 0.116204336434260D+03 -.812026136778941D+02 0.196158350788256D+02 -.807762486883721D+02
 0.146683794614387D+03 0.798449021218326D+02 0.216464613303763D+02 0.797314654042133D+02
 0.000000000000000D+00 0.000000000000000D+00 0.000000000000000D+00 0.000000000000000D+00
 0.223208530620949D+03 0.000000000000000D+00 0.000000000000000D+00 0.223208530620949D+03
 0.220116801413111D+03 0.000000000000000D+00 0.000000000000000D+00 -.220116801413111D+03
 0.114380547070065D+03 0.348593078085752D+02 -.728228963360012D+02 -.986651012363350D+01
 0.491724772216509D+02 -.390052072802882D+02 0.278831489847291D+02 0.109112934077923D+02
 0.118599683535714D+03 -.851655763474503D+02 0.169678280287268D+02 -.807762486883721D+02
 0.143619970802980D+03 0.749452288311975D+02 0.183725547865542D+02 0.797314654042133D+02
 0.175526534036503D+02 0.143662469879657D+02 0.959936453599108D+01 0.309172920783799D+01
0.122573375587D-04 0.000000000000D+00 0.000000000000D+00 0.208936492118D-08 0.000000000000D+00  7 1 -2 -24 -13 13 23 21 0 0.16061231D+00 0.66676726D-02 0.33768421D+05 0.33768421D+05 0.33768421D+05 0.11625977D+01  1  2  2  1  7  1        1 0.212869312500D-02 0.100000000000D+01
-.663243509364D-06 0.000000000000D+00 -.470714036564D-07 0.208936492118D-08 0.000000000000D+00  7 1 -2 -24 -13 13 23 21 2 0.16061231D+00 0.66676726D-02 0.33768421D+05 0.33768421D+05 0.33768421D+05 0.11625977D+01  1  2  3  1  7  1        1 -.155685750736D-03 0.100000000000D+01
0.797242749288D-06 0.000000000000D+00 0.000000000000D+00 0.208936492118D-08 0.000000000000D+00  7 1 -2 -24 -13 13 23 21 2 0.16061231D+00 0.66676726D-02 0.33768421D+05 0.33768421D+05 0.33768421D+05 0.11625977D+01  1  2 15  1  7  1        1 0.187139917978D-03 0.100000000000D+01
0.289165051154D-04 0.000000000000D+00 0.000000000000D+00 0.208936492118D-08 0.000000000000D+00  7 1 -2 -24 -13 13 23 21 2 0.17121724D+00 0.66676726D-02 0.37147516D+05 0.37147516D+05 0.37147516D+05 0.11588217D+01  1  2 12  1  7  1        1 0.602235351377D-02 0.100000000000D+01
-.249859925150D-04 0.000000000000D+00 0.000000000000D+00 0.208936492118D-08 0.000000000000D+00  7 1 -2 -24 -13 13 23 21 2 0.16061231D+00 0.66676726D-02 0.33768421D+05 0.33768421D+05 0.33768421D+05 0.11625977D+01  1  2  4  1  7  1        1 -.586506003853D-02 0.100000000000D+01
-.114368453926D-03 0.000000000000D+00 -.208073345971D-04 0.208936492118D-08 0.000000000000D+00  7 1 -2 -24 -13 13 23 21 2 0.17248449D+00 0.66676726D-02 0.33768421D+05 0.33768421D+05 0.33768421D+05 0.11625977D+01  1  2  5  1  7  1        1 -.236468885789D-01 0.100000000000D+01
0.115610998920D-03 0.000000000000D+00 0.207545368927D-04 0.208936492118D-08 0.000000000000D+00  7 1 -2 -24 -13 13 23 21 2 0.16061231D+00 0.66676726D-02 0.33768421D+05 0.33768421D+05 0.33768421D+05 0.11625977D+01  1  2  6  1  7  1        1 0.271378232973D-01 0.100000000000D+01
0.337810695402D-06 0.000000000000D+00 0.000000000000D+00 0.208936492118D-08 0.000000000000D+00  7 21 -2 -24 -13 13 23 -1 2 0.17121724D+00 0.66676726D-02 0.37147516D+05 0.37147516D+05 0.37147516D+05 0.11588217D+01  1  2 12  3  7  1        1 0.890435904191D-04 0.100000000000D+01
-.134217793051D-05 0.000000000000D+00 -.250778310361D-06 0.208936492118D-08 0.000000000000D+00  7 21 -2 -24 -13 13 23 -1 2 0.17248449D+00 0.66676726D-02 0.33768421D+05 0.33768421D+05 0.33768421D+05 0.11625977D+01  1  2  5  3  7  1        1 -.349441289174D-03 0.100000000000D+01
  </mgrwgt>
  </event>
  <event>
  8     66 0.29493621E-05 0.35450636E+03 0.75467711E-02 0.89779186E-01
        1 -1    0    0  501    0 0.00000000E+00 0.00000000E+00 0.89929307E+03 0.89929313E+03 0.32000000E+00 0.0000E+00 0.9000E+01
       -2 -1    0    0    0  501 0.00000000E+00 0.00000000E+00 -.16482003E+03 0.16482034E+03 0.32000000E+00 0.0000E+00 0.9000E+01
       25  2    1    2    0    0 0.18397358E+03 0.22396531E+03 0.60917847E+03 0.73827197E+03 0.29990058E+03 0.0000E+00 0.0000E+00
       23  2    3    3    0    0 0.39365257E+02 0.22422741E+03 0.38021235E+03 0.45252318E+03 0.91587331E+02 0.0000E+00 0.0000E+00
      -24  1    1    2    0    0 -.18397358E+03 -.22396531E+03 0.12529457E+03 0.32584150E+03 0.80419002E+02 0.0000E+00 0.9000E+01
      -13  1    4    4    0    0 0.52155785E+02 0.10386188E+03 0.24422082E+03 0.27046503E+03 0.10565837E+00 0.0000E+00 0.9000E+01
       13  1    4    4    0    0 -.12790529E+02 0.12036554E+03 0.13599153E+03 0.18205814E+03 0.10565837E+00 0.0000E+00 0.9000E+01
       23  1    3    3    0    0 0.14460833E+03 -.26210812E+00 0.22896612E+03 0.28574880E+03 0.91188000E+02 0.0000E+00 0.9000E+01
#aMCatNLO 1  0  0  1  2 0.62569443D+03 0.00000000D+00  -5  7  0 0.00000000D+00 0.00000000D+00 0.00000000D+00 0.00000000D+00 0.00000000D+00
  <mgrwgt>
 0.8301298185D-03    5    2    0
 0.384995726323272D+03 0.000000000000000D+00 0.000000000000000D+00 0.384995726323272D+03
 0.384995726323272D+03 0.000000000000000D+00 0.000000000000000D+00 -.384995726323272D+03
 0.330791786412240D+03 -.183973584006184D+03 -.223965306849858D+03 -.137656281073547D+03
 0.140822212823394D+03 0.521558714586770D+02 0.103861857354385D+03 0.795196534434140D+02
 0.121882379238727D+03 -.127906148455048D+02 0.120365557565675D+03 0.142775030264757D+02
 0.176495074172182D+03 0.144608327393012D+03 -.262108070202260D+00 0.438591246036569D+02
 0.000000000000000D+00 -.000000000000000D+00 0.000000000000000D+00 0.000000000000000D+00
 0.839000224500277D+03 0.000000000000000D+00 0.000000000000000D+00 0.839000224500277D+03
 0.781490998840652D+03 0.000000000000000D+00 0.000000000000000D+00 -.781490998840652D+03
 0.389387030872172D+03 0.365864716987676D+02 -.353365564574013D+03 -.137656281073547D+03
 0.175301201346536D+03 0.148970990378544D+03 0.470614485052670D+02 0.795196534434140D+02
 0.985905978639548D+02 0.547308547452901D+02 0.807514237233685D+02 0.142775030264757D+02
 0.328880610438181D+03 0.299383345033623D+03 -.910669780088808D+02 0.438591246036569D+02
 0.628331782820086D+03 -.539671661856225D+03 0.316619670354259D+03 0.575092256596251D+02
0.301239059538D-04 0.000000000000D+00 0.000000000000D+00 0.537124641877D-05 0.000000000000D+00  7 1 -2 -24 -13 13 23 21 0 0.13835281D+00 0.25356956D-01 0.12567476D+06 0.12567476D+06 0.12567476D+06 0.11136675D+01  1  2  2  1  7  1        1 0.811093476258D-03 0.100000000000D+01
-.165969902428D-05 0.000000000000D+00 -.115683730669D-06 0.537124641877D-05 0.000000000000D+00  7 1 -2 -24 -13 13 23 21 2 0.13835281D+00 0.25356956D-01 0.12567476D+06 0.12567476D+06 0.12567476D+06 0.11136675D+01  1  2  3  1  7  1        1 -.554242746804D-04 0.100000000000D+01
0.195201124759D-05 0.000000000000D+00 0.000000000000D+00 0.537124641877D-05 0.000000000000D+00  7 1 -2 -24 -13 13 23 21 2 0.13835281D+00 0.25356956D-01 0.12567476D+06 0.12567476D+06 0.12567476D+06 0.11136675D+01  1  2 15  1  7  1        1 0.651857993427D-04 0.100000000000D+01
0.545500582053D-05 0.000000000000D+00 -.914281417510D-05 0.537124641877D-05 0.000000000000D+00  7 1 -2 -24 -13 13 23 21 2 0.43423942D+00 0.25356956D-01 0.12567476D+06 0.12567476D+06 0.12567476D+06 0.11136675D+01  1  2  5  1  7  1        1 0.877933428574D-05 0.100000000000D+01
0.113104785741D-05 0.000000000000D+00 -.120000978675D-05 0.537124641877D-05 0.000000000000D+00  7 21 -2 -24 -13 13 23 -1 2 0.43423942D+00 0.25356956D-01 0.12567476D+06 0.12567476D+06 0.12567476D+06 0.11136675D+01  1  2  5  3  7  1        1 0.495483247022D-06 0.100000000000D+01
  </mgrwgt>
  </event>
  <event>
  8     66 0.29493621E-05 0.30245971E+03 0.75467711E-02 0.90503358E-01
        1 -1    0    0  501    0 0.00000000E+00 0.00000000E+00 0.33330239E+03 0.33330255E+03 0.32000000E+00 0.0000E+00 0.9000E+01
       -2 -1    0    0    0  501 0.00000000E+00 0.00000000E+00 -.40236876E+03 0.40236889E+03 0.32000000E+00 0.0000E+00 0.9000E+01
       25  2    1    2    0    0 0.24334586E+03 -.12420610E+03 0.80355810E+02 0.41405277E+03 0.30056327E+03 0.0000E+00 0.0000E+00
       23  2    3    3    0    0 0.40152569E+02 0.27244492E+02 -.52576734E+02 0.11370113E+03 0.88369360E+02 0.0000E+00 0.0000E+00
      -24  1    1    2    0    0 -.24334586E+03 0.12420610E+03 -.14942218E+03 0.32161866E+03 0.80419002E+02 0.0000E+00 0.9000E+01
      -11  1    4    4    0    0 0.27233772E+01 0.84995611E+01 0.24453535E+02 0.26031418E+02 0.51099893E-03 0.0000E+00 0.9000E+01
       11  1    4    4    0    0 0.37429192E+02 0.18744931E+02 -.77030269E+02 0.87669716E+02 0.51099893E-03 0.0000E+00 0.9000E+01
       23  1    3    3    0    0 0.20319329E+03 -.15145059E+03 0.13293254E+03 0.30035164E+03 0.91188000E+02 0.0000E+00 0.9000E+01
#aMCatNLO 1  0  0  1  2 0.62279647D+03 0.00000000D+00  -5  7  0 0.00000000D+00 0.00000000D+00 0.00000000D+00 0.00000000D+00 0.00000000D+00
  <mgrwgt>
 0.1415258308D-02    3    2    0
 0.366211107630251D+03 0.000000000000000D+00 0.000000000000000D+00 0.366211107630251D+03
 0.366211107630251D+03 0.000000000000000D+00 0.000000000000000D+00 -.366211107630251D+03
 0.308955153914842D+03 -.243345857249321D+03 0.124206101439323D+03 -.119756875798471D+03
 0.284528334064639D+02 0.272337718631022D+01 0.849956105265264D+01 0.270167430951494D+02
 0.807947984788964D+02 0.374291919302306D+02 0.187449311536835D+02 -.691048667514749D+02
 0.314219429460301D+03 0.203193288132780D+03 -.151450593645659D+03 0.161844999454797D+03
 0.000000000000000D+00 0.000000000000000D+00 -.000000000000000D+00 -.000000000000000D+00
 0.734988842755340D+03 0.000000000000000D+00 0.000000000000000D+00 0.734988842755340D+03
 0.862051575462154D+03 0.000000000000000D+00 0.000000000000000D+00 -.862051575462154D+03
 0.599599790695878D+03 -.408374447924199D+03 0.414658044694378D+03 -.119756875798471D+03
 0.424885338500599D+02 -.101623089555545D+02 0.311784954407720D+02 0.270167430951494D+02
 0.104191114201143D+03 0.382862143597948D+01 0.778822658095952D+02 -.691048667514749D+02
 0.215135008174664D+03 0.107042122670992D+03 0.177764035698361D+02 0.161844999454797D+03
 0.635625971295750D+03 0.307666012772782D+03 -.541495209514582D+03 -.127062732706813D+03
0.658330485488D-04 0.000000000000D+00 0.000000000000D+00 0.501563497875D-06 0.000000000000D+00  7 1 -2 -24 -11 11 23 21 0 0.51277313D-01 0.61902908D-01 0.91481879D+05 0.91481879D+05 0.91481879D+05 0.11249088D+01  1  2  2  1  7  1        1 0.139541258795D-02 0.100000000000D+01
-.349472072658D-05 0.000000000000D+00 -.252816240667D-06 0.501563497875D-06 0.000000000000D+00  7 1 -2 -24 -11 11 23 21 2 0.51277313D-01 0.61902908D-01 0.91481879D+05 0.91481879D+05 0.91481879D+05 0.11249088D+01  1  2  3  1  7  1        1 -.937358652000D-04 0.100000000000D+01
0.423462159375D-05 0.000000000000D+00 0.000000000000D+00 0.501563497875D-06 0.000000000000D+00  7 1 -2 -24 -11 11 23 21 2 0.51277313D-01 0.61902908D-01 0.91481879D+05 0.91481879D+05 0.91481879D+05 0.11249088D+01  1  2 15  1  7  1        1 0.113581584893D-03 0.100000000000D+01
  </mgrwgt>
  </event>
  <event>
  8     66 0.29493621E-05 0.20995258E+03 0.75467711E-02 0.99597707E-01
        1 -1    0    0  501    0 0.00000000E+00 0.00000000E+00 0.49286499E+03 0.49286510E+03 0.32000000E+00 0.0000E+00 0.9000E+01
       -2 -1    0    0    0  501 0.00000000E+00 0.00000000E+00 -.97055768E+02 0.97056296E+02 0.32000000E+00 0.0000E+00 0.9000E+01
       25  2    1    2    0    0 -.44805366E+02 0.69827337E+02 0.22802718E+03 0.38620245E+03 0.30045392E+03 0.0000E+00 0.0000E+00
       23  2    3    3    0    0 -.60600503E+02 0.14671033E+03 0.96003386E+02 0.20757990E+03 0.93147319E+02 0.0000E+00 0.0000E+00
      -24  1    1    2    0    0 0.44805366E+02 -.69827337E+02 0.16778205E+03 0.20371894E+03 0.80419002E+02 0.0000E+00 0.9000E+01
      -13  1    4    4    0    0 0.25004516E+02 0.26119649E+02 0.19011731E+02 0.40852404E+02 0.10565837E+00 0.0000E+00 0.9000E+01
       13  1    4    4    0    0 -.85605019E+02 0.12059068E+03 0.76991655E+02 0.16672750E+03 0.10565837E+00 0.0000E+00 0.9000E+01
       23  1    3    3    0    0 0.15795137E+02 -.76882994E+02 0.13202380E+03 0.17862255E+03 0.91188000E+02 0.0000E+00 0.9000E+01
#aMCatNLO 1  0  0  1  2 0.19593658D+03 0.00000000D+00  -5  7  0 0.00000000D+00 0.00000000D+00 0.00000000D+00 0.00000000D+00 0.00000000D+00
  <mgrwgt>
 0.9044136344D-03    5    2    0
 0.218713458264153D+03 0.000000000000000D+00 0.000000000000000D+00 0.218713458264153D+03
 0.218713458264153D+03 0.000000000000000D+00 0.000000000000000D+00 -.218713458264153D+03
 0.122919937281243D+03 0.448053760733853D+02 -.698273520325402D+02 0.419370267174537D+02
 0.378911764068042D+02 0.250046486345364D+02 0.261195281078470D+02 -.113260340622091D+02
 0.155185180666396D+03 -.856051552430726D+02 0.120590805579015D+03 -.470324920036719D+02
 0.121430622173864D+03 0.157951305351509D+02 -.768829816543221D+02 0.164214993484272D+02
 0.000000000000000D+00 -.000000000000000D+00 -.000000000000000D+00 0.000000000000000D+00
 0.403852870652675D+03 0.000000000000000D+00 0.000000000000000D+00 0.403852870652675D+03
 0.298104289157629D+03 0.000000000000000D+00 0.000000000000000D+00 -.298104289157629D+03
 0.128673345234024D+03 0.847668028318991D+02 -.338450697606210D+02 0.419370267174537D+02
 0.576709107272265D+02 0.401831037495515D+02 0.397865940937672D+02 -.113260340622091D+02
 0.177690973334183D+03 -.327332903237748D+02 0.168197973843187D+03 -.470324920036719D+02
 0.115269945970562D+03 0.533910962264372D+02 -.430306205270748D+02 0.164214993484272D+02
 0.222651984544308D+03 -.145607712484113D+03 -.131108877649259D+03 0.105748581495046D+03
0.623474299152D-05 0.000000000000D+00 0.000000000000D+00 0.218462262282D-06 0.000000000000D+00  7 1 -2 -24 -13 13 23 21 0 0.75825432D-01 0.14931705D-01 0.44080084D+05 0.44080084D+05 0.44080084D+05 0.11521405D+01  1  2  2  1  7  1        1 0.983789880826D-03 0.100000000000D+01
-.345670783361D-06 0.000000000000D+00 -.239430547330D-07 0.218462262282D-06 0.000000000000D+00  7 1 -2 -24 -13 13 23 21 2 0.75825432D-01 0.14931705D-01 0.44080084D+05 0.44080084D+05 0.44080084D+05 0.11521405D+01  1  2  3  1  7  1        1 -.724031371940D-04 0.100000000000D+01
0.412377843200D-06 0.000000000000D+00 0.000000000000D+00 0.218462262282D-06 0.000000000000D+00  7 1 -2 -24 -13 13 23 21 2 0.75825432D-01 0.14931705D-01 0.44080084D+05 0.44080084D+05 0.44080084D+05 0.11521405D+01  1  2 15  1  7  1        1 0.863753924086D-04 0.100000000000D+01
-.157396800837D-05 0.000000000000D+00 -.193612962373D-05 0.218462262282D-06 0.000000000000D+00  7 1 -2 -24 -13 13 23 21 2 0.17373698D+00 0.14931705D-01 0.44080084D+05 0.44080084D+05 0.44080084D+05 0.11521405D+01  1  2  5  1  7  1        1 -.919457516078D-04 0.100000000000D+01
-.194778191970D-07 0.000000000000D+00 -.174629745499D-06 0.218462262282D-06 0.000000000000D+00  7 21 -2 -24 -13 13 23 -1 2 0.17373698D+00 0.14931705D-01 0.44080084D+05 0.44080084D+05 0.44080084D+05 0.11521405D+01  1  2  5  3  7  1        1 -.140275000819D-05 0.100000000000D+01
  </mgrwgt>
  </event>
  <event>
  9     66 0.29493621E-05 0.29456417E+03 0.75467711E-02 0.10083091E+00
        1 -1    0    0  501    0 0.00000000E+00 0.00000000E+00 0.55882879E+03 0.55882888E+03 0.32000000E+00 0.0000E+00 0.9000E+01
       -2 -1    0    0    0  502 0.00000000E+00 0.00000000E+00 -.18498879E+03 0.18498907E+03 0.32000000E+00 0.0000E+00 0.9000E+01
       25  2    1    2    0    0 -.19400948E+03 0.96581308E+02 0.12621763E+03 0.39103890E+03 0.30002150E+03 0.0000E+00 0.0000E+00
       23  2    3    3    0    0 -.20797935E+03 0.12903863E+03 0.46441580E+02 0.26483230E+03 0.89849596E+02 0.0000E+00 0.0000E+00
      -24  1    1    2    0    0 0.20321857E+03 -.99757870E+02 0.22979063E+03 0.33244604E+03 0.80419002E+02 0.0000E+00 0.9000E+01
      -11  1    4    4    0    0 -.20810188E+03 0.11660660E+03 0.24742998E+02 0.23982432E+03 0.51099893E-03 0.0000E+00 0.9000E+01
       11  1    4    4    0    0 0.12253029E+00 0.12432036E+02 0.21698582E+02 0.25007979E+02 0.51099893E-03 0.0000E+00 0.9000E+01
       23  1    3    3    0    0 0.13969872E+02 -.32457325E+02 0.79776047E+02 0.12620659E+03 0.91188000E+02 0.0000E+00 0.9000E+01
       21  1    1    2  501  502 -.92090908E+01 0.31765622E+01 0.17831738E+02 0.20333010E+02 0.75000000E+00 0.0000E+00 0.9000E+01
#aMCatNLO 2  0  0  2  2 0.97415553D+01 0.00000000D+00  -5  7  0 0.00000000D+00 0.00000000D+00 0.00000000D+00 0.00000000D+00 0.00000000D+00
  <mgrwgt>
 0.2576406267D-03    2    2    0
 0.314878417754676D+03 0.000000000000000D+00 0.000000000000000D+00 0.314878417754676D+03
 0.314878417754676D+03 0.000000000000000D+00 0.000000000000000D+00 -.314878417754676D+03
 0.248546714504144D+03 0.199559038066159D+03 -.984955609325081D+02 0.760464866981616D+02
 0.265161727184981D+03 -.211952393863482D+03 0.117934785397920D+03 -.107136878302516D+03
 0.165244480474924D+02 -.118636589947606D+00 0.125152234591153D+02 0.107894620070793D+02
 0.995239457727334D+02 0.125119923872706D+02 -.319544479245275D+02 0.203009295972750D+02
 0.000000000000000D+00 -.000000000000000D+00 0.000000000000000D+00 0.000000000000000D+00
 0.326038881264877D+03 0.000000000000000D+00 0.000000000000000D+00 0.326038881264877D+03
 0.317049048104955D+03 0.000000000000000D+00 0.000000000000000D+00 -.317049048104955D+03
 0.251991472942164D+03 0.203218566350437D+03 -.997578700280351D+02 0.760464866981616D+02
 0.261499141083107D+03 -.208101877775026D+03 0.116606597417569D+03 -.107136878302516D+03
 0.164615619299495D+02 0.122530297066072D+00 0.124320359192553D+02 0.107894620070793D+02
 0.998799999227240D+02 0.139698719208822D+02 -.324573254684359D+02 0.203009295972750D+02
 0.132557534918868D+02 -.920909079335910D+01 0.317656215964662D+01 0.898983315992232D+01
-.108136311247D-04 0.000000000000D+00 0.000000000000D+00 0.225803164920D-05 0.000000000000D+00  7 1 -2 -24 -11 11 23 21 2 0.83028005D-01 0.28264055D-01 0.86768053D+05 0.86768053D+05 0.86768053D+05 0.11268157D+01  1  2  8  2  7  2       -2 -.665788482400D-03 0.100000000000D+01
0.159771248965D-04 0.000000000000D+00 0.000000000000D+00 0.225803164920D-05 0.160888059593D-06  7 1 -2 -24 -11 11 23 21 2 0.85970826D-01 0.28458895D-01 0.89627400D+05 0.89627400D+05 0.89627400D+05 0.11256458D+01  1  2  1  2  7  2       -2 0.923429109112D-03 0.100000000000D+01
  </mgrwgt>
  </event>
  <event>
  8     66 0.29493621E-05 0.34353836E+03 0.75467711E-02 0.92827132E-01
        3 -1    0    0  501    0 0.00000000E+00 0.00000000E+00 0.12074123E+04 0.12074124E+04 0.50000000E+00 0.0000E+00 0.9000E+01
       -4 -1    0    0    0  501 0.00000000E+00 0.00000000E+00 -.23155098E+03 0.23155617E+03 0.15500000E+01 0.0000E+00 0.9000E+01
       25  2    1    2    0    0 0.35604078E+03 0.23692699E+03 0.82852943E+03 0.97954141E+03 0.30023476E+03 0.0000E+00 0.0000E+00
       23  2    3    3    0    0 0.30865819E+03 0.24433820E+03 0.54732210E+03 0.68005375E+03 0.89110054E+02 0.0000E+00 0.0000E+00
      -24  1    1    2    0    0 -.35604078E+03 -.23692699E+03 0.14733190E+03 0.45942719E+03 0.80419002E+02 0.0000E+00 0.9000E+01
      -11  1    4    4    0    0 0.22491009E+03 0.12514317E+03 0.36659737E+03 0.44792744E+03 0.51099893E-03 0.0000E+00 0.9000E+01
       11  1    4    4    0    0 0.83748093E+02 0.11919503E+03 0.18072473E+03 0.23212631E+03 0.51099893E-03 0.0000E+00 0.9000E+01
       23  1    3    3    0    0 0.47382592E+02 -.74112021E+01 0.28120734E+03 0.29948765E+03 0.91188000E+02 0.0000E+00 0.9000E+01
#aMCatNLO 1  0  0  1  2 0.21683112D+03 0.00000000D+00  -5  7  0 0.00000000D+00 0.00000000D+00 0.00000000D+00 0.00000000D+00 0.00000000D+00
  <mgrwgt>
 0.4470063619D-04    9    2    0
 0.528754495136936D+03 0.000000000000000D+00 0.000000000000000D+00 0.528754495136936D+03
 0.528754495136936D+03 0.000000000000000D+00 0.000000000000000D+00 -.528754495136936D+03
 0.489192801986015D+03 -.356040777126114D+03 -.236926993117494D+03 -.223479185868155D+03
 0.271208401040831D+03 0.224910092074495D+03 0.125143168051387D+03 0.854905536783392D+02
 0.149086390537354D+03 0.837480929742244D+02 0.119195027205875D+03 0.317104754935635D+02
 0.148021396709673D+03 0.473825920773954D+02 -.741120213976694D+01 0.106278156696252D+03
 0.000000000000000D+00 -.000000000000000D+00 -.000000000000000D+00 0.000000000000000D+00
 0.863174206808841D+03 0.000000000000000D+00 0.000000000000000D+00 0.863174206808841D+03
 0.576097504325122D+03 0.000000000000000D+00 0.000000000000000D+00 -.576097504325122D+03
 0.411908151016593D+03 -.276480176389232D+03 -.191877238011766D+03 -.223479185868155D+03
 0.329622628153727D+03 0.277959062297857D+03 0.155181190578102D+03 0.854905536783392D+02
 0.179172605556583D+03 0.112730953151539D+03 0.135606049007603D+03 0.317104754935635D+02
 0.158806226221880D+03 0.744732192948692D+02 0.792837687929904D+01 0.106278156696252D+03
 0.359762100185181D+03 -.188683058355033D+03 -.106838378453238D+03 0.287076702483719D+03
0.977283067206D-04 0.000000000000D+00 0.000000000000D+00 0.276028586288D-05 0.000000000000D+00  7 3 -4 -24 -11 11 23 21 0 0.18575615D+00 0.35623635D-01 0.22148790D+06 0.22148790D+06 0.22148790D+06 0.10944376D+01  1  2  2  1  7  1        3 0.388857152697D-04 0.100000000000D+01
-.533981339638D-05 0.000000000000D+00 -.375302430261D-06 0.276028586288D-05 0.000000000000D+00  7 3 -4 -24 -11 11 23 21 2 0.18575615D+00 0.35623635D-01 0.22148790D+06 0.22148790D+06 0.22148790D+06 0.10944376D+01  1  2  3  1  7  1        3 -.254494165816D-05 0.100000000000D+01
0.625976053134D-05 0.000000000000D+00 0.000000000000D+00 0.276028586288D-05 0.000000000000D+00  7 3 -4 -24 -11 11 23 21 2 0.18575615D+00 0.35623635D-01 0.22148790D+06 0.22148790D+06 0.22148790D+06 0.10944376D+01  1  2 15  1  7  1        3 0.298338615299D-05 0.100000000000D+01
0.764537120661D-04 0.000000000000D+00 0.000000000000D+00 0.276028586288D-05 0.000000000000D+00  7 3 -4 -24 -11 11 23 21 2 0.30713994D+00 0.35623635D-01 0.34546987D+06 0.34546987D+06 0.34546987D+06 0.10800464D+01  1  2 12  1  7  1        3 0.295505902026D-05 0.100000000000D+01
-.103257484810D-03 0.000000000000D+00 0.000000000000D+00 0.276028586288D-05 0.000000000000D+00  7 3 -4 -24 -11 11 23 21 2 0.18575615D+00 0.35623635D-01 0.22148790D+06 0.22148790D+06 0.22148790D+06 0.10944376D+01  1  2  4  1  7  1        3 -.492122580143D-04 0.100000000000D+01
-.114884003256D-03 0.000000000000D+00 -.310025972461D-04 0.276028586288D-05 0.000000000000D+00  7 3 -4 -24 -11 11 23 21 2 0.31258504D+00 0.35623635D-01 0.22148790D+06 0.22148790D+06 0.22148790D+06 0.10944376D+01  1  2  5  1  7  1        3 -.413927638321D-05 0.100000000000D+01
0.118391913023D-03 0.000000000000D+00 0.272307459392D-04 0.276028586288D-05 0.000000000000D+00  7 3 -4 -24 -11 11 23 21 2 0.18575615D+00 0.35623635D-01 0.22148790D+06 0.22148790D+06 0.22148790D+06 0.10944376D+01  1  2  6  1  7  1        3 0.564252885026D-04 0.100000000000D+01
0.433027071448D-05 0.000000000000D+00 0.000000000000D+00 0.276028586288D-05 0.000000000000D+00  7 21 -4 -24 -11 11 23 -3 2 0.30713994D+00 0.35623635D-01 0.34546987D+06 0.34546987D+06 0.34546987D+06 0.10800464D+01  1  2 12  3  7  1        3 0.354221041681D-05 0.100000000000D+01
-.522708121926D-05 0.000000000000D+00 -.180497822761D-05 0.276028586288D-05 0.000000000000D+00  7 21 -4 -24 -11 11 23 -3 2 0.31258504D+00 0.35623635D-01 0.22148790D+06 0.22148790D+06 0.22148790D+06 0.10944376D+01  1  2  5  3  7  1        3 -.419454712092D-05 0.100000000000D+01
  </mgrwgt>
  </event>
  <event>
  8     66 0.29493621E-05 0.50370387E+03 0.75467711E-02 0.89448641E-01
        1 -1    0    0  501    0 0.00000000E+00 0.00000000E+00 0.12376395E+04 0.12376396E+04 0.32000000E+00 0.0000E+00 0.9000E+01
       -2 -1    0    0    0  501 0.00000000E+00 0.00000000E+00 -.24715480E+03 0.24715501E+03 0.32000000E+00 0.0000E+00 0.9000E+01
       25  2    1    2    0    0 0.46790475E+03 0.11071301E+03 0.30588995E+03 0.64436050E+03 0.30073172E+03 0.0000E+00 0.0000E+00
       23  2    3    3    0    0 0.36534273E+03 0.59162992E+02 0.31908816E+03 0.49716738E+03 0.91556425E+02 0.0000E+00 0.0000E+00
      -24  1    1    2    0    0 -.46790475E+03 -.11071301E+03 0.68459478E+03 0.84043409E+03 0.80419002E+02 0.0000E+00 0.9000E+01
      -13  1    4    4    0    0 0.37711461E+02 0.21774954E+02 0.75643949E+02 0.87282994E+02 0.10565837E+00 0.0000E+00 0.9000E+01
       13  1    4    4    0    0 0.32763127E+03 0.37388038E+02 0.24344421E+03 0.40988438E+03 0.10565837E+00 0.0000E+00 0.9000E+01
       23  1    3    3    0    0 0.10256202E+03 0.51550014E+02 -.13198205E+02 0.14719312E+03 0.91188000E+02 0.0000E+00 0.9000E+01
#aMCatNLO 1  0  0  1  1 0.51359831D+03 0.00000000D+00  -5  7  0 0.00000000D+00 0.00000000D+00 0.00000000D+00 0.00000000D+00 0.00000000D+00
  <mgrwgt>
 0.9355046135D-03    5    2    0
 0.553072093015370D+03 0.000000000000000D+00 0.000000000000000D+00 0.553072093015370D+03
 0.553072093015370D+03 0.000000000000000D+00 0.000000000000000D+00 -.553072093015370D+03
 0.515114856499675D+03 -.467904748784867D+03 -.110713006721550D+03 0.166384721773228D+03
 0.494263995521656D+02 0.377110750965407D+02 0.217749335756049D+02 0.233815323606341D+02
 0.332205115650992D+03 0.327631654285604D+03 0.373880587106374D+02 -.402476215522985D+02
 0.209397814327909D+03 0.102562019402722D+03 0.515500144353078D+02 -.149518632581564D+03
 0.000000000000000D+00 0.000000000000000D+00 0.000000000000000D+00 0.000000000000000D+00
 0.914860205974031D+03 0.000000000000000D+00 0.000000000000000D+00 0.914860205974031D+03
 0.825942973257459D+03 0.000000000000000D+00 0.000000000000000D+00 -.825942973257459D+03
 0.769346502879608D+03 -.688759320321759D+03 -.288710146287009D+03 0.166384721773228D+03
 0.345167980450941D+02 0.232776016382667D+02 0.101423150081527D+02 0.233815323606341D+02
 0.236930382504722D+03 0.229772597900787D+03 -.414811808792830D+02 -.402476215522985D+02
 0.178771068489456D+03 0.358189666260998D+02 -.224136691321328D+01 -.149518632581564D+03
 0.521238427312610D+03 0.399890154156605D+03 0.322290379071353D+03 0.889172327165720D+02
0.133135093772D-03 0.000000000000D+00 0.000000000000D+00 0.495835367343D-05 0.000000000000D+00  7 1 -2 -24 -13 13 23 21 0 0.19040610D+00 0.38023835D-01 0.25371759D+06 0.25371759D+06 0.25371759D+06 0.10899772D+01  1  2  2  1  7  1        1 0.958148247743D-03 0.100000000000D+01
-.731777590367D-05 0.000000000000D+00 -.511273815359D-06 0.495835367343D-05 0.000000000000D+00  7 1 -2 -24 -13 13 23 21 2 0.19040610D+00 0.38023835D-01 0.25371759D+06 0.25371759D+06 0.25371759D+06 0.10899772D+01  1  2  3  1  7  1        1 -.625682589315D-04 0.100000000000D+01
0.844584854789D-05 0.000000000000D+00 0.000000000000D+00 0.495835367343D-05 0.000000000000D+00  7 1 -2 -24 -13 13 23 21 2 0.19040610D+00 0.38023835D-01 0.25371759D+06 0.25371759D+06 0.25371759D+06 0.10899772D+01  1  2 15  1  7  1        1 0.722134765804D-04 0.100000000000D+01
-.267472672826D-04 0.000000000000D+00 -.372778072859D-04 0.495835367343D-05 0.000000000000D+00  7 1 -2 -24 -13 13 23 21 2 0.38441206D+00 0.38023835D-01 0.25371759D+06 0.25371759D+06 0.25371759D+06 0.10899772D+01  1  2  5  1  7  1        1 -.323802151050D-04 0.100000000000D+01
0.220356808765D-06 0.000000000000D+00 -.283282641573D-05 0.495835367343D-05 0.000000000000D+00  7 21 -2 -24 -13 13 23 -1 2 0.38441206D+00 0.38023835D-01 0.25371759D+06 0.25371759D+06 0.25371759D+06 0.10899772D+01  1  2  5  3  7  1        1 0.913631759612D-07 0.100000000000D+01
  </mgrwgt>
  </event>
  <event>
  8     66 0.29493621E-05 0.93957009E+02 0.75467711E-02 0.10161085E+00
        1 -1    0    0  501    0 0.00000000E+00 0.00000000E+00 0.97811175E+03 0.97811180E+03 0.32000000E+00 0.0000E+00 0.9000E+01
       -2 -1    0    0    0  501 0.00000000E+00 0.00000000E+00 -.87784670E+02 0.87785253E+02 0.32000000E+00 0.0000E+00 0.9000E+01
       25  2    1    2    0    0 0.45739078E+02 -.13168333E+03 0.27425179E+03 0.42914864E+03 0.29920219E+03 0.0000E+00 0.0000E+00
       23  2    3    3    0    0 0.12440663E+03 -.69479617E+02 0.72204052E+02 0.18584549E+03 0.94977335E+02 0.0000E+00 0.0000E+00
      -24  1    1    2    0    0 -.45739078E+02 0.13168333E+03 0.61607530E+03 0.63674842E+03 0.80419002E+02 0.0000E+00 0.9000E+01
      -13  1    4    4    0    0 0.28844283E+02 -.63339666E+02 0.69026184E+01 0.69939712E+02 0.10565837E+00 0.0000E+00 0.9000E+01
       13  1    4    4    0    0 0.95562343E+02 -.61399508E+01 0.65301433E+02 0.11590578E+03 0.10565837E+00 0.0000E+00 0.9000E+01
       23  1    3    3    0    0 -.78667548E+02 -.62203713E+02 0.20204773E+03 0.24330315E+03 0.91188000E+02 0.0000E+00 0.9000E+01
#aMCatNLO 1  0  0  2  1 0.95543204D+02 0.00000000D+00  -5  7  0 0.00000000D+00 0.00000000D+00 0.00000000D+00 0.00000000D+00 0.00000000D+00
  <mgrwgt>
 0.8856726038D-03    9    2    0
 0.293024838307541D+03 0.000000000000000D+00 0.000000000000000D+00 0.293024838307541D+03
 0.293024838307541D+03 0.000000000000000D+00 0.000000000000000D+00 -.293024838307541D+03
 0.222165032682920D+03 -.457390784063383D+02 0.131683330061093D+03 0.153158490078717D+03
 0.116718682251327D+03 0.288442083434424D+02 -.633397303534195D+02 -.936981376030628D+02
 0.111601438155322D+03 0.955624227711116D+02 -.613988443227391D+01 -.573149733630738D+02
 0.135564523525514D+03 -.786675527082156D+02 -.622037152753994D+02 -.214537911257997D+01
 0.000000000000000D+00 -.000000000000000D+00 0.000000000000000D+00 -.000000000000000D+00
 0.336063422735169D+03 0.000000000000000D+00 0.000000000000000D+00 0.336063422735169D+03
 0.355155414959046D+03 0.000000000000000D+00 0.000000000000000D+00 -.355155414959046D+03
 0.203582686739909D+03 -.455189773002612D+02 0.972069648133067D+02 0.153158490078717D+03
 0.128615650034785D+03 0.289710401629248D+02 -.832065098142332D+02 -.936981376030628D+02
 0.114175231733740D+03 0.956791437598613D+02 -.244229158624284D+02 -.573149733630738D+02
 0.147413200682634D+03 -.785212601803829D+02 -.851187960420406D+02 -.214537911257997D+01
 0.974320685031456D+02 -.609946442141956D+00 0.955412569053955D+02 -.190919922238771D+02
0.103573202288D-04 0.000000000000D+00 0.000000000000D+00 0.105812748976D-06 0.000000000000D+00  7 1 -2 -24 -13 13 23 21 0 0.15047878D+00 0.13505383D-01 0.53323883D+05 0.53323883D+05 0.53323883D+05 0.11448449D+01  1  2  2  2  7  2       -2 0.686625339719D-03 0.100000000000D+01
-.535715444763D-06 0.000000000000D+00 -.397748368238D-07 0.105812748976D-06 0.000000000000D+00  7 1 -2 -24 -13 13 23 21 2 0.15047878D+00 0.13505383D-01 0.53323883D+05 0.53323883D+05 0.53323883D+05 0.11448449D+01  1  2  3  2  7  2       -2 -.465478751466D-04 0.100000000000D+01
0.658489478917D-06 0.000000000000D+00 0.000000000000D+00 0.105812748976D-06 0.000000000000D+00  7 1 -2 -24 -13 13 23 21 2 0.15047878D+00 0.13505383D-01 0.53323883D+05 0.53323883D+05 0.53323883D+05 0.11448449D+01  1  2 15  2  7  2       -2 0.572156101706D-04 0.100000000000D+01
0.534781980651D-05 0.000000000000D+00 0.000000000000D+00 0.105812748976D-06 0.000000000000D+00  7 1 -2 -24 -13 13 23 21 2 0.15047878D+00 0.17184237D-01 0.79499889D+05 0.79499889D+05 0.79499889D+05 0.11299910D+01  1  2 12  2  7  2       -2 0.307148527699D-03 0.100000000000D+01
-.615072293381D-05 0.000000000000D+00 0.000000000000D+00 0.105812748976D-06 0.000000000000D+00  7 1 -2 -24 -13 13 23 21 2 0.15047878D+00 0.13505383D-01 0.53323883D+05 0.53323883D+05 0.53323883D+05 0.11448449D+01  1  2  4  2  7  2       -2 -.534431265671D-03 0.100000000000D+01
-.110242087367D-04 0.000000000000D+00 -.503946105174D-05 0.105812748976D-06 0.000000000000D+00  7 1 -2 -24 -13 13 23 21 2 0.15047878D+00 0.18793767D-01 0.53323883D+05 0.53323883D+05 0.53323883D+05 0.11448449D+01  1  2  5  2  7  2       -2 -.565026635515D-03 0.100000000000D+01
0.122762408129D-04 0.000000000000D+00 0.477631994143D-05 0.105812748976D-06 0.000000000000D+00  7 1 -2 -24 -13 13 23 21 2 0.15047878D+00 0.13505383D-01 0.53323883D+05 0.53323883D+05 0.53323883D+05 0.11448449D+01  1  2  6  2  7  2       -2 0.106667248483D-02 0.100000000000D+01
0.176092397632D-06 0.000000000000D+00 0.000000000000D+00 0.105812748976D-06 0.000000000000D+00  7 1 21 -24 -13 13 23 2 2 0.15047878D+00 0.17184237D-01 0.79499889D+05 0.79499889D+05 0.79499889D+05 0.11299910D+01  1  2 12  4  7  2       -2 0.134307126003D-03 0.100000000000D+01
-.325976954123D-06 0.000000000000D+00 -.208858029641D-06 0.105812748976D-06 0.000000000000D+00  7 1 21 -24 -13 13 23 2 2 0.15047878D+00 0.18793767D-01 0.53323883D+05 0.53323883D+05 0.53323883D+05 0.11448449D+01  1  2  5  4  7  2       -2 -.220290708250D-03 0.100000000000D+01
  </mgrwgt>
  </event>
  <event>
  8     66 0.29493621E-05 0.14535691E+03 0.75467711E-02 0.94351534E-01
        1 -1    0    0  501    0 0.00000000E+00 0.00000000E+00 0.10602173E+04 0.10602173E+04 0.32000000E+00 0.0000E+00 0.9000E+01
       -2 -1    0    0    0  501 0.00000000E+00 0.00000000E+00 -.28467108E+03 0.28467126E+03 0.32000000E+00 0.0000E+00 0.9000E+01
       25  2    1    2    0    0 0.42273833E+03 -.14200335E+03 0.12394758E+03 0.55121321E+03 0.29933318E+03 0.0000E+00 0.0000E+00
       23  2    3    3    0    0 0.23860379E+03 -.28943785E+02 0.17499482E+03 0.31119432E+03 0.91919562E+02 0.0000E+00 0.0000E+00
      -24  1    1    2    0    0 -.42273833E+03 0.14200335E+03 0.65159862E+03 0.79367539E+03 0.80419002E+02 0.0000E+00 0.9000E+01
      -11  1    4    4    0    0 0.18187662E+02 0.23517671E+02 0.11890323E+02 0.32019552E+02 0.51099893E-03 0.0000E+00 0.9000E+01
       11  1    4    4    0    0 0.22041613E+03 -.52461456E+02 0.16310450E+03 0.27917477E+03 0.51099893E-03 0.0000E+00 0.9000E+01
       23  1    3    3    0    0 0.18413454E+03 -.11305957E+03 -.51047240E+02 0.24001889E+03 0.91188000E+02 0.0000E+00 0.9000E+01
#aMCatNLO 1  0  0  2  1 0.75959872D+02 0.00000000D+00  -5  7  0 0.00000000D+00 0.00000000D+00 0.00000000D+00 0.00000000D+00 0.00000000D+00
  <mgrwgt>
 0.1405322789D-02    6    2    0
 0.549375422441125D+03 0.000000000000000D+00 0.000000000000000D+00 0.549375422441125D+03
 0.549375422441125D+03 0.000000000000000D+00 0.000000000000000D+00 -.549375422441125D+03
 0.511544673633766D+03 -.422738326030304D+03 0.142003352657602D+03 0.237356467592106D+03
 0.307997354733338D+02 0.181876624605472D+02 0.235176711390028D+02 -.804684929933805D+01
 0.226588118625653D+03 0.220416127390634D+03 -.524614562133243D+02 0.258880289053147D+01
 0.329818317149497D+03 0.184134536179123D+03 -.113059567583280D+03 -.231898421183300D+03
 0.000000000000000D+00 -.000000000000000D+00 0.000000000000000D+00 0.000000000000000D+00
 0.596127897183703D+03 0.000000000000000D+00 0.000000000000000D+00 0.596127897183703D+03
 0.582430466845208D+03 0.000000000000000D+00 0.000000000000000D+00 -.582430466845208D+03
 0.483029294720961D+03 -.394228773644657D+03 0.122864416846726D+03 0.237356467592106D+03
 0.310109978647625D+02 0.199594726990686D+02 0.223282255116072D+02 -.804684929933805D+01
 0.241802001515473D+03 0.233842572373075D+03 -.614748516258938D+02 0.258880289053147D+01
 0.345531085524829D+03 0.203493487636509D+03 -.126055553079542D+03 -.231898421183300D+03
 0.771849844028863D+02 -.630667590639961D+02 0.423377623471027D+02 0.136974303384947D+02
0.137353461467D-03 0.000000000000D+00 0.000000000000D+00 0.498777024914D-05 0.000000000000D+00  7 1 -2 -24 -11 11 23 21 0 0.16311037D+00 0.43795569D-01 0.22277240D+06 0.22277240D+06 0.22277240D+06 0.10942466D+01  1  2  2  2  7  2       -2 0.102107637048D-02 0.100000000000D+01
-.741687360608D-05 0.000000000000D+00 -.527473458029D-06 0.498777024914D-05 0.000000000000D+00  7 1 -2 -24 -11 11 23 21 2 0.16311037D+00 0.43795569D-01 0.22277240D+06 0.22277240D+06 0.22277240D+06 0.10942466D+01  1  2  3  2  7  2       -2 -.660191494287D-04 0.100000000000D+01
0.870592130621D-05 0.000000000000D+00 0.000000000000D+00 0.498777024914D-05 0.000000000000D+00  7 1 -2 -24 -11 11 23 21 2 0.16311037D+00 0.43795569D-01 0.22277240D+06 0.22277240D+06 0.22277240D+06 0.10942466D+01  1  2 15  2  7  2       -2 0.774932336933D-04 0.100000000000D+01
0.152255223095D-03 0.000000000000D+00 0.000000000000D+00 0.498777024914D-05 0.000000000000D+00  7 1 -2 -24 -11 11 23 21 2 0.16311037D+00 0.48166742D-01 0.26242042D+06 0.26242042D+06 0.26242042D+06 0.10888785D+01  1  2 12  2  7  2       -2 0.110946447530D-02 0.100000000000D+01
-.103214537092D-03 0.000000000000D+00 0.000000000000D+00 0.498777024914D-05 0.000000000000D+00  7 1 -2 -24 -11 11 23 21 2 0.16311037D+00 0.43795569D-01 0.22277240D+06 0.22277240D+06 0.22277240D+06 0.10942466D+01  1  2  4  2  7  2       -2 -.918734268562D-03 0.100000000000D+01
0.236837054786D-05 0.000000000000D+00 0.000000000000D+00 0.498777024914D-05 0.000000000000D+00  7 1 21 -24 -11 11 23 2 2 0.16311037D+00 0.48166742D-01 0.26242042D+06 0.26242042D+06 0.26242042D+06 0.10888785D+01  1  2 12  4  7  2       -2 0.182042127628D-03 0.100000000000D+01
  </mgrwgt>
  </event>
  <event>
  8     66 0.29493621E-05 0.15506395E+03 0.75467711E-02 0.89500157E-01
        1 -1    0    0  501    0 0.00000000E+00 0.00000000E+00 0.15310893E+04 0.15310893E+04 0.32000000E+00 0.0000E+00 0.9000E+01
       -2 -1    0    0    0  501 0.00000000E+00 0.00000000E+00 -.70512557E+02 0.70513283E+02 0.32000000E+00 0.0000E+00 0.9000E+01
       25  2    1    2    0    0 -.18800342E+02 -.70692512E+02 0.28110851E+03 0.41713506E+03 0.29938065E+03 0.0000E+00 0.0000E+00
       23  2    3    3    0    0 0.33934502E+02 0.21588741E+02 -.37261553E+01 0.99734940E+02 0.91189637E+02 0.0000E+00 0.0000E+00
      -24  1    1    2    0    0 0.18800342E+02 0.70692512E+02 0.11794682E+04 0.11844676E+04 0.80419002E+02 0.0000E+00 0.9000E+01
      -11  1    4    4    0    0 0.30261240E+02 0.35695589E+02 0.34947062E+02 0.58405607E+02 0.51099893E-03 0.0000E+00 0.9000E+01
       11  1    4    4    0    0 0.36732617E+01 -.14106848E+02 -.38673218E+02 0.41329333E+02 0.51099893E-03 0.0000E+00 0.9000E+01
       23  1    3    3    0    0 -.52734844E+02 -.92281253E+02 0.28483467E+03 0.31740012E+03 0.91188000E+02 0.0000E+00 0.9000E+01
#aMCatNLO 1  0  0  1  2 0.76513814D+03 0.00000000D+00  -5  7  0 0.00000000D+00 0.00000000D+00 0.00000000D+00 0.00000000D+00 0.00000000D+00
  <mgrwgt>
 0.9486419905D-03    5    2    0
 0.328575153308336D+03 0.000000000000000D+00 0.000000000000000D+00 0.328575153308336D+03
 0.328575153308336D+03 0.000000000000000D+00 0.000000000000000D+00 -.328575153308336D+03
 0.265300772035787D+03 0.188003420852222D+02 0.706925122170756D+02 0.242004957681307D+03
 0.646727331748800D+02 0.302612401896196D+02 0.356955890168169D+02 -.446390488612592D+02
 0.186682363094187D+03 0.367326171714305D+01 -.141068484956225D+02 -.186112354948049D+03
 0.140494438311819D+03 -.527348439919848D+02 -.922812527382700D+02 -.112535538719982D+02
 0.000000000000000D+00 -.000000000000000D+00 0.000000000000000D+00 0.000000000000000D+00
 0.106669211672942D+04 0.000000000000000D+00 0.000000000000000D+00 0.106669211672942D+04
 0.764547099197847D+03 0.000000000000000D+00 0.000000000000000D+00 -.764547099197847D+03
 0.385652786138869D+03 0.278941501258498D+03 -.767208891738471D+02 0.242004957681307D+03
 0.109424782031158D+03 0.998359876445437D+02 -.373012203113491D+01 -.446390488612592D+02
 0.298341681740470D+03 0.197503859408330D+03 -.123944245200160D+03 -.186112354948049D+03
 0.215185182456535D+03 0.894057245309777D+02 -.172827617443490D+03 -.112535538719982D+02
 0.822634783560232D+03 -.665687072842350D+03 0.377222873848633D+03 0.302145017531570D+03
0.227673073499D-04 0.000000000000D+00 0.000000000000D+00 0.262073842432D-05 0.000000000000D+00  7 1 -2 -24 -11 11 23 21 0 0.23555226D+00 0.10848144D-01 0.24044828D+05 0.24044828D+05 0.24044828D+05 0.11763586D+01  1  2  2  1  7  1        1 0.894285025407D-03 0.100000000000D+01
-.397654439872D-06 0.000000000000D+00 -.874324549932D-07 0.262073842432D-05 0.000000000000D+00  7 1 -2 -24 -11 11 23 21 2 0.23555226D+00 0.10848144D-01 0.24044828D+05 0.24044828D+05 0.24044828D+05 0.11763586D+01  1  2  3  1  7  1        1 -.216147184153D-04 0.100000000000D+01
0.139490746437D-05 0.000000000000D+00 0.000000000000D+00 0.262073842432D-05 0.000000000000D+00  7 1 -2 -24 -11 11 23 21 2 0.23555226D+00 0.10848144D-01 0.24044828D+05 0.24044828D+05 0.24044828D+05 0.11763586D+01  1  2 15  1  7  1        1 0.758209365584D-04 0.100000000000D+01
0.131279941372D-04 0.000000000000D+00 -.647659595956D-05 0.262073842432D-05 0.000000000000D+00  7 1 -2 -24 -11 11 23 21 2 0.84496764D+00 0.10848144D-01 0.24044828D+05 0.24044828D+05 0.24044828D+05 0.11763586D+01  1  2  5  1  7  1        1 0.150116158040D-06 0.100000000000D+01
0.215431875036D-05 0.000000000000D+00 -.971774985377D-06 0.262073842432D-05 0.000000000000D+00  7 21 -2 -24 -11 11 23 -1 2 0.84496764D+00 0.10848144D-01 0.24044828D+05 0.24044828D+05 0.24044828D+05 0.11763586D+01  1  2  5  3  7  1        1 0.630750736340D-09 0.100000000000D+01
  </mgrwgt>
  </event>
  <event>
  8     66 0.29493621E-05 0.17993357E+03 0.75467711E-02 0.85200391E-01
        1 -1    0    0  501    0 0.00000000E+00 0.00000000E+00 0.13182471E+04 0.13182472E+04 0.32000000E+00 0.0000E+00 0.9000E+01
       -2 -1    0    0    0  501 0.00000000E+00 0.00000000E+00 -.62491513E+02 0.62492332E+02 0.32000000E+00 0.0000E+00 0.9000E+01
       25  2    1    2    0    0 -.45008771E+02 -.92724211E+02 0.11955419E+04 0.12368073E+04 0.29958033E+03 0.0000E+00 0.0000E+00
       23  2    3    3    0    0 -.62325220E+01 0.72583162E+01 0.11236422E+03 0.14452109E+03 0.90383072E+02 0.0000E+00 0.0000E+00
      -24  1    1    2    0    0 0.45008771E+02 0.92724211E+02 0.60213766E+02 0.14393221E+03 0.80419002E+02 0.0000E+00 0.9000E+01
      -13  1    4    4    0    0 0.38425809E+02 -.11231321E+02 0.34367225E+02 0.52761754E+02 0.10565837E+00 0.0000E+00 0.9000E+01
       13  1    4    4    0    0 -.44658331E+02 0.18489637E+02 0.77996993E+02 0.91759334E+02 0.10565837E+00 0.0000E+00 0.9000E+01
       23  1    3    3    0    0 -.38776249E+02 -.99982528E+02 0.10831776E+04 0.10922862E+04 0.91188000E+02 0.0000E+00 0.9000E+01
#aMCatNLO 1  0  0  2  1 0.12362647D+04 0.00000000D+00  -5  7  0 0.00000000D+00 0.00000000D+00 0.00000000D+00 0.00000000D+00 0.00000000D+00
  <mgrwgt>
 0.8322589438D-03    5    2    0
 0.287018902550106D+03 0.000000000000000D+00 0.000000000000000D+00 0.287018902550106D+03
 0.287018902550106D+03 0.000000000000000D+00 0.000000000000000D+00 -.287018902550106D+03
 0.214479115936920D+03 0.450087709093125D+02 0.927242116404001D+02 -.170030898179159D+03
 0.517272604768988D+02 0.384259218802643D+02 -.112313609997992D+02 -.327569005583396D+02
 0.500848069519349D+02 -.446584438919906D+02 0.184896772096579D+02 -.131241423811678D+02
 0.257746621734458D+03 -.387762488975863D+02 -.999825278502589D+02 0.215911941118667D+03
 0.000000000000000D+00 -.000000000000000D+00 0.000000000000000D+00 -.000000000000000D+00
 0.890099130687042D+03 0.000000000000000D+00 0.000000000000000D+00 0.890099130687042D+03
 0.251336443463981D+04 0.000000000000000D+00 0.000000000000000D+00 -.251336443463981D+04
 0.521066825733293D+03 0.477613677562399D+03 -.895437859100718D+02 -.170030898179159D+03
 0.208479180623690D+03 0.191464062376622D+03 -.757104156478955D+02 -.327569005583396D+02
 0.148319427991135D+02 -.647822580458615D+01 0.240333193292231D+01 -.131241423811678D+02
 0.618659030245760D+03 0.476674063293964D+03 -.317155506693191D+03 0.215911941118667D+03
 0.204042658592500D+04 -.113927357742840D+04 0.480006376318236D+03 -.162326530395277D+04
0.122412090220D-04 0.000000000000D+00 0.000000000000D+00 0.152996069548D-05 0.000000000000D+00  7 1 -2 -24 -13 13 23 21 0 0.20280732D+00 0.96141449D-02 0.32376090D+05 0.32376090D+05 0.32376090D+05 0.11642770D+01  1  2  2  2  7  2       -2 0.793465198467D-03 0.100000000000D+01
-.499768167319D-06 0.000000000000D+00 -.470094658287D-07 0.152996069548D-05 0.000000000000D+00  7 1 -2 -24 -13 13 23 21 2 0.20280732D+00 0.96141449D-02 0.32376090D+05 0.32376090D+05 0.32376090D+05 0.11642770D+01  1  2  3  2  7  2       -2 -.439121566259D-04 0.100000000000D+01
0.764898619850D-06 0.000000000000D+00 0.000000000000D+00 0.152996069548D-05 0.000000000000D+00  7 1 -2 -24 -13 13 23 21 2 0.20280732D+00 0.96141449D-02 0.32376090D+05 0.32376090D+05 0.32376090D+05 0.11642770D+01  1  2 15  2  7  2       -2 0.672078579513D-04 0.100000000000D+01
0.970266176182D-04 0.000000000000D+00 -.251571085268D-04 0.152996069548D-05 0.000000000000D+00  7 1 -2 -24 -13 13 23 21 2 0.20280732D+00 0.29306143D+00 0.32376090D+05 0.32376090D+05 0.32376090D+05 0.11642770D+01  1  2  5  2  7  2       -2 0.501288225075D-05 0.100000000000D+01
0.255243589729D-04 0.000000000000D+00 -.853621042249D-05 0.152996069548D-05 0.000000000000D+00  7 1 21 -24 -13 13 23 2 2 0.20280732D+00 0.29306143D+00 0.32376090D+05 0.32376090D+05 0.32376090D+05 0.11642770D+01  1  2  5  4  7  2       -2 0.104851617426D-04 0.100000000000D+01
  </mgrwgt>
  </event>
  <event>
  8     66 0.29493621E-05 0.37816521E+03 0.75467711E-02 0.90079810E-01
        1 -1    0    0  501    0 0.00000000E+00 0.00000000E+00 0.10789691E+04 0.10789691E+04 0.32000000E+00 0.0000E+00 0.9000E+01
       -2 -1    0    0    0  501 0.00000000E+00 0.00000000E+00 -.42777973E+03 0.42777985E+03 0.32000000E+00 0.0000E+00 0.9000E+01
       25  2    1    2    0    0 -.83074840E+02 0.31033994E+03 -.27842655E+03 0.51990288E+03 0.29927471E+03 0.0000E+00 0.0000E+00
       23  2    3    3    0    0 -.15356399E+03 0.12548597E+03 -.10982712E+03 0.24443830E+03 0.91430082E+02 0.0000E+00 0.0000E+00
      -24  1    1    2    0    0 0.83074840E+02 -.31033994E+03 0.92961590E+03 0.98684612E+03 0.80419002E+02 0.0000E+00 0.9000E+01
      -13  1    4    4    0    0 -.13951339E+03 0.82489216E+02 -.50353843E+02 0.16971734E+03 0.10565837E+00 0.0000E+00 0.9000E+01
       13  1    4    4    0    0 -.14050607E+02 0.42996752E+02 -.59473276E+02 0.74720961E+02 0.10565837E+00 0.0000E+00 0.9000E+01
       23  1    3    3    0    0 0.70489152E+02 0.18485398E+03 -.16859943E+03 0.27546457E+03 0.91188000E+02 0.0000E+00 0.9000E+01
#aMCatNLO 1  0  0  2  1 0.60652658D+03 0.00000000D+00  -5  7  0 0.00000000D+00 0.00000000D+00 0.00000000D+00 0.00000000D+00 0.00000000D+00
  <mgrwgt>
 0.2524840978D-02    3    2    0
 0.679382983165434D+03 0.000000000000000D+00 0.000000000000000D+00 0.679382983165434D+03
 0.679382983165434D+03 0.000000000000000D+00 0.000000000000000D+00 -.679382983165434D+03
 0.648804452459494D+03 0.830748404540724D+02 -.310339944343259D+03 0.557913695301923D+03
 0.212333479144090D+03 -.139513553806858D+03 0.824892683207781D+02 -.137175053422688D+03
 0.111361276828513D+03 -.140504391246437D+02 0.429966997303564D+02 -.101760517636159D+03
 0.386266757898770D+03 0.704891524774294D+02 0.184853976292124D+03 -.318978124243076D+03
 0.000000000000000D+00 -.000000000000000D+00 0.000000000000000D+00 0.000000000000000D+00
 0.386810686129553D+04 0.000000000000000D+00 0.000000000000000D+00 0.386810686129553D+04
 0.773434207583552D+03 0.000000000000000D+00 0.000000000000000D+00 -.773434207583552D+03
 0.853283245095488D+03 0.194482473284871D+03 -.610355598471799D+03 0.557913695301923D+03
 0.176329874980912D+03 -.110686965105262D+03 0.486058484683130D+01 -.137175053422688D+03
 0.101776588677975D+03 0.175768253252592D+01 0.426151923077398D+00 -.101760517636159D+03
 0.356602038677618D+03 0.125586637308144D+03 0.364789724229586D+02 -.318978124243076D+03
 0.315354932144709D+04 -.211139828020279D+03 0.568589889278932D+03 0.309467265371198D+04
0.754024774550D-03 0.000000000000D+00 0.000000000000D+00 0.155378065860D-04 0.000000000000D+00  7 1 -2 -24 -13 13 23 21 0 0.16599526D+00 0.65812280D-01 0.14300892D+06 0.14300892D+06 0.14300892D+06 0.11091914D+01  1  2  2  2  7  2       -2 0.243736856888D-02 0.100000000000D+01
-.244089865894D-04 0.000000000000D+00 -.289565367355D-05 0.155378065860D-04 0.000000000000D+00  7 1 -2 -24 -13 13 23 21 2 0.16599526D+00 0.65812280D-01 0.14300892D+06 0.14300892D+06 0.14300892D+06 0.11091914D+01  1  2  3  2  7  2       -2 -.970729657186D-04 0.100000000000D+01
0.464039142332D-04 0.000000000000D+00 0.000000000000D+00 0.155378065860D-04 0.000000000000D+00  7 1 -2 -24 -13 13 23 21 2 0.16599526D+00 0.65812280D-01 0.14300892D+06 0.14300892D+06 0.14300892D+06 0.11091914D+01  1  2 15  2  7  2       -2 0.184545374675D-03 0.100000000000D+01
  </mgrwgt>
  </event>
  <event>
  8     66 0.29493621E-05 0.10012001E+04 0.75467711E-02 0.78951317E-01
        1 -1    0    0  501    0 0.00000000E+00 0.00000000E+00 0.29683024E+04 0.29683024E+04 0.32000000E+00 0.0000E+00 0.9000E+01
       -2 -1    0    0    0  501 0.00000000E+00 0.00000000E+00 -.37598590E+03 0.37598603E+03 0.32000000E+00 0.0000E+00 0.9000E+01
       25  2    1    2    0    0 0.28593433E+03 -.93901959E+03 0.18357126E+04 0.21023412E+04 0.29407764E+03 0.0000E+00 0.0000E+00
       23  2    3    3    0    0 0.14353191E+03 -.72517477E+03 0.12281824E+04 0.14364461E+04 0.92009183E+02 0.0000E+00 0.0000E+00
      -24  1    1    2    0    0 -.28593433E+03 0.93901959E+03 0.75660391E+03 0.12419472E+04 0.80419002E+02 0.0000E+00 0.9000E+01
      -13  1    4    4    0    0 0.38626367E+02 -.42824172E+03 0.70098373E+03 0.82235101E+03 0.10565837E+00 0.0000E+00 0.9000E+01
       13  1    4    4    0    0 0.10490554E+03 -.29693304E+03 0.52719866E+03 0.61409514E+03 0.10565837E+00 0.0000E+00 0.9000E+01
       23  1    3    3    0    0 0.14240242E+03 -.21384482E+03 0.60753019E+03 0.66589507E+03 0.91188000E+02 0.0000E+00 0.9000E+01
#aMCatNLO 1  0  0  2  1 0.23015161D+04 0.00000000D+00  -5  7  0 0.00000000D+00 0.00000000D+00 0.00000000D+00 0.00000000D+00 0.00000000D+00
  <mgrwgt>
 0.1935860282D-02    5    2    0
 0.105642798957449D+04 0.000000000000000D+00 0.000000000000000D+00 0.105642798957449D+04
 0.105642798957449D+04 0.000000000000000D+00 0.000000000000000D+00 -.105642798957449D+04
 0.103749285015473D+04 -.285934327199700D+03 0.939019589629339D+03 -.326202343628941D+03
 0.441585987591997D+03 0.386262799703444D+02 -.428241897037757D+03 0.100573717017693D+03
 0.325173690407396D+03 0.104905626632498D+03 -.296932869140823D+03 0.810161073972777D+02
 0.308603450994867D+03 0.142402420596858D+03 -.213844823450759D+03 0.144612519213970D+03
 0.000000000000000D+00 -.000000000000000D+00 0.000000000000000D+00 -.000000000000000D+00
 0.221929584401839D+04 0.000000000000000D+00 0.000000000000000D+00 0.221929584401839D+04
 0.357725776792122D+04 0.000000000000000D+00 0.000000000000000D+00 -.357725776792122D+04
 0.465570676848473D+03 -.713528960744293D+02 0.314308183825290D+03 -.326202343628941D+03
 0.110782160269744D+04 0.259823915431268D+03 -.107221507348961D+04 0.100573717017693D+03
 0.823860648922492D+03 0.268944889455328D+03 -.774500746042923D+03 0.810161073972777D+02
 0.727028843319275D+03 0.290252099496692D+03 -.644279928058072D+03 0.144612519213970D+03
 0.267227184015193D+04 -.747668008308859D+03 0.217668756376532D+04 -.135796192390283D+04
0.103068101956D-01 0.000000000000D+00 0.000000000000D+00 0.299168094825D-06 0.000000000000D+00  7 1 -2 -24 -13 13 23 21 0 0.45666192D+00 0.57843996D-01 0.10024017D+07 0.10024017D+07 0.10024017D+07 0.10477946D+01  1  2  2  2  7  2       -2 0.192026518310D-02 0.100000000000D+01
-.570593395992D-03 0.000000000000D+00 -.395808649965D-04 0.299168094825D-06 0.000000000000D+00  7 1 -2 -24 -13 13 23 21 2 0.45666192D+00 0.57843996D-01 0.10024017D+07 0.10024017D+07 0.10024017D+07 0.10477946D+01  1  2  3  2  7  2       -2 -.116712129735D-03 0.100000000000D+01
0.646158895056D-03 0.000000000000D+00 0.000000000000D+00 0.299168094825D-06 0.000000000000D+00  7 1 -2 -24 -13 13 23 21 2 0.45666192D+00 0.57843996D-01 0.10024017D+07 0.10024017D+07 0.10024017D+07 0.10477946D+01  1  2 15  2  7  2       -2 0.132168688454D-03 0.100000000000D+01
0.259365939662D-01 0.000000000000D+00 -.963553472923D-02 0.299168094825D-06 0.000000000000D+00  7 1 -2 -24 -13 13 23 21 2 0.45666192D+00 0.80589333D+00 0.10024017D+07 0.10024017D+07 0.10024017D+07 0.10477946D+01  1  2  5  2  7  2       -2 0.134840042814D-06 0.100000000000D+01
0.575052879837D-02 0.000000000000D+00 -.289216147873D-02 0.299168094825D-06 0.000000000000D+00  7 1 21 -24 -13 13 23 2 2 0.45666192D+00 0.80589333D+00 0.10024017D+07 0.10024017D+07 0.10024017D+07 0.10477946D+01  1  2  5  4  7  2       -2 0.370040101945D-08 0.100000000000D+01
  </mgrwgt>
  </event>
  <event>
  8     66 0.29493621E-05 0.27589610E+03 0.75467711E-02 0.95069952E-01
        1 -1    0    0  501    0 0.00000000E+00 0.00000000E+00 0.14199453E+04 0.14199453E+04 0.32000000E+00 0.0000E+00 0.9000E+01
       -2 -1    0    0    0  501 0.00000000E+00 0.00000000E+00 -.16456925E+03 0.16456956E+03 0.32000000E+00 0.0000E+00 0.9000E+01
       25  2    1    2    0    0 0.19374429E+03 -.10270267E+03 0.12954150E+04 0.13475444E+04 0.29948463E+03 0.0000E+00 0.0000E+00
       23  2    3    3    0    0 0.19641276E+03 -.88109187E+02 0.54442384E+03 0.59089181E+03 0.80091230E+02 0.0000E+00 0.0000E+00
      -24  1    1    2    0    0 -.19374429E+03 0.10270267E+03 -.40038978E+02 0.23697052E+03 0.80419002E+02 0.0000E+00 0.9000E+01
      -13  1    4    4    0    0 0.12921291E+03 -.21068528E+02 0.26099507E+03 0.29199024E+03 0.10565837E+00 0.0000E+00 0.9000E+01
       13  1    4    4    0    0 0.67199852E+02 -.67040658E+02 0.28342877E+03 0.29890157E+03 0.10565837E+00 0.0000E+00 0.9000E+01
       23  1    3    3    0    0 -.26684682E+01 -.14593487E+02 0.75099120E+03 0.75665257E+03 0.91188000E+02 0.0000E+00 0.9000E+01
#aMCatNLO 1  0  0  2  1 0.37589692D+03 0.00000000D+00  -5  7  0 0.00000000D+00 0.00000000D+00 0.00000000D+00 0.00000000D+00 0.00000000D+00
  <mgrwgt>
 0.1933347825D-02    5    2    0
 0.483404181758335D+03 0.000000000000000D+00 0.000000000000000D+00 0.483404181758335D+03
 0.483404181758335D+03 0.000000000000000D+00 0.000000000000000D+00 -.483404181758335D+03
 0.440363681851923D+03 -.193744293781111D+03 0.102702673249738D+03 -.373320593959705D+03
 0.139651195843563D+03 0.129213018319121D+03 -.210684483092773D+02 0.486063049741412D+02
 0.121848623692366D+03 0.671997437154052D+02 -.670407382704910D+02 0.763990899975587D+02
 0.264944862128819D+03 -.266846825341425D+01 -.145934866699692D+02 0.248315198988005D+03
 0.000000000000000D+00 -.000000000000000D+00 0.000000000000000D+00 -.000000000000000D+00
 0.585929610234469D+03 0.000000000000000D+00 0.000000000000000D+00 0.585929610234469D+03
 0.104374639989299D+04 0.000000000000000D+00 0.000000000000000D+00 -.104374639989299D+04
 0.388272852475168D+03 -.467139838731544D+02 0.523271425849413D+02 -.373320593959705D+03
 0.200016368142035D+03 0.189482418870038D+03 -.417179527380054D+02 0.486063049741412D+02
 0.163899728557469D+03 0.117901911730600D+03 -.844123171049507D+02 0.763990899975587D+02
 0.285123398754249D+03 0.949336812026747D+02 -.480339390226385D+02 0.248315198988005D+03
 0.592363662198539D+03 -.355604027930159D+03 0.121837066280653D+03 -.457816789658521D+03
0.167988555676D-03 0.000000000000D+00 0.000000000000D+00 0.894862448799D-07 0.000000000000D+00  7 1 -2 -24 -13 13 23 21 0 0.21845315D+00 0.25318372D-01 0.76118661D+05 0.76118661D+05 0.76118661D+05 0.11315788D+01  1  2  2  2  7  2       -2 0.194796998084D-02 0.100000000000D+01
-.576367542647D-05 0.000000000000D+00 -.645120286197D-06 0.894862448799D-07 0.000000000000D+00  7 1 -2 -24 -13 13 23 21 2 0.21845315D+00 0.25318372D-01 0.76118661D+05 0.76118661D+05 0.76118661D+05 0.11315788D+01  1  2  3  2  7  2       -2 -.855798778473D-04 0.100000000000D+01
0.104035919900D-04 0.000000000000D+00 0.000000000000D+00 0.894862448799D-07 0.000000000000D+00  7 1 -2 -24 -13 13 23 21 2 0.21845315D+00 0.25318372D-01 0.76118661D+05 0.76118661D+05 0.76118661D+05 0.11315788D+01  1  2 15  2  7  2       -2 0.154474023223D-03 0.100000000000D+01
-.315837155912D-04 0.000000000000D+00 -.521415823913D-04 0.894862448799D-07 0.000000000000D+00  7 1 -2 -24 -13 13 23 21 2 0.21845315D+00 0.64786234D-01 0.76118661D+05 0.76118661D+05 0.76118661D+05 0.11315788D+01  1  2  5  2  7  2       -2 -.808226228773D-04 0.100000000000D+01
-.101455477432D-06 0.000000000000D+00 -.541324904339D-05 0.894862448799D-07 0.000000000000D+00  7 1 21 -24 -13 13 23 2 2 0.21845315D+00 0.64786234D-01 0.76118661D+05 0.76118661D+05 0.76118661D+05 0.11315788D+01  1  2  5  4  7  2       -2 -.269367817614D-05 0.100000000000D+01
  </mgrwgt>
  </event>
  <event>
  8     66 0.29493621E-05 0.15165557E+03 0.75467711E-02 0.95821064E-01
        1 -1    0    0  501    0 0.00000000E+00 0.00000000E+00 0.83722318E+03 0.83722324E+03 0.32000000E+00 0.0000E+00 0.9000E+01
       -2 -1    0    0    0  501 0.00000000E+00 0.00000000E+00 -.23937218E+03 0.23937239E+03 0.32000000E+00 0.0000E+00 0.9000E+01
       25  2    1    2    0    0 -.18906420E+03 -.29118051E+03 0.55122149E+03 0.71718933E+03 0.29997341E+03 0.0000E+00 0.0000E+00
       23  2    3    3    0    0 -.13329263E+03 -.17253735E+02 0.16328048E+03 0.23040414E+03 0.91438152E+02 0.0000E+00 0.0000E+00
      -24  1    1    2    0    0 0.18906420E+03 0.29118051E+03 0.46629515E+02 0.35940630E+03 0.80419002E+02 0.0000E+00 0.9000E+01
      -13  1    4    4    0    0 -.10807317E+03 0.21984175E+02 0.84841636E+02 0.13914463E+03 0.10565837E+00 0.0000E+00 0.9000E+01
       13  1    4    4    0    0 -.25219463E+02 -.39237910E+02 0.78438845E+02 0.91259511E+02 0.10565837E+00 0.0000E+00 0.9000E+01
       23  1    3    3    0    0 -.55771570E+02 -.27392678E+03 0.38794101E+03 0.48678519E+03 0.91188000E+02 0.0000E+00 0.9000E+01
#aMCatNLO 1  0  0  2  1 0.87946311D+02 0.00000000D+00  -5  7  0 0.00000000D+00 0.00000000D+00 0.00000000D+00 0.00000000D+00 0.00000000D+00
  <mgrwgt>
 0.1509330307D-02    9    2    0
 0.447669613611117D+03 0.000000000000000D+00 0.000000000000000D+00 0.447669613611117D+03
 0.447669613611117D+03 0.000000000000000D+00 0.000000000000000D+00 -.447669613611117D+03
 0.401029843869164D+03 0.189064199428603D+03 0.291180510117640D+03 -.183919435464032D+03
 0.110661861180541D+03 -.108073276672445D+03 0.219842566377206D+02 0.910531983563499D+01
 0.573579084798337D+02 -.252193526237146D+02 -.392379914666365D+02 0.333810416866502D+02
 0.326289613692696D+03 -.557715701324432D+02 -.273926775288724D+03 0.141433073941747D+03
 0.000000000000000D+00 -.000000000000000D+00 0.000000000000000D+00 -.000000000000000D+00
 0.473028672862665D+03 0.000000000000000D+00 0.000000000000000D+00 0.473028672862665D+03
 0.533154159985907D+03 0.000000000000000D+00 0.000000000000000D+00 -.533154159985907D+03
 0.409596992728988D+03 0.225947905115667D+03 0.276448306073113D+03 -.183919435464032D+03
 0.100535057681464D+03 -.984637687637124D+02 0.181459972046779D+02 0.910531983563499D+01
 0.567631002618264D+02 -.200268207346860D+02 -.413120086477169D+02 0.333810416866502D+02
 0.332753050239107D+03 -.257849788252898D+02 -.285904112530404D+03 0.141433073941747D+03
 0.106534631937187D+03 -.816723367919790D+02 0.326218179003297D+02 -.601254871232419D+02
0.709196408910D-04 0.000000000000D+00 0.000000000000D+00 0.131836245591D-04 0.000000000000D+00  7 1 -2 -24 -13 13 23 21 0 0.12880359D+00 0.36826510D-01 0.16295046D+06 0.16295046D+06 0.16295046D+06 0.11047249D+01  1  2  2  2  7  2       -2 0.110170362434D-02 0.100000000000D+01
-.388870853308D-05 0.000000000000D+00 -.272350094592D-06 0.131836245591D-04 0.000000000000D+00  7 1 -2 -24 -13 13 23 21 2 0.12880359D+00 0.36826510D-01 0.16295046D+06 0.16295046D+06 0.16295046D+06 0.11047249D+01  1  2  3  2  7  2       -2 -.737245208320D-04 0.100000000000D+01
0.460521639011D-05 0.000000000000D+00 0.000000000000D+00 0.131836245591D-04 0.000000000000D+00  7 1 -2 -24 -13 13 23 21 2 0.12880359D+00 0.36826510D-01 0.16295046D+06 0.16295046D+06 0.16295046D+06 0.11047249D+01  1  2 15  2  7  2       -2 0.873085161309D-04 0.100000000000D+01
0.103943867095D-03 0.000000000000D+00 0.000000000000D+00 0.131836245591D-04 0.000000000000D+00  7 1 -2 -24 -13 13 23 21 2 0.12880359D+00 0.44757169D-01 0.20302275D+06 0.20302275D+06 0.20302275D+06 0.10973254D+01  1  2 12  2  7  2       -2 0.133974944008D-02 0.100000000000D+01
-.105684683448D-03 0.000000000000D+00 0.000000000000D+00 0.131836245591D-04 0.000000000000D+00  7 1 -2 -24 -13 13 23 21 2 0.12880359D+00 0.36826510D-01 0.16295046D+06 0.16295046D+06 0.16295046D+06 0.11047249D+01  1  2  4  2  7  2       -2 -.200363503210D-02 0.100000000000D+01
-.193443483986D-03 0.000000000000D+00 -.463034288405D-04 0.131836245591D-04 0.000000000000D+00  7 1 -2 -24 -13 13 23 21 2 0.12880359D+00 0.45966507D-01 0.16295046D+06 0.16295046D+06 0.16295046D+06 0.11047249D+01  1  2  5  2  7  2       -2 -.241609363875D-02 0.100000000000D+01
0.199891403344D-03 0.000000000000D+00 0.451883976400D-04 0.131836245591D-04 0.000000000000D+00  7 1 -2 -24 -13 13 23 21 2 0.12880359D+00 0.36826510D-01 0.16295046D+06 0.16295046D+06 0.16295046D+06 0.11047249D+01  1  2  6  2  7  2       -2 0.378966379316D-02 0.100000000000D+01
0.291759275366D-05 0.000000000000D+00 0.000000000000D+00 0.131836245591D-04 0.000000000000D+00  7 1 21 -24 -13 13 23 2 2 0.12880359D+00 0.44757169D-01 0.20302275D+06 0.20302275D+06 0.20302275D+06 0.10973254D+01  1  2 12  4  7  2       -2 0.405076672447D-03 0.100000000000D+01
-.535074320586D-05 0.000000000000D+00 -.143288779339D-05 0.131836245591D-04 0.000000000000D+00  7 1 21 -24 -13 13 23 2 2 0.12880359D+00 0.45966507D-01 0.16295046D+06 0.16295046D+06 0.16295046D+06 0.11047249D+01  1  2  5  4  7  2       -2 -.720718547300D-03 0.100000000000D+01
  </mgrwgt>
  </event>
  <event>
  8     66 0.29493621E-05 0.34417372E+03 0.75467711E-02 0.95906985E-01
        1 -1    0    0  501    0 0.00000000E+00 0.00000000E+00 0.43814308E+03 0.43814319E+03 0.32000000E+00 0.0000E+00 0.9000E+01
       -2 -1    0    0    0  501 0.00000000E+00 0.00000000E+00 -.31426206E+03 0.31426223E+03 0.32000000E+00 0.0000E+00 0.9000E+01
       25  2    1    2    0    0 0.21690945E+03 -.20862940E+03 0.11728718E+03 0.44081814E+03 0.29998070E+03 0.0000E+00 0.0000E+00
       23  2    3    3    0    0 0.95853677E+01 -.10653966E+03 0.13137762E+03 0.19198209E+03 0.90302076E+02 0.0000E+00 0.0000E+00
      -24  1    1    2    0    0 -.21690945E+03 0.20862940E+03 0.65938366E+01 0.31158728E+03 0.80419002E+02 0.0000E+00 0.9000E+01
      -11  1    4    4    0    0 0.14351979E+02 -.11648432E+03 0.86573791E+02 0.14584100E+03 0.51099893E-03 0.0000E+00 0.9000E+01
       11  1    4    4    0    0 -.47666117E+01 0.99446612E+01 0.44803826E+02 0.46141085E+02 0.51099893E-03 0.0000E+00 0.9000E+01
       23  1    3    3    0    0 0.20732408E+03 -.10208974E+03 -.14090442E+02 0.24883605E+03 0.91188000E+02 0.0000E+00 0.9000E+01
#aMCatNLO 1  0  0  2  2 0.18479250D+03 0.00000000D+00  -5  7  0 0.00000000D+00 0.00000000D+00 0.00000000D+00 0.00000000D+00 0.00000000D+00
  <mgrwgt>
 0.7397412476D-03    4    2    0
 0.371068528427028D+03 0.000000000000000D+00 0.000000000000000D+00 0.371068528427028D+03
 0.371068528427028D+03 0.000000000000000D+00 0.000000000000000D+00 -.371068528427028D+03
 0.314797789271680D+03 -.216909452729756D+03 0.208629398229178D+03 -.453265450588799D+02
 0.133407585313159D+03 0.143519794848888D+02 -.116484323971659D+03 0.634271769261299D+02
 0.393006369059701D+02 -.476661174008513D+01 0.994466124895925D+01 0.377216540779647D+02
 0.254631045363247D+03 0.207324084984953D+03 -.102089735506479D+03 -.558222859452147D+02
 0.000000000000000D+00 -.000000000000000D+00 0.000000000000000D+00 0.000000000000000D+00
 0.576199969346593D+03 0.000000000000000D+00 0.000000000000000D+00 0.576199969346593D+03
 0.426449574308826D+03 0.000000000000000D+00 0.000000000000000D+00 -.426449574308826D+03
 0.250508404033931D+03 -.159670619610787D+03 0.169522983938430D+03 -.453265450588799D+02
 0.156794055824513D+03 0.437357072852142D+02 -.136559719820099D+03 0.634271769261299D+02
 0.381237600484952D+02 0.307282499189076D+01 0.458864254729282D+01 0.377216540779647D+02
 0.319371583791819D+03 0.265443456555847D+03 -.141797746643696D+03 -.558222859452147D+02
 0.237851739956662D+03 -.152581369222164D+03 0.104245839978073D+03 0.149750395037767D+03
0.356203649510D-04 0.000000000000D+00 0.000000000000D+00 0.313951556133D-05 0.000000000000D+00  7 1 -2 -24 -11 11 23 21 0 0.67406649D-01 0.48348031D-01 0.11845555D+06 0.11845555D+06 0.11845555D+06 0.11157355D+01  1  2  2  2  7  2       -2 0.856632560918D-03 0.100000000000D+01
-.196528821051D-05 0.000000000000D+00 -.136791580469D-06 0.313951556133D-05 0.000000000000D+00  7 1 -2 -24 -11 11 23 21 2 0.67406649D-01 0.48348031D-01 0.11845555D+06 0.11845555D+06 0.11845555D+06 0.11157355D+01  1  2  3  2  7  2       -2 -.588362461730D-04 0.100000000000D+01
0.231130029716D-05 0.000000000000D+00 0.000000000000D+00 0.313951556133D-05 0.000000000000D+00  7 1 -2 -24 -11 11 23 21 2 0.67406649D-01 0.48348031D-01 0.11845555D+06 0.11845555D+06 0.11845555D+06 0.11157355D+01  1  2 15  2  7  2       -2 0.691950587888D-04 0.100000000000D+01
-.425049503440D-05 0.000000000000D+00 0.000000000000D+00 0.313951556133D-05 0.000000000000D+00  7 1 -2 -24 -11 11 23 21 2 0.67406649D-01 0.48348031D-01 0.11845555D+06 0.11845555D+06 0.11845555D+06 0.11157355D+01  1  2  4  2  7  2       -2 -.127250125892D-03 0.100000000000D+01
  </mgrwgt>
  </event>
  <event>
  8     66 0.29493621E-05 0.28593738E+03 0.75467711E-02 0.99409547E-01
        1 -1    0    0  501    0 0.00000000E+00 0.00000000E+00 0.45995264E+03 0.45995275E+03 0.32000000E+00 0.0000E+00 0.9000E+01
       -2 -1    0    0    0  501 0.00000000E+00 0.00000000E+00 -.23520788E+03 0.23520810E+03 0.32000000E+00 0.0000E+00 0.9000E+01
       25  2    1    2    0    0 -.12196408E+03 -.17386933E+03 -.12632213E+02 0.36664780E+03 0.29860551E+03 0.0000E+00 0.0000E+00
       23  2    3    3    0    0 0.13507290E+02 -.15603054E+03 0.55219545E+02 0.18891252E+03 0.90059786E+02 0.0000E+00 0.0000E+00
      -24  1    1    2    0    0 0.12196408E+03 0.17386933E+03 0.23737697E+03 0.32851305E+03 0.80419002E+02 0.0000E+00 0.9000E+01
      -11  1    4    4    0    0 0.14492740E+00 0.11970913E+02 0.56760966E+01 0.13249220E+02 0.51099893E-03 0.0000E+00 0.9000E+01
       11  1    4    4    0    0 0.13362362E+02 -.16800146E+03 0.49543449E+02 0.17566330E+03 0.51099893E-03 0.0000E+00 0.9000E+01
       23  1    3    3    0    0 -.13547137E+03 -.17838789E+02 -.67851758E+02 0.17773527E+03 0.91188000E+02 0.0000E+00 0.9000E+01
#aMCatNLO 1  0  0  2  2 0.89079150D+02 0.00000000D+00  -5  7  0 0.00000000D+00 0.00000000D+00 0.00000000D+00 0.00000000D+00 0.00000000D+00
  <mgrwgt>
 0.1486924124D-02    4    2    0
 0.328914273207111D+03 0.000000000000000D+00 0.000000000000000D+00 0.328914273207111D+03
 0.328914273207111D+03 0.000000000000000D+00 0.000000000000000D+00 -.328914273207111D+03
 0.266057442903640D+03 0.121964082727263D+03 0.173869332949708D+03 0.138613002832253D+03
 0.120619058300451D+02 0.144927399123350D+00 0.119709127489319D+02 0.147167124702418D+01
 0.168705994438234D+03 0.133623624633564D+02 -.168001456807800D+03 -.765965660118877D+01
 0.211003203242303D+03 -.135471372589742D+03 -.178387888908397D+02 -.132425017478088D+03
 0.000000000000000D+00 -.000000000000000D+00 -.000000000000000D+00 0.000000000000000D+00
 0.629918673079442D+03 0.000000000000000D+00 0.000000000000000D+00 0.629918673079442D+03
 0.338573117460094D+03 0.000000000000000D+00 0.000000000000000D+00 -.338573117460094D+03
 0.296209626186215D+03 0.134693384509094D+03 0.209563962327300D+03 0.138613002832253D+03
 0.137054293011148D+02 0.728280405247393D+00 0.136067109809781D+02 0.147167124702418D+01
 0.149425581637525D+03 0.205646210710908D+02 -.147805380377938D+03 -.765965660118877D+01
 0.204491790057856D+03 -.126064879751528D+03 0.853824901412090D+01 -.132425017478088D+03
 0.304659363356826D+03 -.299214062339048D+02 -.839035419444610D+02 0.291345555619348D+03
0.389438599699D-04 0.000000000000D+00 0.000000000000D+00 0.414837152071D-06 0.000000000000D+00  7 1 -2 -24 -11 11 23 21 0 0.70761970D-01 0.36185853D-01 0.81760186D+05 0.81760186D+05 0.81760186D+05 0.11289704D+01  1  2  2  2  7  2       -2 0.151929532712D-02 0.100000000000D+01
-.211197092009D-05 0.000000000000D+00 -.149554676438D-06 0.414837152071D-06 0.000000000000D+00  7 1 -2 -24 -11 11 23 21 2 0.70761970D-01 0.36185853D-01 0.81760186D+05 0.81760186D+05 0.81760186D+05 0.11289704D+01  1  2  3  2  7  2       -2 -.105016195535D-03 0.100000000000D+01
0.254046585427D-05 0.000000000000D+00 0.000000000000D+00 0.414837152071D-06 0.000000000000D+00  7 1 -2 -24 -11 11 23 21 2 0.70761970D-01 0.36185853D-01 0.81760186D+05 0.81760186D+05 0.81760186D+05 0.11289704D+01  1  2 15  2  7  2       -2 0.126322789942D-03 0.100000000000D+01
-.107950918743D-05 0.000000000000D+00 0.000000000000D+00 0.414837152071D-06 0.000000000000D+00  7 1 -2 -24 -11 11 23 21 2 0.70761970D-01 0.36185853D-01 0.81760186D+05 0.81760186D+05 0.81760186D+05 0.11289704D+01  1  2  4  2  7  2       -2 -.536777977533D-04 0.100000000000D+01
  </mgrwgt>
  </event>
  <event>
  7     66 0.29493621E-05 0.17700086E+03 0.75467711E-02 0.10138415E+00
        1 -1    0    0  501    0 0.00000000E+00 0.00000000E+00 0.38109204E+03 0.38109217E+03 0.32000000E+00 0.0000E+00 0.9000E+01
       -2 -1    0    0    0  501 0.00000000E+00 0.00000000E+00 -.23977822E+03 0.23977843E+03 0.32000000E+00 0.0000E+00 0.9000E+01
       23  2    1    2    0    0 -.69012270E+02 0.13899490E+03 0.17960922E+03 0.25398408E+03 0.90366838E+02 0.0000E+00 0.0000E+00
      -24  1    1    2    0    0 -.36824749E+02 -.17120320E+03 -.92324835E+02 0.21367660E+03 0.80419002E+02 0.0000E+00 0.9000E+01
      -11  1    3    3    0    0 -.57197984E+02 0.74798116E+02 0.44954335E+02 0.10434203E+03 0.51099893E-03 0.0000E+00 0.9000E+01
       11  1    3    3    0    0 -.11814286E+02 0.64196788E+02 0.13465488E+03 0.14964205E+03 0.51099893E-03 0.0000E+00 0.9000E+01
       23  1    1    2    0    0 0.10583702E+03 0.32208298E+02 0.54029434E+02 0.15320992E+03 0.91188000E+02 0.0000E+00 0.9000E+01
#aMCatNLO 1  0  0  1  2 0.73711875D+02 0.00000000D+00  -5  7  0 0.00000000D+00 0.00000000D+00 0.00000000D+00 0.00000000D+00 0.00000000D+00
  <mgrwgt>
 0.2566295646D-02    9    2    0
 0.302287409854114D+03 0.000000000000000D+00 0.000000000000000D+00 0.302287409854114D+03
 0.302287409854114D+03 0.000000000000000D+00 0.000000000000000D+00 -.302287409854114D+03
 0.241016150304242D+03 -.368247489424550D+02 -.171203202714554D+03 -.144758315818853D+03
 0.966468173312092D+02 -.571979835824496D+02 0.747981164871036D+02 0.217770462720647D+02
 0.122201175835705D+03 -.118142860178876D+02 0.641967882333133D+02 0.103306932981497D+03
 0.144710676237073D+03 0.105837018542792D+03 0.322082979941377D+02 0.196743365652913D+02
 0.000000000000000D+00 -.000000000000000D+00 -.000000000000000D+00 0.000000000000000D+00
 0.350453899014413D+03 0.000000000000000D+00 0.000000000000000D+00 0.350453899014413D+03
 0.334101800507966D+03 0.000000000000000D+00 0.000000000000000D+00 -.334101800507966D+03
 0.223690794324679D+03 -.192061762481143D+02 -.149152634259173D+03 -.144758315818853D+03
 0.100134020215663D+03 -.497373731240858D+02 0.841354620533495D+02 0.217770462720647D+02
 0.128321846830160D+03 -.231613210075799D+01 0.760842263807114D+02 0.103306932981497D+03
 0.156905186295100D+03 0.117272270503644D+03 0.465201160137830D+02 0.196743365652913D+02
 0.755038518567779D+02 -.460125890306860D+02 -.575871701886705D+02 0.163520985064473D+02
0.346345768744D-04 0.000000000000D+00 0.000000000000D+00 0.228787154883D-08 0.000000000000D+00  7 1 -2 -24 -11 11 23 21 0 0.58629571D-01 0.36888984D-01 0.61381204D+05 0.61381204D+05 0.61381204D+05 0.11395427D+01  1  2  2  1  7  1        1 0.168299165879D-02 0.100000000000D+01
-.183154519236D-05 0.000000000000D+00 -.133005894691D-06 0.228787154883D-08 0.000000000000D+00  7 1 -2 -24 -11 11 23 21 2 0.58629571D-01 0.36888984D-01 0.61381204D+05 0.61381204D+05 0.61381204D+05 0.11395427D+01  1  2  3  1  7  1        1 -.115571541421D-03 0.100000000000D+01
0.223534440860D-05 0.000000000000D+00 0.000000000000D+00 0.228787154883D-08 0.000000000000D+00  7 1 -2 -24 -11 11 23 21 2 0.58629571D-01 0.36888984D-01 0.61381204D+05 0.61381204D+05 0.61381204D+05 0.11395427D+01  1  2 15  1  7  1        1 0.141051501206D-03 0.100000000000D+01
0.300598263709D-04 0.000000000000D+00 0.000000000000D+00 0.228787154883D-08 0.000000000000D+00  7 1 -2 -24 -11 11 23 21 2 0.70647671D-01 0.36888984D-01 0.82303489D+05 0.82303489D+05 0.82303489D+05 0.11287298D+01  1  2 12  1  7  1        1 0.144575002384D-02 0.100000000000D+01
-.291147477950D-04 0.000000000000D+00 0.000000000000D+00 0.228787154883D-08 0.000000000000D+00  7 1 -2 -24 -11 11 23 21 2 0.58629571D-01 0.36888984D-01 0.61381204D+05 0.61381204D+05 0.61381204D+05 0.11395427D+01  1  2  4  1  7  1        1 -.183715711453D-02 0.100000000000D+01
-.678785516057D-04 0.000000000000D+00 -.223833157097D-04 0.228787154883D-08 0.000000000000D+00  7 1 -2 -24 -11 11 23 21 2 0.74004406D-01 0.36888984D-01 0.61381204D+05 0.61381204D+05 0.61381204D+05 0.11395427D+01  1  2  5  1  7  1        1 -.313459769462D-02 0.100000000000D+01
0.717308737779D-04 0.000000000000D+00 0.217897499054D-04 0.228787154883D-08 0.000000000000D+00  7 1 -2 -24 -11 11 23 21 2 0.58629571D-01 0.36888984D-01 0.61381204D+05 0.61381204D+05 0.61381204D+05 0.11395427D+01  1  2  6  1  7  1        1 0.452625885757D-02 0.100000000000D+01
0.814916564640D-06 0.000000000000D+00 0.000000000000D+00 0.228787154883D-08 0.000000000000D+00  7 21 -2 -24 -11 11 23 -1 2 0.70647671D-01 0.36888984D-01 0.82303489D+05 0.82303489D+05 0.82303489D+05 0.11287298D+01  1  2 12  3  7  1        1 0.129282206317D-03 0.100000000000D+01
-.184587348473D-05 0.000000000000D+00 -.718702329051D-06 0.228787154883D-08 0.000000000000D+00  7 21 -2 -24 -11 11 23 -1 2 0.74004406D-01 0.36888984D-01 0.61381204D+05 0.61381204D+05 0.61381204D+05 0.11395427D+01  1  2  5  3  7  1        1 -.271712250704D-03 0.100000000000D+01
  </mgrwgt>
  </event>
  <event>
  8     66 0.29493621E-05 0.35250207E+03 0.75467711E-02 0.98034558E-01
        1 -1    0    0  501    0 0.00000000E+00 0.00000000E+00 0.43640933E+04 0.43640933E+04 0.32000000E+00 0.0000E+00 0.9000E+01
       -2 -1    0    0    0  501 0.00000000E+00 0.00000000E+00 -.34726939E+02 0.34728413E+02 0.32000000E+00 0.0000E+00 0.9000E+01
       25  2    1    2    0    0 0.25572701E+03 -.14181189E+03 0.16502192E+04 0.17025643E+04 0.29999193E+03 0.0000E+00 0.0000E+00
       23  2    3    3    0    0 -.10876389E+02 0.13789435E+02 0.29144901E+03 0.30619021E+03 0.92203454E+02 0.0000E+00 0.0000E+00
      -24  1    1    2    0    0 -.25572701E+03 0.14181189E+03 0.26791472E+04 0.26962574E+04 0.80419002E+02 0.0000E+00 0.9000E+01
      -11  1    4    4    0    0 -.33766139E+02 0.35011679E+02 0.89688202E+02 0.10202913E+03 0.51099893E-03 0.0000E+00 0.9000E+01
       11  1    4    4    0    0 0.22889750E+02 -.21222243E+02 0.20176080E+03 0.20416108E+03 0.51099893E-03 0.0000E+00 0.9000E+01
       23  1    3    3    0    0 0.26660340E+03 -.15560133E+03 0.13587702E+04 0.13963741E+04 0.91188000E+02 0.0000E+00 0.9000E+01
#aMCatNLO 1  0  0  2  2 0.44862256D+02 0.00000000D+00  -5  7  0 0.00000000D+00 0.00000000D+00 0.00000000D+00 0.00000000D+00 0.00000000D+00
  <mgrwgt>
 0.4435507498D-03    4    2    0
 0.389300487068945D+03 0.000000000000000D+00 0.000000000000000D+00 0.389300487068945D+03
 0.389300487068945D+03 0.000000000000000D+00 0.000000000000000D+00 -.389300487068945D+03
 0.335660724676149D+03 -.255727006356966D+03 0.141811891745014D+03 0.143854063950768D+03
 0.777225716873390D+02 -.337661394621416D+02 0.350116787406927D+02 -.606203623156055D+02
 0.315588523056030D+02 0.228897500490300D+02 -.212222434278118D+02 0.465154656329437D+01
 0.333658825468799D+03 0.266603395770077D+03 -.155601327057895D+03 -.878852481984571D+02
 0.000000000000000D+00 -.000000000000000D+00 0.000000000000000D+00 0.000000000000000D+00
 0.447389224118470D+03 0.000000000000000D+00 0.000000000000000D+00 0.447389224118470D+03
 0.398705389061835D+03 0.000000000000000D+00 0.000000000000000D+00 -.398705389061835D+03
 0.319965122711584D+03 -.242220074605758D+03 0.128630896522951D+03 0.143854063950768D+03
 0.750501083956458D+02 -.306187800778957D+02 0.319402684626219D+02 -.606203623156055D+02
 0.334091389155352D+02 0.242281936551406D+02 -.225283889760461D+02 0.465154656329437D+01
 0.351467993683929D+03 0.280718094304446D+03 -.169375423008719D+03 -.878852481984571D+02
 0.662022494736101D+02 -.321074332759328D+02 0.313326469991923D+02 0.486838350566349D+02
0.658320804260D-03 0.000000000000D+00 0.000000000000D+00 0.579269565842D-05 0.000000000000D+00  7 1 -2 -24 -11 11 23 21 0 0.67139909D+00 0.53427202D-02 0.12425771D+06 0.12425771D+06 0.12425771D+06 0.11140629D+01  1  2  2  2  7  2       -2 0.497720387198D-03 0.100000000000D+01
-.361349468278D-04 0.000000000000D+00 -.252812522821D-05 0.579269565842D-05 0.000000000000D+00  7 1 -2 -24 -11 11 23 21 2 0.67139909D+00 0.53427202D-02 0.12425771D+06 0.12425771D+06 0.12425771D+06 0.11140629D+01  1  2  3  2  7  2       -2 -.339074181739D-04 0.100000000000D+01
0.421201328929D-04 0.000000000000D+00 0.000000000000D+00 0.579269565842D-05 0.000000000000D+00  7 1 -2 -24 -11 11 23 21 2 0.67139909D+00 0.53427202D-02 0.12425771D+06 0.12425771D+06 0.12425771D+06 0.11140629D+01  1  2 15  2  7  2       -2 0.395236491241D-04 0.100000000000D+01
-.637134671274D-04 0.000000000000D+00 0.000000000000D+00 0.579269565842D-05 0.000000000000D+00  7 1 -2 -24 -11 11 23 21 2 0.67139909D+00 0.53427202D-02 0.12425771D+06 0.12425771D+06 0.12425771D+06 0.11140629D+01  1  2  4  2  7  2       -2 -.597858683311D-04 0.100000000000D+01
  </mgrwgt>
  </event>
  <event>
  8     66 0.29493621E-05 0.12002367E+03 0.75467711E-02 0.10430868E+00
        1 -1    0    0  501    0 0.00000000E+00 0.00000000E+00 0.18117404E+04 0.18117404E+04 0.32000000E+00 0.0000E+00 0.9000E+01
       -2 -1    0    0    0  501 0.00000000E+00 0.00000000E+00 -.25118339E+02 0.25120377E+02 0.32000000E+00 0.0000E+00 0.9000E+01
       25  2    1    2    0    0 0.11580251E+02 -.42139153E+02 0.99713014E+03 0.10420813E+04 0.29959144E+03 0.0000E+00 0.0000E+00
       23  2    3    3    0    0 -.84717309E+02 0.51624499E+02 0.55293452E+03 0.56912266E+03 0.91224474E+02 0.0000E+00 0.0000E+00
      -24  1    1    2    0    0 -.11580251E+02 0.42139153E+02 0.78949189E+03 0.79477951E+03 0.80419002E+02 0.0000E+00 0.9000E+01
      -11  1    4    4    0    0 0.14377734E+02 0.30380551E+01 0.19647271E+02 0.24534960E+02 0.51099893E-03 0.0000E+00 0.9000E+01
       11  1    4    4    0    0 -.99095043E+02 0.48586444E+02 0.53328725E+03 0.54458770E+03 0.51099893E-03 0.0000E+00 0.9000E+01
       23  1    3    3    0    0 0.96297560E+02 -.93763652E+02 0.44419561E+03 0.47295860E+03 0.91188000E+02 0.0000E+00 0.9000E+01
#aMCatNLO 1  0  0  1  2 0.75613399D+02 0.00000000D+00  -5  7  0 0.00000000D+00 0.00000000D+00 0.00000000D+00 0.00000000D+00 0.00000000D+00
  <mgrwgt>
 0.2387338821D-02    9    2    0
 0.213330275681227D+03 0.000000000000000D+00 0.000000000000000D+00 0.213330275681227D+03
 0.213330275681227D+03 0.000000000000000D+00 0.000000000000000D+00 -.213330275681227D+03
 0.115725966139909D+03 -.115802510068262D+02 0.421391529695358D+02 0.708200032354832D+02
 0.233559415368515D+02 0.143777340350446D+02 0.303805511644513D+01 -.181535393298328D+02
 0.111444641099795D+03 -.990950433813063D+02 0.485864435629285D+02 0.154737813421796D+02
 0.176134002585898D+03 0.962975603530879D+02 -.937636516489095D+02 -.681402452478300D+02
 0.000000000000000D+00 0.000000000000000D+00 -.000000000000000D+00 0.000000000000000D+00
 0.266549901009915D+03 0.000000000000000D+00 0.000000000000000D+00 0.266549901009915D+03
 0.245301288874962D+03 0.000000000000000D+00 0.000000000000000D+00 -.245301288874962D+03
 0.125119899318689D+03 -.211339812563545D+02 0.610381456888278D+02 0.708200032354832D+02
 0.230508419004846D+02 0.125368974075842D+02 0.667956027842076D+01 -.181535393298328D+02
 0.128788635676823D+03 -.108624473828094D+03 0.674373669121335D+02 0.154737813421796D+02
 0.156349533900502D+03 0.831088015842715D+02 -.676739202625051D+02 -.681402452478300D+02
 0.785422790883778D+02 0.341127560925927D+02 -.674811526168769D+02 0.212486121349530D+02
0.126138270336D-04 0.000000000000D+00 0.000000000000D+00 0.107370471929D-05 0.000000000000D+00  7 1 -2 -24 -11 11 23 21 0 0.27872945D+00 0.38645188D-02 0.35911381D+05 0.35911381D+05 0.35911381D+05 0.11601573D+01  1  2  2  1  7  1        1 0.151045013176D-02 0.100000000000D+01
-.688816484814D-06 0.000000000000D+00 -.484404171059D-07 0.107370471929D-05 0.000000000000D+00  7 1 -2 -24 -11 11 23 21 2 0.27872945D+00 0.38645188D-02 0.35911381D+05 0.35911381D+05 0.35911381D+05 0.11601573D+01  1  2  3  1  7  1        1 -.111018871238D-03 0.100000000000D+01
0.779805084343D-06 0.000000000000D+00 0.000000000000D+00 0.107370471929D-05 0.000000000000D+00  7 1 -2 -24 -11 11 23 21 2 0.27872945D+00 0.38645188D-02 0.35911381D+05 0.35911381D+05 0.35911381D+05 0.11601573D+01  1  2 15  1  7  1        1 0.125683810069D-03 0.100000000000D+01
0.630622831845D-05 0.000000000000D+00 0.000000000000D+00 0.107370471929D-05 0.000000000000D+00  7 1 -2 -24 -11 11 23 21 2 0.36489570D+00 0.38645188D-02 0.53255319D+05 0.53255319D+05 0.53255319D+05 0.11448937D+01  1  2 12  1  7  1        1 0.424783866646D-03 0.100000000000D+01
-.723633095329D-05 0.000000000000D+00 0.000000000000D+00 0.107370471929D-05 0.000000000000D+00  7 1 -2 -24 -11 11 23 21 2 0.27872945D+00 0.38645188D-02 0.35911381D+05 0.35911381D+05 0.35911381D+05 0.11601573D+01  1  2  4  1  7  1        1 -.116630381539D-02 0.100000000000D+01
-.151270036589D-04 0.000000000000D+00 -.531864935761D-05 0.107370471929D-05 0.000000000000D+00  7 1 -2 -24 -11 11 23 21 2 0.37022875D+00 0.38645188D-02 0.35911381D+05 0.35911381D+05 0.35911381D+05 0.11601573D+01  1  2  5  1  7  1        1 -.999227760610D-03 0.100000000000D+01
0.161875501695D-04 0.000000000000D+00 0.511130858041D-05 0.107370471929D-05 0.000000000000D+00  7 1 -2 -24 -11 11 23 21 2 0.27872945D+00 0.38645188D-02 0.35911381D+05 0.35911381D+05 0.35911381D+05 0.11601573D+01  1  2  6  1  7  1        1 0.260900194399D-02 0.100000000000D+01
0.225435979199D-06 0.000000000000D+00 0.000000000000D+00 0.107370471929D-05 0.000000000000D+00  7 21 -2 -24 -11 11 23 -1 2 0.36489570D+00 0.38645188D-02 0.53255319D+05 0.53255319D+05 0.53255319D+05 0.11448937D+01  1  2 12  3  7  1        1 0.626774234433D-05 0.100000000000D+01
-.452440567669D-06 0.000000000000D+00 -.197533436938D-06 0.107370471929D-05 0.000000000000D+00  7 21 -2 -24 -11 11 23 -1 2 0.37022875D+00 0.38645188D-02 0.35911381D+05 0.35911381D+05 0.35911381D+05 0.11601573D+01  1  2  5  3  7  1        1 -.122982264476D-04 0.100000000000D+01
  </mgrwgt>
  </event>
  <event>
  7     66 0.29493621E-05 0.23096115E+03 0.75467711E-02 0.95173556E-01
        1 -1    0    0  501    0 0.00000000E+00 0.00000000E+00 0.25281325E+03 0.25281345E+03 0.32000000E+00 0.0000E+00 0.9000E+01
       -2 -1    0    0    0  501 0.00000000E+00 0.00000000E+00 -.32215711E+03 0.32215727E+03 0.32000000E+00 0.0000E+00 0.9000E+01
       25  2    1    2    0    0 0.13614297E+03 0.60308094E+02 -.17191821E+03 0.37708013E+03 0.30076832E+03 0.0000E+00 0.0000E+00
      -24  1    1    2    0    0 -.13614297E+03 -.60308094E+02 0.10257434E+03 0.19789059E+03 0.80419002E+02 0.0000E+00 0.9000E+01
      -11  1    3    3    0    0 0.15073055E+03 0.47938180E+00 -.14386998E+03 0.20837107E+03 0.51099893E-03 0.0000E+00 0.9000E+01
       11  1    3    3    0    0 -.10546735E+02 0.48906954E+02 -.53573630E+02 0.73302508E+02 0.51099893E-03 0.0000E+00 0.9000E+01
       23  1    3    3    0    0 -.40408515E+01 0.10921758E+02 0.25525405E+02 0.95406556E+02 0.91188000E+02 0.0000E+00 0.9000E+01
#aMCatNLO 1  0  0  2  2 0.37660695D+03 0.00000000D+00  -5  7  0 0.00000000D+00 0.00000000D+00 0.00000000D+00 0.00000000D+00 0.00000000D+00
  <mgrwgt>
 0.1142003029D-02    5    2    0
 0.285386913632435D+03 0.000000000000000D+00 0.000000000000000D+00 0.285386913632435D+03
 0.285386913632435D+03 0.000000000000000D+00 0.000000000000000D+00 -.285386913632435D+03
 0.211807536349439D+03 -.136142968678404D+03 -.603080939360461D+02 0.127370492600447D+03
 0.192424316895069D+03 0.150730552408710D+03 0.479385456157047D+00 -.119612660252515D+03
 0.673327858934514D+02 -.105467295778396D+02 0.489069504309894D+02 -.450619656797841D+02
 0.992091881269108D+02 -.404085415246728D+01 0.109217580488997D+02 0.373041333318515D+02
 0.000000000000000D+00 -.000000000000000D+00 -.000000000000000D+00 -.000000000000000D+00
 0.418194078223567D+03 0.000000000000000D+00 0.000000000000000D+00 0.418194078223567D+03
 0.806742784723217D+03 0.000000000000000D+00 0.000000000000000D+00 -.806742784723217D+03
 0.155965270550875D+03 -.399683787759676D+02 -.610212883978380D+01 0.127370492600447D+03
 0.317332995362107D+03 0.284034862940268D+03 0.756124201921014D+02 -.119612660252515D+03
 0.904512417263562D+02 0.307146520816338D+02 0.721627086965136D+02 -.450619656797841D+02
 0.120074709530427D+03 0.533030781168878D+02 0.432419706354923D+02 0.373041333318515D+02
 0.541112645777018D+03 -.328084214362822D+03 -.184914970684323D+03 -.388548706499650D+03
0.232467649323D-04 0.000000000000D+00 0.000000000000D+00 0.100518498841D-08 0.000000000000D+00  7 1 -2 -24 -11 11 23 21 0 0.38894374D-01 0.49562661D-01 0.53343052D+05 0.53343052D+05 0.53343052D+05 0.11448312D+01  1  2  2  2  7  2       -2 0.110969118777D-02 0.100000000000D+01
-.122118167646D-05 0.000000000000D+00 -.892736983538D-07 0.100518498841D-08 0.000000000000D+00  7 1 -2 -24 -11 11 23 21 2 0.38894374D-01 0.49562661D-01 0.53343052D+05 0.53343052D+05 0.53343052D+05 0.11448312D+01  1  2  3  2  7  2       -2 -.764016635479D-04 0.100000000000D+01
0.149713206105D-05 0.000000000000D+00 0.000000000000D+00 0.100518498841D-08 0.000000000000D+00  7 1 -2 -24 -11 11 23 21 2 0.38894374D-01 0.49562661D-01 0.53343052D+05 0.53343052D+05 0.53343052D+05 0.11448312D+01  1  2 15  2  7  2       -2 0.936661450299D-04 0.100000000000D+01
0.145845925618D-05 0.000000000000D+00 -.786068401991D-05 0.100518498841D-08 0.000000000000D+00  7 1 -2 -24 -11 11 23 21 2 0.38894374D-01 0.18122341D+00 0.53343052D+05 0.53343052D+05 0.53343052D+05 0.11448312D+01  1  2  5  2  7  2       -2 0.426389480752D-05 0.100000000000D+01
0.424926063194D-06 0.000000000000D+00 -.120073399255D-05 0.100518498841D-08 0.000000000000D+00  7 1 21 -24 -11 11 23 2 2 0.38894374D-01 0.18122341D+00 0.53343052D+05 0.53343052D+05 0.53343052D+05 0.11448312D+01  1  2  5  4  7  2       -2 0.107834652855D-04 0.100000000000D+01
  </mgrwgt>
  </event>
  <event>
  8     66 0.29493621E-05 0.32756143E+03 0.75467711E-02 0.93548048E-01
        1 -1    0    0  501    0 0.00000000E+00 0.00000000E+00 0.45405826E+03 0.45405838E+03 0.32000000E+00 0.0000E+00 0.9000E+01
       -2 -1    0    0    0  501 0.00000000E+00 0.00000000E+00 -.27446556E+03 0.27446575E+03 0.32000000E+00 0.0000E+00 0.9000E+01
       25  2    1    2    0    0 -.23311195E+03 -.95647483E+02 -.27333036E+02 0.39270408E+03 0.29996629E+03 0.0000E+00 0.0000E+00
       23  2    3    3    0    0 -.80677271E+01 -.11480699E+03 -.24329867E+02 0.14911372E+03 0.91636376E+02 0.0000E+00 0.0000E+00
      -24  1    1    2    0    0 0.23311195E+03 0.95647483E+02 0.20692574E+03 0.33582004E+03 0.80419002E+02 0.0000E+00 0.9000E+01
      -13  1    4    4    0    0 0.34179044E+02 -.12538552E+02 -.78353109E+01 0.37240108E+02 0.10565837E+00 0.0000E+00 0.9000E+01
       13  1    4    4    0    0 -.42246771E+02 -.10226844E+03 -.16494556E+02 0.11187361E+03 0.10565837E+00 0.0000E+00 0.9000E+01
       23  1    3    3    0    0 -.22504423E+03 0.19159512E+02 -.30031695E+01 0.24359036E+03 0.91188000E+02 0.0000E+00 0.9000E+01
#aMCatNLO 1  0  0  1  1 0.36629016D+03 0.00000000D+00  -5  7  0 0.00000000D+00 0.00000000D+00 0.00000000D+00 0.00000000D+00 0.00000000D+00
  <mgrwgt>
 0.7506122922D-03    5    2    0
 0.353020487230506D+03 0.000000000000000D+00 0.000000000000000D+00 0.353020487230506D+03
 0.353020487230506D+03 0.000000000000000D+00 0.000000000000000D+00 -.353020487230506D+03
 0.293879048740370D+03 0.233111954623486D+03 0.956474826279966D+02 0.128093930428880D+03
 0.404189104253095D+02 0.341791456119660D+02 -.125384329155861D+02 -.175573923242195D+02
 0.119631871043931D+03 -.422468724911130D+02 -.102268561964124D+03 -.454766705903327D+02
 0.252111144251402D+03 -.225044227744339D+03 0.191595122517131D+02 -.650598675143276D+02
 0.000000000000000D+00 0.000000000000000D+00 0.000000000000000D+00 0.000000000000000D+00
 0.645521186471755D+03 0.000000000000000D+00 0.000000000000000D+00 0.645521186471755D+03
 0.533048641785422D+03 0.000000000000000D+00 0.000000000000000D+00 -.533048641785422D+03
 0.205798988573305D+03 0.138252015104158D+03 0.190875103233925D+02 0.128093930428880D+03
 0.358213850701158D+02 0.197055260418272D+02 -.242198647091561D+02 -.175573923242195D+02
 0.185150665164339D+03 -.100107436278740D+03 -.148966917282038D+03 -.454766705903327D+02
 0.368629700052268D+03 -.342886987583029D+03 -.759495345731574D+02 -.650598675143276D+02
 0.383169089397150D+03 0.285036882715784D+03 0.230048806240959D+03 0.112472544686333D+03
0.253900168546D-04 0.000000000000D+00 0.000000000000D+00 0.422891443828D-05 0.000000000000D+00  7 1 -2 -24 -13 13 23 21 0 0.69855141D-01 0.42225494D-01 0.10729649D+06 0.10729649D+06 0.10729649D+06 0.11192208D+01  1  2  2  1  7  1        1 0.755151656757D-03 0.100000000000D+01
-.140094786860D-05 0.000000000000D+00 -.975043500665D-07 0.422891443828D-05 0.000000000000D+00  7 1 -2 -24 -13 13 23 21 2 0.69855141D-01 0.42225494D-01 0.10729649D+06 0.10729649D+06 0.10729649D+06 0.11192208D+01  1  2  3  1  7  1        1 -.521944923009D-04 0.100000000000D+01
0.162465049630D-05 0.000000000000D+00 0.000000000000D+00 0.422891443828D-05 0.000000000000D+00  7 1 -2 -24 -13 13 23 21 2 0.69855141D-01 0.42225494D-01 0.10729649D+06 0.10729649D+06 0.10729649D+06 0.11192208D+01  1  2 15  1  7  1        1 0.605288817104D-04 0.100000000000D+01
-.178077360858D-05 0.000000000000D+00 -.792192307076D-05 0.422891443828D-05 0.000000000000D+00  7 1 -2 -24 -13 13 23 21 2 0.17361732D+00 0.42225494D-01 0.10729649D+06 0.10729649D+06 0.10729649D+06 0.11192208D+01  1  2  5  1  7  1        1 -.162628311971D-04 0.100000000000D+01
0.312759897739D-06 0.000000000000D+00 -.793177941319D-06 0.422891443828D-05 0.000000000000D+00  7 21 -2 -24 -13 13 23 -1 2 0.17361732D+00 0.42225494D-01 0.10729649D+06 0.10729649D+06 0.10729649D+06 0.11192208D+01  1  2  5  3  7  1        1 0.338907723686D-05 0.100000000000D+01
  </mgrwgt>
  </event>
  <event>
  8     66 0.29493621E-05 0.16726810E+03 0.75467711E-02 0.92352606E-01
        3 -1    0    0  501    0 0.00000000E+00 0.00000000E+00 0.25538028E+04 0.25538028E+04 0.50000000E+00 0.0000E+00 0.9000E+01
       -4 -1    0    0    0  501 0.00000000E+00 0.00000000E+00 -.92504365E+02 0.92517350E+02 0.15500000E+01 0.0000E+00 0.9000E+01
       25  2    1    2    0    0 0.42871496E+03 0.44790518E+02 0.11674315E+04 0.12801718E+04 0.30023441E+03 0.0000E+00 0.0000E+00
       23  2    3    3    0    0 0.32442625E+02 -.47686185E+02 0.18948825E+03 0.21702926E+03 0.88709682E+02 0.0000E+00 0.0000E+00
      -24  1    1    2    0    0 -.42871496E+03 -.44790518E+02 0.12938669E+04 0.13661484E+04 0.80419002E+02 0.0000E+00 0.9000E+01
      -11  1    4    4    0    0 0.58965639E+02 -.22792491E+02 0.15281844E+03 0.16537812E+03 0.51099893E-03 0.0000E+00 0.9000E+01
       11  1    4    4    0    0 -.26523014E+02 -.24893695E+02 0.36669804E+02 0.51651146E+02 0.51099893E-03 0.0000E+00 0.9000E+01
       23  1    3    3    0    0 0.39627234E+03 0.92476704E+02 0.97794328E+03 0.10631425E+04 0.91188000E+02 0.0000E+00 0.9000E+01
#aMCatNLO 1  0  0  1  2 0.24557570D+03 0.00000000D+00  -5  7  0 0.00000000D+00 0.00000000D+00 0.00000000D+00 0.00000000D+00 0.00000000D+00
  <mgrwgt>
 0.1234047568D-04    9    2    0
 0.486060850673649D+03 0.000000000000000D+00 0.000000000000000D+00 0.486060850673649D+03
 0.486060850673649D+03 0.000000000000000D+00 0.000000000000000D+00 -.486060850673649D+03
 0.443024321696382D+03 -.428714963572266D+03 -.447905183278081D+02 0.632504793446352D+02
 0.632756676551934D+02 0.589656388658294D+02 -.227924906432804D+02 -.271402296067004D+01
 0.477616507882501D+02 -.265230136470302D+02 -.248936945497162D+02 -.309517205460962D+02
 0.418060061207472D+03 0.396272338353466D+03 0.924767035208047D+02 -.295847358378690D+02
 0.000000000000000D+00 -.000000000000000D+00 -.000000000000000D+00 0.000000000000000D+00
 0.679708979580843D+03 0.000000000000000D+00 0.000000000000000D+00 0.679708979580843D+03
 0.585851834796626D+03 0.000000000000000D+00 0.000000000000000D+00 -.585851834796626D+03
 0.403203784080292D+03 -.386573566817420D+03 0.516365165655849D+02 0.632504793446352D+02
 0.659526002491612D+02 0.654010901023499D+02 -.806702996268875D+01 -.271402296067004D+01
 0.408165791785091D+02 -.221118976519580D+02 -.148002740954755D+02 -.309517205460962D+02
 0.492687511065698D+03 0.441626746372626D+03 0.196255681471502D+03 -.295847358378690D+02
 0.262900339803809D+03 -.983423720055982D+02 -.225024893978923D+03 0.938571447842162D+02
0.206973197965D-03 0.000000000000D+00 0.000000000000D+00 0.196589825075D-05 0.000000000000D+00  7 3 -4 -24 -11 11 23 21 0 0.39289374D+00 0.14232443D-01 0.22804955D+06 0.22804955D+06 0.22804955D+06 0.10934743D+01  1  2  2  1  7  1        3 0.997310064262D-05 0.100000000000D+01
-.114941435463D-04 0.000000000000D+00 -.794831577481D-06 0.196589825075D-05 0.000000000000D+00  7 3 -4 -24 -11 11 23 21 2 0.39289374D+00 0.14232443D-01 0.22804955D+06 0.22804955D+06 0.22804955D+06 0.10934743D+01  1  2  3  1  7  1        3 -.662231605086D-06 0.100000000000D+01
0.131636505275D-04 0.000000000000D+00 0.000000000000D+00 0.196589825075D-05 0.000000000000D+00  7 3 -4 -24 -11 11 23 21 2 0.39289374D+00 0.14232443D-01 0.22804955D+06 0.22804955D+06 0.22804955D+06 0.10934743D+01  1  2 15  1  7  1        3 0.758419745025D-06 0.100000000000D+01
0.526143819262D-04 0.000000000000D+00 0.000000000000D+00 0.196589825075D-05 0.000000000000D+00  7 3 -4 -24 -11 11 23 21 2 0.57680589D+00 0.14232443D-01 0.37705170D+06 0.37705170D+06 0.37705170D+06 0.10772823D+01  1  2 12  1  7  1        3 0.105833871729D-05 0.100000000000D+01
-.850834643389D-04 0.000000000000D+00 0.000000000000D+00 0.196589825075D-05 0.000000000000D+00  7 3 -4 -24 -11 11 23 21 2 0.39289374D+00 0.14232443D-01 0.22804955D+06 0.22804955D+06 0.22804955D+06 0.10934743D+01  1  2  4  1  7  1        3 -.490205807233D-05 0.100000000000D+01
-.148361594830D-03 0.000000000000D+00 -.588987142761D-04 0.196589825075D-05 0.000000000000D+00  7 3 -4 -24 -11 11 23 21 2 0.57627001D+00 0.14232443D-01 0.22804955D+06 0.22804955D+06 0.22804955D+06 0.10934743D+01  1  2  5  1  7  1        3 -.313187857887D-05 0.100000000000D+01
0.162896744031D-03 0.000000000000D+00 0.548272414276D-04 0.196589825075D-05 0.000000000000D+00  7 3 -4 -24 -11 11 23 21 2 0.39289374D+00 0.14232443D-01 0.22804955D+06 0.22804955D+06 0.22804955D+06 0.10934743D+01  1  2  6  1  7  1        3 0.938524665444D-05 0.100000000000D+01
0.243063228465D-05 0.000000000000D+00 0.000000000000D+00 0.196589825075D-05 0.000000000000D+00  7 21 -4 -24 -11 11 23 -3 2 0.57680589D+00 0.14232443D-01 0.37705170D+06 0.37705170D+06 0.37705170D+06 0.10772823D+01  1  2 12  3  7  1        3 0.113581743037D-06 0.100000000000D+01
-.494763504617D-05 0.000000000000D+00 -.271615047827D-05 0.196589825075D-05 0.000000000000D+00  7 21 -4 -24 -11 11 23 -3 2 0.57627001D+00 0.14232443D-01 0.22804955D+06 0.22804955D+06 0.22804955D+06 0.10934743D+01  1  2  5  3  7  1        3 -.252043571013D-06 0.100000000000D+01
  </mgrwgt>
  </event>
  <event>
  8     66 0.29493621E-05 0.55734426E+03 0.75467711E-02 0.81222868E-01
        1 -1    0    0  501    0 0.00000000E+00 0.00000000E+00 0.10357040E+04 0.10357040E+04 0.32000000E+00 0.0000E+00 0.9000E+01
       -2 -1    0    0    0  501 0.00000000E+00 0.00000000E+00 -.30755823E+03 0.30755840E+03 0.32000000E+00 0.0000E+00 0.9000E+01
       25  2    1    2    0    0 0.79440193E+02 -.51422933E+03 0.43497968E+03 0.74063808E+03 0.29764894E+03 0.0000E+00 0.0000E+00
       23  2    3    3    0    0 0.13971332E+03 -.23554556E+03 0.14574878E+03 0.32438423E+03 0.94767623E+02 0.0000E+00 0.0000E+00
      -24  1    1    2    0    0 -.79440193E+02 0.51422933E+03 0.29316605E+03 0.60262434E+03 0.80419002E+02 0.0000E+00 0.9000E+01
      -11  1    4    4    0    0 0.75623161E+02 -.45476410E+02 0.32498539E+02 0.94037872E+02 0.51099893E-03 0.0000E+00 0.9000E+01
       11  1    4    4    0    0 0.64090163E+02 -.19006915E+03 0.11325024E+03 0.23034636E+03 0.51099893E-03 0.0000E+00 0.9000E+01
       23  1    3    3    0    0 -.60273131E+02 -.27868377E+03 0.28923090E+03 0.41625384E+03 0.91188000E+02 0.0000E+00 0.9000E+01
#aMCatNLO 1  0  0  1  2 0.18329266D+04 0.00000000D+00  -5  7  0 0.00000000D+00 0.00000000D+00 0.00000000D+00 0.00000000D+00 0.00000000D+00
  <mgrwgt>
 0.1217336154D-02    5    2    0
 0.564392971016747D+03 0.000000000000000D+00 0.000000000000000D+00 0.564392971016747D+03
 0.564392971016747D+03 0.000000000000000D+00 0.000000000000000D+00 -.564392971016747D+03
 0.528014207152297D+03 -.794401932526566D+02 0.514229325702757D+03 -.398653142915863D+02
 0.909418361053818D+02 0.756231608636259D+02 -.454764096268270D+02 -.219875251600836D+02
 0.201059316597574D+03 0.640901632595439D+02 -.190069145986725D+03 -.138209807150399D+02
 0.308770582178241D+03 -.602731308705133D+02 -.278683770089204D+03 0.756738201667098D+02
 0.000000000000000D+00 0.000000000000000D+00 0.000000000000000D+00 0.000000000000000D+00
 0.286720539171247D+04 0.000000000000000D+00 0.000000000000000D+00 0.286720539171247D+04
 0.154529675270298D+04 0.000000000000000D+00 0.000000000000000D+00 -.154529675270298D+04
 0.924271242794886D+03 -.865183413255722D+03 0.312535649881485D+03 -.398653142915863D+02
 0.728471859497930D+02 -.129931050333206D+02 -.682234597461275D+02 -.219875251600836D+02
 0.359359167401290D+03 -.239118151732883D+03 -.267900170211354D+03 -.138209807150399D+02
 0.796143502470186D+03 -.658074858299491D+03 -.432134445510858D+03 0.756738201667098D+02
 0.225988104579930D+04 0.177536952832142D+04 0.455722425586855D+03 0.132190863900950D+04
0.182685373961D-03 0.000000000000D+00 0.000000000000D+00 0.647820183167D-07 0.000000000000D+00  7 1 -2 -24 -11 11 23 21 0 0.15933909D+00 0.47316668D-01 0.31063263D+06 0.31063263D+06 0.31063263D+06 0.10834346D+01  1  2  2  1  7  1        1 0.120548298389D-02 0.100000000000D+01
-.101472384002D-04 0.000000000000D+00 -.701559938176D-06 0.647820183167D-07 0.000000000000D+00  7 1 -2 -24 -11 11 23 21 2 0.15933909D+00 0.47316668D-01 0.31063263D+06 0.31063263D+06 0.31063263D+06 0.10834346D+01  1  2  3  1  7  1        1 -.785978275227D-04 0.100000000000D+01
0.116757781834D-04 0.000000000000D+00 0.000000000000D+00 0.647820183167D-07 0.000000000000D+00  7 1 -2 -24 -11 11 23 21 2 0.15933909D+00 0.47316668D-01 0.31063263D+06 0.31063263D+06 0.31063263D+06 0.10834346D+01  1  2 15  1  7  1        1 0.904374928098D-04 0.100000000000D+01
0.864941370382D-04 0.000000000000D+00 -.746034307947D-04 0.647820183167D-07 0.000000000000D+00  7 1 -2 -24 -11 11 23 21 2 0.88569385D+00 0.47316668D-01 0.31063263D+06 0.31063263D+06 0.31063263D+06 0.10834346D+01  1  2  5  1  7  1        1 0.134658594159D-07 0.100000000000D+01
0.145148191325D-04 0.000000000000D+00 -.156662196457D-04 0.647820183167D-07 0.000000000000D+00  7 21 -2 -24 -11 11 23 -1 2 0.88569385D+00 0.47316668D-01 0.31063263D+06 0.31063263D+06 0.31063263D+06 0.10834346D+01  1  2  5  3  7  1        1 0.387324288851D-10 0.100000000000D+01
  </mgrwgt>
  </event>
  <event>
  8     66 0.29493621E-05 0.17130180E+03 0.75467711E-02 0.10068557E+00
        1 -1    0    0  501    0 0.00000000E+00 0.00000000E+00 0.38368791E+03 0.38368804E+03 0.32000000E+00 0.0000E+00 0.9000E+01
       -2 -1    0    0    0  501 0.00000000E+00 0.00000000E+00 -.25252983E+03 0.25253004E+03 0.32000000E+00 0.0000E+00 0.9000E+01
       25  2    1    2    0    0 0.19251677E+03 0.48555655E+02 -.40076356E+02 0.36197584E+03 0.30000006E+03 0.0000E+00 0.0000E+00
       23  2    3    3    0    0 0.19873343E+03 -.49595896E+02 -.11834258E+02 0.22491658E+03 0.92155771E+02 0.0000E+00 0.0000E+00
      -24  1    1    2    0    0 -.19251677E+03 -.48555655E+02 0.17123443E+03 0.27424224E+03 0.80419002E+02 0.0000E+00 0.9000E+01
      -11  1    4    4    0    0 0.10806263E+03 0.12034956E+02 -.32218913E+02 0.11340384E+03 0.51099893E-03 0.0000E+00 0.9000E+01
       11  1    4    4    0    0 0.90670805E+02 -.61630853E+02 0.20384655E+02 0.11151274E+03 0.51099893E-03 0.0000E+00 0.9000E+01
       23  1    3    3    0    0 -.62166609E+01 0.98151551E+02 -.28242099E+02 0.13705926E+03 0.91188000E+02 0.0000E+00 0.9000E+01
#aMCatNLO 1  0  0  2  1 0.37836349D+02 0.00000000D+00  -5  7  0 0.00000000D+00 0.00000000D+00 0.00000000D+00 0.00000000D+00 0.00000000D+00
  <mgrwgt>
 0.8597357440D-03    9    2    0
 0.311276004639510D+03 0.000000000000000D+00 0.000000000000000D+00 0.311276004639510D+03
 0.311276004639510D+03 0.000000000000000D+00 0.000000000000000D+00 -.311276004639510D+03
 0.244186976661328D+03 -.192516773978639D+03 -.485556547582542D+02 0.117216482392554D+03
 0.122681064065256D+03 0.108062630354532D+03 0.120349563362202D+02 -.568178777061279D+02
 0.109666031968721D+03 0.906708045306574D+02 -.616308527013258D+02 -.266115930288509D+01
 0.146017936583715D+03 -.621666090654981D+01 0.981515511233597D+02 -.577374453835410D+02
 0.000000000000000D+00 -.000000000000000D+00 -.000000000000000D+00 -.000000000000000D+00
 0.329954582919929D+03 0.000000000000000D+00 0.000000000000000D+00 0.329954582919929D+03
 0.331619085160608D+03 0.000000000000000D+00 0.000000000000000D+00 -.331619085160608D+03
 0.236853162093595D+03 -.186110517365147D+03 -.354312859060681D+02 0.117216482392554D+03
 0.126445650120047D+03 0.111380377735193D+03 0.188319585497233D+02 -.568178777061279D+02
 0.108919540859892D+03 0.935818199714307D+02 -.556671140183244D+02 -.266115930288509D+01
 0.151482371277779D+03 -.225469773298464D+01 0.106268345252264D+03 -.577374453835410D+02
 0.378729437292244D+02 -.165969826084922D+02 -.340019038775946D+02 -.166450224067859D+01
0.112986644324D-04 0.000000000000D+00 0.000000000000D+00 0.225058817302D-05 0.000000000000D+00  7 1 -2 -24 -11 11 23 21 0 0.59028935D-01 0.38850770D-01 0.80286168D+05 0.80286168D+05 0.80286168D+05 0.11296324D+01  1  2  2  2  7  2       -2 0.493854810128D-03 0.100000000000D+01
-.620959452110D-06 0.000000000000D+00 -.433898464272D-07 0.225058817302D-05 0.000000000000D+00  7 1 -2 -24 -11 11 23 21 2 0.59028935D-01 0.38850770D-01 0.80286168D+05 0.80286168D+05 0.80286168D+05 0.11296324D+01  1  2  3  2  7  2       -2 -.346345617724D-04 0.100000000000D+01
0.738225513747D-06 0.000000000000D+00 0.000000000000D+00 0.225058817302D-05 0.000000000000D+00  7 1 -2 -24 -11 11 23 21 2 0.59028935D-01 0.38850770D-01 0.80286168D+05 0.80286168D+05 0.80286168D+05 0.11296324D+01  1  2 15  2  7  2       -2 0.411751799107D-04 0.100000000000D+01
0.171452352073D-04 0.000000000000D+00 0.000000000000D+00 0.225058817302D-05 0.000000000000D+00  7 1 -2 -24 -11 11 23 21 2 0.59028935D-01 0.42484067D-01 0.91671735D+05 0.91671735D+05 0.91671735D+05 0.11248343D+01  1  2 12  2  7  2       -2 0.801589115756D-03 0.100000000000D+01
-.137680759164D-04 0.000000000000D+00 0.000000000000D+00 0.225058817302D-05 0.000000000000D+00  7 1 -2 -24 -11 11 23 21 2 0.59028935D-01 0.38850770D-01 0.80286168D+05 0.80286168D+05 0.80286168D+05 0.11296324D+01  1  2  4  2  7  2       -2 -.767926591975D-03 0.100000000000D+01
-.579256921244D-04 0.000000000000D+00 -.130292804140D-04 0.225058817302D-05 0.000000000000D+00  7 1 -2 -24 -11 11 23 21 2 0.59028935D-01 0.43671593D-01 0.80286168D+05 0.80286168D+05 0.80286168D+05 0.11296324D+01  1  2  5  2  7  2       -2 -.259673931159D-02 0.100000000000D+01
0.591333624457D-04 0.000000000000D+00 0.129406526038D-04 0.225058817302D-05 0.000000000000D+00  7 1 -2 -24 -11 11 23 21 2 0.59028935D-01 0.38850770D-01 0.80286168D+05 0.80286168D+05 0.80286168D+05 0.11296324D+01  1  2  6  2  7  2       -2 0.329821550744D-02 0.100000000000D+01
0.252604823558D-06 0.000000000000D+00 0.000000000000D+00 0.225058817302D-05 0.000000000000D+00  7 1 21 -24 -11 11 23 2 2 0.59028935D-01 0.42484067D-01 0.91671735D+05 0.91671735D+05 0.91671735D+05 0.11248343D+01  1  2 12  4  7  2       -2 0.131399647434D-03 0.100000000000D+01
-.101815272214D-05 0.000000000000D+00 -.241944768998D-06 0.225058817302D-05 0.000000000000D+00  7 1 21 -24 -11 11 23 2 2 0.59028935D-01 0.43671593D-01 0.80286168D+05 0.80286168D+05 0.80286168D+05 0.11296324D+01  1  2  5  4  7  2       -2 -.507198051329D-03 0.100000000000D+01
  </mgrwgt>
  </event>
  <event>
  8     66 0.29493621E-05 0.42087238E+03 0.75467711E-02 0.90838430E-01
        1 -1    0    0  501    0 0.00000000E+00 0.00000000E+00 0.91475190E+03 0.91475196E+03 0.32000000E+00 0.0000E+00 0.9000E+01
       -2 -1    0    0    0  501 0.00000000E+00 0.00000000E+00 -.38763936E+03 0.38763950E+03 0.32000000E+00 0.0000E+00 0.9000E+01
       25  2    1    2    0    0 -.25544116E+03 0.28201824E+03 -.16284985E+03 0.51036886E+03 0.29861653E+03 0.0000E+00 0.0000E+00
       23  2    3    3    0    0 -.22554086E+03 0.27256650E+03 -.18882551E+03 0.41050221E+03 0.87725777E+02 0.0000E+00 0.0000E+00
      -24  1    1    2    0    0 0.25544116E+03 -.28201824E+03 0.68996238E+03 0.79202259E+03 0.80419002E+02 0.0000E+00 0.9000E+01
      -13  1    4    4    0    0 -.22619503E+02 0.51927703E+02 -.79455796E+00 0.56646013E+02 0.10565837E+00 0.0000E+00 0.9000E+01
       13  1    4    4    0    0 -.20292136E+03 0.22063879E+03 -.18803095E+03 0.35385619E+03 0.10565837E+00 0.0000E+00 0.9000E+01
       23  1    3    3    0    0 -.29900291E+02 0.94517443E+01 0.25975662E+02 0.99866657E+02 0.91188000E+02 0.0000E+00 0.9000E+01
#aMCatNLO 1  0  0  1  2 0.46736258D+03 0.00000000D+00  -5  7  0 0.00000000D+00 0.00000000D+00 0.00000000D+00 0.00000000D+00 0.00000000D+00
  <mgrwgt>
 0.1874784806D-02    3    2    0
 0.595477931275874D+03 0.000000000000000D+00 0.000000000000000D+00 0.595477931275874D+03
 0.595477931275874D+03 0.000000000000000D+00 0.000000000000000D+00 -.595477931275874D+03
 0.560755982718863D+03 0.255441155670168D+03 -.282018241504339D+03 0.403974731449031D+03
 0.622973544694609D+02 -.226192417690213D+02 0.519274583118421D+02 -.259397253061808D+02
 0.470188254657288D+03 -.202921622962656D+03 0.220639038843986D+03 -.362240561353736D+03
 0.977142707061374D+02 -.299002909384899D+02 0.945174434851033D+01 -.157944447891137D+02
 0.000000000000000D+00 0.000000000000000D+00 0.000000000000000D+00 -.000000000000000D+00
 0.735605745696919D+03 0.000000000000000D+00 0.000000000000000D+00 0.735605745696919D+03
 0.120899907635824D+04 0.000000000000000D+00 0.000000000000000D+00 -.120899907635824D+04
 0.513998488218907D+03 0.531757008670901D+02 -.302826668450664D+03 0.403974731449031D+03
 0.736669099027962D+02 -.482072942162233D+02 0.492950408257978D+02 -.259397253061808D+02
 0.575449497506542D+03 -.399707401686745D+03 0.200394343551641D+03 -.362240561353736D+03
 0.116261376238985D+03 -.701698433957822D+02 0.530894081696027D+01 -.157944447891137D+02
 0.665228550187931D+03 0.464908838431660D+03 0.478283432562643D+02 -.473393330661325D+03
0.350319249364D-03 0.000000000000D+00 0.000000000000D+00 0.398254612241D-06 0.000000000000D+00  7 1 -2 -24 -13 13 23 21 0 0.14073108D+00 0.59636840D-01 0.17713356D+06 0.17713356D+06 0.17713356D+06 0.11018982D+01  1  2  2  1  7  1        1 0.183906904940D-02 0.100000000000D+01
-.166123519167D-04 0.000000000000D+00 -.134531815874D-05 0.398254612241D-06 0.000000000000D+00  7 1 -2 -24 -13 13 23 21 2 0.14073108D+00 0.59636840D-01 0.17713356D+06 0.17713356D+06 0.17713356D+06 0.11018982D+01  1  2  3  1  7  1        1 -.105888336299D-03 0.100000000000D+01
0.222156387290D-04 0.000000000000D+00 0.000000000000D+00 0.398254612241D-06 0.000000000000D+00  7 1 -2 -24 -13 13 23 21 2 0.14073108D+00 0.59636840D-01 0.17713356D+06 0.17713356D+06 0.17713356D+06 0.11018982D+01  1  2 15  1  7  1        1 0.141604092944D-03 0.100000000000D+01
  </mgrwgt>
  </event>
  <event>
  8     66 0.29493621E-05 0.40198838E+03 0.75467711E-02 0.86312775E-01
        1 -1    0    0  501    0 0.00000000E+00 0.00000000E+00 0.28288743E+04 0.28288743E+04 0.32000000E+00 0.0000E+00 0.9000E+01
       -2 -1    0    0    0  501 0.00000000E+00 0.00000000E+00 -.15890923E+03 0.15890955E+03 0.32000000E+00 0.0000E+00 0.9000E+01
       25  2    1    2    0    0 -.16605559E+03 0.29773124E+03 0.25886491E+04 0.26282037E+04 0.30022087E+03 0.0000E+00 0.0000E+00
       23  2    3    3    0    0 -.11709298E+03 0.31608875E+03 0.20212485E+04 0.20511483E+04 0.90227279E+02 0.0000E+00 0.0000E+00
      -24  1    1    2    0    0 0.16605559E+03 -.29773124E+03 0.81315979E+02 0.35958011E+03 0.80419002E+02 0.0000E+00 0.9000E+01
      -13  1    4    4    0    0 -.10216777E+03 0.31756604E+03 0.19512053E+04 0.19795173E+04 0.10565837E+00 0.0000E+00 0.9000E+01
       13  1    4    4    0    0 -.14925204E+02 -.14772915E+01 0.70043168E+02 0.71631003E+02 0.10565837E+00 0.0000E+00 0.9000E+01
       23  1    3    3    0    0 -.48962611E+02 -.18357511E+02 0.56740057E+03 0.57705545E+03 0.91188000E+02 0.0000E+00 0.9000E+01
#aMCatNLO 1  0  0  1  2 0.10324590D+04 0.00000000D+00  -5  7  0 0.00000000D+00 0.00000000D+00 0.00000000D+00 0.00000000D+00 0.00000000D+00
  <mgrwgt>
 0.1550361022D-02    3    2    0
 0.670473521680825D+03 0.000000000000000D+00 0.000000000000000D+00 0.670473521680825D+03
 0.670473521680825D+03 0.000000000000000D+00 0.000000000000000D+00 -.670473521680825D+03
 0.639277154573669D+03 0.166055590230717D+03 -.297731237735566D+03 -.534780062675313D+03
 0.525539529730767D+03 -.102167894080470D+03 0.317566477559158D+03 0.406085029346646D+03
 0.201381670963975D+02 -.149250846730900D+02 -.147772896888560D+01 0.134388964799212D+02
 0.155992191960817D+03 -.489626114771571D+02 -.183575108547064D+02 0.115256136848746D+03
 0.000000000000000D+00 0.000000000000000D+00 -.000000000000000D+00 -.000000000000000D+00
 0.134871311168230D+04 0.000000000000000D+00 0.000000000000000D+00 0.134871311168230D+04
 0.137648775288729D+04 0.000000000000000D+00 0.000000000000000D+00 -.137648775288729D+04
 0.583347422601483D+03 -.197176663391011D+03 -.946501319618664D+02 -.534780062675313D+03
 0.851249671989426D+03 -.511201258728139D+03 0.546254726366193D+03 0.406085029346646D+03
 0.348908330575441D+02 -.312737726625374D+02 0.766273034259330D+01 0.134388964799212D+02
 0.222880406476886D+03 -.161522714010031D+03 0.445742080674310D+02 0.115256136848746D+03
 0.103283253044426D+04 0.901174408791719D+03 -.503841532814351D+03 -.277746412049939D+02
0.111929791418D-02 0.000000000000D+00 0.000000000000D+00 0.260141297654D-04 0.000000000000D+00  7 1 -2 -24 -13 13 23 21 0 0.43521145D+00 0.24447600D-01 0.16159465D+06 0.16159465D+06 0.16159465D+06 0.11050092D+01  1  2  2  1  7  1        1 0.150616914196D-02 0.100000000000D+01
-.423975997247D-04 0.000000000000D+00 -.429839870838D-05 0.260141297654D-04 0.000000000000D+00  7 1 -2 -24 -13 13 23 21 2 0.43521145D+00 0.24447600D-01 0.16159465D+06 0.16159465D+06 0.16159465D+06 0.11050092D+01  1  2  3  1  7  1        1 -.696628239032D-04 0.100000000000D+01
0.692932886869D-04 0.000000000000D+00 0.000000000000D+00 0.260141297654D-04 0.000000000000D+00  7 1 -2 -24 -13 13 23 21 2 0.43521145D+00 0.24447600D-01 0.16159465D+06 0.16159465D+06 0.16159465D+06 0.11050092D+01  1  2 15  1  7  1        1 0.113854704012D-03 0.100000000000D+01
  </mgrwgt>
  </event>
  <event>
  8     66 0.29493621E-05 0.25494343E+03 0.75467711E-02 0.96218264E-01
        1 -1    0    0  501    0 0.00000000E+00 0.00000000E+00 0.60612339E+03 0.60612347E+03 0.32000000E+00 0.0000E+00 0.9000E+01
       -2 -1    0    0    0  501 0.00000000E+00 0.00000000E+00 -.32095761E+03 0.32095777E+03 0.32000000E+00 0.0000E+00 0.9000E+01
       25  2    1    2    0    0 -.27342436E+03 0.25608691E+03 0.25376869E+03 0.54264090E+03 0.29953165E+03 0.0000E+00 0.0000E+00
       23  2    3    3    0    0 -.15171508E+03 0.24378185E+03 0.24418121E+03 0.38976272E+03 0.99214219E+02 0.0000E+00 0.0000E+00
      -24  1    1    2    0    0 0.27342436E+03 -.25608691E+03 0.31397086E+02 0.38444034E+03 0.80419002E+02 0.0000E+00 0.9000E+01
      -13  1    4    4    0    0 -.35507302E+02 0.13427169E+03 0.14979820E+03 0.20427718E+03 0.10565837E+00 0.0000E+00 0.9000E+01
       13  1    4    4    0    0 -.11620777E+03 0.10951016E+03 0.94383012E+02 0.18548554E+03 0.10565837E+00 0.0000E+00 0.9000E+01
       23  1    3    3    0    0 -.12170929E+03 0.12305055E+02 0.95874777E+01 0.15287817E+03 0.91188000E+02 0.0000E+00 0.9000E+01
#aMCatNLO 1  0  0  2  1 0.36871903D+02 0.00000000D+00  -5  7  0 0.00000000D+00 0.00000000D+00 0.00000000D+00 0.00000000D+00 0.00000000D+00
  <mgrwgt>
 0.8426632527D-03    9    2    0
 0.441066918226185D+03 0.000000000000000D+00 0.000000000000000D+00 0.441066918226185D+03
 0.441066918226185D+03 0.000000000000000D+00 0.000000000000000D+00 -.441066918226185D+03
 0.393879070909935D+03 0.273424361220818D+03 -.256086906287161D+03 -.912804560996557D+02
 0.166260740375448D+03 -.355072152593961D+02 0.134271717379697D+03 0.913946243858025D+02
 0.164425567413758D+03 -.116207856790770D+03 0.109510136022425D+03 0.392304900273025D+02
 0.157568457753229D+03 -.121709289170652D+03 0.123050528850387D+02 -.393446583134493D+02
 0.000000000000000D+00 0.000000000000000D+00 0.000000000000000D+00 -.000000000000000D+00
 0.456101628756557D+03 0.000000000000000D+00 0.000000000000000D+00 0.456101628756557D+03
 0.464653005732509D+03 0.000000000000000D+00 0.000000000000000D+00 -.464653005732509D+03
 0.402804510808949D+03 0.270565199965518D+03 -.272482309289106D+03 -.912804560996557D+02
 0.161131965082970D+03 -.366821717417363D+02 0.127534117322336D+03 0.913946243858025D+02
 0.160894294400248D+03 -.117375374191431D+03 0.102815194189345D+03 0.392304900273025D+02
 0.158073325651536D+03 -.122842073601477D+03 0.580928171324123D+01 -.393446583134493D+02
 0.378505385453636D+02 0.633441956912685D+01 0.363237160641841D+02 -.855137697595242D+01
0.332374993997D-04 0.000000000000D+00 0.000000000000D+00 0.105434094469D-06 0.000000000000D+00  7 1 -2 -24 -13 13 23 21 0 0.93249770D-01 0.49378113D-01 0.17401309D+06 0.17401309D+06 0.17401309D+06 0.11024983D+01  1  2  2  2  7  2       -2 0.483345083371D-03 0.100000000000D+01
-.183954888265D-05 0.000000000000D+00 -.127640749329D-06 0.105434094469D-06 0.000000000000D+00  7 1 -2 -24 -13 13 23 21 2 0.93249770D-01 0.49378113D-01 0.17401309D+06 0.17401309D+06 0.17401309D+06 0.11024983D+01  1  2  3  2  7  2       -2 -.325159308851D-04 0.100000000000D+01
0.214709966664D-05 0.000000000000D+00 0.000000000000D+00 0.105434094469D-06 0.000000000000D+00  7 1 -2 -24 -13 13 23 21 2 0.93249770D-01 0.49378113D-01 0.17401309D+06 0.17401309D+06 0.17401309D+06 0.11024983D+01  1  2 15  2  7  2       -2 0.379522093825D-04 0.100000000000D+01
0.788611515994D-04 0.000000000000D+00 0.000000000000D+00 0.105434094469D-06 0.000000000000D+00  7 1 -2 -24 -13 13 23 21 2 0.93249770D-01 0.52823201D-01 0.18967724D+06 0.18967724D+06 0.18967724D+06 0.10995974D+01  1  2 12  2  7  2       -2 0.121047525557D-02 0.100000000000D+01
-.700127014706D-04 0.000000000000D+00 0.000000000000D+00 0.105434094469D-06 0.000000000000D+00  7 1 -2 -24 -13 13 23 21 2 0.93249770D-01 0.49378113D-01 0.17401309D+06 0.17401309D+06 0.17401309D+06 0.11024983D+01  1  2  4  2  7  2       -2 -.123754697881D-02 0.100000000000D+01
-.291247577316D-03 0.000000000000D+00 -.531623650000D-04 0.105434094469D-06 0.000000000000D+00  7 1 -2 -24 -13 13 23 21 2 0.93249770D-01 0.53581029D-01 0.17401309D+06 0.17401309D+06 0.17401309D+06 0.11024983D+01  1  2  5  2  7  2       -2 -.437739664674D-02 0.100000000000D+01
0.294783100298D-03 0.000000000000D+00 0.529854833057D-04 0.105434094469D-06 0.000000000000D+00  7 1 -2 -24 -13 13 23 21 2 0.93249770D-01 0.49378113D-01 0.17401309D+06 0.17401309D+06 0.17401309D+06 0.11024983D+01  1  2  6  2  7  2       -2 0.521059647056D-02 0.100000000000D+01
0.947049156007D-06 0.000000000000D+00 0.000000000000D+00 0.105434094469D-06 0.000000000000D+00  7 1 21 -24 -13 13 23 2 2 0.93249770D-01 0.52823201D-01 0.18967724D+06 0.18967724D+06 0.18967724D+06 0.10995974D+01  1  2 12  4  7  2       -2 0.152116578498D-03 0.100000000000D+01
-.384306346335D-05 0.000000000000D+00 -.723363174606D-06 0.105434094469D-06 0.000000000000D+00  7 1 21 -24 -13 13 23 2 2 0.93249770D-01 0.53581029D-01 0.17401309D+06 0.17401309D+06 0.17401309D+06 0.11024983D+01  1  2  5  4  7  2       -2 -.604362788246D-03 0.100000000000D+01
  </mgrwgt>
  </event>
  <event>
  8     66 0.29493621E-05 0.24564661E+03 0.75467711E-02 0.10282528E+00
        1 -1    0    0  501    0 0.00000000E+00 0.00000000E+00 0.13368434E+04 0.13368434E+04 0.32000000E+00 0.0000E+00 0.9000E+01
       -2 -1    0    0    0  501 0.00000000E+00 0.00000000E+00 -.61398289E+02 0.61399123E+02 0.32000000E+00 0.0000E+00 0.9000E+01
       25  2    1    2    0    0 -.19154408E+03 -.40108529E+02 0.86780581E+03 0.93896612E+03 0.30045405E+03 0.0000E+00 0.0000E+00
       23  2    3    3    0    0 -.14287280E+03 -.55998890E+02 0.22807170E+03 0.29074057E+03 0.94682965E+02 0.0000E+00 0.0000E+00
      -24  1    1    2    0    0 0.19154408E+03 0.40108529E+02 0.40763930E+03 0.45927644E+03 0.80419002E+02 0.0000E+00 0.9000E+01
      -13  1    4    4    0    0 -.50466366E+02 0.21188862E+02 0.10590744E+03 0.11921502E+03 0.10565837E+00 0.0000E+00 0.9000E+01
       13  1    4    4    0    0 -.92406432E+02 -.77187752E+02 0.12216426E+03 0.17152555E+03 0.10565837E+00 0.0000E+00 0.9000E+01
       23  1    3    3    0    0 -.48671279E+02 0.15890361E+02 0.63973411E+03 0.64822556E+03 0.91188000E+02 0.0000E+00 0.9000E+01
#aMCatNLO 1  0  0  2  1 0.21286905D+02 0.00000000D+00  -5  7  0 0.00000000D+00 0.00000000D+00 0.00000000D+00 0.00000000D+00 0.00000000D+00
  <mgrwgt>
 0.2092580273D-03    4    2    0
 0.286496959433789D+03 0.000000000000000D+00 0.000000000000000D+00 0.286496959433789D+03
 0.286496959433789D+03 0.000000000000000D+00 0.000000000000000D+00 -.286496959433789D+03
 0.213367544762241D+03 0.191544078583334D+03 0.401085296266709D+02 -.275801561696850D+02
 0.551704091129976D+02 -.504663113876149D+02 0.211889781481044D+02 -.692478603734239D+01
 0.146634341919802D+03 -.924064866778184D+02 -.771878695416737D+02 -.836941111771492D+02
 0.157821623072539D+03 -.486712805179008D+02 0.158903617668984D+02 0.118199053384177D+03
 0.000000000000000D+00 0.000000000000000D+00 -.000000000000000D+00 0.000000000000000D+00
 0.305812609104523D+03 0.000000000000000D+00 0.000000000000000D+00 0.305812609104523D+03
 0.292620057645113D+03 0.000000000000000D+00 0.000000000000000D+00 -.292620057645113D+03
 0.206528134508115D+03 0.183768388183145D+03 0.406837667781165D+02 -.275801561696850D+02
 0.571362733492082D+02 -.525460231727323D+02 0.213428329727602D+02 -.692478603734239D+01
 0.149947509508212D+03 -.978986333439294D+02 -.767815664816318D+02 -.836941111771492D+02
 0.159777272771547D+03 -.545526239263798D+02 0.163254571802760D+02 0.118199053384177D+03
 0.250434766125532D+02 0.212288922598968D+02 -.157049044952097D+01 0.131925514594092D+02
0.123044677953D-04 0.000000000000D+00 0.000000000000D+00 0.190200520444D-06 0.000000000000D+00  7 1 -2 -24 -13 13 23 21 0 0.20566828D+00 0.94459578D-02 0.60342258D+05 0.60342258D+05 0.60342258D+05 0.11401819D+01  1  2  2  2  7  2       -2 0.791548578264D-03 0.100000000000D+01
-.663912817029D-06 0.000000000000D+00 -.472523961748D-07 0.190200520444D-06 0.000000000000D+00  7 1 -2 -24 -13 13 23 21 2 0.20566828D+00 0.94459578D-02 0.60342258D+05 0.60342258D+05 0.60342258D+05 0.11401819D+01  1  2  3  2  7  2       -2 -.555231444157D-04 0.100000000000D+01
0.785630093684D-06 0.000000000000D+00 0.000000000000D+00 0.190200520444D-06 0.000000000000D+00  7 1 -2 -24 -13 13 23 21 2 0.20566828D+00 0.94459578D-02 0.60342258D+05 0.60342258D+05 0.60342258D+05 0.11401819D+01  1  2 15  2  7  2       -2 0.657023814424D-04 0.100000000000D+01
-.708440219142D-05 0.000000000000D+00 0.000000000000D+00 0.190200520444D-06 0.000000000000D+00  7 1 -2 -24 -13 13 23 21 2 0.20566828D+00 0.94459578D-02 0.60342258D+05 0.60342258D+05 0.60342258D+05 0.11401819D+01  1  2  4  2  7  2       -2 -.592469788027D-03 0.100000000000D+01
  </mgrwgt>
  </event>
  <event>
  8     66 0.29493621E-05 0.22026191E+03 0.75467711E-02 0.89122812E-01
        1 -1    0    0  501    0 0.00000000E+00 0.00000000E+00 0.70374698E+03 0.70374705E+03 0.32000000E+00 0.0000E+00 0.9000E+01
       -2 -1    0    0    0  501 0.00000000E+00 0.00000000E+00 -.55851354E+03 0.55851363E+03 0.32000000E+00 0.0000E+00 0.9000E+01
       25  2    1    2    0    0 -.84119677E+02 0.10518750E+03 0.65240688E+03 0.73138155E+03 0.30190017E+03 0.0000E+00 0.0000E+00
       23  2    3    3    0    0 -.14572879E+03 0.40506891E+02 0.23009461E+03 0.29019887E+03 0.91619661E+02 0.0000E+00 0.0000E+00
      -24  1    1    2    0    0 0.84119677E+02 -.10518750E+03 -.50717344E+03 0.53087912E+03 0.80419002E+02 0.0000E+00 0.9000E+01
      -13  1    4    4    0    0 -.14204525E+03 0.30419037E+02 0.23660469E+03 0.27763998E+03 0.10565837E+00 0.0000E+00 0.9000E+01
       13  1    4    4    0    0 -.36835435E+01 0.10087854E+02 -.65100761E+01 0.12558883E+02 0.10565837E+00 0.0000E+00 0.9000E+01
       23  1    3    3    0    0 0.61609114E+02 0.64680606E+02 0.42231227E+03 0.44118269E+03 0.91188000E+02 0.0000E+00 0.9000E+01
#aMCatNLO 1  0  0  1  1 0.80515229D+03 0.00000000D+00  -5  7  0 0.00000000D+00 0.00000000D+00 0.00000000D+00 0.00000000D+00 0.00000000D+00
  <mgrwgt>
 0.1434839279D-02    5    2    0
 0.626938847036669D+03 0.000000000000000D+00 0.000000000000000D+00 0.626938847036669D+03
 0.626938847036669D+03 0.000000000000000D+00 0.000000000000000D+00 -.626938847036669D+03
 0.593172994854942D+03 0.841196767170099D+02 -.105187497533736D+03 -.572054591994879D+03
 0.252091188666767D+03 -.142045431133264D+03 0.304190642292233D+02 0.206028501496776D+03
 0.133965753067099D+02 -.368335943748985D+01 0.100878269161776D+02 -.800854801520506D+01
 0.395216935244919D+03 0.616091138537440D+02 0.646806063883351D+02 0.374034638513307D+03
 0.000000000000000D+00 -.000000000000000D+00 0.000000000000000D+00 0.000000000000000D+00
 0.121588346303749D+04 0.000000000000000D+00 0.000000000000000D+00 0.121588346303749D+04
 0.108928784102065D+04 0.000000000000000D+00 0.000000000000000D+00 -.108928784102065D+04
 0.772673074731497D+03 0.474765144077583D+03 -.194699938898859D+03 -.572054591994879D+03
 0.206318862956357D+03 -.109356283182796D+02 0.376584493917271D+00 0.206028501496776D+03
 0.121684468748180D+02 0.362848943081656D+01 0.841239100873677D+01 -.800854801520506D+01
 0.498966954160411D+03 0.317354538730799D+03 0.607913968406181D+01 0.374034638513307D+03
 0.815043965335056D+03 -.784812543920919D+03 0.179831823712143D+03 0.126595622016843D+03
0.307473620328D-03 0.000000000000D+00 0.000000000000D+00 0.243333933302D-05 0.000000000000D+00  7 1 -2 -24 -13 13 23 21 0 0.10826878D+00 0.85925172D-01 0.48515310D+05 0.48515310D+05 0.48515310D+05 0.11484487D+01  1  2  2  1  7  1        1 0.116658258411D-02 0.100000000000D+01
0.564326939648D-05 0.000000000000D+00 -.118077966172D-05 0.243333933302D-05 0.000000000000D+00  7 1 -2 -24 -13 13 23 21 2 0.10826878D+00 0.85925172D-01 0.48515310D+05 0.48515310D+05 0.48515310D+05 0.11484487D+01  1  2  3  1  7  1        1 0.282397979690D-04 0.100000000000D+01
0.187900167974D-04 0.000000000000D+00 0.000000000000D+00 0.243333933302D-05 0.000000000000D+00  7 1 -2 -24 -13 13 23 21 2 0.10826878D+00 0.85925172D-01 0.48515310D+05 0.48515310D+05 0.48515310D+05 0.11484487D+01  1  2 15  1  7  1        1 0.940281671689D-04 0.100000000000D+01
0.198961248429D-03 0.000000000000D+00 -.931250318469D-04 0.243333933302D-05 0.000000000000D+00  7 1 -2 -24 -13 13 23 21 2 0.29758905D+00 0.85925172D-01 0.48515310D+05 0.48515310D+05 0.48515310D+05 0.11484487D+01  1  2  5  1  7  1        1 0.134978175326D-03 0.100000000000D+01
0.278292358571D-04 0.000000000000D+00 -.105375259140D-04 0.243333933302D-05 0.000000000000D+00  7 21 -2 -24 -13 13 23 -1 2 0.29758905D+00 0.85925172D-01 0.48515310D+05 0.48515310D+05 0.48515310D+05 0.11484487D+01  1  2  5  3  7  1        1 0.110105545260D-04 0.100000000000D+01
  </mgrwgt>
  </event>
  <event>
  8     66 0.29493621E-05 0.10654519E+03 0.75467711E-02 0.99782350E-01
        1 -1    0    0  501    0 0.00000000E+00 0.00000000E+00 0.40841211E+03 0.40841223E+03 0.32000000E+00 0.0000E+00 0.9000E+01
       -2 -1    0    0    0  501 0.00000000E+00 0.00000000E+00 -.17323667E+03 0.17323696E+03 0.32000000E+00 0.0000E+00 0.9000E+01
       25  2    1    2    0    0 -.59228586E+02 -.15777791E+03 0.13476047E+03 0.36962968E+03 0.30010635E+03 0.0000E+00 0.0000E+00
       23  2    3    3    0    0 0.61215959E+02 0.15200461E+02 0.19133893E+02 0.11250488E+03 0.91174531E+02 0.0000E+00 0.0000E+00
      -24  1    1    2    0    0 0.59228586E+02 0.15777791E+03 0.10041497E+03 0.21201952E+03 0.80419002E+02 0.0000E+00 0.9000E+01
      -13  1    4    4    0    0 0.20312907E+02 0.21312071E+02 -.34127256E+02 0.45072157E+02 0.10565837E+00 0.0000E+00 0.9000E+01
       13  1    4    4    0    0 0.40903052E+02 -.61116103E+01 0.53261149E+02 0.67432726E+02 0.10565837E+00 0.0000E+00 0.9000E+01
       23  1    3    3    0    0 -.12044455E+03 -.17297837E+03 0.11562658E+03 0.25712480E+03 0.91188000E+02 0.0000E+00 0.9000E+01
#aMCatNLO 1  0  0  2  1 0.13648782D+03 0.00000000D+00  -5  7  0 0.00000000D+00 0.00000000D+00 0.00000000D+00 0.00000000D+00 0.00000000D+00
  <mgrwgt>
 0.6965600949D-03    9    2    0
 0.265992623074364D+03 0.000000000000000D+00 0.000000000000000D+00 0.265992623074364D+03
 0.265992623074364D+03 0.000000000000000D+00 0.000000000000000D+00 -.265992623074364D+03
 0.187422205727933D+03 0.592285864638726D+02 0.157777909558407D+03 0.160615393541123D+02
 0.643666080196503D+02 0.203128798443205D+02 0.213121074941783D+02 -.572384592257872D+02
 0.501827199643201D+02 0.409030791198762D+02 -.611164703949780D+01 0.284234282238284D+02
 0.230013712436826D+03 -.120444545428069D+03 -.172978370013088D+03 0.127534916478465D+02
 0.000000000000000D+00 -.000000000000000D+00 -.000000000000000D+00 -.000000000000000D+00
 0.309835293165082D+03 0.000000000000000D+00 0.000000000000000D+00 0.309835293165082D+03
 0.406811069799999D+03 0.000000000000000D+00 0.000000000000000D+00 -.406811069799999D+03
 0.218779927580195D+03 0.108708800729696D+03 0.171236282239228D+03 0.160615393541123D+02
 0.729152434714727D+02 0.370354297021201D+02 0.258605580516230D+02 -.572384592257872D+02
 0.615228144885228D+02 0.545101316835620D+02 -.241059628200166D+01 0.284234282238284D+02
 0.195997116285013D+03 -.685513982575995D+02 -.158863691559012D+03 0.127534916478465D+02
 0.167431261139878D+03 -.131702963857778D+03 -.358225524498368D+02 -.969757766349168D+02
0.844076119025D-05 0.000000000000D+00 0.000000000000D+00 0.179272234132D-05 0.000000000000D+00  7 1 -2 -24 -13 13 23 21 0 0.62832664D-01 0.26651828D-01 0.59338899D+05 0.59338899D+05 0.59338899D+05 0.11408108D+01  1  2  2  2  7  2       -2 0.663288946470D-03 0.100000000000D+01
-.464520093212D-06 0.000000000000D+00 -.324147454740D-07 0.179272234132D-05 0.000000000000D+00  7 1 -2 -24 -13 13 23 21 2 0.62832664D-01 0.26651828D-01 0.59338899D+05 0.59338899D+05 0.59338899D+05 0.11408108D+01  1  2  3  2  7  2       -2 -.475064831088D-04 0.100000000000D+01
0.551612011547D-06 0.000000000000D+00 0.000000000000D+00 0.179272234132D-05 0.000000000000D+00  7 1 -2 -24 -13 13 23 21 2 0.62832664D-01 0.26651828D-01 0.59338899D+05 0.59338899D+05 0.59338899D+05 0.11408108D+01  1  2 15  2  7  2       -2 0.564133760673D-04 0.100000000000D+01
0.273171457032D-05 0.000000000000D+00 0.000000000000D+00 0.179272234132D-05 0.000000000000D+00  7 1 -2 -24 -13 13 23 21 2 0.62832664D-01 0.42019017D-01 0.10562280D+06 0.10562280D+06 0.10562280D+06 0.11197777D+01  1  2 12  2  7  2       -2 0.118674782016D-03 0.100000000000D+01
-.544983759754D-05 0.000000000000D+00 0.000000000000D+00 0.179272234132D-05 0.000000000000D+00  7 1 -2 -24 -13 13 23 21 2 0.62832664D-01 0.26651828D-01 0.59338899D+05 0.59338899D+05 0.59338899D+05 0.11408108D+01  1  2  4  2  7  2       -2 -.557355045684D-03 0.100000000000D+01
-.604101484247D-05 0.000000000000D+00 -.293000571453D-05 0.179272234132D-05 0.000000000000D+00  7 1 -2 -24 -13 13 23 21 2 0.62832664D-01 0.46581589D-01 0.59338899D+05 0.59338899D+05 0.59338899D+05 0.11408108D+01  1  2  5  2  7  2       -2 -.225674979232D-03 0.100000000000D+01
0.696661119453D-05 0.000000000000D+00 0.252593683569D-05 0.179272234132D-05 0.000000000000D+00  7 1 -2 -24 -13 13 23 21 2 0.62832664D-01 0.26651828D-01 0.59338899D+05 0.59338899D+05 0.59338899D+05 0.11408108D+01  1  2  6  2  7  2       -2 0.712475524471D-03 0.100000000000D+01
0.143214170551D-06 0.000000000000D+00 0.000000000000D+00 0.179272234132D-05 0.000000000000D+00  7 1 21 -24 -13 13 23 2 2 0.62832664D-01 0.42019017D-01 0.10562280D+06 0.10562280D+06 0.10562280D+06 0.11197777D+01  1  2 12  4  7  2       -2 0.690810450524D-04 0.100000000000D+01
-.224238754839D-06 0.000000000000D+00 -.180767355388D-06 0.179272234132D-05 0.000000000000D+00  7 1 21 -24 -13 13 23 2 2 0.62832664D-01 0.46581589D-01 0.59338899D+05 0.59338899D+05 0.59338899D+05 0.11408108D+01  1  2  5  4  7  2       -2 -.928370711921D-04 0.100000000000D+01
  </mgrwgt>
  </event>
  <event>
  8     66 0.29493621E-05 0.19410606E+03 0.75467711E-02 0.99082427E-01
        1 -1    0    0  501    0 0.00000000E+00 0.00000000E+00 0.72448985E+03 0.72448992E+03 0.32000000E+00 0.0000E+00 0.9000E+01
       -2 -1    0    0    0  501 0.00000000E+00 0.00000000E+00 -.56502570E+02 0.56503476E+02 0.32000000E+00 0.0000E+00 0.9000E+01
       25  2    1    2    0    0 0.37070017E+02 0.46033003E+01 0.58855715E+03 0.66194829E+03 0.30063373E+03 0.0000E+00 0.0000E+00
       23  2    3    3    0    0 -.95759261E+02 0.31164384E+02 0.22402075E+03 0.26250974E+03 0.92655359E+02 0.0000E+00 0.0000E+00
      -24  1    1    2    0    0 -.37070017E+02 -.46033003E+01 0.79430125E+02 0.11904511E+03 0.80419002E+02 0.0000E+00 0.9000E+01
      -11  1    4    4    0    0 -.11400743E+03 0.23229604E+02 0.19928620E+03 0.23076459E+03 0.51099893E-03 0.0000E+00 0.9000E+01
       11  1    4    4    0    0 0.18248173E+02 0.79347803E+01 0.24734548E+02 0.31745148E+02 0.51099893E-03 0.0000E+00 0.9000E+01
       23  1    3    3    0    0 0.13282928E+03 -.26561084E+02 0.36453640E+03 0.39943854E+03 0.91188000E+02 0.0000E+00 0.9000E+01
#aMCatNLO 1  0  0  1  1 0.23443394D+03 0.00000000D+00  -5  7  0 0.00000000D+00 0.00000000D+00 0.00000000D+00 0.00000000D+00 0.00000000D+00
  <mgrwgt>
 0.2631538413D-02    5    2    0
 0.202326269598529D+03 0.000000000000000D+00 0.000000000000000D+00 0.202326269598529D+03
 0.202326269598529D+03 0.000000000000000D+00 0.000000000000000D+00 -.202326269598529D+03
 0.986404991330526D+02 -.370700176688864D+02 -.460330037886194D+01 -.432129093037907D+02
 0.116408459469935D+03 -.114007433010880D+03 0.232296036375012D+02 0.369055135146181D+01
 0.204382444824114D+02 0.182481732041425D+02 0.793478027347151D+01 -.466532681022042D+01
 0.169165336111659D+03 0.132829277475624D+03 -.265610835321108D+02 0.441876847625493D+02
 0.000000000000000D+00 -.000000000000000D+00 -.000000000000000D+00 0.000000000000000D+00
 0.483099856670050D+03 0.000000000000000D+00 0.000000000000000D+00 0.483099856670050D+03
 0.288948341922733D+03 0.000000000000000D+00 0.000000000000000D+00 -.288948341922733D+03
 0.931108181358235D+02 0.106293231710829D+02 0.149020286531363D+02 -.432129093037907D+02
 0.784912906055664D+02 -.655248997960476D+02 0.430551975766878D+02 0.369055135146181D+01
 0.351459013197894D+02 0.320750775179210D+02 0.135889111982371D+02 -.466532681022042D+01
 0.260908859721367D+03 0.239812926640077D+03 0.171869272632071D+02 0.441876847625493D+02
 0.304391328810236D+03 -.216992427533033D+03 -.887330646912684D+02 0.194151514747317D+03
0.127196513134D-04 0.000000000000D+00 0.000000000000D+00 0.217849925208D-06 0.000000000000D+00  7 1 -2 -24 -11 11 23 21 0 0.11146005D+00 0.86927782D-02 0.37677161D+05 0.37677161D+05 0.37677161D+05 0.11582644D+01  1  2  2  1  7  1        1 0.267347342360D-02 0.100000000000D+01
-.705169219331D-06 0.000000000000D+00 -.488468102044D-07 0.217849925208D-06 0.000000000000D+00  7 1 -2 -24 -11 11 23 21 2 0.11146005D+00 0.86927782D-02 0.37677161D+05 0.37677161D+05 0.37677161D+05 0.11582644D+01  1  2  3  1  7  1        1 -.198842589898D-03 0.100000000000D+01
0.798275314283D-06 0.000000000000D+00 0.000000000000D+00 0.217849925208D-06 0.000000000000D+00  7 1 -2 -24 -11 11 23 21 2 0.11146005D+00 0.86927782D-02 0.37677161D+05 0.37677161D+05 0.37677161D+05 0.11582644D+01  1  2 15  1  7  1        1 0.225096511011D-03 0.100000000000D+01
-.202714805139D-05 0.000000000000D+00 -.386680023134D-05 0.217849925208D-06 0.000000000000D+00  7 1 -2 -24 -11 11 23 21 2 0.31690455D+00 0.86927782D-02 0.37677161D+05 0.37677161D+05 0.37677161D+05 0.11582644D+01  1  2  5  1  7  1        1 -.677006618060D-04 0.100000000000D+01
-.272762784704D-07 0.000000000000D+00 -.455069634042D-06 0.217849925208D-06 0.000000000000D+00  7 21 -2 -24 -11 11 23 -1 2 0.31690455D+00 0.86927782D-02 0.37677161D+05 0.37677161D+05 0.37677161D+05 0.11582644D+01  1  2  5  3  7  1        1 -.488269885594D-06 0.100000000000D+01
  </mgrwgt>
  </event>
  <event>
  8     66 0.29493621E-05 0.32062132E+03 0.75467711E-02 0.90126646E-01
        1 -1    0    0  501    0 0.00000000E+00 0.00000000E+00 0.27416700E+03 0.27416719E+03 0.32000000E+00 0.0000E+00 0.9000E+01
       -2 -1    0    0    0  501 0.00000000E+00 0.00000000E+00 -.51744607E+03 0.51744617E+03 0.32000000E+00 0.0000E+00 0.9000E+01
       25  2    1    2    0    0 0.29810275E+03 0.22241425E+02 -.22878237E+03 0.48171450E+03 0.30057870E+03 0.0000E+00 0.0000E+00
       23  2    3    3    0    0 0.10096929E+03 -.21546132E+02 0.29885989E+02 0.14112160E+03 0.91449987E+02 0.0000E+00 0.0000E+00
      -24  1    1    2    0    0 -.29810275E+03 -.22241425E+02 -.14496697E+02 0.30989886E+03 0.80419002E+02 0.0000E+00 0.9000E+01
      -11  1    4    4    0    0 0.12844063E+02 0.10242040E+02 0.43459012E+02 0.46460253E+02 0.51099893E-03 0.0000E+00 0.9000E+01
       11  1    4    4    0    0 0.88125229E+02 -.31788172E+02 -.13573023E+02 0.94661348E+02 0.51099893E-03 0.0000E+00 0.9000E+01
       23  1    3    3    0    0 0.19713346E+03 0.43787557E+02 -.25866836E+03 0.34059290E+03 0.91188000E+02 0.0000E+00 0.9000E+01
#aMCatNLO 1  0  0  2  1 0.62358814D+03 0.00000000D+00  -5  7  0 0.00000000D+00 0.00000000D+00 0.00000000D+00 0.00000000D+00 0.00000000D+00
  <mgrwgt>
 0.6489819080D-03    5    2    0
 0.376652029924889D+03 0.000000000000000D+00 0.000000000000000D+00 0.376652029924889D+03
 0.376652029924889D+03 0.000000000000000D+00 0.000000000000000D+00 -.376652029924889D+03
 0.320977074967997D+03 -.298102752897191D+03 -.222414247320471D+02 0.848477132375734D+02
 0.628580509987191D+02 0.128440631670295D+02 0.102420398481747D+02 0.606734310589679D+02
 0.950919547547076D+02 0.881252292734472D+02 -.317881718873271D+02 0.163075428141545D+02
 0.274376979128355D+03 0.197133460456715D+03 0.437875567711995D+02 -.161828687110696D+03
 0.000000000000000D+00 -.000000000000000D+00 0.000000000000000D+00 -.000000000000000D+00
 0.722135626287330D+03 0.000000000000000D+00 0.000000000000000D+00 0.722135626287330D+03
 0.905881002784774D+03 0.000000000000000D+00 0.000000000000000D+00 -.905881002784774D+03
 0.424727243223275D+03 -.286834177671171D+03 -.290608044038238D+03 0.848477132375734D+02
 0.735758961015557D+02 0.149057599532455D+02 -.388582754493276D+02 0.606734310589679D+02
 0.152797705347163D+03 0.918711688026510D+02 -.120999550203948D+03 0.163075428141545D+02
 0.326819998050628D+03 0.206218339272261D+03 -.172573266636612D+03 -.161828687110696D+03
 0.650095786349482D+03 -.261610903569874D+02 0.623039136328126D+03 -.183745376497445D+03
0.393791633266D-04 0.000000000000D+00 0.000000000000D+00 0.239196784615D-05 0.000000000000D+00  7 1 -2 -24 -11 11 23 21 0 0.42179561D-01 0.79607110D-01 0.10279803D+06 0.10279803D+06 0.10279803D+06 0.11207399D+01  1  2  2  2  7  2       -2 0.627525160019D-03 0.100000000000D+01
-.211873012219D-05 0.000000000000D+00 -.151226355946D-06 0.239196784615D-05 0.000000000000D+00  7 1 -2 -24 -11 11 23 21 2 0.42179561D-01 0.79607110D-01 0.10279803D+06 0.10279803D+06 0.10279803D+06 0.11207399D+01  1  2  3  2  7  2       -2 -.424082109031D-04 0.100000000000D+01
0.250960546897D-05 0.000000000000D+00 0.000000000000D+00 0.239196784615D-05 0.000000000000D+00  7 1 -2 -24 -11 11 23 21 2 0.42179561D-01 0.79607110D-01 0.10279803D+06 0.10279803D+06 0.10279803D+06 0.11207399D+01  1  2 15  2  7  2       -2 0.502319181181D-04 0.100000000000D+01
0.123664809899D-04 0.000000000000D+00 -.129133255627D-04 0.239196784615D-05 0.000000000000D+00  7 1 -2 -24 -11 11 23 21 2 0.42179561D-01 0.29194217D+00 0.10279803D+06 0.10279803D+06 0.10279803D+06 0.11207399D+01  1  2  5  2  7  2       -2 0.578521955047D-05 0.100000000000D+01
0.222061847323D-05 0.000000000000D+00 -.197794476218D-05 0.239196784615D-05 0.000000000000D+00  7 1 21 -24 -11 11 23 2 2 0.42179561D-01 0.29194217D+00 0.10279803D+06 0.10279803D+06 0.10279803D+06 0.11207399D+01  1  2  5  4  7  2       -2 0.784782119897D-05 0.100000000000D+01
  </mgrwgt>
  </event>
  <event>
  8     66 0.29493621E-05 0.36142786E+03 0.75467711E-02 0.91318959E-01
        1 -1    0    0  501    0 0.00000000E+00 0.00000000E+00 0.15610044E+04 0.15610044E+04 0.32000000E+00 0.0000E+00 0.9000E+01
       -2 -1    0    0    0  501 0.00000000E+00 0.00000000E+00 -.44399438E+03 0.44399449E+03 0.32000000E+00 0.0000E+00 0.9000E+01
       25  2    1    2    0    0 0.19862625E+03 -.45291141E+03 0.13378643E+04 0.14574362E+04 0.29943011E+03 0.0000E+00 0.0000E+00
       23  2    3    3    0    0 0.13369262E+03 -.16433715E+03 0.84042037E+03 0.87155469E+03 0.91764703E+02 0.0000E+00 0.0000E+00
      -24  1    1    2    0    0 -.19862625E+03 0.45291141E+03 -.22085423E+03 0.54756272E+03 0.80419002E+02 0.0000E+00 0.9000E+01
      -11  1    4    4    0    0 0.20027889E+02 0.73805977E+01 0.43455467E+02 0.48414535E+02 0.51099893E-03 0.0000E+00 0.9000E+01
       11  1    4    4    0    0 0.11366474E+03 -.17171775E+03 0.79696491E+03 0.82314016E+03 0.51099893E-03 0.0000E+00 0.9000E+01
       23  1    3    3    0    0 0.64933625E+02 -.28857426E+03 0.49744388E+03 0.58588151E+03 0.91188000E+02 0.0000E+00 0.9000E+01
#aMCatNLO 1  0  0  1  2 0.28250485D+03 0.00000000D+00  -5  7  0 0.00000000D+00 0.00000000D+00 0.00000000D+00 0.00000000D+00 0.00000000D+00
  <mgrwgt>
 0.1293798145D-02    9    2    0
 0.832512658592956D+03 0.000000000000000D+00 0.000000000000000D+00 0.832512658592956D+03
 0.832512658592956D+03 0.000000000000000D+00 0.000000000000000D+00 -.832512658592956D+03
 0.807530703877088D+03 -.198626249095966D+03 0.452911408912675D+03 -.633290999933410D+03
 0.291472429867699D+02 0.200278885722574D+02 0.738059774181634D+01 0.198487337137798D+02
 0.456556026706028D+03 0.113664735429046D+03 -.171717748352863D+03 0.407476070882774D+03
 0.371791343616025D+03 0.649336250946622D+02 -.288574258301629D+03 0.205966195336856D+03
 0.000000000000000D+00 0.000000000000000D+00 0.000000000000000D+00 0.000000000000000D+00
 0.127536546946822D+04 0.000000000000000D+00 0.000000000000000D+00 0.127536546946822D+04
 0.890708571056780D+03 0.000000000000000D+00 0.000000000000000D+00 -.890708571056780D+03
 0.806761780000253D+03 -.313794982521132D+03 0.380621297437112D+03 -.633290999933410D+03
 0.260199344255042D+02 0.160920875865819D+02 0.491013997486532D+01 0.198487337137798D+02
 0.462236134856843D+03 0.481151955625101D+02 -.212862453197626D+03 0.407476070882774D+03
 0.393803721340528D+03 0.103136508160086D+02 -.322858598434290D+03 0.205966195336856D+03
 0.477252469901873D+03 0.239274048556032D+03 0.150189614219938D+03 0.384656898411441D+03
0.109289984025D-02 0.000000000000D+00 0.000000000000D+00 0.216637832312D-04 0.000000000000D+00  7 1 -2 -24 -11 11 23 21 0 0.24015454D+00 0.68306839D-01 0.26928169D+06 0.26928169D+06 0.26928169D+06 0.10880400D+01  1  2  2  1  7  1        1 0.146774103625D-02 0.100000000000D+01
-.442219185807D-04 0.000000000000D+00 -.419702315368D-05 0.216637832312D-04 0.000000000000D+00  7 1 -2 -24 -11 11 23 21 2 0.24015454D+00 0.68306839D-01 0.26928169D+06 0.26928169D+06 0.26928169D+06 0.10880400D+01  1  2  3  1  7  1        1 -.703066403558D-04 0.100000000000D+01
0.679493651606D-04 0.000000000000D+00 0.000000000000D+00 0.216637832312D-04 0.000000000000D+00  7 1 -2 -24 -11 11 23 21 2 0.24015454D+00 0.68306839D-01 0.26928169D+06 0.26928169D+06 0.26928169D+06 0.10880400D+01  1  2 15  1  7  1        1 0.108029948317D-03 0.100000000000D+01
0.701430330492D-03 0.000000000000D+00 0.000000000000D+00 0.216637832312D-04 0.000000000000D+00  7 1 -2 -24 -11 11 23 21 2 0.37267680D+00 0.68306839D-01 0.45766352D+06 0.45766352D+06 0.45766352D+06 0.10712366D+01  1  2 12  1  7  1        1 0.275823025644D-03 0.100000000000D+01
-.130506497874D-02 0.000000000000D+00 0.000000000000D+00 0.216637832312D-04 0.000000000000D+00  7 1 -2 -24 -11 11 23 21 2 0.24015454D+00 0.68306839D-01 0.26928169D+06 0.26928169D+06 0.26928169D+06 0.10880400D+01  1  2  4  1  7  1        1 -.207487004286D-02 0.100000000000D+01
-.127267754478D-02 0.000000000000D+00 -.352289121710D-03 0.216637832312D-04 0.000000000000D+00  7 1 -2 -24 -11 11 23 21 2 0.37557573D+00 0.68306839D-01 0.26928169D+06 0.26928169D+06 0.26928169D+06 0.10880400D+01  1  2  5  1  7  1        1 -.520922517258D-03 0.100000000000D+01
0.132774267665D-02 0.000000000000D+00 0.319779928779D-03 0.216637832312D-04 0.000000000000D+00  7 1 -2 -24 -11 11 23 21 2 0.24015454D+00 0.68306839D-01 0.26928169D+06 0.26928169D+06 0.26928169D+06 0.10880400D+01  1  2  6  1  7  1        1 0.211092439787D-02 0.100000000000D+01
0.358014006423D-04 0.000000000000D+00 0.000000000000D+00 0.216637832312D-04 0.000000000000D+00  7 21 -2 -24 -11 11 23 -1 2 0.37267680D+00 0.68306839D-01 0.45766352D+06 0.45766352D+06 0.45766352D+06 0.10712366D+01  1  2 12  3  7  1        1 0.497400607490D-05 0.100000000000D+01
-.519112449359D-04 0.000000000000D+00 -.182197216057D-04 0.216637832312D-04 0.000000000000D+00  7 21 -2 -24 -11 11 23 -1 2 0.37557573D+00 0.68306839D-01 0.26928169D+06 0.26928169D+06 0.26928169D+06 0.10880400D+01  1  2  5  3  7  1        1 -.759506846879D-05 0.100000000000D+01
  </mgrwgt>
  </event>
  <event>
  8     66 0.29493621E-05 0.17872915E+03 0.75467711E-02 0.93936840E-01
        1 -1    0    0  501    0 0.00000000E+00 0.00000000E+00 0.13046222E+04 0.13046223E+04 0.32000000E+00 0.0000E+00 0.9000E+01
       -2 -1    0    0    0  501 0.00000000E+00 0.00000000E+00 -.16994687E+03 0.16994718E+03 0.32000000E+00 0.0000E+00 0.9000E+01
       25  2    1    2    0    0 -.25831242E+03 -.31699269E+03 0.48332123E+03 0.70130424E+03 0.30169281E+03 0.0000E+00 0.0000E+00
       23  2    3    3    0    0 -.19860232E+02 -.44454224E+02 0.11438808E+02 0.99536065E+02 0.86057975E+02 0.0000E+00 0.0000E+00
      -24  1    1    2    0    0 0.25831242E+03 0.31699269E+03 0.65135413E+03 0.77326521E+03 0.80419002E+02 0.0000E+00 0.9000E+01
      -13  1    4    4    0    0 -.40536396E-01 -.67954721E+02 0.50930377E+01 0.68145403E+02 0.10565837E+00 0.0000E+00 0.9000E+01
       13  1    4    4    0    0 -.19819695E+02 0.23500497E+02 0.63457708E+01 0.31390662E+02 0.10565837E+00 0.0000E+00 0.9000E+01
       23  1    3    3    0    0 -.23845219E+03 -.27253847E+03 0.47188242E+03 0.60176817E+03 0.91188000E+02 0.0000E+00 0.9000E+01
#aMCatNLO 1  0  0  2  1 0.15872745D+03 0.00000000D+00  -5  7  0 0.00000000D+00 0.00000000D+00 0.00000000D+00 0.00000000D+00 0.00000000D+00
  <mgrwgt>
 0.9428423892D-03    7    2    0
 0.470868051285296D+03 0.000000000000000D+00 0.000000000000000D+00 0.470868051285296D+03
 0.470868051285296D+03 0.000000000000000D+00 0.000000000000000D+00 -.470868051285296D+03
 0.425976848832190D+03 0.258312419049987D+03 0.316992689837677D+03 0.882008420631574D+02
 0.100565613523440D+03 -.405069005575154D-01 -.679548591118743D+02 -.741321664705831D+02
 0.415055098169730D+02 -.198197253052945D+02 0.235006344089007D+02 -.278855879688542D+02
 0.373688130397988D+03 -.238452186844135D+03 -.272538465134703D+03 0.138169123762799D+02
 0.000000000000000D+00 0.000000000000000D+00 0.000000000000000D+00 -.000000000000000D+00
 0.490018449509506D+03 0.000000000000000D+00 0.000000000000000D+00 0.490018449509506D+03
 0.981037028930034D+03 0.000000000000000D+00 0.000000000000000D+00 -.981037028930034D+03
 0.365165037110057D+03 0.205188708730190D+03 0.277482420420116D+03 0.882008420631574D+02
 0.108824848013121D+03 -.141006880387978D+02 -.784119891106527D+02 -.741321664705831D+02
 0.424075836967808D+02 -.254543339021501D+02 0.193099462513135D+02 -.278855879688542D+02
 0.438621530591340D+03 -.292997273998730D+03 -.313105870459161D+03 0.138169123762799D+02
 0.516036479028242D+03 0.127363587209488D+03 0.947254928983843D+02 -.491018579420529D+03
0.830124559165D-04 0.000000000000D+00 0.000000000000D+00 0.400659969653D-07 0.000000000000D+00  7 1 -2 -24 -13 13 23 21 0 0.20071114D+00 0.26145699D-01 0.19752494D+06 0.19752494D+06 0.19752494D+06 0.10982410D+01  1  2  2  2  7  2       -2 0.105815179781D-02 0.100000000000D+01
-.459309092645D-05 0.000000000000D+00 -.318789688401D-06 0.400659969653D-07 0.000000000000D+00  7 1 -2 -24 -13 13 23 21 2 0.20071114D+00 0.26145699D-01 0.19752494D+06 0.19752494D+06 0.19752494D+06 0.10982410D+01  1  2  3  2  7  2       -2 -.706163135627D-04 0.100000000000D+01
0.522984748176D-05 0.000000000000D+00 0.000000000000D+00 0.400659969653D-07 0.000000000000D+00  7 1 -2 -24 -13 13 23 21 2 0.20071114D+00 0.26145699D-01 0.19752494D+06 0.19752494D+06 0.19752494D+06 0.10982410D+01  1  2 15  2  7  2       -2 0.804061046408D-04 0.100000000000D+01
0.235882973233D-03 0.000000000000D+00 0.000000000000D+00 0.400659969653D-07 0.000000000000D+00  7 1 -2 -24 -13 13 23 21 2 0.20071114D+00 0.54430071D-01 0.28254756D+06 0.28254756D+06 0.28254756D+06 0.10864829D+01  1  2 12  2  7  2       -2 0.894090904908D-03 0.100000000000D+01
-.261148450816D-03 0.000000000000D+00 -.260509974191D-04 0.400659969653D-07 0.000000000000D+00  7 1 -2 -24 -13 13 23 21 2 0.20071114D+00 0.55706821D-01 0.19752494D+06 0.19752494D+06 0.19752494D+06 0.10982410D+01  1  2  5  2  7  2       -2 -.980820000107D-03 0.100000000000D+01
0.187029103731D-04 0.000000000000D+00 0.000000000000D+00 0.400659969653D-07 0.000000000000D+00  7 1 21 -24 -13 13 23 2 2 0.20071114D+00 0.54430071D-01 0.28254756D+06 0.28254756D+06 0.28254756D+06 0.10864829D+01  1  2 12  4  7  2       -2 0.729387917134D-03 0.100000000000D+01
-.197490850868D-04 0.000000000000D+00 -.213209499251D-05 0.400659969653D-07 0.000000000000D+00  7 1 21 -24 -13 13 23 2 2 0.20071114D+00 0.55706821D-01 0.19752494D+06 0.19752494D+06 0.19752494D+06 0.10982410D+01  1  2  5  4  7  2       -2 -.767758021646D-03 0.100000000000D+01
  </mgrwgt>
  </event>
  <event>
  8     66 0.29493621E-05 0.39216251E+03 0.75467711E-02 0.94433348E-01
        1 -1    0    0  501    0 0.00000000E+00 0.00000000E+00 0.15521558E+04 0.15521559E+04 0.32000000E+00 0.0000E+00 0.9000E+01
       -2 -1    0    0    0  501 0.00000000E+00 0.00000000E+00 -.28578337E+03 0.28578355E+03 0.32000000E+00 0.0000E+00 0.9000E+01
       25  2    1    2    0    0 -.28310947E+03 0.21051389E+03 -.56463613E+02 0.46650601E+03 0.29995441E+03 0.0000E+00 0.0000E+00
       23  2    3    3    0    0 -.13744817E+03 0.18738325E+03 0.61780154E+02 0.25662728E+03 0.89645377E+02 0.0000E+00 0.0000E+00
      -24  1    1    2    0    0 0.28310947E+03 -.21051389E+03 0.13228361E+04 0.13714334E+04 0.80419002E+02 0.0000E+00 0.9000E+01
      -11  1    4    4    0    0 -.23390076E+02 0.10703138E+03 0.27807719E+02 0.11303133E+03 0.51099893E-03 0.0000E+00 0.9000E+01
       11  1    4    4    0    0 -.11405809E+03 0.80351866E+02 0.33972434E+02 0.14359595E+03 0.51099893E-03 0.0000E+00 0.9000E+01
       23  1    3    3    0    0 -.14566131E+03 0.23130639E+02 -.11824377E+03 0.20987873E+03 0.91188000E+02 0.0000E+00 0.9000E+01
#aMCatNLO 1  0  0  1  2 0.22435218D+03 0.00000000D+00  -5  7  0 0.00000000D+00 0.00000000D+00 0.00000000D+00 0.00000000D+00 0.00000000D+00
  <mgrwgt>
 0.1206370183D-02    4    2    0
 0.666018410135549D+03 0.000000000000000D+00 0.000000000000000D+00 0.666018410135549D+03
 0.666018410135549D+03 0.000000000000000D+00 0.000000000000000D+00 -.666018410135549D+03
 0.634673392662538D+03 0.283109471774040D+03 -.210513889052828D+03 0.521417327010796D+03
 0.129523306251742D+03 -.233900759564848D+02 0.107031384608242D+03 -.690903315810178D+02
 0.165835431883602D+03 -.114058090604649D+03 0.803518658447246D+02 -.896421780799311D+02
 0.402004689473216D+03 -.145661305212906D+03 0.231306385998612D+02 -.362684817349847D+03
 0.000000000000000D+00 0.000000000000000D+00 -.000000000000000D+00 -.000000000000000D+00
 0.725732149905708D+03 0.000000000000000D+00 0.000000000000000D+00 0.725732149905708D+03
 0.925403549467886D+03 0.000000000000000D+00 0.000000000000000D+00 -.925403549467886D+03
 0.584844388945872D+03 0.193175109644628D+03 -.162428727243069D+03 0.521417327010796D+03
 0.143321612739962D+03 -.435112534578139D+02 0.117789564830415D+03 -.690903315810178D+02
 0.191493396062502D+03 -.140409604864161D+03 0.944412172016344D+02 -.896421780799311D+02
 0.431138880731453D+03 -.207102176907090D+03 0.559811996890278D+02 -.362684817349847D+03
 0.300337420893805D+03 0.197847925584436D+03 -.105783254478008D+03 -.199671399562178D+03
0.412685723804D-03 0.000000000000D+00 0.000000000000D+00 0.113023692127D-04 0.000000000000D+00  7 1 -2 -24 -11 11 23 21 0 0.23879322D+00 0.43966688D-01 0.15379143D+06 0.15379143D+06 0.15379143D+06 0.11066974D+01  1  2  2  1  7  1        1 0.140983682899D-02 0.100000000000D+01
-.151072569131D-04 0.000000000000D+00 -.158482184205D-05 0.113023692127D-04 0.000000000000D+00  7 1 -2 -24 -11 11 23 21 2 0.23879322D+00 0.43966688D-01 0.15379143D+06 0.15379143D+06 0.15379143D+06 0.11066974D+01  1  2  3  1  7  1        1 -.632110218367D-04 0.100000000000D+01
0.253098969802D-04 0.000000000000D+00 0.000000000000D+00 0.113023692127D-04 0.000000000000D+00  7 1 -2 -24 -11 11 23 21 2 0.23879322D+00 0.43966688D-01 0.15379143D+06 0.15379143D+06 0.15379143D+06 0.11066974D+01  1  2 15  1  7  1        1 0.105900393427D-03 0.100000000000D+01
-.588305976925D-04 0.000000000000D+00 0.000000000000D+00 0.113023692127D-04 0.000000000000D+00  7 1 -2 -24 -11 11 23 21 2 0.23879322D+00 0.43966688D-01 0.15379143D+06 0.15379143D+06 0.15379143D+06 0.11066974D+01  1  2  4  1  7  1        1 -.246156017389D-03 0.100000000000D+01
  </mgrwgt>
  </event>
  <event>
  8     66 0.29493621E-05 0.46268842E+03 0.75467711E-02 0.90235626E-01
        1 -1    0    0  501    0 0.00000000E+00 0.00000000E+00 0.29955897E+03 0.29955914E+03 0.32000000E+00 0.0000E+00 0.9000E+01
       -2 -1    0    0    0  501 0.00000000E+00 0.00000000E+00 -.17509656E+04 0.17509656E+04 0.32000000E+00 0.0000E+00 0.9000E+01
       25  2    1    2    0    0 -.48660278E+03 -.48998435E+03 -.73499930E+03 0.10522394E+04 0.30019478E+03 0.0000E+00 0.0000E+00
       23  2    3    3    0    0 -.18906688E+03 -.21364079E+03 -.15272941E+03 0.33652521E+03 0.92381091E+02 0.0000E+00 0.0000E+00
      -24  1    1    2    0    0 0.48660278E+03 0.48998435E+03 -.71640731E+03 0.99828532E+03 0.80419002E+02 0.0000E+00 0.9000E+01
      -13  1    4    4    0    0 -.36945681E+02 -.10278536E+01 -.30564575E+02 0.47960861E+02 0.10565837E+00 0.0000E+00 0.9000E+01
       13  1    4    4    0    0 -.15212120E+03 -.21261294E+03 -.12216484E+03 0.28856434E+03 0.10565837E+00 0.0000E+00 0.9000E+01
       23  1    3    3    0    0 -.29753590E+03 -.27634356E+03 -.58226989E+03 0.71571422E+03 0.91188000E+02 0.0000E+00 0.9000E+01
#aMCatNLO 1  0  0  1  2 0.87182513D+02 0.00000000D+00  -5  7  0 0.00000000D+00 0.00000000D+00 0.00000000D+00 0.00000000D+00 0.00000000D+00
  <mgrwgt>
 0.1052143398D-02    9    2    0
 0.724235906782738D+03 0.000000000000000D+00 0.000000000000000D+00 0.724235906782738D+03
 0.724235906782738D+03 0.000000000000000D+00 0.000000000000000D+00 -.724235906782738D+03
 0.695360753529841D+03 0.486602779463967D+03 0.489984354927791D+03 -.138718614164337D+02
 0.372688205088022D+02 -.369455304533676D+02 -.102757686148424D+01 0.478924288696451D+01
 0.286093205734823D+03 -.152121351508638D+03 -.212613215616903D+03 0.116206872980274D+03
 0.429749033792009D+03 -.297535897501961D+03 -.276343562449404D+03 -.107124254450805D+03
 0.000000000000000D+00 0.000000000000000D+00 0.000000000000000D+00 0.000000000000000D+00
 0.781647678600675D+03 0.000000000000000D+00 0.000000000000000D+00 0.781647678600675D+03
 0.759417539542074D+03 0.000000000000000D+00 0.000000000000000D+00 -.759417539542074D+03
 0.664196015146616D+03 0.445984414044547D+03 0.485380885977660D+03 -.138718614164337D+02
 0.395528127525432D+02 -.392406675479104D+02 -.128769546157862D+01 0.478924288696451D+01
 0.297149917533077D+03 -.169546429192097D+03 -.214588081007007D+03 0.116206872980274D+03
 0.450194423606562D+03 -.323825248358445D+03 -.279323057294587D+03 -.107124254450805D+03
 0.899720491039527D+02 0.866279310539060D+02 0.981794778551275D+01 0.222301390586008D+02
0.144764386238D-02 0.000000000000D+00 0.000000000000D+00 0.132218396996D-04 0.000000000000D+00  7 1 -2 -24 -13 13 23 21 0 0.46086011D-01 0.26937934D+00 0.49688042D+06 0.49688042D+06 0.49688042D+06 0.10687026D+01  1  2  2  1  7  1        1 0.608944726637D-03 0.100000000000D+01
-.803530312106D-04 0.000000000000D+00 -.555933360493D-05 0.132218396996D-04 0.000000000000D+00  7 1 -2 -24 -13 13 23 21 2 0.46086011D-01 0.26937934D+00 0.49688042D+06 0.49688042D+06 0.49688042D+06 0.10687026D+01  1  2  3  1  7  1        1 -.386039813580D-04 0.100000000000D+01
0.930734141823D-04 0.000000000000D+00 0.000000000000D+00 0.132218396996D-04 0.000000000000D+00  7 1 -2 -24 -13 13 23 21 2 0.46086011D-01 0.26937934D+00 0.49688042D+06 0.49688042D+06 0.49688042D+06 0.10687026D+01  1  2 15  1  7  1        1 0.447152309239D-04 0.100000000000D+01
0.259170976569D-02 0.000000000000D+00 0.000000000000D+00 0.132218396996D-04 0.000000000000D+00  7 1 -2 -24 -13 13 23 21 2 0.50786558D-01 0.26937934D+00 0.56343337D+06 0.56343337D+06 0.56343337D+06 0.10648635D+01  1  2 12  1  7  1        1 0.107730253713D-02 0.100000000000D+01
-.233668265681D-02 0.000000000000D+00 0.000000000000D+00 0.132218396996D-04 0.000000000000D+00  7 1 -2 -24 -13 13 23 21 2 0.46086011D-01 0.26937934D+00 0.49688042D+06 0.49688042D+06 0.49688042D+06 0.10687026D+01  1  2  4  1  7  1        1 -.112261170940D-02 0.100000000000D+01
-.783693638833D-02 0.000000000000D+00 -.165842338759D-02 0.132218396996D-04 0.000000000000D+00  7 1 -2 -24 -13 13 23 21 2 0.52163119D-01 0.26937934D+00 0.49688042D+06 0.49688042D+06 0.49688042D+06 0.10687026D+01  1  2  5  1  7  1        1 -.318822187832D-02 0.100000000000D+01
0.799359998102D-02 0.000000000000D+00 0.164578174591D-02 0.132218396996D-04 0.000000000000D+00  7 1 -2 -24 -13 13 23 21 2 0.46086011D-01 0.26937934D+00 0.49688042D+06 0.49688042D+06 0.49688042D+06 0.10687026D+01  1  2  6  1  7  1        1 0.384036270943D-02 0.100000000000D+01
0.410447072905D-04 0.000000000000D+00 0.000000000000D+00 0.132218396996D-04 0.000000000000D+00  7 21 -2 -24 -13 13 23 -1 2 0.50786558D-01 0.26937934D+00 0.56343337D+06 0.56343337D+06 0.56343337D+06 0.10648635D+01  1  2 12  3  7  1        1 0.712584092469D-04 0.100000000000D+01
-.144573566331D-03 0.000000000000D+00 -.323146305382D-04 0.132218396996D-04 0.000000000000D+00  7 21 -2 -24 -13 13 23 -1 2 0.52163119D-01 0.26937934D+00 0.49688042D+06 0.49688042D+06 0.49688042D+06 0.10687026D+01  1  2  5  3  7  1        1 -.241002645796D-03 0.100000000000D+01
  </mgrwgt>
  </event>
  <event>
  8     66 0.29493621E-05 0.18615061E+03 0.75467711E-02 0.10393880E+00
        1 -1    0    0  501    0 0.00000000E+00 0.00000000E+00 0.41463600E+04 0.41463600E+04 0.32000000E+00 0.0000E+00 0.9000E+01
       -2 -1    0    0    0  501 0.00000000E+00 0.00000000E+00 -.14388347E+02 0.14391905E+02 0.32000000E+00 0.0000E+00 0.9000E+01
       25  2    1    2    0    0 -.13490679E+03 0.15625499E+02 0.26755127E+04 0.26957660E+04 0.30056918E+03 0.0000E+00 0.0000E+00
       23  2    3    3    0    0 0.52519313E+02 -.30970783E+02 0.70862674E+03 0.71731823E+03 0.93145640E+02 0.0000E+00 0.0000E+00
      -24  1    1    2    0    0 0.13490679E+03 -.15625499E+02 0.14564589E+04 0.14649859E+04 0.80419002E+02 0.0000E+00 0.9000E+01
      -13  1    4    4    0    0 0.70417771E+02 -.26099851E+02 0.33866370E+03 0.34689044E+03 0.10565837E+00 0.0000E+00 0.9000E+01
       13  1    4    4    0    0 -.17898458E+02 -.48709315E+01 0.36996304E+03 0.37042779E+03 0.10565837E+00 0.0000E+00 0.9000E+01
       23  1    3    3    0    0 -.18742610E+03 0.46596282E+02 0.19668860E+04 0.19784477E+04 0.91188000E+02 0.0000E+00 0.9000E+01
#aMCatNLO 1  0  0  1  2 0.88107471D+01 0.00000000D+00  -5  7  0 0.00000000D+00 0.00000000D+00 0.00000000D+00 0.00000000D+00 0.00000000D+00
  <mgrwgt>
 0.1439999149D-02   11    2    0
 0.244267666459353D+03 0.000000000000000D+00 0.000000000000000D+00 0.244267666459353D+03
 0.244267666459353D+03 0.000000000000000D+00 0.000000000000000D+00 -.244267666459353D+03
 0.158424736982131D+03 0.134906793172297D+03 -.156255000898793D+02 0.136814559311212D+02
 0.900166089374063D+02 0.704178808684175D+02 -.260998782555809D+02 -.496297118028620D+02
 0.257530487121104D+02 -.178985676955958D+02 -.487090447409160D+01 0.178643522697797D+02
 0.214340938287058D+03 -.187426106345118D+03 0.465962828195518D+02 0.180839036019612D+02
 0.000000000000000D+00 -.000000000000000D+00 0.000000000000000D+00 0.000000000000000D+00
 0.249411710490774D+03 0.000000000000000D+00 0.000000000000000D+00 0.249411710490774D+03
 0.248109522863706D+03 0.000000000000000D+00 0.000000000000000D+00 -.248109522863706D+03
 0.160875889389614D+03 0.137692618056200D+03 -.163522637259457D+02 0.136814559311212D+02
 0.913789290356065D+02 0.720005154196130D+02 -.265127546167754D+02 -.496297118028620D+02
 0.254670646502000D+02 -.174516839297150D+02 -.498748713241557D+01 0.178643522697797D+02
 0.210892894406377D+03 -.183716038481938D+03 0.456284034579030D+02 0.180839036019612D+02
 0.890645587268299D+01 -.852541106415980D+01 0.222410201723369D+01 0.130218762706767D+01
0.547284229712D-04 0.000000000000D+00 0.000000000000D+00 0.285906182721D-06 0.000000000000D+00  7 1 -2 -24 -13 13 23 21 0 0.63790181D+00 0.22138665D-02 0.54069791D+05 0.54069791D+05 0.54069791D+05 0.11443181D+01  1  2  2  1  7  1        1 0.262380608613D-03 0.100000000000D+01
-.303150151245D-05 0.000000000000D+00 -.210171554534D-06 0.285906182721D-06 0.000000000000D+00  7 1 -2 -24 -13 13 23 21 2 0.63790181D+00 0.22138665D-02 0.54069791D+05 0.54069791D+05 0.54069791D+05 0.11443181D+01  1  2  3  1  7  1        1 -.190313717140D-04 0.100000000000D+01
0.355682433820D-05 0.000000000000D+00 0.000000000000D+00 0.285906182721D-06 0.000000000000D+00  7 1 -2 -24 -13 13 23 21 2 0.63790181D+00 0.22138665D-02 0.54069791D+05 0.54069791D+05 0.54069791D+05 0.11443181D+01  1  2 15  1  7  1        1 0.223292800032D-04 0.100000000000D+01
0.404732602678D-04 0.000000000000D+00 0.000000000000D+00 0.285906182721D-06 0.000000000000D+00  7 1 -2 -24 -13 13 23 21 2 0.65625981D+00 0.22138665D-02 0.56192019D+05 0.56192019D+05 0.56192019D+05 0.11428620D+01  1  2 12  1  7  1        1 0.193731319054D-03 0.100000000000D+01
-.341351956835D-04 0.000000000000D+00 0.000000000000D+00 0.285906182721D-06 0.000000000000D+00  7 1 -2 -24 -13 13 23 21 2 0.63790181D+00 0.22138665D-02 0.54069791D+05 0.54069791D+05 0.54069791D+05 0.11443181D+01  1  2  4  1  7  1        1 -.214296313201D-03 0.100000000000D+01
-.909617374684D-03 0.000000000000D+00 -.116087582788D-03 0.285906182721D-06 0.000000000000D+00  7 1 -2 -24 -13 13 23 21 2 0.65339310D+00 0.22138665D-02 0.54069791D+05 0.54069791D+05 0.54069791D+05 0.11443181D+01  1  2  5  1  7  1        1 -.456291407923D-02 0.100000000000D+01
0.917286468288D-03 0.000000000000D+00 0.118506264480D-03 0.285906182721D-06 0.000000000000D+00  7 1 -2 -24 -13 13 23 21 2 0.63790181D+00 0.22138665D-02 0.54069791D+05 0.54069791D+05 0.54069791D+05 0.11443181D+01  1  2  6  1  7  1        1 0.575860499310D-02 0.100000000000D+01
0.603088549630D-07 0.000000000000D+00 0.000000000000D+00 0.285906182721D-06 0.256690775791D-07  7 1 -2 -24 -13 13 23 21 2 0.65133541D+00 0.22486863D-02 0.56192019D+05 0.56192019D+05 0.56192019D+05 0.11428620D+01  1  2 11  1  7  1        1 0.303447376711D-06 0.100000000000D+01
0.870894722973D-06 0.000000000000D+00 0.000000000000D+00 0.285906182721D-06 0.000000000000D+00  7 21 -2 -24 -13 13 23 -1 2 0.65625981D+00 0.22138665D-02 0.56192019D+05 0.56192019D+05 0.56192019D+05 0.11428620D+01  1  2 12  3  7  1        1 0.291406987639D-06 0.100000000000D+01
-.392464912753D-05 0.000000000000D+00 -.503976851284D-06 0.285906182721D-06 0.000000000000D+00  7 21 -2 -24 -13 13 23 -1 2 0.65339310D+00 0.22138665D-02 0.54069791D+05 0.54069791D+05 0.54069791D+05 0.11443181D+01  1  2  5  3  7  1        1 -.140027930332D-05 0.100000000000D+01
0.381004951869D-09 0.000000000000D+00 0.000000000000D+00 0.285906182721D-06 0.984044427654D-10  7 21 -2 -24 -13 13 23 -1 2 0.65133541D+00 0.22486863D-02 0.56192019D+05 0.56192019D+05 0.56192019D+05 0.11428620D+01  1  2 11  3  7  1        1 0.137680932717D-09 0.100000000000D+01
  </mgrwgt>
  </event>
  <event>
  8     66 0.29493621E-05 0.15042570E+03 0.75467711E-02 0.99805198E-01
        1 -1    0    0  501    0 0.00000000E+00 0.00000000E+00 0.16010108E+04 0.16010108E+04 0.32000000E+00 0.0000E+00 0.9000E+01
       -2 -1    0    0    0  501 0.00000000E+00 0.00000000E+00 -.68432999E+02 0.68433747E+02 0.32000000E+00 0.0000E+00 0.9000E+01
       25  2    1    2    0    0 0.14286265E+03 0.15729409E+03 0.12706862E+04 0.13227378E+04 0.29973434E+03 0.0000E+00 0.0000E+00
       23  2    3    3    0    0 0.19103847E+03 0.59372285E+02 0.63886443E+03 0.67510858E+03 0.87195606E+02 0.0000E+00 0.0000E+00
      -24  1    1    2    0    0 -.14286265E+03 -.15729409E+03 0.26189161E+03 0.34670679E+03 0.80419002E+02 0.0000E+00 0.9000E+01
      -11  1    4    4    0    0 0.31372004E+01 -.15558587E+02 0.42314287E+02 0.45193037E+02 0.51099893E-03 0.0000E+00 0.9000E+01
       11  1    4    4    0    0 0.18790127E+03 0.74930872E+02 0.59655014E+03 0.62991555E+03 0.51099893E-03 0.0000E+00 0.9000E+01
       23  1    3    3    0    0 -.48175820E+02 0.97921810E+02 0.63182176E+03 0.64762920E+03 0.91188000E+02 0.0000E+00 0.9000E+01
#aMCatNLO 1  0  0  2  1 0.61013614D+02 0.00000000D+00  -5  7  0 0.00000000D+00 0.00000000D+00 0.00000000D+00 0.00000000D+00 0.00000000D+00
  <mgrwgt>
 0.1255635486D-02    9    2    0
 0.331002447916295D+03 0.000000000000000D+00 0.000000000000000D+00 0.331002447916295D+03
 0.331002447916295D+03 0.000000000000000D+00 0.000000000000000D+00 -.331002447916295D+03
 0.268032021911650D+03 -.142862652675867D+03 -.157294094922465D+03 -.142206817658696D+03
 0.160079371464072D+02 0.313720036990205D+01 -.155585871487418D+02 0.208384055470091D+01
 0.207475185691662D+03 0.187901272285450D+03 0.749308718238540D+02 0.460915284951124D+02
 0.170489751082871D+03 -.481758199794851D+02 0.979218102473529D+02 0.940314486088825D+02
 0.000000000000000D+00 -.000000000000000D+00 -.000000000000000D+00 -.000000000000000D+00
 0.350433590484353D+03 0.000000000000000D+00 0.000000000000000D+00 0.350433590484353D+03
 0.384027805152742D+03 0.000000000000000D+00 0.000000000000000D+00 -.384027805152742D+03
 0.249782217589099D+03 -.124514113447826D+03 -.142117545831069D+03 -.142206817658696D+03
 0.153846422543091D+02 0.424958378979175D+01 -.146385061891300D+02 0.208384055470091D+01
 0.226100724165025D+03 0.203264860196840D+03 0.876384908478713D+02 0.460915284951124D+02
 0.173543023008716D+03 -.359851570551951D+02 0.108005021342676D+03 0.940314486088825D+02
 0.696507886199443D+02 -.470151734836097D+02 -.388874601703483D+02 -.335942146683892D+02
0.284603800042D-04 0.000000000000D+00 0.000000000000D+00 0.402464022175D-06 0.000000000000D+00  7 1 -2 -24 -11 11 23 21 0 0.24630941D+00 0.10528214D-01 0.86310592D+05 0.86310592D+05 0.86310592D+05 0.11270068D+01  1  2  2  2  7  2       -2 0.103040480760D-02 0.100000000000D+01
-.155378416549D-05 0.000000000000D+00 -.109295353006D-06 0.402464022175D-06 0.000000000000D+00  7 1 -2 -24 -11 11 23 21 2 0.24630941D+00 0.10528214D-01 0.86310592D+05 0.86310592D+05 0.86310592D+05 0.11270068D+01  1  2  3  2  7  2       -2 -.714514321292D-04 0.100000000000D+01
0.182727454996D-05 0.000000000000D+00 0.000000000000D+00 0.402464022175D-06 0.000000000000D+00  7 1 -2 -24 -11 11 23 21 2 0.24630941D+00 0.10528214D-01 0.86310592D+05 0.86310592D+05 0.86310592D+05 0.11270068D+01  1  2 15  2  7  2       -2 0.840280049108D-04 0.100000000000D+01
0.397735816093D-04 0.000000000000D+00 0.000000000000D+00 0.402464022175D-06 0.000000000000D+00  7 1 -2 -24 -11 11 23 21 2 0.24630941D+00 0.12487256D-01 0.10524160D+06 0.10524160D+06 0.10524160D+06 0.11199058D+01  1  2 12  2  7  2       -2 0.137809381428D-02 0.100000000000D+01
-.396832814383D-04 0.000000000000D+00 0.000000000000D+00 0.402464022175D-06 0.000000000000D+00  7 1 -2 -24 -11 11 23 21 2 0.24630941D+00 0.10528214D-01 0.86310592D+05 0.86310592D+05 0.86310592D+05 0.11270068D+01  1  2  4  2  7  2       -2 -.182485273910D-02 0.100000000000D+01
-.799435925685D-04 0.000000000000D+00 -.200789094822D-04 0.402464022175D-06 0.000000000000D+00  7 1 -2 -24 -11 11 23 21 2 0.24630941D+00 0.12974195D-01 0.86310592D+05 0.86310592D+05 0.86310592D+05 0.11270068D+01  1  2  5  2  7  2       -2 -.265348691401D-02 0.100000000000D+01
0.827561067497D-04 0.000000000000D+00 0.196486077397D-04 0.402464022175D-06 0.000000000000D+00  7 1 -2 -24 -11 11 23 21 2 0.24630941D+00 0.10528214D-01 0.86310592D+05 0.86310592D+05 0.86310592D+05 0.11270068D+01  1  2  6  2  7  2       -2 0.380557510885D-02 0.100000000000D+01
0.100588870688D-05 0.000000000000D+00 0.000000000000D+00 0.402464022175D-06 0.000000000000D+00  7 1 21 -24 -11 11 23 2 2 0.24630941D+00 0.12487256D-01 0.10524160D+06 0.10524160D+06 0.10524160D+06 0.11199058D+01  1  2 12  4  7  2       -2 0.487885556383D-03 0.100000000000D+01
-.211597203277D-05 0.000000000000D+00 -.594033078589D-06 0.402464022175D-06 0.000000000000D+00  7 1 21 -24 -11 11 23 2 2 0.24630941D+00 0.12974195D-01 0.86310592D+05 0.86310592D+05 0.86310592D+05 0.11270068D+01  1  2  5  4  7  2       -2 -.980560720363D-03 0.100000000000D+01
  </mgrwgt>
  </event>
  <event>
  8     66 0.29493621E-05 0.18080752E+03 0.75467711E-02 0.98351466E-01
        1 -1    0    0  501    0 0.00000000E+00 0.00000000E+00 0.95619709E+03 0.95619714E+03 0.32000000E+00 0.0000E+00 0.9000E+01
       -2 -1    0    0    0  501 0.00000000E+00 0.00000000E+00 -.18752240E+03 0.18752267E+03 0.32000000E+00 0.0000E+00 0.9000E+01
       25  2    1    2    0    0 -.53591805E+02 0.28077755E+03 0.73706782E+03 0.84509911E+03 0.29868950E+03 0.0000E+00 0.0000E+00
       23  2    3    3    0    0 0.77080459E+02 0.52164870E+02 0.17789872E+03 0.22033969E+03 0.90769233E+02 0.0000E+00 0.0000E+00
      -24  1    1    2    0    0 0.53591805E+02 -.28077755E+03 0.31606864E+02 0.29862070E+03 0.80419002E+02 0.0000E+00 0.9000E+01
      -11  1    4    4    0    0 0.97184092E+02 0.45193409E+02 0.13429019E+03 0.17181690E+03 0.51099893E-03 0.0000E+00 0.9000E+01
       11  1    4    4    0    0 -.20103632E+02 0.69714618E+01 0.43608529E+02 0.48522790E+02 0.51099893E-03 0.0000E+00 0.9000E+01
       23  1    3    3    0    0 -.13067226E+03 0.22861268E+03 0.55916911E+03 0.62475942E+03 0.91188000E+02 0.0000E+00 0.9000E+01
#aMCatNLO 1  0  0  1  2 0.23960792D+02 0.00000000D+00  -5  7  0 0.00000000D+00 0.00000000D+00 0.00000000D+00 0.00000000D+00 0.00000000D+00
  <mgrwgt>
 0.2064735468D-02    9    2    0
 0.423448413870295D+03 0.000000000000000D+00 0.000000000000000D+00 0.423448413870295D+03
 0.423448413870295D+03 0.000000000000000D+00 0.000000000000000D+00 -.423448413870295D+03
 0.374594644926995D+03 0.535918051756835D+02 -.280777549138151D+03 -.228354589118756D+03
 0.110149098576261D+03 0.971840917887949D+02 0.451934085231510D+02 0.254092905530552D+02
 0.259485014284855D+02 -.201036324185171D+02 0.697146180923233D+01 0.148515120512248D+02
 0.336204582808848D+03 -.130672264545961D+03 0.228612678805767D+03 0.188093786514476D+03
 0.000000000000000D+00 0.000000000000000D+00 0.000000000000000D+00 0.000000000000000D+00
 0.439528551010815D+03 0.000000000000000D+00 0.000000000000000D+00 0.439528551010815D+03
 0.432638826938767D+03 0.000000000000000D+00 0.000000000000000D+00 -.432638826938767D+03
 0.378539377087236D+03 0.452893055878284D+02 -.287450699214663D+03 -.228354589118756D+03
 0.107249010856840D+03 0.947875094260149D+02 0.432671508210795D+02 0.254092905530552D+02
 0.262786495621469D+02 -.206793810726742D+02 0.650870271663811D+01 0.148515120512248D+02
 0.335168677255954D+03 -.138073438908098D+03 0.222663970619955D+03 0.188093786514476D+03
 0.249316631874065D+02 0.186760049669292D+02 0.150108750569897D+02 0.688972407204843D+01
0.412954173085D-04 0.000000000000D+00 0.000000000000D+00 0.168056366291D-05 0.000000000000D+00  7 1 -2 -24 -11 11 23 21 0 0.14710727D+00 0.28849625D-01 0.12392683D+06 0.12392683D+06 0.12392683D+06 0.11141560D+01  1  2  2  1  7  1        1 0.802504115716D-03 0.100000000000D+01
-.219902331928D-05 0.000000000000D+00 -.158585275798D-06 0.168056366291D-05 0.000000000000D+00  7 1 -2 -24 -11 11 23 21 2 0.14710727D+00 0.28849625D-01 0.12392683D+06 0.12392683D+06 0.12392683D+06 0.11141560D+01  1  2  3  1  7  1        1 -.530477840142D-04 0.100000000000D+01
0.264113918419D-05 0.000000000000D+00 0.000000000000D+00 0.168056366291D-05 0.000000000000D+00  7 1 -2 -24 -11 11 23 21 2 0.14710727D+00 0.28849625D-01 0.12392683D+06 0.12392683D+06 0.12392683D+06 0.11141560D+01  1  2 15  1  7  1        1 0.637130947025D-04 0.100000000000D+01
0.102287527596D-03 0.000000000000D+00 0.000000000000D+00 0.168056366291D-05 0.000000000000D+00  7 1 -2 -24 -11 11 23 21 2 0.15424197D+00 0.28849625D-01 0.13291662D+06 0.13291662D+06 0.13291662D+06 0.11117198D+01  1  2 12  1  7  1        1 0.226038874784D-02 0.100000000000D+01
-.927611938859D-04 0.000000000000D+00 0.000000000000D+00 0.168056366291D-05 0.000000000000D+00  7 1 -2 -24 -11 11 23 21 2 0.14710727D+00 0.28849625D-01 0.12392683D+06 0.12392683D+06 0.12392683D+06 0.11141560D+01  1  2  4  1  7  1        1 -.223770968457D-02 0.100000000000D+01
-.603830871317D-03 0.000000000000D+00 -.970054277064D-04 0.168056366291D-05 0.000000000000D+00  7 1 -2 -24 -11 11 23 21 2 0.15492800D+00 0.28849625D-01 0.12392683D+06 0.12392683D+06 0.12392683D+06 0.11141560D+01  1  2  5  1  7  1        1 -.133216303972D-01 0.100000000000D+01
0.608169526241D-03 0.000000000000D+00 0.968754364837D-04 0.168056366291D-05 0.000000000000D+00  7 1 -2 -24 -11 11 23 21 2 0.14710727D+00 0.28849625D-01 0.12392683D+06 0.12392683D+06 0.12392683D+06 0.11141560D+01  1  2  6  1  7  1        1 0.146710793784D-01 0.100000000000D+01
0.132728467990D-05 0.000000000000D+00 0.000000000000D+00 0.168056366291D-05 0.000000000000D+00  7 21 -2 -24 -11 11 23 -1 2 0.15424197D+00 0.28849625D-01 0.13291662D+06 0.13291662D+06 0.13291662D+06 0.11117198D+01  1  2 12  3  7  1        1 0.400719199714D-04 0.100000000000D+01
-.534337183851D-05 0.000000000000D+00 -.873096399286D-06 0.168056366291D-05 0.000000000000D+00  7 21 -2 -24 -11 11 23 -1 2 0.15492800D+00 0.28849625D-01 0.12392683D+06 0.12392683D+06 0.12392683D+06 0.11141560D+01  1  2  5  3  7  1        1 -.160633922474D-03 0.100000000000D+01
  </mgrwgt>
  </event>
  <event>
  8     66 -.29493621E-05 0.99604475E+02 0.75467711E-02 0.10692587E+00
        1 -1    0    0  501    0 0.00000000E+00 0.00000000E+00 0.60050828E+03 0.60050836E+03 0.32000000E+00 0.0000E+00 0.9000E+01
       -2 -1    0    0    0  501 0.00000000E+00 0.00000000E+00 -.45250537E+03 0.45250549E+03 0.32000000E+00 0.0000E+00 0.9000E+01
       25  2    1    2    0    0 0.56335021E+02 -.10353968E+03 0.54438162E+03 0.63173318E+03 0.29806268E+03 0.0000E+00 0.0000E+00
       23  2    3    3    0    0 0.70408407E+02 0.16029741E+02 0.41999687E+03 0.43607602E+03 0.92469601E+02 0.0000E+00 0.0000E+00
      -24  1    1    2    0    0 -.56335021E+02 0.10353968E+03 -.39637872E+03 0.42128067E+03 0.80419002E+02 0.0000E+00 0.9000E+01
      -11  1    4    4    0    0 0.41801815E+02 -.18079716E+02 0.71675563E+02 0.84921459E+02 0.51099893E-03 0.0000E+00 0.9000E+01
       11  1    4    4    0    0 0.28606592E+02 0.34109458E+02 0.34832131E+03 0.35115456E+03 0.51099893E-03 0.0000E+00 0.9000E+01
       23  1    3    3    0    0 -.14073386E+02 -.11956942E+03 0.12438475E+03 0.19565716E+03 0.91188000E+02 0.0000E+00 0.9000E+01
#aMCatNLO 1  0  0  1  2 0.23960792D+02 0.00000000D+00  -5  7  0 0.00000000D+00 0.00000000D+00 0.00000000D+00 0.00000000D+00 0.00000000D+00
  <mgrwgt>
 -.9526244899D-04    1    2    0
 0.521280468361894D+03 0.000000000000000D+00 0.000000000000000D+00 0.521280468361894D+03
 0.521280468361894D+03 0.000000000000000D+00 0.000000000000000D+00 -.521280468361894D+03
 0.481774794447934D+03 -.563350210146723D+02 0.103539680021553D+03 -.460158273509550D+03
 0.755977692220896D+02 0.418018147066337D+02 -.180797160506245D+02 0.603386680837203D+02
 0.305227290448990D+03 0.286065924779429D+02 0.341094575037548D+02 0.301963419324978D+03
 0.179961082604774D+03 -.140733861699044D+02 -.119569421474683D+03 0.978561861008509D+02
 0.000000000000000D+00 -.000000000000000D+00 -.000000000000000D+00 -.000000000000000D+00
 0.544041699027643D+03 0.000000000000000D+00 0.000000000000000D+00 0.544041699027643D+03
 0.702924583554792D+03 0.000000000000000D+00 0.000000000000000D+00 -.702924583554792D+03
 0.479501622802346D+03 -.241047699714193D+01 0.108181066906690D+03 -.460158273509550D+03
 0.806082747664298D+02 0.505644760428579D+02 -.173254973150590D+02 0.603386680837203D+02
 0.310718804265721D+03 0.631592057542359D+02 0.370834658895404D+02 0.301963419324978D+03
 0.178363438415370D+03 0.602747770188701D+01 -.117839302330345D+03 0.978561861008509D+02
 0.197774142332568D+03 -.117340682501839D+03 -.100997331508269D+02 -.158882884527149D+03
-.928170106871D-05 0.000000000000D+00 0.000000000000D+00 0.842814841675D-06 0.000000000000D+00  7 1 -2 -24 -11 11 23 21 2 0.92385904D-01 0.69616227D-01 0.36822705D+05 0.36822705D+05 0.36822705D+05 0.11591678D+01  1  2 14  1  7  1        1 -.952624489858D-04 0.100000000000D+01
  </mgrwgt>
  </event>
  <event>
  8     66 0.29493621E-05 0.24470736E+03 0.75467711E-02 0.86128691E-01
        3 -1    0    0  501    0 0.00000000E+00 0.00000000E+00 0.32981462E+03 0.32981499E+03 0.50000000E+00 0.0000E+00 0.9000E+01
       -4 -1    0    0    0  501 0.00000000E+00 0.00000000E+00 -.23851537E+03 0.23852041E+03 0.15500000E+01 0.0000E+00 0.9000E+01
       25  2    1    2    0    0 -.68825883E+02 -.15046946E+03 0.15043089E+03 0.37509506E+03 0.30114580E+03 0.0000E+00 0.0000E+00
       23  2    3    3    0    0 -.33162296E+02 0.29504332E+02 0.13610659E+03 0.16971031E+03 0.91139142E+02 0.0000E+00 0.0000E+00
      -24  1    1    2    0    0 0.68825883E+02 0.15046946E+03 -.59131646E+02 0.19324034E+03 0.80419002E+02 0.0000E+00 0.9000E+01
      -13  1    4    4    0    0 -.56229200E+02 -.77305494E+01 0.87327141E+02 0.10415145E+03 0.10565837E+00 0.0000E+00 0.9000E+01
       13  1    4    4    0    0 0.23066904E+02 0.37234882E+02 0.48779448E+02 0.65558860E+02 0.10565837E+00 0.0000E+00 0.9000E+01
       23  1    3    3    0    0 -.35663586E+02 -.17997379E+03 0.14324303E+02 0.20538475E+03 0.91188000E+02 0.0000E+00 0.9000E+01
#aMCatNLO 1  0  0  1  2 0.10862208D+04 0.00000000D+00  -5  7  0 0.00000000D+00 0.00000000D+00 0.00000000D+00 0.00000000D+00 0.00000000D+00
  <mgrwgt>
 0.1254414942D-03    5    2    0
 0.280477082612640D+03 0.000000000000000D+00 0.000000000000000D+00 0.280477082612640D+03
 0.280477082612640D+03 0.000000000000000D+00 0.000000000000000D+00 -.280477082612640D+03
 0.205407161252540D+03 0.688258845101896D+02 0.150469465932008D+03 -.913609510840536D+02
 0.913088507939672D+02 -.562293070097055D+02 -.773061246136893D+01 0.715248830652338D+02
 0.584822610787938D+02 0.230670100592019D+02 0.372349394874337D+02 0.387510927482572D+02
 0.205755892099979D+03 -.356635875596860D+02 -.179973792958073D+03 -.189150247294374D+02
 0.000000000000000D+00 0.000000000000000D+00 -.000000000000000D+00 0.000000000000000D+00
 0.229125258535988D+04 0.000000000000000D+00 0.000000000000000D+00 0.229125258535988D+04
 0.786835278876031D+03 0.000000000000000D+00 0.000000000000000D+00 -.786835278876031D+03
 0.383909029961375D+03 -.280750534167254D+03 0.231843139888443D+03 -.913609510840536D+02
 0.301646371318697D+03 -.289326380015259D+03 0.465292409083603D+02 0.715248830652338D+02
 0.100296430766023D+03 -.711189079334241D+02 0.591593422003390D+02 0.387510927482572D+02
 0.436664121906389D+03 -.416740658122543D+03 -.912674625666403D+02 -.189150247294374D+02
 0.185557191028343D+04 0.105793648023848D+04 -.246264260430502D+03 0.150441730648385D+04
0.133692509797D-04 0.000000000000D+00 0.000000000000D+00 0.447534509230D-06 0.000000000000D+00  7 3 -4 -24 -13 13 23 21 0 0.50741127D-01 0.36695089D-01 0.59881693D+05 0.59881693D+05 0.59881693D+05 0.11404691D+01  1  2  2  1  7  1        3 0.123674395906D-03 0.100000000000D+01
-.725927654598D-06 0.000000000000D+00 -.513414439667D-07 0.447534509230D-06 0.000000000000D+00  7 3 -4 -24 -13 13 23 21 2 0.50741127D-01 0.36695089D-01 0.59881693D+05 0.59881693D+05 0.59881693D+05 0.11404691D+01  1  2  3  1  7  1        3 -.873440079881D-05 0.100000000000D+01
0.863785209358D-06 0.000000000000D+00 0.000000000000D+00 0.447534509230D-06 0.000000000000D+00  7 3 -4 -24 -13 13 23 21 2 0.50741127D-01 0.36695089D-01 0.59881693D+05 0.59881693D+05 0.59881693D+05 0.11404691D+01  1  2 15  1  7  1        3 0.103931103531D-04 0.100000000000D+01
0.223200307029D-04 0.000000000000D+00 -.114576486016D-04 0.447534509230D-06 0.000000000000D+00  7 3 -4 -24 -13 13 23 21 2 0.59975077D+00 0.36695089D-01 0.59881693D+05 0.59881693D+05 0.59881693D+05 0.11404691D+01  1  2  5  1  7  1        3 0.792448818657D-07 0.100000000000D+01
0.428815760362D-05 0.000000000000D+00 -.330027951355D-05 0.447534509230D-06 0.000000000000D+00  7 21 -4 -24 -13 13 23 -3 2 0.59975077D+00 0.36695089D-01 0.59881693D+05 0.59881693D+05 0.59881693D+05 0.11404691D+01  1  2  5  3  7  1        3 0.291438529366D-07 0.100000000000D+01
  </mgrwgt>
  </event>
  <event>
  8     66 0.29493621E-05 0.23181286E+03 0.75467711E-02 0.91013157E-01
        1 -1    0    0  501    0 0.00000000E+00 0.00000000E+00 0.28849147E+03 0.28849165E+03 0.32000000E+00 0.0000E+00 0.9000E+01
       -2 -1    0    0    0  501 0.00000000E+00 0.00000000E+00 -.23299884E+03 0.23299906E+03 0.32000000E+00 0.0000E+00 0.9000E+01
       25  2    1    2    0    0 -.10405404E+03 0.10564772E+03 -.23583526E+02 0.33518736E+03 0.29967599E+03 0.0000E+00 0.0000E+00
       23  2    3    3    0    0 0.45555111E+02 0.43834132E+02 -.85633178E+02 0.13930671E+03 0.89870014E+02 0.0000E+00 0.0000E+00
      -24  1    1    2    0    0 0.10405404E+03 -.10564772E+03 0.79076156E+02 0.18630335E+03 0.80419002E+02 0.0000E+00 0.9000E+01
      -11  1    4    4    0    0 0.19581133E+02 0.69753463E+02 -.64260408E+02 0.96841966E+02 0.51099893E-03 0.0000E+00 0.9000E+01
       11  1    4    4    0    0 0.25973979E+02 -.25919331E+02 -.21372770E+02 0.42464745E+02 0.51099893E-03 0.0000E+00 0.9000E+01
       23  1    3    3    0    0 -.14960915E+03 0.61813587E+02 0.62049652E+02 0.19588065E+03 0.91188000E+02 0.0000E+00 0.9000E+01
#aMCatNLO 1  0  0  2  2 0.61699549D+03 0.00000000D+00  -5  7  0 0.00000000D+00 0.00000000D+00 0.00000000D+00 0.00000000D+00 0.00000000D+00
  <mgrwgt>
 0.7220054645D-03    5    2    0
 0.259264887353538D+03 0.000000000000000D+00 0.000000000000000D+00 0.259264887353538D+03
 0.259264887353538D+03 0.000000000000000D+00 0.000000000000000D+00 -.259264887353538D+03
 0.178904522730719D+03 0.104054039467787D+03 -.105647718954670D+03 0.595896689808473D+02
 0.104272053649891D+03 0.195811325916836D+02 0.697534633545582D+02 -.749912979540761D+02
 0.449945260138046D+02 0.259739788071930D+02 -.259193312093755D+02 -.260393560939805D+02
 0.190358672312660D+03 -.149609150866664D+03 0.618135868094874D+02 0.414409850672094D+02
 0.000000000000000D+00 -.000000000000000D+00 -.000000000000000D+00 -.000000000000000D+00
 0.595566436745015D+03 0.000000000000000D+00 0.000000000000000D+00 0.595566436745015D+03
 0.897135638673278D+03 0.000000000000000D+00 0.000000000000000D+00 -.897135638673278D+03
 0.384669833637995D+03 0.364404458202200D+03 -.718479446458061D+02 0.595896689808473D+02
 0.195861236074841D+03 0.158231564026233D+03 0.877536390911490D+02 -.749912979540761D+02
 0.966134407664387D+02 0.913915994472007D+02 -.174265435879707D+02 -.260393560939805D+02
 0.128806211130714D+03 -.216683006057244D+01 0.809551621948713D+02 0.414409850672094D+02
 0.686751353808305D+03 -.611860791615061D+03 -.794343130522434D+02 -.301569201928263D+03
0.933869924369D-05 0.000000000000D+00 0.000000000000D+00 0.617924382879D-06 0.000000000000D+00  7 1 -2 -24 -11 11 23 21 0 0.44383334D-01 0.35846006D-01 0.53737204D+05 0.53737204D+05 0.53737204D+05 0.11445519D+01  1  2  2  2  7  2       -2 0.688572570555D-03 0.100000000000D+01
-.510915124257D-06 0.000000000000D+00 -.358630640318D-07 0.617924382879D-06 0.000000000000D+00  7 1 -2 -24 -11 11 23 21 2 0.44383334D-01 0.35846006D-01 0.53737204D+05 0.53737204D+05 0.53737204D+05 0.11445519D+01  1  2  3  2  7  2       -2 -.493495397685D-04 0.100000000000D+01
0.609992078788D-06 0.000000000000D+00 0.000000000000D+00 0.617924382879D-06 0.000000000000D+00  7 1 -2 -24 -11 11 23 21 2 0.44383334D-01 0.35846006D-01 0.53737204D+05 0.53737204D+05 0.53737204D+05 0.11445519D+01  1  2 15  2  7  2       -2 0.589194308828D-04 0.100000000000D+01
0.826125343372D-05 0.000000000000D+00 -.462322350134D-05 0.617924382879D-06 0.000000000000D+00  7 1 -2 -24 -11 11 23 21 2 0.44383334D-01 0.23082164D+00 0.53737204D+05 0.53737204D+05 0.53737204D+05 0.11445519D+01  1  2  5  2  7  2       -2 0.953486994137D-05 0.100000000000D+01
0.152510795192D-05 0.000000000000D+00 -.105481083418D-05 0.617924382879D-06 0.000000000000D+00  7 1 21 -24 -11 11 23 2 2 0.44383334D-01 0.23082164D+00 0.53737204D+05 0.53737204D+05 0.53737204D+05 0.11445519D+01  1  2  5  4  7  2       -2 0.143281328778D-04 0.100000000000D+01
  </mgrwgt>
  </event>
  <event>
  8     66 0.29493621E-05 0.16646601E+03 0.75467711E-02 0.10070970E+00
        1 -1    0    0  501    0 0.00000000E+00 0.00000000E+00 0.43583880E+03 0.43583892E+03 0.32000000E+00 0.0000E+00 0.9000E+01
       -2 -1    0    0    0  501 0.00000000E+00 0.00000000E+00 -.36839880E+03 0.36839894E+03 0.32000000E+00 0.0000E+00 0.9000E+01
       25  2    1    2    0    0 0.18756235E+03 -.12941204E+03 -.21310676E+03 0.43396658E+03 0.30163784E+03 0.0000E+00 0.0000E+00
       23  2    3    3    0    0 0.84448094E+02 0.62534624E+02 -.94638510E+02 0.16972038E+03 0.93842958E+02 0.0000E+00 0.0000E+00
      -24  1    1    2    0    0 -.18756235E+03 0.12941204E+03 0.28054677E+03 0.37027128E+03 0.80419002E+02 0.0000E+00 0.9000E+01
      -13  1    4    4    0    0 0.18659435E+02 0.47766383E+02 0.26509833E+01 0.51350178E+02 0.10565837E+00 0.0000E+00 0.9000E+01
       13  1    4    4    0    0 0.65788660E+02 0.14768241E+02 -.97289493E+02 0.11837020E+03 0.10565837E+00 0.0000E+00 0.9000E+01
       23  1    3    3    0    0 0.10311426E+03 -.19194667E+03 -.11846825E+03 0.26424620E+03 0.91188000E+02 0.0000E+00 0.9000E+01
#aMCatNLO 1  0  0  2  1 0.74628943D+01 0.00000000D+00  -5  7  0 0.00000000D+00 0.00000000D+00 0.00000000D+00 0.00000000D+00 0.00000000D+00
  <mgrwgt>
 0.7759930380D-03   11    2    0
 0.400702624479102D+03 0.000000000000000D+00 0.000000000000000D+00 0.400702624479102D+03
 0.400702624479102D+03 0.000000000000000D+00 0.000000000000000D+00 -.400702624479102D+03
 0.347971395691096D+03 -.187562353201447D+03 0.129412043018215D+03 0.250379238452844D+03
 0.513084947210732D+02 0.186593749606415D+02 0.477664242967244D+02 -.166074276330693D+01
 0.126975808276175D+03 0.657887191477687D+02 0.147681992334664D+02 -.107594612372946D+03
 0.275149550269859D+03 0.103114259093037D+03 -.191946666548406D+03 -.141123883316591D+03
 0.000000000000000D+00 -.000000000000000D+00 -.000000000000000D+00 -.000000000000000D+00
 0.401259926083741D+03 0.000000000000000D+00 0.000000000000000D+00 0.401259926083741D+03
 0.426508068385750D+03 0.000000000000000D+00 0.000000000000000D+00 -.426508068385750D+03
 0.349005319798431D+03 -.187228156263321D+03 0.132639932702205D+03 0.250379238452844D+03
 0.517710622363089D+02 0.187088011058095D+02 0.482438139011953D+02 -.166074276330693D+01
 0.127181199921699D+03 0.659105861944795D+02 0.159452698107802D+02 -.107594612372946D+03
 0.273482414456109D+03 0.103377325446180D+03 -.189405801954383D+03 -.141123883316591D+03
 0.263279980569437D+02 -.768556483147355D+00 -.742321445979703D+01 -.252481423020092D+02
0.259073322189D-04 0.000000000000D+00 0.000000000000D+00 0.145424537249D-06 0.000000000000D+00  7 1 -2 -24 -13 13 23 21 0 0.67052143D-01 0.56676758D-01 0.88970539D+05 0.88970539D+05 0.88970539D+05 0.11259109D+01  1  2  2  2  7  2       -2 0.460302472859D-03 0.100000000000D+01
-.128680922018D-05 0.000000000000D+00 -.994909772780D-07 0.145424537249D-06 0.000000000000D+00  7 1 -2 -24 -13 13 23 21 2 0.67052143D-01 0.56676758D-01 0.88970539D+05 0.88970539D+05 0.88970539D+05 0.11259109D+01  1  2  3  2  7  2       -2 -.289829671076D-04 0.100000000000D+01
0.167558246980D-05 0.000000000000D+00 0.000000000000D+00 0.145424537249D-06 0.000000000000D+00  7 1 -2 -24 -13 13 23 21 2 0.67052143D-01 0.56676758D-01 0.88970539D+05 0.88970539D+05 0.88970539D+05 0.11259109D+01  1  2 15  2  7  2       -2 0.377393562670D-04 0.100000000000D+01
0.869120242653D-03 0.000000000000D+00 0.000000000000D+00 0.145424537249D-06 0.000000000000D+00  7 1 -2 -24 -13 13 23 21 2 0.67052143D-01 0.60364769D-01 0.91328654D+05 0.91328654D+05 0.91328654D+05 0.11249691D+01  1  2 12  2  7  2       -2 0.171786216395D-01 0.100000000000D+01
-.896047916162D-03 0.000000000000D+00 0.000000000000D+00 0.145424537249D-06 0.000000000000D+00  7 1 -2 -24 -13 13 23 21 2 0.67052143D-01 0.56676758D-01 0.88970539D+05 0.88970539D+05 0.88970539D+05 0.11259109D+01  1  2  4  2  7  2       -2 -.201818007469D-01 0.100000000000D+01
-.122699042371D-02 0.000000000000D+00 -.526677137593D-04 0.145424537249D-06 0.000000000000D+00  7 1 -2 -24 -13 13 23 21 2 0.67052143D-01 0.60368885D-01 0.88970539D+05 0.88970539D+05 0.88970539D+05 0.11259109D+01  1  2  5  2  7  2       -2 -.243029497808D-01 0.100000000000D+01
0.122797276110D-02 0.000000000000D+00 0.525630044354D-04 0.145424537249D-06 0.000000000000D+00  7 1 -2 -24 -13 13 23 21 2 0.67052143D-01 0.56676758D-01 0.88970539D+05 0.88970539D+05 0.88970539D+05 0.11259109D+01  1  2  6  2  7  2       -2 0.276577860850D-01 0.100000000000D+01
0.213512791842D-04 0.000000000000D+00 0.000000000000D+00 0.145424537249D-06 0.176607996871D-07  7 1 -2 -24 -13 13 23 21 2 0.67145400D-01 0.60326768D-01 0.91328654D+05 0.91328654D+05 0.91328654D+05 0.11249691D+01  1  2 11  2  7  2       -2 0.421773013985D-03 0.100000000000D+01
0.129457107558D-04 0.000000000000D+00 0.000000000000D+00 0.145424537249D-06 0.000000000000D+00  7 1 21 -24 -13 13 23 2 2 0.67052143D-01 0.60364769D-01 0.91328654D+05 0.91328654D+05 0.91328654D+05 0.11249691D+01  1  2 12  4  7  2       -2 0.267224172400D-02 0.100000000000D+01
-.153892231437D-04 0.000000000000D+00 -.568297719532D-06 0.145424537249D-06 0.000000000000D+00  7 1 21 -24 -13 13 23 2 2 0.67052143D-01 0.60368885D-01 0.88970539D+05 0.88970539D+05 0.88970539D+05 0.11259109D+01  1  2  5  4  7  2       -2 -.318587131602D-02 0.100000000000D+01
0.228447236481D-06 0.000000000000D+00 0.000000000000D+00 0.145424537249D-06 0.188335825301D-09  7 1 21 -24 -13 13 23 2 2 0.67145400D-01 0.60326768D-01 0.91328654D+05 0.91328654D+05 0.91328654D+05 0.11249691D+01  1  2 11  4  7  2       -2 0.471335571985D-04 0.100000000000D+01
  </mgrwgt>
  </event>
  <event>
  8     66 0.29493621E-05 0.19479768E+03 0.75467711E-02 0.94884998E-01
        1 -1    0    0  501    0 0.00000000E+00 0.00000000E+00 0.20305301E+04 0.20305301E+04 0.32000000E+00 0.0000E+00 0.9000E+01
       -2 -1    0    0    0  501 0.00000000E+00 0.00000000E+00 -.24079361E+02 0.24081488E+02 0.32000000E+00 0.0000E+00 0.9000E+01
       25  2    1    2    0    0 -.25288827E+01 -.93071680E+02 0.15730912E+04 0.16041269E+04 0.29989763E+03 0.0000E+00 0.0000E+00
       23  2    3    3    0    0 0.81281026E+02 -.18408527E+02 0.11578714E+04 0.11644436E+04 0.91199172E+02 0.0000E+00 0.0000E+00
      -24  1    1    2    0    0 0.25288827E+01 0.93071680E+02 0.43335957E+03 0.45048470E+03 0.80419002E+02 0.0000E+00 0.9000E+01
      -11  1    4    4    0    0 -.72490562E+01 -.31619878E+02 0.39757372E+03 0.39889501E+03 0.51099893E-03 0.0000E+00 0.9000E+01
       11  1    4    4    0    0 0.88530083E+02 0.13211351E+02 0.76029769E+03 0.76554862E+03 0.51099893E-03 0.0000E+00 0.9000E+01
       23  1    3    3    0    0 -.83809909E+02 -.74663153E+02 0.41521974E+03 0.43968327E+03 0.91188000E+02 0.0000E+00 0.9000E+01
#aMCatNLO 1  0  0  2  1 0.40880463D+03 0.00000000D+00  -5  7  0 0.00000000D+00 0.00000000D+00 0.00000000D+00 0.00000000D+00 0.00000000D+00
  <mgrwgt>
 0.1028561046D-02    5    2    0
 0.221124575265605D+03 0.000000000000000D+00 0.000000000000000D+00 0.221124575265605D+03
 0.221124575265605D+03 0.000000000000000D+00 0.000000000000000D+00 -.221124575265605D+03
 0.126753139345588D+03 0.252888265507055D+01 0.930716799008822D+02 -.305026151753594D+02
 0.494342018144083D+02 -.724905621370658D+01 -.316198777490576D+02 0.373011370359246D+02
 0.107191222957366D+03 0.885300824957415D+02 0.132113511365289D+02 0.589732394696118D+02
 0.158870586413848D+03 -.838099089371055D+02 -.746631532883535D+02 -.657717613301770D+02
 0.000000000000000D+00 -.000000000000000D+00 0.000000000000000D+00 -.000000000000000D+00
 0.440875747745638D+03 0.000000000000000D+00 0.000000000000000D+00 0.440875747745638D+03
 0.600088644066064D+03 0.000000000000000D+00 0.000000000000000D+00 -.600088644066064D+03
 0.127741559122952D+03 0.860855832186004D+02 0.388529638788269D+02 -.305026151753594D+02
 0.776079058783736D+02 0.344619083577528D+02 -.586855101621815D+02 0.373011370359246D+02
 0.207973477448296D+03 0.192006196766334D+03 -.539327799369249D+02 0.589732394696118D+02
 0.188927451355179D+03 0.303805110336363D+02 -.148759639998304D+03 -.657717613301770D+02
 0.438713998006902D+03 -.342934199376323D+03 0.222524966218583D+03 -.159212896320426D+03
0.885408010097D-05 0.000000000000D+00 0.000000000000D+00 0.123161550606D-05 0.000000000000D+00  7 1 -2 -24 -11 11 23 21 0 0.31238941D+00 0.37046826D-02 0.37946138D+05 0.37946138D+05 0.37946138D+05 0.11579847D+01  1  2  2  2  7  2       -2 0.815048038050D-03 0.100000000000D+01
-.482282766028D-06 0.000000000000D+00 -.340019989206D-07 0.123161550606D-05 0.000000000000D+00  7 1 -2 -24 -11 11 23 21 2 0.31238941D+00 0.37046826D-02 0.37946138D+05 0.37946138D+05 0.37946138D+05 0.11579847D+01  1  2  3  2  7  2       -2 -.595315389272D-04 0.100000000000D+01
0.572530840249D-06 0.000000000000D+00 0.000000000000D+00 0.123161550606D-05 0.000000000000D+00  7 1 -2 -24 -11 11 23 21 2 0.31238941D+00 0.37046826D-02 0.37946138D+05 0.37946138D+05 0.37946138D+05 0.11579847D+01  1  2 15  2  7  2       -2 0.706714906775D-04 0.100000000000D+01
0.112142436789D-04 0.000000000000D+00 -.519452264716D-05 0.123161550606D-05 0.000000000000D+00  7 1 -2 -24 -11 11 23 21 2 0.31238941D+00 0.28350750D-01 0.37946138D+05 0.37946138D+05 0.37946138D+05 0.11579847D+01  1  2  5  2  7  2       -2 0.592367686402D-04 0.100000000000D+01
0.220000354282D-05 0.000000000000D+00 -.128669763961D-05 0.123161550606D-05 0.000000000000D+00  7 1 21 -24 -11 11 23 2 2 0.31238941D+00 0.28350750D-01 0.37946138D+05 0.37946138D+05 0.37946138D+05 0.11579847D+01  1  2  5  4  7  2       -2 0.143136287181D-03 0.100000000000D+01
  </mgrwgt>
  </event>
  <event>
  8     66 0.29493621E-05 0.52862653E+03 0.75467711E-02 0.92510135E-01
        1 -1    0    0  501    0 0.00000000E+00 0.00000000E+00 0.20365128E+04 0.20365128E+04 0.32000000E+00 0.0000E+00 0.9000E+01
       -2 -1    0    0    0  501 0.00000000E+00 0.00000000E+00 -.44633148E+03 0.44633159E+03 0.32000000E+00 0.0000E+00 0.9000E+01
       25  2    1    2    0    0 -.48731143E+03 0.45927585E+02 -.21305811E+03 0.61262480E+03 0.30055551E+03 0.0000E+00 0.0000E+00
       23  2    3    3    0    0 -.31392949E+03 0.12613087E+03 -.19228729E+03 0.39992656E+03 0.92228692E+02 0.0000E+00 0.0000E+00
      -24  1    1    2    0    0 0.48731143E+03 -.45927585E+02 0.18032394E+04 0.18702196E+04 0.80419002E+02 0.0000E+00 0.9000E+01
      -13  1    4    4    0    0 -.31991192E+03 0.12265923E+03 -.18325711E+03 0.38855128E+03 0.10565837E+00 0.0000E+00 0.9000E+01
       13  1    4    4    0    0 0.59824232E+01 0.34716401E+01 -.90301804E+01 0.11375280E+02 0.10565837E+00 0.0000E+00 0.9000E+01
       23  1    3    3    0    0 -.17338194E+03 -.80203281E+02 -.20770822E+02 0.21269824E+03 0.91188000E+02 0.0000E+00 0.9000E+01
#aMCatNLO 1  0  0  1  1 0.14576942D+03 0.00000000D+00  -5  7  0 0.00000000D+00 0.00000000D+00 0.00000000D+00 0.00000000D+00 0.00000000D+00
  <mgrwgt>
 0.8281732200D-03    4    2    0
 0.953393909020147D+03 0.000000000000000D+00 0.000000000000000D+00 0.953393909020147D+03
 0.953393909020147D+03 0.000000000000000D+00 0.000000000000000D+00 -.953393909020147D+03
 0.931402369660227D+03 0.487311428809333D+03 -.459275851492029D+02 0.788328222587829D+03
 0.658765486270319D+03 -.319912344391213D+03 0.122659382084689D+03 -.562656852614175D+03
 0.223418052646708D+02 0.598285094638725D+01 0.347148370919090D+01 -.212440711233654D+02
 0.294278156845078D+03 -.173381935364508D+03 -.802032806446773D+02 -.204427298850288D+03
 0.000000000000000D+00 -.000000000000000D+00 0.000000000000000D+00 -.000000000000000D+00
 0.994941780889835D+03 0.000000000000000D+00 0.000000000000000D+00 0.994941780889835D+03
 0.109320774946237D+04 0.000000000000000D+00 0.000000000000000D+00 -.109320774946237D+04
 0.964089053680230D+03 0.540934304588339D+03 -.944943334952714D+02 0.788328222587829D+03
 0.636266032830344D+03 -.283276296649962D+03 0.894777653736272D+02 -.562656852614175D+03
 0.225678415702419D+02 0.725333119433454D+01 0.232079767110891D+01 -.212440711233654D+02
 0.289428636658521D+03 -.156869047733371D+03 -.951591599480088D+02 -.204427298850288D+03
 0.175797965612865D+03 -.108042291399341D+03 0.978549303985441D+02 -.982659685725320D+02
0.202141162354D-02 0.000000000000D+00 0.000000000000D+00 0.266358795120D-04 0.000000000000D+00  7 1 -2 -24 -13 13 23 21 0 0.31330967D+00 0.68666392D-01 0.27944601D+06 0.27944601D+06 0.27944601D+06 0.10868397D+01  1  2  2  1  7  1        1 0.129366003492D-02 0.100000000000D+01
-.648115714108D-04 0.000000000000D+00 -.776275288430D-05 0.266358795120D-04 0.000000000000D+00  7 1 -2 -24 -13 13 23 21 2 0.31330967D+00 0.68666392D-01 0.27944601D+06 0.27944601D+06 0.27944601D+06 0.10868397D+01  1  2  3  1  7  1        1 -.489946822424D-04 0.100000000000D+01
0.123070932406D-03 0.000000000000D+00 0.000000000000D+00 0.266358795120D-04 0.000000000000D+00  7 1 -2 -24 -13 13 23 21 2 0.31330967D+00 0.68666392D-01 0.27944601D+06 0.27944601D+06 0.27944601D+06 0.10868397D+01  1  2 15  1  7  1        1 0.930361831269D-04 0.100000000000D+01
-.674018675313D-03 0.000000000000D+00 0.000000000000D+00 0.266358795120D-04 0.000000000000D+00  7 1 -2 -24 -13 13 23 21 2 0.31330967D+00 0.68666392D-01 0.27944601D+06 0.27944601D+06 0.27944601D+06 0.10868397D+01  1  2  4  1  7  1        1 -.509528315755D-03 0.100000000000D+01
  </mgrwgt>
  </event>
  <event>
  8     66 0.29493621E-05 0.62860133E+03 0.75467711E-02 0.89606334E-01
        1 -1    0    0  501    0 0.00000000E+00 0.00000000E+00 0.85919508E+03 0.85919514E+03 0.32000000E+00 0.0000E+00 0.9000E+01
       -2 -1    0    0    0  501 0.00000000E+00 0.00000000E+00 -.52281997E+03 0.52282007E+03 0.32000000E+00 0.0000E+00 0.9000E+01
       25  2    1    2    0    0 0.23759193E+03 0.54049598E+03 0.41119326E+03 0.78147312E+03 0.30501558E+03 0.0000E+00 0.0000E+00
       23  2    3    3    0    0 0.20079143E+03 0.51796666E+03 0.33698796E+03 0.65623924E+03 0.92099896E+02 0.0000E+00 0.0000E+00
      -24  1    1    2    0    0 -.23759193E+03 -.54049598E+03 -.74818148E+02 0.60054209E+03 0.80419002E+02 0.0000E+00 0.9000E+01
      -11  1    4    4    0    0 0.80893614E+02 0.31023390E+03 0.16108455E+03 0.35879950E+03 0.51099893E-03 0.0000E+00 0.9000E+01
       11  1    4    4    0    0 0.11989782E+03 0.20773276E+03 0.17590342E+03 0.29743974E+03 0.51099893E-03 0.0000E+00 0.9000E+01
       23  1    3    3    0    0 0.36800504E+02 0.22529322E+02 0.74205297E+02 0.12523388E+03 0.91188000E+02 0.0000E+00 0.9000E+01
#aMCatNLO 1  0  0  1  2 0.30467213D+03 0.00000000D+00  -5  7  0 0.00000000D+00 0.00000000D+00 0.00000000D+00 0.00000000D+00 0.00000000D+00
  <mgrwgt>
 0.9573520673D-03    4    2    0
 0.670227169444431D+03 0.000000000000000D+00 0.000000000000000D+00 0.670227169444431D+03
 0.670227169444431D+03 0.000000000000000D+00 0.000000000000000D+00 -.670227169444431D+03
 0.637936890611091D+03 -.237591934385137D+03 -.540495983055514D+03 -.227838595203183D+03
 0.329501366682128D+03 0.808936140470444D+02 0.310233902384857D+03 0.760414338558956D+02
 0.262520476477622D+03 0.119897816288200D+03 0.207732758907358D+03 0.106717454505327D+03
 0.110495605118021D+03 0.368005040498929D+02 0.225293217632983D+02 0.450797068419608D+02
 0.000000000000000D+00 0.000000000000000D+00 0.000000000000000D+00 -.000000000000000D+00
 0.774123795812035D+03 0.000000000000000D+00 0.000000000000000D+00 0.774123795812035D+03
 0.954667527224512D+03 0.000000000000000D+00 0.000000000000000D+00 -.954667527224512D+03
 0.761460946850185D+03 -.374497434404001D+03 -.617411373222320D+03 -.227838595203183D+03
 0.287337782842127D+03 0.205471779327570D+02 0.276330445779629D+03 0.760414338558956D+02
 0.222330787405985D+03 0.724639822920111D+02 0.181083779513384D+03 0.106717454505327D+03
 0.103513324685451D+03 0.158636419518356D+02 0.107667050903465D+02 0.450797068419608D+02
 0.354148481252799D+03 0.265622632227397D+03 0.149230442838960D+03 -.180543731412477D+03
0.399239942899D-03 0.000000000000D+00 0.000000000000D+00 0.157979784974D-06 0.000000000000D+00  7 1 -2 -24 -11 11 23 21 0 0.13218387D+00 0.80433854D-01 0.39513963D+06 0.39513963D+06 0.39513963D+06 0.10758106D+01  1  2  2  1  7  1        1 0.118157997849D-02 0.100000000000D+01
-.220691245473D-04 0.000000000000D+00 -.153318650302D-05 0.157979784974D-06 0.000000000000D+00  7 1 -2 -24 -11 11 23 21 2 0.13218387D+00 0.80433854D-01 0.39513963D+06 0.39513963D+06 0.39513963D+06 0.10758106D+01  1  2  3  1  7  1        1 -.755937460677D-04 0.100000000000D+01
0.254871501177D-04 0.000000000000D+00 0.000000000000D+00 0.157979784974D-06 0.000000000000D+00  7 1 -2 -24 -11 11 23 21 2 0.13218387D+00 0.80433854D-01 0.39513963D+06 0.39513963D+06 0.39513963D+06 0.10758106D+01  1  2 15  1  7  1        1 0.873015669404D-04 0.100000000000D+01
-.688799712427D-04 0.000000000000D+00 0.000000000000D+00 0.157979784974D-06 0.000000000000D+00  7 1 -2 -24 -11 11 23 21 2 0.13218387D+00 0.80433854D-01 0.39513963D+06 0.39513963D+06 0.39513963D+06 0.10758106D+01  1  2  4  1  7  1        1 -.235935732027D-03 0.100000000000D+01
  </mgrwgt>
  </event>
  <event>
  8     66 0.29493621E-05 0.37867000E+03 0.75467711E-02 0.96945159E-01
        1 -1    0    0  501    0 0.00000000E+00 0.00000000E+00 0.23409811E+04 0.23409811E+04 0.32000000E+00 0.0000E+00 0.9000E+01
       -2 -1    0    0    0  501 0.00000000E+00 0.00000000E+00 -.27235176E+03 0.27235194E+03 0.32000000E+00 0.0000E+00 0.9000E+01
       25  2    1    2    0    0 0.15016219E+03 -.27987742E+03 -.75924604E+02 0.44389560E+03 0.30066378E+03 0.0000E+00 0.0000E+00
       23  2    3    3    0    0 0.19024144E+03 -.10951539E+03 -.57911060E+02 0.24573076E+03 0.94045135E+02 0.0000E+00 0.0000E+00
      -24  1    1    2    0    0 -.15016219E+03 0.27987742E+03 0.21445539E+04 0.21694374E+04 0.80419002E+02 0.0000E+00 0.9000E+01
      -11  1    4    4    0    0 0.18848734E+02 0.11922388E+02 0.10725160E+02 0.24747670E+02 0.51099893E-03 0.0000E+00 0.9000E+01
       11  1    4    4    0    0 0.17139271E+03 -.12143778E+03 -.68636220E+02 0.22098309E+03 0.51099893E-03 0.0000E+00 0.9000E+01
       23  1    3    3    0    0 -.40079253E+02 -.17036203E+03 -.18013544E+02 0.19816484E+03 0.91188000E+02 0.0000E+00 0.9000E+01
#aMCatNLO 1  0  0  1  2 0.63551699D+02 0.00000000D+00  -5  7  0 0.00000000D+00 0.00000000D+00 0.00000000D+00 0.00000000D+00 0.00000000D+00
  <mgrwgt>
 0.8598839149D-03    4    2    0
 0.798480165982722D+03 0.000000000000000D+00 0.000000000000000D+00 0.798480165982722D+03
 0.798480165982722D+03 0.000000000000000D+00 0.000000000000000D+00 -.798480165982722D+03
 0.772201650690837D+03 -.150162189435412D+03 0.279877416472719D+03 0.699248254905082D+03
 0.266052461773417D+02 0.188487342440952D+02 0.119223878595489D+02 -.145058956731017D+02
 0.450534232916376D+03 0.171392708004099D+03 -.121437778198623D+03 -.398570571792187D+03
 0.347619202180889D+03 -.400792528127830D+02 -.170362026133645D+03 -.286171787439793D+03
 0.000000000000000D+00 0.000000000000000D+00 0.000000000000000D+00 -.000000000000000D+00
 0.807844708068383D+03 0.000000000000000D+00 0.000000000000000D+00 0.807844708068383D+03
 0.914737906541342D+03 0.000000000000000D+00 0.000000000000000D+00 -.914737906541342D+03
 0.764453604423470D+03 -.160806960951958D+03 0.251227181418050D+03 0.699248254905082D+03
 0.259203114232319D+02 0.184848773818768D+02 0.109430728397190D+02 -.145058956731017D+02
 0.453045442822787D+03 0.165133399572214D+03 -.138284608360683D+03 -.398570571792187D+03
 0.354805006144088D+03 -.449451101223030D+02 -.183458404524062D+03 -.286171787439793D+03
 0.124358249796149D+03 0.221337941201704D+02 0.595727586269760D+02 -.106893198472959D+03
0.898395304782D-03 0.000000000000D+00 0.000000000000D+00 0.361094349784D-05 0.000000000000D+00  7 1 -2 -24 -11 11 23 21 0 0.36015095D+00 0.41900286D-01 0.14339097D+06 0.14339097D+06 0.14339097D+06 0.11090995D+01  1  2  2  1  7  1        1 0.101415707321D-02 0.100000000000D+01
-.161349815052D-04 0.000000000000D+00 -.345007452328D-05 0.361094349784D-05 0.000000000000D+00  7 1 -2 -24 -11 11 23 21 2 0.36015095D+00 0.41900286D-01 0.14339097D+06 0.14339097D+06 0.14339097D+06 0.11090995D+01  1  2  3  1  7  1        1 -.224051192181D-04 0.100000000000D+01
0.552278701910D-04 0.000000000000D+00 0.000000000000D+00 0.361094349784D-05 0.000000000000D+00  7 1 -2 -24 -11 11 23 21 2 0.36015095D+00 0.41900286D-01 0.14339097D+06 0.14339097D+06 0.14339097D+06 0.11090995D+01  1  2 15  1  7  1        1 0.766897077258D-04 0.100000000000D+01
-.150192255407D-03 0.000000000000D+00 0.000000000000D+00 0.361094349784D-05 0.000000000000D+00  7 1 -2 -24 -11 11 23 21 2 0.36015095D+00 0.41900286D-01 0.14339097D+06 0.14339097D+06 0.14339097D+06 0.11090995D+01  1  2  4  1  7  1        1 -.208557746841D-03 0.100000000000D+01
  </mgrwgt>
  </event>
  <event>
  8     66 0.29493621E-05 0.85907304E+02 0.75467711E-02 0.10794567E+00
        1 -1    0    0  501    0 0.00000000E+00 0.00000000E+00 0.49887926E+02 0.49888952E+02 0.32000000E+00 0.0000E+00 0.9000E+01
       -2 -1    0    0    0  501 0.00000000E+00 0.00000000E+00 -.10898695E+04 0.10898695E+04 0.32000000E+00 0.0000E+00 0.9000E+01
       25  2    1    2    0    0 -.34278977E+02 -.64970562E+02 -.94862672E+03 0.99759962E+03 0.29986017E+03 0.0000E+00 0.0000E+00
       23  2    3    3    0    0 0.86844947E+02 -.25001247E+02 -.24742668E+03 0.27908358E+03 0.92198564E+02 0.0000E+00 0.0000E+00
      -24  1    1    2    0    0 0.34278977E+02 0.64970562E+02 -.91354859E+02 0.14215888E+03 0.80419002E+02 0.0000E+00 0.9000E+01
      -13  1    4    4    0    0 0.15908021E+02 -.91922032E+01 -.17676608E+03 0.17771838E+03 0.10565837E+00 0.0000E+00 0.9000E+01
       13  1    4    4    0    0 0.70936926E+02 -.15809043E+02 -.70660593E+02 0.10136520E+03 0.10565837E+00 0.0000E+00 0.9000E+01
       23  1    3    3    0    0 -.12112392E+03 -.39969315E+02 -.70120004E+03 0.71851604E+03 0.91188000E+02 0.0000E+00 0.9000E+01
#aMCatNLO 1  0  0  2  1 0.13178191D+01 0.00000000D+00  -5  7  0 0.00000000D+00 0.00000000D+00 0.00000000D+00 0.00000000D+00 0.00000000D+00
  <mgrwgt>
 0.1217371021D-02   11    2    0
 0.233177915406231D+03 0.000000000000000D+00 0.000000000000000D+00 0.233177915406231D+03
 0.233177915406231D+03 0.000000000000000D+00 0.000000000000000D+00 -.233177915406231D+03
 0.143708780578043D+03 0.342789776012885D+02 0.649705635278242D+02 0.937484678826527D+02
 0.401464435403430D+02 0.159079499551740D+02 -.919219439028839D+01 -.356956246541895D+02
 0.901589744913840D+02 0.709369973280834D+02 -.158090523419533D+02 0.533540715921748D+02
 0.192341632202692D+03 -.121123924884546D+03 -.399693167955826D+02 -.111406914820638D+03
 0.000000000000000D+00 0.000000000000000D+00 -.000000000000000D+00 -.000000000000000D+00
 0.233298671551427D+03 0.000000000000000D+00 0.000000000000000D+00 0.233298671551427D+03
 0.236802140100194D+03 0.000000000000000D+00 0.000000000000000D+00 -.236802140100194D+03
 0.143821097542199D+03 0.340782262556409D+02 0.653237430709292D+02 0.937484678826527D+02
 0.401018081313045D+02 0.158519211883054D+02 -.909362362245843D+01 -.356956246541895D+02
 0.900214415048988D+02 0.708111966244937D+02 -.155877326049783D+02 0.533540715921748D+02
 0.192413345564065D+03 -.121392558113330D+03 -.394967134329567D+02 -.111406914820638D+03
 0.374311890915482D+01 0.651214044889712D+00 -.114567341053584D+01 -.350346854876734D+01
0.235524995892D-04 0.000000000000D+00 0.000000000000D+00 0.120073781085D-05 0.000000000000D+00  7 1 -2 -24 -13 13 23 21 0 0.76751480D-02 0.16767231D+00 0.31819725D+05 0.31819725D+05 0.31819725D+05 0.11649704D+01  1  2  2  2  7  2       -2 0.546846029687D-03 0.100000000000D+01
-.119430809899D-05 0.000000000000D+00 -.904477999382D-07 0.120073781085D-05 0.000000000000D+00  7 1 -2 -24 -13 13 23 21 2 0.76751480D-02 0.16767231D+00 0.31819725D+05 0.31819725D+05 0.31819725D+05 0.11649704D+01  1  2  3  2  7  2       -2 -.376334675848D-04 0.100000000000D+01
0.147977759605D-05 0.000000000000D+00 0.000000000000D+00 0.120073781085D-05 0.000000000000D+00  7 1 -2 -24 -13 13 23 21 2 0.76751480D-02 0.16767231D+00 0.31819725D+05 0.31819725D+05 0.31819725D+05 0.11649704D+01  1  2 15  2  7  2       -2 0.466288072906D-04 0.100000000000D+01
0.697360152334D-08 0.000000000000D+00 0.000000000000D+00 0.120073781085D-05 0.000000000000D+00  7 1 -2 -24 -13 13 23 21 2 0.76751480D-02 0.17032146D+00 0.32049448D+05 0.32049448D+05 0.32049448D+05 0.11646825D+01  1  2 12  2  7  2       -2 0.210133980946D-06 0.100000000000D+01
-.262659230649D-02 0.000000000000D+00 0.000000000000D+00 0.120073781085D-05 0.000000000000D+00  7 1 -2 -24 -13 13 23 21 2 0.76751480D-02 0.16767231D+00 0.31819725D+05 0.31819725D+05 0.31819725D+05 0.11649704D+01  1  2  4  2  7  2       -2 -.827657256181D-01 0.100000000000D+01
-.373446661405D-02 0.000000000000D+00 -.166116157420D-03 0.120073781085D-05 0.000000000000D+00  7 1 -2 -24 -13 13 23 21 2 0.76751480D-02 0.17031649D+00 0.31819725D+05 0.31819725D+05 0.31819725D+05 0.11649704D+01  1  2  5  2  7  2       -2 -.112599087222D+00 0.100000000000D+01
0.373662872145D-02 0.000000000000D+00 0.166095824946D-03 0.120073781085D-05 0.000000000000D+00  7 1 -2 -24 -13 13 23 21 2 0.76751480D-02 0.16767231D+00 0.31819725D+05 0.31819725D+05 0.31819725D+05 0.11649704D+01  1  2  6  2  7  2       -2 0.117743734622D+00 0.100000000000D+01
0.262691744320D-02 0.000000000000D+00 0.000000000000D+00 0.120073781085D-05 0.500270964768D-05  7 1 -2 -24 -13 13 23 21 2 0.76791228D-02 0.17027840D+00 0.32049448D+05 0.32049448D+05 0.32049448D+05 0.11646825D+01  1  2 11  2  7  2       -2 0.791585703491D-01 0.100000000000D+01
0.587441374251D-09 0.000000000000D+00 0.000000000000D+00 0.120073781085D-05 0.000000000000D+00  7 1 21 -24 -13 13 23 2 2 0.76751480D-02 0.17032146D+00 0.32049448D+05 0.32049448D+05 0.32049448D+05 0.11646825D+01  1  2 12  4  7  2       -2 0.159357962508D-06 0.100000000000D+01
-.106885882057D-04 0.000000000000D+00 -.476108281795D-06 0.120073781085D-05 0.000000000000D+00  7 1 21 -24 -13 13 23 2 2 0.76751480D-02 0.17031649D+00 0.31819725D+05 0.31819725D+05 0.31819725D+05 0.11649704D+01  1  2  5  4  7  2       -2 -.290216200144D-02 0.100000000000D+01
0.746716138212D-05 0.000000000000D+00 0.000000000000D+00 0.120073781085D-05 0.141335633091D-07  7 1 21 -24 -13 13 23 2 2 0.76791228D-02 0.17027840D+00 0.32049448D+05 0.32049448D+05 0.32049448D+05 0.11646825D+01  1  2 11  4  7  2       -2 0.202583003001D-02 0.100000000000D+01
  </mgrwgt>
  </event>
  <event>
  8     66 0.29493621E-05 0.16168352E+03 0.75467711E-02 0.95354632E-01
        1 -1    0    0  501    0 0.00000000E+00 0.00000000E+00 0.21442782E+04 0.21442782E+04 0.32000000E+00 0.0000E+00 0.9000E+01
       -2 -1    0    0    0  501 0.00000000E+00 0.00000000E+00 -.48269645E+02 0.48270705E+02 0.32000000E+00 0.0000E+00 0.9000E+01
       25  2    1    2    0    0 0.15843758E+03 -.16740701E+03 0.15223916E+04 0.15691461E+04 0.30234985E+03 0.0000E+00 0.0000E+00
       23  2    3    3    0    0 0.15884650E+03 0.40387262E+01 0.86189305E+03 0.88069311E+03 0.86672936E+02 0.0000E+00 0.0000E+00
      -24  1    1    2    0    0 -.15843758E+03 0.16740701E+03 0.57361693E+03 0.62340289E+03 0.80419002E+02 0.0000E+00 0.9000E+01
      -11  1    4    4    0    0 0.81027244E+01 0.26768564E+02 0.10987817E+03 0.11338175E+03 0.51099893E-03 0.0000E+00 0.9000E+01
       11  1    4    4    0    0 0.15074378E+03 -.22729838E+02 0.75201488E+03 0.76731136E+03 0.51099893E-03 0.0000E+00 0.9000E+01
       23  1    3    3    0    0 -.40892389E+00 -.17144574E+03 0.66049859E+03 0.68845294E+03 0.91188000E+02 0.0000E+00 0.9000E+01
#aMCatNLO 1  0  0  2  1 0.26380814D+03 0.00000000D+00  -5  7  0 0.00000000D+00 0.00000000D+00 0.00000000D+00 0.00000000D+00 0.00000000D+00
  <mgrwgt>
 0.1339920930D-02    7    2    0
 0.321721519794423D+03 0.000000000000000D+00 0.000000000000000D+00 0.321721519794423D+03
 0.321721519794423D+03 0.000000000000000D+00 0.000000000000000D+00 -.321721519794423D+03
 0.255710846327702D+03 -.158437578431157D+03 0.167407014140942D+03 -.761133781443465D+02
 0.284243675730985D+02 0.810272435962381D+01 0.267685639402580D+02 0.507291971737071D+01
 0.164953315311334D+03 0.150743777920293D+03 -.227298377614152D+02 0.630020962020901D+02
 0.194354510376713D+03 -.408923848759613D+00 -.171445740319785D+03 0.803836222488571D+01
 0.000000000000000D+00 -.000000000000000D+00 -.000000000000000D+00 -.000000000000000D+00
 0.414495612022983D+03 0.000000000000000D+00 0.000000000000000D+00 0.414495612022983D+03
 0.608233735193345D+03 0.000000000000000D+00 0.000000000000000D+00 -.608233735193345D+03
 0.256390300009597D+03 -.721451471562995D+02 0.219705715432922D+03 -.761133781443465D+02
 0.392500107236747D+02 0.195063048436960D+02 0.336798589470694D+02 0.507291971737071D+01
 0.226303574440032D+03 0.216673152441643D+03 0.172275561086975D+02 0.630020962020901D+02
 0.173479496562518D+03 0.615735399503987D+02 -.133880425358986D+03 0.803836222488571D+01
 0.327305965480506D+03 -.225607850079438D+03 -.136732705129703D+03 -.193738123170361D+03
0.527846028397D-04 0.000000000000D+00 0.000000000000D+00 0.127623632813D-07 0.000000000000D+00  7 1 -2 -24 -11 11 23 21 0 0.32988904D+00 0.74261826D-02 0.95704993D+05 0.95704993D+05 0.95704993D+05 0.11232899D+01  1  2  2  2  7  2       -2 0.143324777099D-02 0.100000000000D+01
-.292700651777D-05 0.000000000000D+00 -.202706773410D-06 0.127623632813D-07 0.000000000000D+00  7 1 -2 -24 -11 11 23 21 2 0.32988904D+00 0.74261826D-02 0.95704993D+05 0.95704993D+05 0.95704993D+05 0.11232899D+01  1  2  3  2  7  2       -2 -.100281645048D-03 0.100000000000D+01
0.341461841320D-05 0.000000000000D+00 0.000000000000D+00 0.127623632813D-07 0.000000000000D+00  7 1 -2 -24 -11 11 23 21 2 0.32988904D+00 0.74261826D-02 0.95704993D+05 0.95704993D+05 0.95704993D+05 0.11232899D+01  1  2 15  2  7  2       -2 0.116987628694D-03 0.100000000000D+01
0.944059254705D-06 0.000000000000D+00 0.000000000000D+00 0.127623632813D-07 0.000000000000D+00  7 1 -2 -24 -11 11 23 21 2 0.32988904D+00 0.14312776D-01 0.22006003D+06 0.22006003D+06 0.22006003D+06 0.10946514D+01  1  2 12  2  7  2       -2 0.107792341021D-04 0.100000000000D+01
-.127344187369D-04 0.000000000000D+00 -.166994451487D-04 0.127623632813D-07 0.000000000000D+00  7 1 -2 -24 -11 11 23 21 2 0.32988904D+00 0.19173642D-01 0.95704993D+05 0.95704993D+05 0.95704993D+05 0.11232899D+01  1  2  5  2  7  2       -2 -.985161160797D-04 0.100000000000D+01
0.671995008617D-07 0.000000000000D+00 0.000000000000D+00 0.127623632813D-07 0.000000000000D+00  7 1 21 -24 -11 11 23 2 2 0.32988904D+00 0.14312776D-01 0.22006003D+06 0.22006003D+06 0.22006003D+06 0.10946514D+01  1  2 12  4  7  2       -2 0.103095962572D-04 0.100000000000D+01
-.325450343499D-06 0.000000000000D+00 -.175290556678D-05 0.127623632813D-07 0.000000000000D+00  7 1 21 -24 -11 11 23 2 2 0.32988904D+00 0.19173642D-01 0.95704993D+05 0.95704993D+05 0.95704993D+05 0.11232899D+01  1  2  5  4  7  2       -2 -.326055393395D-04 0.100000000000D+01
  </mgrwgt>
  </event>
  <event>
  8     66 0.29493621E-05 0.26131869E+03 0.75467711E-02 0.93093404E-01
        1 -1    0    0  501    0 0.00000000E+00 0.00000000E+00 0.19600325E+03 0.19600352E+03 0.32000000E+00 0.0000E+00 0.9000E+01
       -2 -1    0    0    0  501 0.00000000E+00 0.00000000E+00 -.42920771E+03 0.42920783E+03 0.32000000E+00 0.0000E+00 0.9000E+01
       25  2    1    2    0    0 -.15668905E+03 0.12806753E+03 -.14869002E+03 0.39162484E+03 0.30051380E+03 0.0000E+00 0.0000E+00
       23  2    3    3    0    0 -.10361910E+03 -.11347443E+02 0.29878039E+02 0.14171534E+03 0.91240659E+02 0.0000E+00 0.0000E+00
      -24  1    1    2    0    0 0.15668905E+03 -.12806753E+03 -.84514432E+02 0.23358650E+03 0.80419002E+02 0.0000E+00 0.9000E+01
      -13  1    4    4    0    0 -.95893733E+02 -.37351207E+02 0.21633717E+01 0.10293402E+03 0.10565837E+00 0.0000E+00 0.9000E+01
       13  1    4    4    0    0 -.77253688E+01 0.26003763E+02 0.27714668E+02 0.38781323E+02 0.10565837E+00 0.0000E+00 0.9000E+01
       23  1    3    3    0    0 -.53069950E+02 0.13941497E+03 -.17856806E+03 0.24990950E+03 0.91188000E+02 0.0000E+00 0.9000E+01
#aMCatNLO 1  0  0  1  1 0.44702744D+03 0.00000000D+00  -5  7  0 0.00000000D+00 0.00000000D+00 0.00000000D+00 0.00000000D+00 0.00000000D+00
  <mgrwgt>
 0.1216643319D-02    3    2    0
 0.290045215359337D+03 0.000000000000000D+00 0.000000000000000D+00 0.290045215359337D+03
 0.290045215359337D+03 0.000000000000000D+00 0.000000000000000D+00 -.290045215359337D+03
 0.217779478429486D+03 0.156689052936586D+03 -.128067526226709D+03 0.281685758524333D+01
 0.111810272805583D+03 -.958938513539243D+02 -.373512909926474D+02 0.437125547017431D+02
 0.529394374835481D+02 -.772525087239176D+01 0.260038483339197D+02 0.454610207964979D+02
 0.197561242000056D+03 -.530699507102700D+02 0.139414968885437D+03 -.919904330834843D+02
 0.000000000000000D+00 0.000000000000000D+00 -.000000000000000D+00 -.000000000000000D+00
 0.486577842015888D+03 0.000000000000000D+00 0.000000000000000D+00 0.486577842015888D+03
 0.781104855832240D+03 0.000000000000000D+00 0.000000000000000D+00 -.781104855832240D+03
 0.150982088751214D+03 0.127616292444209D+03 -.587557532905750D+01 0.281685758524333D+01
 0.130260839710720D+03 -.114978474326202D+03 0.428608138654428D+02 0.437125547017431D+02
 0.877076346416316D+02 -.188137129187789D+02 0.726083257538700D+02 0.454610207964979D+02
 0.363400746699416D+03 -.972955831900118D+02 0.325293991752878D+03 -.919904330834843D+02
 0.535331388045147D+03 0.103471477990783D+03 -.434887556043133D+03 -.294527013816351D+03
0.323887359699D-04 0.000000000000D+00 0.000000000000D+00 0.136969320533D-05 0.000000000000D+00  7 1 -2 -24 -13 13 23 21 0 0.30154376D-01 0.66031985D-01 0.68287458D+05 0.68287458D+05 0.68287458D+05 0.11355752D+01  1  2  2  1  7  1        1 0.120167829632D-02 0.100000000000D+01
-.177557628170D-05 0.000000000000D+00 -.124381274274D-06 0.136969320533D-05 0.000000000000D+00  7 1 -2 -24 -13 13 23 21 2 0.30154376D-01 0.66031985D-01 0.68287458D+05 0.68287458D+05 0.68287458D+05 0.11355752D+01  1  2  3  1  7  1        1 -.849503875279D-04 0.100000000000D+01
0.208836518497D-05 0.000000000000D+00 0.000000000000D+00 0.136969320533D-05 0.000000000000D+00  7 1 -2 -24 -13 13 23 21 2 0.30154376D-01 0.66031985D-01 0.68287458D+05 0.68287458D+05 0.68287458D+05 0.11355752D+01  1  2 15  1  7  1        1 0.999154097695D-04 0.100000000000D+01
  </mgrwgt>
  </event>
  <event>
  8     66 0.29493621E-05 0.13430884E+03 0.75467711E-02 0.98211502E-01
        1 -1    0    0  501    0 0.00000000E+00 0.00000000E+00 0.64077351E+03 0.64077359E+03 0.32000000E+00 0.0000E+00 0.9000E+01
       -2 -1    0    0    0  501 0.00000000E+00 0.00000000E+00 -.17113918E+03 0.17113948E+03 0.32000000E+00 0.0000E+00 0.9000E+01
       25  2    1    2    0    0 -.86111141E+02 0.22677232E+03 0.16866810E+03 0.41708564E+03 0.29439887E+03 0.0000E+00 0.0000E+00
       23  2    3    3    0    0 -.79111343E+02 0.74984288E+01 0.13644229E+03 0.17732787E+03 0.80708381E+02 0.0000E+00 0.0000E+00
      -24  1    1    2    0    0 0.86111141E+02 -.22677232E+03 0.30096623E+03 0.39482743E+03 0.80419002E+02 0.0000E+00 0.9000E+01
      -13  1    4    4    0    0 -.32419089E+02 0.33385600E+02 0.22911504E+02 0.51870452E+02 0.10565837E+00 0.0000E+00 0.9000E+01
       13  1    4    4    0    0 -.46692254E+02 -.25887171E+02 0.11353079E+03 0.12545742E+03 0.10565837E+00 0.0000E+00 0.9000E+01
       23  1    3    3    0    0 -.69997981E+01 0.21927389E+03 0.32225807E+02 0.23975777E+03 0.91188000E+02 0.0000E+00 0.9000E+01
#aMCatNLO 1  0  0  1  2 0.13170860D+03 0.00000000D+00  -5  7  0 0.00000000D+00 0.00000000D+00 0.00000000D+00 0.00000000D+00 0.00000000D+00
  <mgrwgt>
 0.3917190703D-02    9    2    0
 0.331151943199459D+03 0.000000000000000D+00 0.000000000000000D+00 0.331151943199459D+03
 0.331151943199459D+03 0.000000000000000D+00 0.000000000000000D+00 -.331151943199459D+03
 0.270603094853092D+03 0.861111415573493D+02 -.226772320984554D+03 0.889831710194111D+02
 0.473411679762025D+02 -.324190644987696D+02 0.333857009199037D+02 -.869398737417869D+01
 0.732935303145979D+02 -.466922782141424D+02 -.258872721653734D+02 0.502157533149299D+02
 0.271066093255026D+03 -.699979884443731D+01 0.219273892230024D+03 -.130504936960162D+03
 0.000000000000000D+00 0.000000000000000D+00 0.000000000000000D+00 0.000000000000000D+00
 0.559283769250869D+03 0.000000000000000D+00 0.000000000000000D+00 0.559283769250869D+03
 0.357202662202032D+03 0.000000000000000D+00 0.000000000000000D+00 -.357202662202032D+03
 0.306285041629382D+03 0.575643887102450D+02 -.275883394207205D+03 0.889831710194111D+02
 0.457680865231089D+02 -.370264861250431D+02 0.254592154780229D+02 -.869398737417869D+01
 0.838458112705789D+02 -.544681669230706D+02 -.392647039804982D+02 0.502157533149299D+02
 0.239374038261985D+03 -.322584362754433D+02 0.175819605186503D+03 -.130504936960162D+03
 0.241213453767845D+03 0.661887006133120D+02 0.113869277523177D+03 0.202081107048837D+03
0.939143640656D-04 0.000000000000D+00 0.000000000000D+00 0.552957739317D-09 0.000000000000D+00  7 1 -2 -24 -13 13 23 21 0 0.98580569D-01 0.26329134D-01 0.87930317D+05 0.87930317D+05 0.87930317D+05 0.11263351D+01  1  2  2  1  7  1        1 0.402805555770D-02 0.100000000000D+01
-.514010861708D-05 0.000000000000D+00 -.360655886232D-06 0.552957739317D-09 0.000000000000D+00  7 1 -2 -24 -13 13 23 21 2 0.98580569D-01 0.26329134D-01 0.87930317D+05 0.87930317D+05 0.87930317D+05 0.11263351D+01  1  2  3  1  7  1        1 -.279686172149D-03 0.100000000000D+01
0.607868690175D-05 0.000000000000D+00 0.000000000000D+00 0.552957739317D-09 0.000000000000D+00  7 1 -2 -24 -13 13 23 21 2 0.98580569D-01 0.26329134D-01 0.87930317D+05 0.87930317D+05 0.87930317D+05 0.11263351D+01  1  2 15  1  7  1        1 0.330756565259D-03 0.100000000000D+01
0.963602756011D-04 0.000000000000D+00 0.000000000000D+00 0.552957739317D-09 0.000000000000D+00  7 1 -2 -24 -13 13 23 21 2 0.16807427D+00 0.26329134D-01 0.13598867D+06 0.13598867D+06 0.13598867D+06 0.11109285D+01  1  2 12  1  7  1        1 0.213667123423D-02 0.100000000000D+01
-.122211929883D-03 0.000000000000D+00 0.000000000000D+00 0.552957739317D-09 0.000000000000D+00  7 1 -2 -24 -13 13 23 21 2 0.98580569D-01 0.26329134D-01 0.87930317D+05 0.87930317D+05 0.87930317D+05 0.11263351D+01  1  2  4  1  7  1        1 -.664985692058D-02 0.100000000000D+01
-.133640835163D-03 0.000000000000D+00 -.318273542151D-04 0.552957739317D-09 0.000000000000D+00  7 1 -2 -24 -13 13 23 21 2 0.17256183D+00 0.26329134D-01 0.87930317D+05 0.87930317D+05 0.87930317D+05 0.11263351D+01  1  2  5  1  7  1        1 -.293416246296D-02 0.100000000000D+01
0.134270698155D-03 0.000000000000D+00 0.274167908135D-04 0.552957739317D-09 0.000000000000D+00  7 1 -2 -24 -13 13 23 21 2 0.98580569D-01 0.26329134D-01 0.87930317D+05 0.87930317D+05 0.87930317D+05 0.11263351D+01  1  2  6  1  7  1        1 0.730600467739D-02 0.100000000000D+01
0.572472535435D-05 0.000000000000D+00 0.000000000000D+00 0.552957739317D-09 0.000000000000D+00  7 21 -2 -24 -13 13 23 -1 2 0.16807427D+00 0.26329134D-01 0.13598867D+06 0.13598867D+06 0.13598867D+06 0.11109285D+01  1  2 12  3  7  1        1 0.155436280532D-03 0.100000000000D+01
-.664707136323D-05 0.000000000000D+00 -.196813723578D-05 0.552957739317D-09 0.000000000000D+00  7 21 -2 -24 -13 13 23 -1 2 0.17256183D+00 0.26329134D-01 0.87930317D+05 0.87930317D+05 0.87930317D+05 0.11263351D+01  1  2  5  3  7  1        1 -.176028056595D-03 0.100000000000D+01
  </mgrwgt>
  </event>
  <event>
  8     66 0.29493621E-05 0.10657622E+03 0.75467711E-02 0.10540031E+00
        1 -1    0    0  501    0 0.00000000E+00 0.00000000E+00 0.15682354E+04 0.15682355E+04 0.32000000E+00 0.0000E+00 0.9000E+01
       -2 -1    0    0    0  501 0.00000000E+00 0.00000000E+00 -.59017586E+02 0.59018454E+02 0.32000000E+00 0.0000E+00 0.9000E+01
       25  2    1    2    0    0 -.48545724E+02 0.16109203E+03 0.53346554E+03 0.63384206E+03 0.29809890E+03 0.0000E+00 0.0000E+00
       23  2    3    3    0    0 -.40489579E+02 0.11883851E+03 0.50606984E+03 0.52936223E+03 0.91409412E+02 0.0000E+00 0.0000E+00
      -24  1    1    2    0    0 0.48545724E+02 -.16109203E+03 0.97575230E+03 0.99341185E+03 0.80419002E+02 0.0000E+00 0.9000E+01
      -13  1    4    4    0    0 -.22220417E+02 0.10786451E+03 0.49115281E+03 0.50334838E+03 0.10565837E+00 0.0000E+00 0.9000E+01
       13  1    4    4    0    0 -.18269162E+02 0.10974003E+02 0.14917035E+02 0.26013845E+02 0.10565837E+00 0.0000E+00 0.9000E+01
       23  1    3    3    0    0 -.80561447E+01 0.42253517E+02 0.27395693E+02 0.10447984E+03 0.91188000E+02 0.0000E+00 0.9000E+01
#aMCatNLO 1  0  0  1  2 0.82639118D+01 0.00000000D+00  -5  7  0 0.00000000D+00 0.00000000D+00 0.00000000D+00 0.00000000D+00 0.00000000D+00
  <mgrwgt>
 0.2694684853D-02   11    2    0
 0.304227220489166D+03 0.000000000000000D+00 0.000000000000000D+00 0.304227220489166D+03
 0.304227220489166D+03 0.000000000000000D+00 0.000000000000000D+00 -.304227220489166D+03
 0.236518177275042D+03 0.485457241223734D+02 -.161092029578432D+03 0.145486435460059D+03
 0.127896374745116D+03 -.222204225135588D+02 0.107864638355186D+03 0.650304181807796D+02
 0.325710464247666D+02 -.182691567405323D+02 0.109738738485248D+02 -.246309778521038D+02
 0.211468842533408D+03 -.805614486828224D+01 0.422535173747209D+02 -.185885875788734D+03
 0.000000000000000D+00 0.000000000000000D+00 0.000000000000000D+00 0.000000000000000D+00
 0.308725765309518D+03 0.000000000000000D+00 0.000000000000000D+00 0.308725765309518D+03
 0.308074339721202D+03 0.000000000000000D+00 0.000000000000000D+00 -.308074339721202D+03
 0.237914757499229D+03 0.466410020958156D+02 -.163690347614545D+03 0.145486435460059D+03
 0.126905061832234D+03 -.232433825002603D+02 0.106469172063198D+03 0.650304181807796D+02
 0.326005424124025D+02 -.185308033330544D+02 0.106169498192131D+02 -.246309778521038D+02
 0.211090196080601D+03 -.975260700102208D+01 0.399392961415850D+02 -.185885875788734D+03
 0.828954720625404D+01 0.488579073852116D+01 0.666492959054942D+01 0.651425588316669D+00
0.156214406073D-04 0.000000000000D+00 0.000000000000D+00 0.395488105625D-06 0.000000000000D+00  7 1 -2 -24 -13 13 23 21 0 0.24126706D+00 0.90796979D-02 0.43836800D+05 0.43836800D+05 0.43836800D+05 0.11523548D+01  1  2  2  1  7  1        1 0.754070284398D-03 0.100000000000D+01
-.720530174932D-06 0.000000000000D+00 -.599904451517D-07 0.395488105625D-06 0.000000000000D+00  7 1 -2 -24 -13 13 23 21 2 0.24126706D+00 0.90796979D-02 0.43836800D+05 0.43836800D+05 0.43836800D+05 0.11523548D+01  1  2  3  1  7  1        1 -.461865297924D-04 0.100000000000D+01
0.101045651411D-05 0.000000000000D+00 0.000000000000D+00 0.395488105625D-06 0.000000000000D+00  7 1 -2 -24 -13 13 23 21 2 0.24126706D+00 0.90796979D-02 0.43836800D+05 0.43836800D+05 0.43836800D+05 0.11523548D+01  1  2 15  1  7  1        1 0.647710276632D-04 0.100000000000D+01
0.125001761508D-04 0.000000000000D+00 0.000000000000D+00 0.395488105625D-06 0.000000000000D+00  7 1 -2 -24 -13 13 23 21 2 0.24633926D+00 0.90796979D-02 0.45555035D+05 0.45555035D+05 0.45555035D+05 0.11508690D+01  1  2 12  1  7  1        1 0.760324503082D-03 0.100000000000D+01
-.102507335492D-04 0.000000000000D+00 0.000000000000D+00 0.395488105625D-06 0.000000000000D+00  7 1 -2 -24 -13 13 23 21 2 0.24126706D+00 0.90796979D-02 0.43836800D+05 0.43836800D+05 0.43836800D+05 0.11523548D+01  1  2  4  1  7  1        1 -.657079782271D-03 0.100000000000D+01
-.547582532627D-03 0.000000000000D+00 -.753373484468D-04 0.395488105625D-06 0.000000000000D+00  7 1 -2 -24 -13 13 23 21 2 0.24665636D+00 0.90796979D-02 0.43836800D+05 0.43836800D+05 0.43836800D+05 0.11523548D+01  1  2  5  1  7  1        1 -.333099823635D-01 0.100000000000D+01
0.549131236035D-03 0.000000000000D+00 0.753189682839D-04 0.395488105625D-06 0.000000000000D+00  7 1 -2 -24 -13 13 23 21 2 0.24126706D+00 0.90796979D-02 0.43836800D+05 0.43836800D+05 0.43836800D+05 0.11523548D+01  1  2  6  1  7  1        1 0.351997280273D-01 0.100000000000D+01
0.210929639722D-06 0.000000000000D+00 0.000000000000D+00 0.395488105625D-06 0.409146141980D-07  7 1 -2 -24 -13 13 23 21 2 0.24483462D+00 0.91945156D-02 0.45555035D+05 0.45555035D+05 0.45555035D+05 0.11508690D+01  1  2 11  1  7  1        1 0.127725648910D-04 0.100000000000D+01
0.397212623967D-06 0.000000000000D+00 0.000000000000D+00 0.395488105625D-06 0.000000000000D+00  7 21 -2 -24 -13 13 23 -1 2 0.24633926D+00 0.90796979D-02 0.45555035D+05 0.45555035D+05 0.45555035D+05 0.11508690D+01  1  2 12  3  7  1        1 0.186455784837D-04 0.100000000000D+01
-.218145361584D-05 0.000000000000D+00 -.301973153205D-06 0.395488105625D-06 0.000000000000D+00  7 21 -2 -24 -13 13 23 -1 2 0.24665636D+00 0.90796979D-02 0.43836800D+05 0.43836800D+05 0.43836800D+05 0.11523548D+01  1  2  5  3  7  1        1 -.102426996559D-03 0.100000000000D+01
0.102981438133D-08 0.000000000000D+00 0.000000000000D+00 0.395488105625D-06 0.111464901015D-09  7 21 -2 -24 -13 13 23 -1 2 0.24483462D+00 0.91945156D-02 0.45555035D+05 0.45555035D+05 0.45555035D+05 0.11508690D+01  1  2 11  3  7  1        1 0.485396176700D-07 0.100000000000D+01
  </mgrwgt>
  </event>
  <event>
  8     66 0.29493621E-05 0.23401251E+03 0.75467711E-02 0.10262259E+00
        1 -1    0    0  501    0 0.00000000E+00 0.00000000E+00 0.20306602E+04 0.20306603E+04 0.32000000E+00 0.0000E+00 0.9000E+01
       -2 -1    0    0    0  501 0.00000000E+00 0.00000000E+00 -.45422214E+02 0.45423341E+02 0.32000000E+00 0.0000E+00 0.9000E+01
       25  2    1    2    0    0 0.84569979E+02 0.15369676E+03 0.76266589E+03 0.83837418E+03 0.30072784E+03 0.0000E+00 0.0000E+00
       23  2    3    3    0    0 0.54945420E+02 0.16514481E+03 0.25636008E+03 0.32294281E+03 0.90993198E+02 0.0000E+00 0.0000E+00
      -24  1    1    2    0    0 -.84569979E+02 -.15369676E+03 0.12225721E+04 0.12377094E+04 0.80419002E+02 0.0000E+00 0.9000E+01
      -11  1    4    4    0    0 0.59471400E+02 0.12891821E+03 0.13389880E+03 0.19515543E+03 0.51099893E-03 0.0000E+00 0.9000E+01
       11  1    4    4    0    0 -.45259799E+01 0.36226602E+02 0.12246128E+03 0.12778739E+03 0.51099893E-03 0.0000E+00 0.9000E+01
       23  1    3    3    0    0 0.29624559E+02 -.11448045E+02 0.50630581E+03 0.51543137E+03 0.91188000E+02 0.0000E+00 0.9000E+01
#aMCatNLO 1  0  0  1  2 0.56671240D+02 0.00000000D+00  -5  7  0 0.00000000D+00 0.00000000D+00 0.00000000D+00 0.00000000D+00 0.00000000D+00
  <mgrwgt>
 0.9729680000D-03    4    2    0
 0.303707555491406D+03 0.000000000000000D+00 0.000000000000000D+00 0.303707555491406D+03
 0.303707555491406D+03 0.000000000000000D+00 0.000000000000000D+00 -.303707555491406D+03
 0.234586772994667D+03 -.845699793304316D+02 -.153696762358317D+03 0.133375267371061D+03
 0.229394996646576D+03 0.594714001761878D+02 0.128918205694219D+03 -.180181334461008D+03
 0.365195217845017D+02 -.452597992238544D+01 0.362266018905304D+02 0.907905598551004D+00
 0.106913819557068D+03 0.296245590766293D+02 -.114480452264318D+02 0.458981614913951D+02
 0.000000000000000D+00 0.000000000000000D+00 0.000000000000000D+00 -.000000000000000D+00
 0.320118072136279D+03 0.000000000000000D+00 0.000000000000000D+00 0.320118072136279D+03
 0.358229021730021D+03 0.000000000000000D+00 0.000000000000000D+00 -.358229021730021D+03
 0.251263646369059D+03 -.892310186492121D+02 -.175826810802070D+03 0.133375267371061D+03
 0.217477959784383D+03 0.551842938212069D+02 0.108563545535705D+03 -.180181334461008D+03
 0.334578081534775D+02 -.519731223633373D+01 0.330391976200555D+02 0.907905598551004D+00
 0.107853654256317D+03 0.275641725874084D+02 -.212305099732089D+02 0.458981614913951D+02
 0.682940253030627D+02 0.116798644769306D+02 0.554545776195180D+02 -.381109495937422D+02
0.420617603781D-04 0.000000000000D+00 0.000000000000D+00 0.165991646444D-05 0.000000000000D+00  7 1 -2 -24 -11 11 23 21 0 0.31240936D+00 0.69881215D-02 0.54761854D+05 0.54761854D+05 0.54761854D+05 0.11438364D+01  1  2  2  1  7  1        1 0.150515314607D-02 0.100000000000D+01
-.214367995066D-05 0.000000000000D+00 -.161528234968D-06 0.165991646444D-05 0.000000000000D+00  7 1 -2 -24 -11 11 23 21 2 0.31240936D+00 0.69881215D-02 0.54761854D+05 0.54761854D+05 0.54761854D+05 0.11438364D+01  1  2  3  1  7  1        1 -.100364706491D-03 0.100000000000D+01
0.273671580496D-05 0.000000000000D+00 0.000000000000D+00 0.165991646444D-05 0.000000000000D+00  7 1 -2 -24 -11 11 23 21 2 0.31240936D+00 0.69881215D-02 0.54761854D+05 0.54761854D+05 0.54761854D+05 0.11438364D+01  1  2 15  1  7  1        1 0.128129984342D-03 0.100000000000D+01
-.119599263435D-04 0.000000000000D+00 0.000000000000D+00 0.165991646444D-05 0.000000000000D+00  7 1 -2 -24 -11 11 23 21 2 0.31240936D+00 0.69881215D-02 0.54761854D+05 0.54761854D+05 0.54761854D+05 0.11438364D+01  1  2  4  1  7  1        1 -.559950423917D-03 0.100000000000D+01
  </mgrwgt>
  </event>
  <event>
  9     66 -.29493621E-05 0.54700566E+03 0.75467711E-02 0.93546383E-01
        1 -1    0    0  502    0 0.00000000E+00 0.00000000E+00 0.26279729E+03 0.26279748E+03 0.32000000E+00 0.0000E+00 0.9000E+01
       -2 -1    0    0    0  501 0.00000000E+00 0.00000000E+00 -.12801874E+04 0.12801874E+04 0.32000000E+00 0.0000E+00 0.9000E+01
       25  2    1    2    0    0 -.23066334E+03 0.45901919E+03 -.34261083E+03 0.68651674E+03 0.30003143E+03 0.0000E+00 0.0000E+00
       23  2    3    3    0    0 -.12356586E+03 0.39994390E+03 -.31433448E+03 0.53135695E+03 0.91161323E+02 0.0000E+00 0.0000E+00
      -24  1    1    2    0    0 0.22648086E+03 -.45337857E+03 -.67659891E+03 0.84917549E+03 0.80419002E+02 0.0000E+00 0.9000E+01
      -13  1    4    4    0    0 -.28409227E+02 0.15614019E+02 -.21539092E+02 0.38920758E+02 0.10565837E+00 0.0000E+00 0.9000E+01
       13  1    4    4    0    0 -.95156636E+02 0.38432988E+03 -.29279539E+03 0.49243619E+03 0.10565837E+00 0.0000E+00 0.9000E+01
       23  1    3    3    0    0 -.10709747E+03 0.59075286E+02 -.28276347E+02 0.15515979E+03 0.91188000E+02 0.0000E+00 0.9000E+01
       21  1    1    2  502  501 0.41824764E+01 -.56406167E+01 0.18196400E+01 0.72926851E+01 0.75000000E+00 0.0000E+00 0.9000E+01
#aMCatNLO 2  0  0  1  2 0.70220842D+01 0.00000000D+00  -5  7  0 0.00000000D+00 0.00000000D+00 0.00000000D+00 0.00000000D+00 0.00000000D+00
  <mgrwgt>
 -.7100764331D-03    3    2    0
 0.574350243640927D+03 0.000000000000000D+00 0.000000000000000D+00 0.574350243640927D+03
 0.574350243640927D+03 0.000000000000000D+00 0.000000000000000D+00 -.574350243640927D+03
 0.537982345846742D+03 0.228434090620040D+03 -.456012758410143D+03 -.151089440061709D+03
 0.327413449541800D+02 -.282895988887001D+02 0.154523104316680D+02 0.573762724899671D+01
 0.396313248015475D+03 -.937096893951654D+02 0.382378861949411D+03 0.454872575597914D+02
 0.181663548465457D+03 -.106434802336174D+03 0.581815860290645D+02 0.998645552529204D+02
 0.000000000000000D+00 0.000000000000000D+00 -.000000000000000D+00 0.000000000000000D+00
 0.584481894168680D+03 0.000000000000000D+00 0.000000000000000D+00 0.584481894168680D+03
 0.575578988714329D+03 0.000000000000000D+00 0.000000000000000D+00 -.575578988714329D+03
 0.534921437721233D+03 0.226480860460052D+03 -.453378571975446D+03 -.151089440061709D+03
 0.329208381052707D+02 -.284091374328703D+02 0.156135237991078D+02 0.573762724899671D+01
 0.398539500449937D+03 -.951567253594611D+02 0.384330379279908D+03 0.454872575597914D+02
 0.182340174043871D+03 -.107097474106040D+03 0.590752856158296D+02 0.998645552529204D+02
 0.113389325626969D+02 0.418247643831962D+01 -.564061671939988D+01 0.890290545435112D+01
-.731532551893D-03 0.000000000000D+00 0.000000000000D+00 0.219566655578D-04 0.000000000000D+00  7 1 -2 -24 -13 13 23 21 2 0.40471570D-01 0.19652725D+00 0.30309208D+06 0.30309208D+06 0.30309208D+06 0.10842225D+01  1  2 13  1  7  1        1 -.132898635745D-02 0.100000000000D+01
-.128089674405D-01 0.000000000000D+00 0.000000000000D+00 0.219566655578D-04 0.000000000000D+00  7 1 -2 -24 -13 13 23 21 2 0.39728680D-01 0.19652725D+00 0.29921519D+06 0.29921519D+06 0.29921519D+06 0.10846360D+01  1  2  8  1  7  1        1 -.238785511754D-01 0.100000000000D+01
0.135559637989D-01 0.000000000000D+00 0.000000000000D+00 0.219566655578D-04 0.279209076555D-05  7 1 -2 -24 -13 13 23 21 2 0.40429501D-01 0.19694769D+00 0.30309208D+06 0.30309208D+06 0.30309208D+06 0.10842225D+01  1  2  1  1  7  1        1 0.244974610998D-01 0.100000000000D+01
  </mgrwgt>
  </event>
  <event>
  8     66 0.29493621E-05 0.47951987E+03 0.75467711E-02 0.94094128E-01
        1 -1    0    0  501    0 0.00000000E+00 0.00000000E+00 0.61165853E+03 0.61165862E+03 0.32000000E+00 0.0000E+00 0.9000E+01
       -2 -1    0    0    0  501 0.00000000E+00 0.00000000E+00 -.57761552E+03 0.57761561E+03 0.32000000E+00 0.0000E+00 0.9000E+01
       25  2    1    2    0    0 0.27772640E+03 0.32757947E+03 -.33105796E+03 0.61988315E+03 0.30035893E+03 0.0000E+00 0.0000E+00
       23  2    3    3    0    0 0.46505216E+02 0.23558985E+03 -.16899415E+03 0.30923020E+03 0.96948341E+02 0.0000E+00 0.0000E+00
      -24  1    1    2    0    0 -.27772640E+03 -.32757947E+03 0.36510097E+03 0.56939108E+03 0.80419002E+02 0.0000E+00 0.9000E+01
      -11  1    4    4    0    0 -.18814853E+02 0.14027687E+03 -.11145089E+03 0.18014688E+03 0.51099893E-03 0.0000E+00 0.9000E+01
       11  1    4    4    0    0 0.65320069E+02 0.95312981E+02 -.57543263E+02 0.12908332E+03 0.51099893E-03 0.0000E+00 0.9000E+01
       23  1    3    3    0    0 0.23122118E+03 0.91989621E+02 -.16206381E+03 0.31065295E+03 0.91188000E+02 0.0000E+00 0.9000E+01
#aMCatNLO 1  0  0  2  2 0.84004429D+02 0.00000000D+00  -5  7  0 0.00000000D+00 0.00000000D+00 0.00000000D+00 0.00000000D+00 0.00000000D+00
  <mgrwgt>
 0.6258429523D-03    4    2    0
 0.594393441449783D+03 0.000000000000000D+00 0.000000000000000D+00 0.594393441449783D+03
 0.594393441449783D+03 0.000000000000000D+00 0.000000000000000D+00 -.594393441449783D+03
 0.559169184679143D+03 -.277726400363614D+03 -.327579470224509D+03 0.348945122288400D+03
 0.183412324902656D+03 -.188148534988358D+02 0.140276868466163D+03 -.116655400163652D+03
 0.130784088322746D+03 0.653200690062827D+02 0.953129812182259D+02 -.612633818420139D+02
 0.315421284995022D+03 0.231221184856167D+03 0.919896205401204D+02 -.171026340282734D+03
 0.000000000000000D+00 0.000000000000000D+00 -.000000000000000D+00 0.000000000000000D+00
 0.665421101430311D+03 0.000000000000000D+00 0.000000000000000D+00 0.665421101430311D+03
 0.621242985127752D+03 0.000000000000000D+00 0.000000000000000D+00 -.621242985127752D+03
 0.577335787379841D+03 -.317554107110636D+03 -.322871624834749D+03 0.348945122288400D+03
 0.186353632324052D+03 -.317729403277714D+02 0.141808582800739D+03 -.116655400163652D+03
 0.127316977652229D+03 0.562751692306822D+02 0.963821361655563D+02 -.612633818420139D+02
 0.300744833859240D+03 0.209628245016477D+03 0.945420201277078D+02 -.171026340282734D+03
 0.949128553427008D+02 0.834236331912486D+02 -.986111425925429D+01 0.441781163025583D+02
0.307887791780D-03 0.000000000000D+00 0.000000000000D+00 0.747995183276D-06 0.000000000000D+00  7 1 -2 -24 -11 11 23 21 0 0.94101326D-01 0.88863939D-01 0.22993931D+06 0.22993931D+06 0.22993931D+06 0.10932025D+01  1  2  2  2  7  2       -2 0.125319611499D-02 0.100000000000D+01
-.161457139885D-04 0.000000000000D+00 -.118237018915D-05 0.747995183276D-06 0.000000000000D+00  7 1 -2 -24 -11 11 23 21 2 0.94101326D-01 0.88863939D-01 0.22993931D+06 0.22993931D+06 0.22993931D+06 0.10932025D+01  1  2  3  2  7  2       -2 -.785389480212D-04 0.100000000000D+01
0.196118997783D-04 0.000000000000D+00 0.000000000000D+00 0.747995183276D-06 0.000000000000D+00  7 1 -2 -24 -11 11 23 21 2 0.94101326D-01 0.88863939D-01 0.22993931D+06 0.22993931D+06 0.22993931D+06 0.10932025D+01  1  2 15  2  7  2       -2 0.953998056933D-04 0.100000000000D+01
-.132434869358D-03 0.000000000000D+00 0.000000000000D+00 0.747995183276D-06 0.000000000000D+00  7 1 -2 -24 -11 11 23 21 2 0.94101326D-01 0.88863939D-01 0.22993931D+06 0.22993931D+06 0.22993931D+06 0.10932025D+01  1  2  4  2  7  2       -2 -.644214020394D-03 0.100000000000D+01
  </mgrwgt>
  </event>
  <event>
  8     66 0.29493621E-05 0.25533479E+03 0.75467711E-02 0.10279305E+00
        1 -1    0    0  501    0 0.00000000E+00 0.00000000E+00 0.47660737E+03 0.47660747E+03 0.32000000E+00 0.0000E+00 0.9000E+01
       -2 -1    0    0    0  501 0.00000000E+00 0.00000000E+00 -.20279648E+03 0.20279673E+03 0.32000000E+00 0.0000E+00 0.9000E+01
       25  2    1    2    0    0 0.15519044E+03 0.38071202E+02 0.34776004E+03 0.48583462E+03 0.29927370E+03 0.0000E+00 0.0000E+00
       23  2    3    3    0    0 0.37299375E+02 0.12601506E+03 0.21636462E+03 0.26855040E+03 0.89636085E+02 0.0000E+00 0.0000E+00
      -24  1    1    2    0    0 -.15519044E+03 -.38071202E+02 -.73949154E+02 0.19356958E+03 0.80419002E+02 0.0000E+00 0.9000E+01
      -13  1    4    4    0    0 -.29588285E+02 0.40699193E+02 0.60483039E+02 0.78677189E+02 0.10565837E+00 0.0000E+00 0.9000E+01
       13  1    4    4    0    0 0.66887660E+02 0.85315871E+02 0.15588158E+03 0.18987321E+03 0.10565837E+00 0.0000E+00 0.9000E+01
       23  1    3    3    0    0 0.11789107E+03 -.87943862E+02 0.13139542E+03 0.21728423E+03 0.91188000E+02 0.0000E+00 0.9000E+01
#aMCatNLO 1  0  0  2  2 0.48952800D+01 0.00000000D+00  -5  7  0 0.00000000D+00 0.00000000D+00 0.00000000D+00 0.00000000D+00 0.00000000D+00
  <mgrwgt>
 0.6186442286D-03    6    2    0
 0.310892935592623D+03 0.000000000000000D+00 0.000000000000000D+00 0.310892935592623D+03
 0.310892935592623D+03 0.000000000000000D+00 0.000000000000000D+00 -.310892935592623D+03
 0.244071275251125D+03 -.155190441128922D+03 -.380712017974286D+02 -.166042410318118D+03
 0.593333354915113D+02 -.295884191716303D+02 0.406991309115632D+02 0.314412292144499D+02
 0.138823755905034D+03 0.668877937228166D+02 0.853159329326145D+02 0.867136081726051D+02
 0.179557504537576D+03 0.117891066577736D+03 -.879438620467490D+02 0.478875729310627D+02
 0.000000000000000D+00 0.000000000000000D+00 0.000000000000000D+00 0.000000000000000D+00
 0.318800103401105D+03 0.000000000000000D+00 0.000000000000000D+00 0.318800103401105D+03
 0.311661154418522D+03 0.000000000000000D+00 0.000000000000000D+00 -.311661154418522D+03
 0.245334460981352D+03 -.157029477395280D+03 -.386450901843332D+02 -.166042410318118D+03
 0.594620951558593D+02 -.300348158708599D+02 0.405598286659649D+02 0.314412292144499D+02
 0.138125272952500D+03 0.658471044331434D+02 0.849911761517697D+02 0.867136081726051D+02
 0.178883311908215D+03 0.116544156208720D+03 -.883641779660808D+02 0.478875729310627D+02
 0.865611682169971D+01 0.467303262427627D+01 0.145826333267933D+01 0.713894898258317D+01
0.119455214672D-04 0.000000000000D+00 0.000000000000D+00 0.537096074706D-06 0.000000000000D+00  7 1 -2 -24 -13 13 23 21 0 0.73324238D-01 0.31199486D-01 0.65195854D+05 0.65195854D+05 0.65195854D+05 0.11372939D+01  1  2  2  2  7  2       -2 0.579944079569D-03 0.100000000000D+01
-.632365859934D-06 0.000000000000D+00 -.458739477621D-07 0.537096074706D-06 0.000000000000D+00  7 1 -2 -24 -13 13 23 21 2 0.73324238D-01 0.31199486D-01 0.65195854D+05 0.65195854D+05 0.65195854D+05 0.11372939D+01  1  2  3  2  7  2       -2 -.397095420318D-04 0.100000000000D+01
0.766839718324D-06 0.000000000000D+00 0.000000000000D+00 0.537096074706D-06 0.000000000000D+00  7 1 -2 -24 -13 13 23 21 2 0.73324238D-01 0.31199486D-01 0.65195854D+05 0.65195854D+05 0.65195854D+05 0.11372939D+01  1  2 15  2  7  2       -2 0.481538551585D-04 0.100000000000D+01
-.700914579058D-05 0.000000000000D+00 0.000000000000D+00 0.537096074706D-06 0.000000000000D+00  7 1 -2 -24 -13 13 23 21 2 0.73324238D-01 0.31199486D-01 0.65195854D+05 0.65195854D+05 0.65195854D+05 0.11372939D+01  1  2  4  2  7  2       -2 -.440140727090D-03 0.100000000000D+01
0.656952801986D-05 0.000000000000D+00 0.000000000000D+00 0.537096074706D-06 0.154472649578D-06  7 1 -2 -24 -13 13 23 21 2 0.75189147D-01 0.31276580D-01 0.66522924D+05 0.66522924D+05 0.66522924D+05 0.11365454D+01  1  2 11  2  7  2       -2 0.396320006985D-03 0.100000000000D+01
0.103172356800D-06 0.000000000000D+00 0.000000000000D+00 0.537096074706D-06 0.724818347124D-10  7 1 21 -24 -13 13 23 2 2 0.75189147D-01 0.31276580D-01 0.66522924D+05 0.66522924D+05 0.66522924D+05 0.11365454D+01  1  2 11  4  7  2       -2 0.740765560090D-04 0.100000000000D+01
  </mgrwgt>
  </event>
  <event>
  8     66 0.29493621E-05 0.58517199E+03 0.75467711E-02 0.91629533E-01
        1 -1    0    0  501    0 0.00000000E+00 0.00000000E+00 0.11930816E+04 0.11930816E+04 0.32000000E+00 0.0000E+00 0.9000E+01
       -2 -1    0    0    0  501 0.00000000E+00 0.00000000E+00 -.39011389E+03 0.39011402E+03 0.32000000E+00 0.0000E+00 0.9000E+01
       25  2    1    2    0    0 0.35086144E+02 -.54737446E+03 0.81703108E+03 0.10286555E+04 0.29957040E+03 0.0000E+00 0.0000E+00
       23  2    3    3    0    0 0.36900814E+02 -.51821206E+03 0.71632100E+03 0.88968960E+03 0.92338486E+02 0.0000E+00 0.0000E+00
      -24  1    1    2    0    0 -.35086144E+02 0.54737446E+03 -.14063381E+02 0.55454020E+03 0.80419002E+02 0.0000E+00 0.9000E+01
      -11  1    4    4    0    0 0.41013139E+02 -.44004476E+03 0.65546168E+03 0.79053873E+03 0.51099893E-03 0.0000E+00 0.9000E+01
       11  1    4    4    0    0 -.41123245E+01 -.78167300E+02 0.60859323E+02 0.99150871E+02 0.51099893E-03 0.0000E+00 0.9000E+01
       23  1    3    3    0    0 -.18146702E+01 -.29162404E+02 0.10071007E+03 0.13896586E+03 0.91188000E+02 0.0000E+00 0.9000E+01
#aMCatNLO 1  0  0  2  2 0.13770641D+03 0.00000000D+00  -5  7  0 0.00000000D+00 0.00000000D+00 0.00000000D+00 0.00000000D+00 0.00000000D+00
  <mgrwgt>
 0.1491467584D-02    4    2    0
 0.682230049921957D+03 0.000000000000000D+00 0.000000000000000D+00 0.682230049921957D+03
 0.682230049921957D+03 0.000000000000000D+00 0.000000000000000D+00 -.682230049921957D+03
 0.651714240227437D+03 -.350861438290031D+02 0.547374462510921D+03 -.342657839926282D+03
 0.531538390214792D+03 0.410131385040108D+02 -.440044758548473D+03 0.295316090344227D+03
 0.792307212493722D+02 -.411232449373212D+01 -.781673001172359D+02 0.122665875179662D+02
 0.101976748152312D+03 -.181467018127562D+01 -.291624038452122D+02 0.350751620640886D+02
 0.000000000000000D+00 0.000000000000000D+00 0.000000000000000D+00 0.000000000000000D+00
 0.966905723826496D+03 0.000000000000000D+00 0.000000000000000D+00 0.966905723826496D+03
 0.702554156020991D+03 0.000000000000000D+00 0.000000000000000D+00 -.702554156020991D+03
 0.603087567071773D+03 -.531039215682360D+02 0.486839784583501D+03 -.342657839926282D+03
 0.575623228761070D+03 0.251153354756163D+02 -.493456916252135D+03 0.295316090344227D+03
 0.873127193355536D+02 -.650373218770494D+01 -.862017590079450D+02 0.122665875179662D+02
 0.105367902606653D+03 -.479194500751683D+01 -.391652119226750D+02 0.350751620640886D+02
 0.298068462072436D+03 0.392842632878415D+02 0.131984102599254D+03 0.264351567805505D+03
0.507234313630D-03 0.000000000000D+00 0.000000000000D+00 0.103620793699D-04 0.000000000000D+00  7 1 -2 -24 -11 11 23 21 0 0.18355103D+00 0.60017535D-01 0.34242625D+06 0.34242625D+06 0.34242625D+06 0.10803272D+01  1  2  2  2  7  2       -2 0.158300824311D-02 0.100000000000D+01
-.273727940530D-04 0.000000000000D+00 -.194791332220D-05 0.103620793699D-04 0.000000000000D+00  7 1 -2 -24 -11 11 23 21 2 0.18355103D+00 0.60017535D-01 0.34242625D+06 0.34242625D+06 0.34242625D+06 0.10803272D+01  1  2  3  2  7  2       -2 -.997020972658D-04 0.100000000000D+01
0.319267835527D-04 0.000000000000D+00 0.000000000000D+00 0.103620793699D-04 0.000000000000D+00  7 1 -2 -24 -11 11 23 21 2 0.18355103D+00 0.60017535D-01 0.34242625D+06 0.34242625D+06 0.34242625D+06 0.10803272D+01  1  2 15  2  7  2       -2 0.116289454156D-03 0.100000000000D+01
-.296860948074D-04 0.000000000000D+00 0.000000000000D+00 0.103620793699D-04 0.000000000000D+00  7 1 -2 -24 -11 11 23 21 2 0.18355103D+00 0.60017535D-01 0.34242625D+06 0.34242625D+06 0.34242625D+06 0.10803272D+01  1  2  4  2  7  2       -2 -.108128015949D-03 0.100000000000D+01
  </mgrwgt>
  </event>
  <event>
  8     66 0.29493621E-05 0.16584185E+03 0.75467711E-02 0.98604274E-01
        1 -1    0    0  501    0 0.00000000E+00 0.00000000E+00 0.27288248E+04 0.27288248E+04 0.32000000E+00 0.0000E+00 0.9000E+01
       -2 -1    0    0    0  501 0.00000000E+00 0.00000000E+00 -.32478769E+02 0.32480345E+02 0.32000000E+00 0.0000E+00 0.9000E+01
       25  2    1    2    0    0 -.15807728E+03 0.12603680E+03 0.19757928E+04 0.20086181E+04 0.29985932E+03 0.0000E+00 0.0000E+00
       23  2    3    3    0    0 -.20794320E+03 0.11971038E+03 0.14898156E+04 0.15116113E+04 0.88584596E+02 0.0000E+00 0.0000E+00
      -24  1    1    2    0    0 0.15807728E+03 -.12603680E+03 0.72055319E+03 0.75268706E+03 0.80419002E+02 0.0000E+00 0.9000E+01
      -13  1    4    4    0    0 -.19935953E+03 0.13172421E+03 0.13465048E+04 0.13675418E+04 0.10565837E+00 0.0000E+00 0.9000E+01
       13  1    4    4    0    0 -.85836741E+01 -.12013833E+02 0.14331080E+03 0.14406945E+03 0.10565837E+00 0.0000E+00 0.9000E+01
       23  1    3    3    0    0 0.49865921E+02 0.63264236E+01 0.48597723E+03 0.49700679E+03 0.91188000E+02 0.0000E+00 0.9000E+01
#aMCatNLO 1  0  0  1  2 0.12675498D+03 0.00000000D+00  -5  7  0 0.00000000D+00 0.00000000D+00 0.00000000D+00 0.00000000D+00 0.00000000D+00
  <mgrwgt>
 0.2005503545D-02    9    2    0
 0.297709708145627D+03 0.000000000000000D+00 0.000000000000000D+00 0.297709708145627D+03
 0.297709708145627D+03 0.000000000000000D+00 0.000000000000000D+00 -.297709708145627D+03
 0.227634402669812D+03 0.158077282288715D+03 -.126036799167565D+03 -.669066768288499D+02
 0.244462388138360D+03 -.199359800249318D+03 0.131724412718232D+03 0.516353401547725D+02
 0.191529450508251D+02 -.858340281054009D+01 -.120140372466876D+02 0.121993200362619D+02
 0.104169680432257D+03 0.498659207711428D+02 0.632642369602026D+01 0.307201663781548D+01
 0.000000000000000D+00 -.000000000000000D+00 -.000000000000000D+00 0.000000000000000D+00
 0.491013794362940D+03 0.000000000000000D+00 0.000000000000000D+00 0.491013794362940D+03
 0.325902943483639D+03 0.000000000000000D+00 0.000000000000000D+00 -.325902943483639D+03
 0.206738134686842D+03 0.159199345440721D+03 -.803274883610212D+02 -.669066768288499D+02
 0.276932459252041D+03 -.198012942666049D+03 0.186591139047963D+03 0.516353401547725D+02
 0.169804740933480D+02 -.849006362656592D+01 -.821169353450208D+01 0.121993200362619D+02
 0.108110877165677D+03 0.504142800044806D+02 0.286648478617803D+02 0.307201663781548D+01
 0.208154792648670D+03 -.311061915258647D+01 -.126716805014220D+03 0.165110850879301D+03
0.849917089741D-04 0.000000000000D+00 0.000000000000D+00 0.684969810568D-06 0.000000000000D+00  7 1 -2 -24 -13 13 23 21 0 0.41981932D+00 0.49968563D-02 0.82775963D+05 0.82775963D+05 0.82775963D+05 0.11285219D+01  1  2  2  1  7  1        1 0.168229655820D-02 0.100000000000D+01
-.471505757911D-05 0.000000000000D+00 -.326390541291D-06 0.684969810568D-06 0.000000000000D+00  7 1 -2 -24 -13 13 23 21 2 0.41981932D+00 0.49968563D-02 0.82775963D+05 0.82775963D+05 0.82775963D+05 0.11285219D+01  1  2  3  1  7  1        1 -.118859238824D-03 0.100000000000D+01
0.552122126877D-05 0.000000000000D+00 0.000000000000D+00 0.684969810568D-06 0.000000000000D+00  7 1 -2 -24 -13 13 23 21 2 0.41981932D+00 0.49968563D-02 0.82775963D+05 0.82775963D+05 0.82775963D+05 0.11285219D+01  1  2 15  1  7  1        1 0.139181366584D-03 0.100000000000D+01
0.495384357084D-04 0.000000000000D+00 0.000000000000D+00 0.684969810568D-06 0.000000000000D+00  7 1 -2 -24 -13 13 23 21 2 0.70139926D+00 0.49968563D-02 0.12756401D+06 0.12756401D+06 0.12756401D+06 0.11131477D+01  1  2 12  1  7  1        1 0.316030807531D-04 0.100000000000D+01
-.631416150978D-04 0.000000000000D+00 0.000000000000D+00 0.684969810568D-06 0.000000000000D+00  7 1 -2 -24 -13 13 23 21 2 0.41981932D+00 0.49968563D-02 0.82775963D+05 0.82775963D+05 0.82775963D+05 0.11285219D+01  1  2  4  1  7  1        1 -.159170151853D-02 0.100000000000D+01
-.738767959187D-04 0.000000000000D+00 -.193696568040D-04 0.684969810568D-06 0.000000000000D+00  7 1 -2 -24 -13 13 23 21 2 0.70072059D+00 0.49968563D-02 0.82775963D+05 0.82775963D+05 0.82775963D+05 0.11285219D+01  1  2  5  1  7  1        1 -.505530019816D-04 0.100000000000D+01
0.759096522102D-04 0.000000000000D+00 0.170791277080D-04 0.684969810568D-06 0.000000000000D+00  7 1 -2 -24 -13 13 23 21 2 0.41981932D+00 0.49968563D-02 0.82775963D+05 0.82775963D+05 0.82775963D+05 0.11285219D+01  1  2  6  1  7  1        1 0.191356379635D-02 0.100000000000D+01
0.285199534918D-05 0.000000000000D+00 0.000000000000D+00 0.684969810568D-06 0.000000000000D+00  7 21 -2 -24 -13 13 23 -1 2 0.70139926D+00 0.49968563D-02 0.12756401D+06 0.12756401D+06 0.12756401D+06 0.11131477D+01  1  2 12  3  7  1        1 0.969698585130D-07 0.100000000000D+01
-.334918347167D-05 0.000000000000D+00 -.111344945123D-05 0.684969810568D-06 0.000000000000D+00  7 21 -2 -24 -13 13 23 -1 2 0.70072059D+00 0.49968563D-02 0.82775963D+05 0.82775963D+05 0.82775963D+05 0.11285219D+01  1  2  5  3  7  1        1 -.124467309738D-06 0.100000000000D+01
  </mgrwgt>
  </event>
  <event>
  9     66 0.29493621E-05 0.57300937E+03 0.75467711E-02 0.91763720E-01
        1 -1    0    0  502    0 0.00000000E+00 0.00000000E+00 0.54971807E+03 0.54971817E+03 0.32000000E+00 0.0000E+00 0.9000E+01
       -2 -1    0    0    0  501 0.00000000E+00 0.00000000E+00 -.83965441E+03 0.83965447E+03 0.32000000E+00 0.0000E+00 0.9000E+01
       25  2    1    2    0    0 -.17258744E+03 -.45619564E+03 -.85409969E+02 0.57978708E+03 0.30159129E+03 0.0000E+00 0.0000E+00
       23  2    3    3    0    0 -.99163484E+02 -.16781284E+03 0.77582655E+02 0.22845025E+03 0.90420710E+02 0.0000E+00 0.0000E+00
      -24  1    1    2    0    0 0.16632234E+03 0.60170886E+03 -.11869037E+03 0.64052424E+03 0.80419002E+02 0.0000E+00 0.9000E+01
      -11  1    4    4    0    0 -.10204231E+03 -.17543605E+03 0.64353234E+02 0.21291261E+03 0.51099893E-03 0.0000E+00 0.9000E+01
       11  1    4    4    0    0 0.28788234E+01 0.76232081E+01 0.13229421E+02 0.15537648E+02 0.51099893E-03 0.0000E+00 0.9000E+01
       23  1    3    3    0    0 -.73423959E+02 -.28838280E+03 -.16299262E+03 0.35133682E+03 0.91188000E+02 0.0000E+00 0.9000E+01
       21  1    1    2  502  501 0.62651034E+01 -.14551322E+03 -.85836005E+02 0.16906133E+03 0.75000000E+00 0.0000E+00 0.9000E+01
#aMCatNLO 2  0  0  1  1 0.14564803D+03 0.00000000D+00  -5  7  0 0.00000000D+00 0.00000000D+00 0.00000000D+00 0.00000000D+00 0.00000000D+00
  <mgrwgt>
 0.2726620736D-03    1    2    0
 0.597136794241034D+03 0.000000000000000D+00 0.000000000000000D+00 0.597136794241034D+03
 0.597136794241034D+03 0.000000000000000D+00 0.000000000000000D+00 -.597136794241034D+03
 0.561763789388937D+03 0.169435569896928D+03 0.529401005155957D+03 -.117261463325834D+02
 0.249392720001773D+03 -.100797688099338D+03 -.204343562363564D+03 0.101391633699627D+03
 0.172235707053407D+02 0.297088317789821D+01 0.548502800774389D+01 0.160542738465311D+02
 0.365893508386018D+03 -.716087649754880D+02 -.330542470800136D+03 -.105719761213575D+03
 0.000000000000000D+00 0.000000000000000D+00 -.000000000000000D+00 -.000000000000000D+00
 0.650826625713854D+03 0.000000000000000D+00 0.000000000000000D+00 0.650826625713854D+03
 0.709208963334074D+03 0.000000000000000D+00 0.000000000000000D+00 -.709208963334074D+03
 0.629540622392620D+03 0.166322339404286D+03 0.601708863317958D+03 -.117261463325834D+02
 0.226871555590057D+03 -.102042307401226D+03 -.175436047754748D+03 0.101391633699627D+03
 0.180039060960147D+02 0.287882337028548D+01 0.762320811583927D+01 0.160542738465311D+02
 0.328706002074840D+03 -.734239587704197D+02 -.288382799111614D+03 -.105719761213575D+03
 0.156913502894397D+03 0.626510339707464D+01 -.145513224567435D+03 -.583823376202197D+02
0.128517781128D-03 0.000000000000D+00 0.000000000000D+00 0.115965230055D-05 0.346591703044D-09  7 1 -2 -24 -11 11 23 21 2 0.84571910D-01 0.12917744D+00 0.42082687D+06 0.42082687D+06 0.42082687D+06 0.10738421D+01  1  2  1  1  7  1        1 0.272662073589D-03 0.100000000000D+01
  </mgrwgt>
  </event>
  <event>
  8     66 0.29493621E-05 0.24287728E+03 0.75467711E-02 0.10238806E+00
        1 -1    0    0  501    0 0.00000000E+00 0.00000000E+00 0.29822505E+03 0.29822523E+03 0.32000000E+00 0.0000E+00 0.9000E+01
       -2 -1    0    0    0  501 0.00000000E+00 0.00000000E+00 -.27778937E+03 0.27778955E+03 0.32000000E+00 0.0000E+00 0.9000E+01
       25  2    1    2    0    0 0.19408777E+03 -.21044866E+02 -.30597251E+02 0.35879478E+03 0.29947380E+03 0.0000E+00 0.0000E+00
       23  2    3    3    0    0 0.35417685E+01 0.28759751E+02 0.71568448E+02 0.11891698E+03 0.90440800E+02 0.0000E+00 0.0000E+00
      -24  1    1    2    0    0 -.19408777E+03 0.21044866E+02 0.51032938E+02 0.21721999E+03 0.80419002E+02 0.0000E+00 0.9000E+01
      -11  1    4    4    0    0 -.18025529E+02 -.39000140E+01 -.15090553E+02 0.23829700E+02 0.51099893E-03 0.0000E+00 0.9000E+01
       11  1    4    4    0    0 0.21567297E+02 0.32659765E+02 0.86659001E+02 0.95087281E+02 0.51099893E-03 0.0000E+00 0.9000E+01
       23  1    3    3    0    0 0.19054600E+03 -.49804617E+02 -.10216570E+03 0.23987780E+03 0.91188000E+02 0.0000E+00 0.9000E+01
#aMCatNLO 1  0  0  2  1 0.47519735D+02 0.00000000D+00  -5  7  0 0.00000000D+00 0.00000000D+00 0.00000000D+00 0.00000000D+00 0.00000000D+00
  <mgrwgt>
 0.9049684950D-03    4    2    0
 0.287826079500181D+03 0.000000000000000D+00 0.000000000000000D+00 0.287826079500181D+03
 0.287826079500181D+03 0.000000000000000D+00 0.000000000000000D+00 -.287826079500181D+03
 0.215545155308957D+03 -.194087771200730D+03 0.210448659808801D+02 0.433537623392903D+02
 0.243804263832391D+02 -.180255285911250D+02 -.390001401833953D+01 -.159460151854885D+02
 0.920707795913720D+02 0.215672970876080D+02 0.326597650388589D+02 0.833379859278132D+02
 0.243655797716794D+03 0.190546002704247D+03 -.498046170013994D+02 -.110745733081615D+03
 0.000000000000000D+00 0.000000000000000D+00 0.000000000000000D+00 0.000000000000000D+00
 0.395823057492632D+03 0.000000000000000D+00 0.000000000000000D+00 0.395823057492632D+03
 0.294080203766091D+03 0.000000000000000D+00 0.000000000000000D+00 -.294080203766091D+03
 0.232156127719781D+03 -.212497319668984D+03 0.198643426268930D+02 0.433537623392903D+02
 0.259689032996914D+02 -.200959010923414D+02 -.403277789863531D+01 -.159460151854885D+02
 0.904347016035779D+02 0.140626424682359D+02 0.321785245534091D+02 0.833379859278132D+02
 0.229050458926615D+03 0.171108245715811D+03 -.510510748443793D+02 -.110745733081615D+03
 0.112293069709057D+03 0.474223325772786D+02 0.304098556271252D+01 0.101742853726541D+03
0.190310272654D-04 0.000000000000D+00 0.000000000000D+00 0.107224281403D-05 0.000000000000D+00  7 1 -2 -24 -11 11 23 21 0 0.45880805D-01 0.42736853D-01 0.58989375D+05 0.58989375D+05 0.58989375D+05 0.11410326D+01  1  2  2  2  7  2       -2 0.972482462760D-03 0.100000000000D+01
-.102021573539D-05 0.000000000000D+00 -.730841556838D-07 0.107224281403D-05 0.000000000000D+00  7 1 -2 -24 -11 11 23 21 2 0.45880805D-01 0.42736853D-01 0.58989375D+05 0.58989375D+05 0.58989375D+05 0.11410326D+01  1  2  3  2  7  2       -2 -.678746619520D-04 0.100000000000D+01
0.122627963691D-05 0.000000000000D+00 0.000000000000D+00 0.107224281403D-05 0.000000000000D+00  7 1 -2 -24 -11 11 23 21 2 0.45880805D-01 0.42736853D-01 0.58989375D+05 0.58989375D+05 0.58989375D+05 0.11410326D+01  1  2 15  2  7  2       -2 0.815840345585D-04 0.100000000000D+01
-.122085808664D-05 0.000000000000D+00 0.000000000000D+00 0.107224281403D-05 0.000000000000D+00  7 1 -2 -24 -11 11 23 21 2 0.45880805D-01 0.42736853D-01 0.58989375D+05 0.58989375D+05 0.58989375D+05 0.11410326D+01  1  2  4  2  7  2       -2 -.812233403654D-04 0.100000000000D+01
  </mgrwgt>
  </event>
  <event>
  8     66 0.29493621E-05 0.94054209E+02 0.75467711E-02 0.10176807E+00
        1 -1    0    0  501    0 0.00000000E+00 0.00000000E+00 0.32040457E+03 0.32040473E+03 0.32000000E+00 0.0000E+00 0.9000E+01
       -2 -1    0    0    0  501 0.00000000E+00 0.00000000E+00 -.27364266E+03 0.27364284E+03 0.32000000E+00 0.0000E+00 0.9000E+01
       25  2    1    2    0    0 0.57137398E+02 0.17726693E+03 -.70716844E+02 0.35961908E+03 0.29939400E+03 0.0000E+00 0.0000E+00
       23  2    3    3    0    0 -.50734020E+02 -.17925667E+02 -.54008518E+02 0.11810136E+03 0.90198337E+02 0.0000E+00 0.0000E+00
      -24  1    1    2    0    0 -.57137398E+02 -.17726693E+03 0.11747876E+03 0.23442850E+03 0.80419002E+02 0.0000E+00 0.9000E+01
      -11  1    4    4    0    0 -.18485220E+02 -.39386694E+02 -.64651894E+02 0.77928701E+02 0.51099893E-03 0.0000E+00 0.9000E+01
       11  1    4    4    0    0 -.32248800E+02 0.21461027E+02 0.10643376E+02 0.40172655E+02 0.51099893E-03 0.0000E+00 0.9000E+01
       23  1    3    3    0    0 0.10787142E+03 0.19519259E+03 -.16708326E+02 0.24151772E+03 0.91188000E+02 0.0000E+00 0.9000E+01
#aMCatNLO 1  0  0  1  2 0.28461632D+02 0.00000000D+00  -5  7  0 0.00000000D+00 0.00000000D+00 0.00000000D+00 0.00000000D+00 0.00000000D+00
  <mgrwgt>
 0.9481733092D-03    9    2    0
 0.296102112591801D+03 0.000000000000000D+00 0.000000000000000D+00 0.296102112591801D+03
 0.296102112591801D+03 0.000000000000000D+00 0.000000000000000D+00 -.296102112591801D+03
 0.225881785144370D+03 -.571373984100205D+02 -.177266925080086D+03 0.993333774781794D+02
 0.832763428091572D+02 -.184852196740266D+02 -.393866938006760D+02 -.710065791087208D+02
 0.394572732302860D+02 -.322488004370080D+02 0.214610266733052D+02 0.750437307649063D+01
 0.243588823999789D+03 0.107871418521055D+03 0.195192592207457D+03 -.358311714459492D+02
 0.000000000000000D+00 -.000000000000000D+00 0.000000000000000D+00 0.000000000000000D+00
 0.315677857566343D+03 0.000000000000000D+00 0.000000000000000D+00 0.315677857566343D+03
 0.306972970506602D+03 0.000000000000000D+00 0.000000000000000D+00 -.306972970506602D+03
 0.233031307665328D+03 -.530413948311289D+02 -.187498973199824D+03 0.993333774781794D+02
 0.847996616007521D+02 -.169850665374625D+02 -.431341610049043D+02 -.710065791087208D+02
 0.379692605658965D+02 -.315577341665108D+02 0.197347041256163D+02 0.750437307649063D+01
 0.237087541032769D+03 0.112161668989630D+03 0.184475304393939D+03 -.358311714459492D+02
 0.297630572081991D+02 -.105774734545278D+02 0.264231256851728D+02 0.870488705974137D+01
0.108081287309D-04 0.000000000000D+00 0.000000000000D+00 0.885979296735D-06 0.000000000000D+00  7 1 -2 -24 -11 11 23 21 0 0.49293037D-01 0.42098897D-01 0.69182949D+05 0.69182949D+05 0.69182949D+05 0.11350933D+01  1  2  2  1  7  1        1 0.516783400173D-03 0.100000000000D+01
-.590208622413D-06 0.000000000000D+00 -.415060601724D-07 0.885979296735D-06 0.000000000000D+00  7 1 -2 -24 -11 11 23 21 2 0.49293037D-01 0.42098897D-01 0.69182949D+05 0.69182949D+05 0.69182949D+05 0.11350933D+01  1  2  3  1  7  1        1 -.363602404029D-04 0.100000000000D+01
0.689616404284D-06 0.000000000000D+00 0.000000000000D+00 0.885979296735D-06 0.000000000000D+00  7 1 -2 -24 -11 11 23 21 2 0.49293037D-01 0.42098897D-01 0.69182949D+05 0.69182949D+05 0.69182949D+05 0.11350933D+01  1  2 15  1  7  1        1 0.424843306135D-04 0.100000000000D+01
0.260187728262D-04 0.000000000000D+00 0.000000000000D+00 0.885979296735D-06 0.000000000000D+00  7 1 -2 -24 -11 11 23 21 2 0.53409566D-01 0.42098897D-01 0.77618976D+05 0.77618976D+05 0.77618976D+05 0.11308649D+01  1  2 12  1  7  1        1 0.143048752643D-02 0.100000000000D+01
-.238746186291D-04 0.000000000000D+00 0.000000000000D+00 0.885979296735D-06 0.000000000000D+00  7 1 -2 -24 -11 11 23 21 2 0.49293037D-01 0.42098897D-01 0.69182949D+05 0.69182949D+05 0.69182949D+05 0.11350933D+01  1  2  4  1  7  1        1 -.147081360711D-02 0.100000000000D+01
-.812342902505D-04 0.000000000000D+00 -.157622510220D-04 0.885979296735D-06 0.000000000000D+00  7 1 -2 -24 -11 11 23 21 2 0.54223298D-01 0.42098897D-01 0.69182949D+05 0.69182949D+05 0.69182949D+05 0.11350933D+01  1  2  5  1  7  1        1 -.441540772127D-02 0.100000000000D+01
0.824333840466D-04 0.000000000000D+00 0.156909023029D-04 0.885979296735D-06 0.000000000000D+00  7 1 -2 -24 -11 11 23 21 2 0.49293037D-01 0.42098897D-01 0.69182949D+05 0.69182949D+05 0.69182949D+05 0.11350933D+01  1  2  6  1  7  1        1 0.507836982948D-02 0.100000000000D+01
0.349203309811D-06 0.000000000000D+00 0.000000000000D+00 0.885979296735D-06 0.000000000000D+00  7 21 -2 -24 -11 11 23 -1 2 0.53409566D-01 0.42098897D-01 0.77618976D+05 0.77618976D+05 0.77618976D+05 0.11308649D+01  1  2 12  3  7  1        1 0.816267762440D-04 0.100000000000D+01
-.121830047490D-05 0.000000000000D+00 -.245615538475D-06 0.885979296735D-06 0.000000000000D+00  7 21 -2 -24 -11 11 23 -1 2 0.54223298D-01 0.42098897D-01 0.69182949D+05 0.69182949D+05 0.69182949D+05 0.11350933D+01  1  2  5  3  7  1        1 -.278996984934D-03 0.100000000000D+01
  </mgrwgt>
  </event>
  <event>
  7     66 0.29493621E-05 0.21921004E+03 0.75467711E-02 0.99485408E-01
        1 -1    0    0  501    0 0.00000000E+00 0.00000000E+00 0.48046153E+03 0.48046164E+03 0.32000000E+00 0.0000E+00 0.9000E+01
       -2 -1    0    0    0  501 0.00000000E+00 0.00000000E+00 -.35835508E+03 0.35835522E+03 0.32000000E+00 0.0000E+00 0.9000E+01
       23  2    1    2    0    0 0.26371315E+02 0.80640688E+02 -.23975565E+03 0.26999430E+03 0.90640944E+02 0.0000E+00 0.0000E+00
      -24  1    1    2    0    0 -.16538279E+03 -.14250593E+03 0.30280668E+03 0.38186190E+03 0.80419002E+02 0.0000E+00 0.9000E+01
      -11  1    3    3    0    0 0.10286628E+02 -.19794687E+02 -.48044379E+02 0.52970810E+02 0.51099893E-03 0.0000E+00 0.9000E+01
       11  1    3    3    0    0 0.16084687E+02 0.10043537E+03 -.19171127E+03 0.21702349E+03 0.51099893E-03 0.0000E+00 0.9000E+01
       23  1    1    2    0    0 0.13901147E+03 0.61865240E+02 0.59055422E+02 0.18696067E+03 0.91188000E+02 0.0000E+00 0.9000E+01
#aMCatNLO 1  0  0  2  1 0.11319800D+03 0.00000000D+00  -5  7  0 0.00000000D+00 0.00000000D+00 0.00000000D+00 0.00000000D+00 0.00000000D+00
  <mgrwgt>
 0.1412271580D-02    9    2    0
 0.414940881488853D+03 0.000000000000000D+00 0.000000000000000D+00 0.414940881488853D+03
 0.414940881488853D+03 0.000000000000000D+00 0.000000000000000D+00 -.414940881488853D+03
 0.341419182320964D+03 -.165382791212697D+03 -.142505931352275D+03 0.249880839606527D+03
 0.606102442338923D+02 0.102866295863626D+02 -.197946861316393D+02 -.563556328932160D+02
 0.247567966508064D+03 0.160846913838089D+02 0.100435376248982D+03 -.225707589464225D+03
 0.180284369914786D+03 0.139011470242526D+03 0.618652412349327D+02 0.321823827509138D+02
 0.000000000000000D+00 0.000000000000000D+00 -.000000000000000D+00 -.000000000000000D+00
 0.438274119374464D+03 0.000000000000000D+00 0.000000000000000D+00 0.438274119374464D+03
 0.583139217834279D+03 0.000000000000000D+00 0.000000000000000D+00 -.583139217834279D+03
 0.357655783396384D+03 -.209001893366442D+03 -.123807180766261D+03 0.249880839606527D+03
 0.588180378374706D+02 0.283484731524170D+01 -.166002366535679D+02 -.563556328932160D+02
 0.253241654889996D+03 -.151635539498290D+02 0.113830955637222D+03 -.225707589464225D+03
 0.167850956029289D+03 0.117289407387508D+03 0.711771118485930D+02 0.321823827509138D+02
 0.183846905055604D+03 0.104041192613522D+03 -.446006500659862D+02 -.144865098459815D+03
0.930968231049D-04 0.000000000000D+00 0.000000000000D+00 0.120143575552D-08 0.000000000000D+00  7 1 -2 -24 -11 11 23 21 0 0.73917178D-01 0.55131570D-01 0.71305857D+05 0.71305857D+05 0.71305857D+05 0.11339779D+01  1  2  2  2  7  2       -2 0.153891505812D-02 0.100000000000D+01
-.395034086448D-05 0.000000000000D+00 -.357516313679D-06 0.120143575552D-08 0.000000000000D+00  7 1 -2 -24 -11 11 23 21 2 0.73917178D-01 0.55131570D-01 0.71305857D+05 0.71305857D+05 0.71305857D+05 0.11339779D+01  1  2  3  2  7  2       -2 -.839698761375D-04 0.100000000000D+01
0.567340637899D-05 0.000000000000D+00 0.000000000000D+00 0.120143575552D-08 0.000000000000D+00  7 1 -2 -24 -11 11 23 21 2 0.73917178D-01 0.55131570D-01 0.71305857D+05 0.71305857D+05 0.71305857D+05 0.11339779D+01  1  2 15  2  7  2       -2 0.120595980768D-03 0.100000000000D+01
0.114343620756D-03 0.000000000000D+00 0.000000000000D+00 0.120143575552D-08 0.000000000000D+00  7 1 -2 -24 -11 11 23 21 2 0.73917178D-01 0.78547058D-01 0.11072160D+06 0.11072160D+06 0.11072160D+06 0.11181102D+01  1  2 12  2  7  2       -2 0.110942587987D-02 0.100000000000D+01
-.147395584971D-03 0.000000000000D+00 0.000000000000D+00 0.120143575552D-08 0.000000000000D+00  7 1 -2 -24 -11 11 23 21 2 0.73917178D-01 0.55131570D-01 0.71305857D+05 0.71305857D+05 0.71305857D+05 0.11339779D+01  1  2  4  2  7  2       -2 -.313309393740D-02 0.100000000000D+01
-.156844776635D-03 0.000000000000D+00 -.395204382328D-04 0.120143575552D-08 0.000000000000D+00  7 1 -2 -24 -11 11 23 21 2 0.73917178D-01 0.80341846D-01 0.71305857D+05 0.71305857D+05 0.71305857D+05 0.11339779D+01  1  2  5  2  7  2       -2 -.150818294300D-02 0.100000000000D+01
0.162699785229D-03 0.000000000000D+00 0.368749008262D-04 0.120143575552D-08 0.000000000000D+00  7 1 -2 -24 -11 11 23 21 2 0.73917178D-01 0.55131570D-01 0.71305857D+05 0.71305857D+05 0.71305857D+05 0.11339779D+01  1  2  6  2  7  2       -2 0.345840556093D-02 0.100000000000D+01
0.497992825269D-05 0.000000000000D+00 0.000000000000D+00 0.120143575552D-08 0.000000000000D+00  7 1 21 -24 -11 11 23 2 2 0.73917178D-01 0.78547058D-01 0.11072160D+06 0.11072160D+06 0.11072160D+06 0.11181102D+01  1  2 12  4  7  2       -2 0.479211061682D-03 0.100000000000D+01
-.590287626756D-05 0.000000000000D+00 -.180006746623D-05 0.120143575552D-08 0.000000000000D+00  7 1 21 -24 -11 11 23 2 2 0.73917178D-01 0.80341846D-01 0.71305857D+05 0.71305857D+05 0.71305857D+05 0.11339779D+01  1  2  5  4  7  2       -2 -.569035205289D-03 0.100000000000D+01
  </mgrwgt>
  </event>
  <event>
  8     66 0.29493621E-05 0.17886007E+03 0.75467711E-02 0.10052413E+00
        1 -1    0    0  501    0 0.00000000E+00 0.00000000E+00 0.10571339E+04 0.10571339E+04 0.32000000E+00 0.0000E+00 0.9000E+01
       -2 -1    0    0    0  501 0.00000000E+00 0.00000000E+00 -.39122420E+02 0.39123729E+02 0.32000000E+00 0.0000E+00 0.9000E+01
       25  2    1    2    0    0 -.27742191E+02 -.30734846E+02 0.64519952E+03 0.71262995E+03 0.29974116E+03 0.0000E+00 0.0000E+00
       23  2    3    3    0    0 -.82165018E+02 0.77620043E+02 0.38660858E+03 0.41281809E+03 0.90424667E+02 0.0000E+00 0.0000E+00
      -24  1    1    2    0    0 0.27742191E+02 0.30734846E+02 0.37281195E+03 0.38362772E+03 0.80419002E+02 0.0000E+00 0.9000E+01
      -13  1    4    4    0    0 -.47436839E+02 0.60364851E+02 0.11385316E+03 0.13731978E+03 0.10565837E+00 0.0000E+00 0.9000E+01
       13  1    4    4    0    0 -.34728178E+02 0.17255191E+02 0.27275542E+03 0.27549831E+03 0.10565837E+00 0.0000E+00 0.9000E+01
       23  1    3    3    0    0 0.54422826E+02 -.10835489E+03 0.25859094E+03 0.29981186E+03 0.91188000E+02 0.0000E+00 0.9000E+01
#aMCatNLO 1  0  0  1  1 0.20770624D+03 0.00000000D+00  -5  7  0 0.00000000D+00 0.00000000D+00 0.00000000D+00 0.00000000D+00 0.00000000D+00
  <mgrwgt>
 0.2766340124D-02    3    2    0
 0.203367599412545D+03 0.000000000000000D+00 0.000000000000000D+00 0.203367599412545D+03
 0.203367599412545D+03 0.000000000000000D+00 0.000000000000000D+00 -.203367599412545D+03
 0.100871519492917D+03 0.277422122456246D+02 0.307348688749102D+02 0.446495799017214D+02
 0.851513518219344D+02 -.474368570682330D+02 0.603648959208721D+02 -.368317342661620D+02
 0.598644222532746D+02 -.347281578519079D+02 0.172551194103011D+02 0.456066328297495D+02
 0.160847905256964D+03 0.544228026745162D+02 -.108354884206083D+03 -.534244784653090D+02
 0.000000000000000D+00 -.000000000000000D+00 0.000000000000000D+00 -.000000000000000D+00
 0.260883841648374D+03 0.000000000000000D+00 0.000000000000000D+00 0.260883841648374D+03
 0.559868599488428D+03 0.000000000000000D+00 0.000000000000000D+00 -.559868599488428D+03
 0.984871720816971D+02 0.307498446625939D+02 -.171280231814830D+02 0.446495799017214D+02
 0.633268564071989D+02 -.451968349816298D+02 0.247176091280718D+02 -.368317342661620D+02
 0.573119727979356D+02 -.329603717500026D+02 -.108770934548415D+02 0.456066328297495D+02
 0.237574563097890D+03 0.604336182652901D+02 -.204009863906695D+03 -.534244784653090D+02
 0.364051876752081D+03 -.130262561962516D+02 0.207297371414947D+03 -.298984757840054D+03
0.137938294818D-04 0.000000000000D+00 0.000000000000D+00 0.473847942176D-06 0.000000000000D+00  7 1 -2 -24 -13 13 23 21 0 0.16263609D+00 0.60189383D-02 0.31990925D+05 0.31990925D+05 0.31990925D+05 0.11647556D+01  1  2  2  1  7  1        1 0.272635826720D-02 0.100000000000D+01
-.750959976929D-06 0.000000000000D+00 -.529719372087D-07 0.473847942176D-06 0.000000000000D+00  7 1 -2 -24 -13 13 23 21 2 0.16263609D+00 0.60189383D-02 0.31990925D+05 0.31990925D+05 0.31990925D+05 0.11647556D+01  1  2  3  1  7  1        1 -.201365234422D-03 0.100000000000D+01
0.900066024899D-06 0.000000000000D+00 0.000000000000D+00 0.473847942176D-06 0.000000000000D+00  7 1 -2 -24 -13 13 23 21 2 0.16263609D+00 0.60189383D-02 0.31990925D+05 0.31990925D+05 0.31990925D+05 0.11647556D+01  1  2 15  1  7  1        1 0.241347091279D-03 0.100000000000D+01
  </mgrwgt>
  </event>
  <event>
  8     66 0.29493621E-05 0.11926208E+03 0.75467711E-02 0.10353413E+00
        1 -1    0    0  501    0 0.00000000E+00 0.00000000E+00 0.26460927E+04 0.26460927E+04 0.32000000E+00 0.0000E+00 0.9000E+01
       -2 -1    0    0    0  501 0.00000000E+00 0.00000000E+00 -.94758087E+02 0.94758628E+02 0.32000000E+00 0.0000E+00 0.9000E+01
       25  2    1    2    0    0 0.42433193E+02 0.12408601E+03 0.25654139E+04 0.25863736E+04 0.30130029E+03 0.0000E+00 0.0000E+00
       23  2    3    3    0    0 -.28094026E+02 0.41522562E+01 0.18259374E+04 0.18284165E+04 0.90845799E+02 0.0000E+00 0.0000E+00
      -24  1    1    2    0    0 -.42433193E+02 -.12408601E+03 -.14079370E+02 0.15447769E+03 0.80419002E+02 0.0000E+00 0.9000E+01
      -11  1    4    4    0    0 0.27174141E+02 0.24190478E+02 0.71167796E+03 0.71260728E+03 0.51099893E-03 0.0000E+00 0.9000E+01
       11  1    4    4    0    0 -.55268167E+02 -.20038222E+02 0.11142595E+04 0.11158092E+04 0.51099893E-03 0.0000E+00 0.9000E+01
       23  1    3    3    0    0 0.70527219E+02 0.11993375E+03 0.73947652E+03 0.75795710E+03 0.91188000E+02 0.0000E+00 0.9000E+01
#aMCatNLO 1  0  0  1  2 0.68007625D+02 0.00000000D+00  -5  7  0 0.00000000D+00 0.00000000D+00 0.00000000D+00 0.00000000D+00 0.00000000D+00
  <mgrwgt>
 0.1554283851D-02    9    2    0
 0.500738900399336D+03 0.000000000000000D+00 0.000000000000000D+00 0.500738900399336D+03
 0.500738900399336D+03 0.000000000000000D+00 0.000000000000000D+00 -.500738900399336D+03
 0.458643783211193D+03 -.424331933919149D+02 -.124086005509627D+03 -.432075214816974D+03
 0.137219222026797D+03 0.271741413070002D+02 0.241904782744135D+02 0.132308358385711D+03
 0.215100636653639D+03 -.552681672358935D+02 -.200382220865662D+02 0.206911051504736D+03
 0.190514158907044D+03 0.705272193208082D+02 0.119933749321780D+03 0.928558049265270D+02
 0.000000000000000D+00 -.000000000000000D+00 0.000000000000000D+00 0.000000000000000D+00
 0.548152519584799D+03 0.000000000000000D+00 0.000000000000000D+00 0.548152519584799D+03
 0.526886708554776D+03 0.000000000000000D+00 0.000000000000000D+00 -.526886708554776D+03
 0.461641874074035D+03 -.158137801594942D+02 -.140381398490504D+03 -.432075214816974D+03
 0.138251424958936D+03 0.351421748490494D+02 0.193127510037628D+02 0.132308358385711D+03
 0.213105506340841D+03 -.428822344781712D+02 -.276204193333476D+02 0.206911051504736D+03
 0.190785445619356D+03 0.815563727775603D+02 0.113182120792070D+03 0.928558049265270D+02
 0.712549771464064D+02 -.580025329889443D+02 0.355069460280191D+02 0.212658110300234D+02
0.183630233662D-03 0.000000000000D+00 0.000000000000D+00 0.278292340435D-05 0.000000000000D+00  7 1 -2 -24 -11 11 23 21 0 0.40709122D+00 0.14578210D-01 0.43130613D+05 0.43130613D+05 0.43130613D+05 0.11529842D+01  1  2  2  1  7  1        1 0.834739375492D-03 0.100000000000D+01
-.594232503156D-06 0.000000000000D+00 -.705188448212D-06 0.278292340435D-05 0.000000000000D+00  7 1 -2 -24 -11 11 23 21 2 0.40709122D+00 0.14578210D-01 0.43130613D+05 0.43130613D+05 0.43130613D+05 0.11529842D+01  1  2  3  1  7  1        1 -.359095371992D-05 0.100000000000D+01
0.111533006899D-04 0.000000000000D+00 0.000000000000D+00 0.278292340435D-05 0.000000000000D+00  7 1 -2 -24 -11 11 23 21 2 0.40709122D+00 0.14578210D-01 0.43130613D+05 0.43130613D+05 0.43130613D+05 0.11529842D+01  1  2 15  1  7  1        1 0.673995218860D-04 0.100000000000D+01
0.219588282433D-03 0.000000000000D+00 0.000000000000D+00 0.278292340435D-05 0.000000000000D+00  7 1 -2 -24 -11 11 23 21 2 0.45547060D+00 0.14578210D-01 0.59617480D+05 0.59617480D+05 0.59617480D+05 0.11406350D+01  1  2 12  1  7  1        1 0.765742331475D-03 0.100000000000D+01
-.225833430669D-03 0.000000000000D+00 0.000000000000D+00 0.278292340435D-05 0.000000000000D+00  7 1 -2 -24 -11 11 23 21 2 0.40709122D+00 0.14578210D-01 0.43130613D+05 0.43130613D+05 0.43130613D+05 0.11529842D+01  1  2  4  1  7  1        1 -.136471396909D-02 0.100000000000D+01
-.503359150931D-03 0.000000000000D+00 -.148752107928D-03 0.278292340435D-05 0.000000000000D+00  7 1 -2 -24 -11 11 23 21 2 0.45344059D+00 0.14578210D-01 0.43130613D+05 0.43130613D+05 0.43130613D+05 0.11529842D+01  1  2  5  1  7  1        1 -.186662588011D-02 0.100000000000D+01
0.517249360799D-03 0.000000000000D+00 0.147891532650D-03 0.278292340435D-05 0.000000000000D+00  7 1 -2 -24 -11 11 23 21 2 0.40709122D+00 0.14578210D-01 0.43130613D+05 0.43130613D+05 0.43130613D+05 0.11529842D+01  1  2  6  1  7  1        1 0.312574372223D-02 0.100000000000D+01
0.393912783561D-05 0.000000000000D+00 0.000000000000D+00 0.278292340435D-05 0.000000000000D+00  7 21 -2 -24 -11 11 23 -1 2 0.45547060D+00 0.14578210D-01 0.59617480D+05 0.59617480D+05 0.59617480D+05 0.11406350D+01  1  2 12  3  7  1        1 0.345577984496D-05 0.100000000000D+01
-.815809195615D-05 0.000000000000D+00 -.257770334802D-05 0.278292340435D-05 0.000000000000D+00  7 21 -2 -24 -11 11 23 -1 2 0.45344059D+00 0.14578210D-01 0.43130613D+05 0.43130613D+05 0.43130613D+05 0.11529842D+01  1  2  5  3  7  1        1 -.786607677430D-05 0.100000000000D+01
  </mgrwgt>
  </event>
  <event>
  8     66 0.29493621E-05 0.12761059E+03 0.75467711E-02 0.10147653E+00
        1 -1    0    0  501    0 0.00000000E+00 0.00000000E+00 0.22396721E+03 0.22396744E+03 0.32000000E+00 0.0000E+00 0.9000E+01
       -2 -1    0    0    0  501 0.00000000E+00 0.00000000E+00 -.33204637E+03 0.33204652E+03 0.32000000E+00 0.0000E+00 0.9000E+01
       25  2    1    2    0    0 0.37424355E+02 -.77930315E+02 -.22801508E+03 0.38771198E+03 0.30142326E+03 0.0000E+00 0.0000E+00
       23  2    3    3    0    0 0.17109429E+02 -.10109140E+03 0.44364928E+01 0.13612080E+03 0.89425874E+02 0.0000E+00 0.0000E+00
      -24  1    1    2    0    0 -.37424355E+02 0.77930315E+02 0.11993593E+03 0.16830199E+03 0.80419002E+02 0.0000E+00 0.9000E+01
      -11  1    4    4    0    0 0.41979930E+01 -.11433387E+03 -.65683656E+01 0.11459930E+03 0.51099893E-03 0.0000E+00 0.9000E+01
       11  1    4    4    0    0 0.12911436E+02 0.13242468E+02 0.11004858E+02 0.21521502E+02 0.51099893E-03 0.0000E+00 0.9000E+01
       23  1    3    3    0    0 0.20314926E+02 0.23161086E+02 -.23245157E+03 0.25159117E+03 0.91188000E+02 0.0000E+00 0.9000E+01
#aMCatNLO 1  0  0  1  2 0.16631902D+03 0.00000000D+00  -5  7  0 0.00000000D+00 0.00000000D+00 0.00000000D+00 0.00000000D+00 0.00000000D+00
  <mgrwgt>
 0.7330418881D-03    9    2    0
 0.272704245983024D+03 0.000000000000000D+00 0.000000000000000D+00 0.272704245983024D+03
 0.272704245983024D+03 0.000000000000000D+00 0.000000000000000D+00 -.272704245983024D+03
 0.195341344153224D+03 -.374243550452698D+02 0.779303154541401D+02 0.155619113105947D+03
 0.115526087468042D+03 0.419799303268946D+01 -.114333869212292D+03 0.160131224662117D+02
 0.241207307129208D+02 0.129114363330644D+02 0.132424675151459D+02 0.154835886038338D+02
 0.210420329631861D+03 0.203149256795159D+02 0.231610862430055D+02 -.187115824175992D+03
 0.000000000000000D+00 0.000000000000000D+00 -.000000000000000D+00 0.000000000000000D+00
 0.446623901570781D+03 0.000000000000000D+00 0.000000000000000D+00 0.446623901570781D+03
 0.327916559803434D+03 0.000000000000000D+00 0.000000000000000D+00 -.327916559803434D+03
 0.230270101059044D+03 -.557566550678490D+02 0.138675846992674D+03 0.155619113105947D+03
 0.870297342156558D+02 -.452666448344867D+01 -.854240238760976D+02 0.160131224662117D+02
 0.279457555451583D+02 0.106687841254186D+02 0.206736736508582D+02 0.154835886038338D+02
 0.224958265837175D+03 0.156192661115934D+01 0.853006374693041D+02 -.187115824175992D+03
 0.204336604717182D+03 0.480526088147197D+02 -.159226134236738D+03 0.118707341767347D+03
0.198302703099D-04 0.000000000000D+00 0.000000000000D+00 0.150263894531D-06 0.000000000000D+00  7 1 -2 -24 -11 11 23 21 0 0.34456524D-01 0.51084086D-01 0.30142062D+05 0.30142062D+05 0.30142062D+05 0.11671456D+01  1  2  2  1  7  1        1 0.104551191670D-02 0.100000000000D+01
-.828565020051D-06 0.000000000000D+00 -.761534594203D-07 0.150263894531D-06 0.000000000000D+00  7 1 -2 -24 -11 11 23 21 2 0.34456524D-01 0.51084086D-01 0.30142062D+05 0.30142062D+05 0.30142062D+05 0.11671456D+01  1  2  3  1  7  1        1 -.595082290288D-04 0.100000000000D+01
0.121067432587D-05 0.000000000000D+00 0.000000000000D+00 0.150263894531D-06 0.000000000000D+00  7 1 -2 -24 -11 11 23 21 2 0.34456524D-01 0.51084086D-01 0.30142062D+05 0.30142062D+05 0.30142062D+05 0.11671456D+01  1  2 15  1  7  1        1 0.869516372517D-04 0.100000000000D+01
0.300839291844D-07 0.000000000000D+00 0.000000000000D+00 0.150263894531D-06 0.000000000000D+00  7 1 -2 -24 -11 11 23 21 2 0.58093577D-01 0.51084086D-01 0.81147751D+05 0.81147751D+05 0.81147751D+05 0.11292439D+01  1  2 12  1  7  1        1 0.101726981750D-05 0.100000000000D+01
-.117540631979D-04 0.000000000000D+00 0.000000000000D+00 0.150263894531D-06 0.000000000000D+00  7 1 -2 -24 -11 11 23 21 2 0.34456524D-01 0.51084086D-01 0.30142062D+05 0.30142062D+05 0.30142062D+05 0.11671456D+01  1  2  4  1  7  1        1 -.844186597153D-03 0.100000000000D+01
-.640453000425D-05 0.000000000000D+00 -.678697058373D-05 0.150263894531D-06 0.000000000000D+00  7 1 -2 -24 -11 11 23 21 2 0.65858823D-01 0.51084086D-01 0.30142062D+05 0.30142062D+05 0.30142062D+05 0.11671456D+01  1  2  5  1  7  1        1 -.198900044433D-03 0.100000000000D+01
0.986848837778D-05 0.000000000000D+00 0.557554940951D-05 0.150263894531D-06 0.000000000000D+00  7 1 -2 -24 -11 11 23 21 2 0.34456524D-01 0.51084086D-01 0.30142062D+05 0.30142062D+05 0.30142062D+05 0.11671456D+01  1  2  6  1  7  1        1 0.708763044953D-03 0.100000000000D+01
0.175670814761D-08 0.000000000000D+00 0.000000000000D+00 0.150263894531D-06 0.000000000000D+00  7 21 -2 -24 -11 11 23 -1 2 0.58093577D-01 0.51084086D-01 0.81147751D+05 0.81147751D+05 0.81147751D+05 0.11292439D+01  1  2 12  3  7  1        1 0.234570929003D-06 0.100000000000D+01
-.603600335850D-07 0.000000000000D+00 -.477399505539D-06 0.150263894531D-06 0.000000000000D+00  7 21 -2 -24 -11 11 23 -1 2 0.65858823D-01 0.51084086D-01 0.30142062D+05 0.30142062D+05 0.30142062D+05 0.11671456D+01  1  2  5  3  7  1        1 -.684168095643D-05 0.100000000000D+01
  </mgrwgt>
  </event>
  <event>
  8     66 0.29493621E-05 0.19238824E+03 0.75467711E-02 0.93080549E-01
        1 -1    0    0  501    0 0.00000000E+00 0.00000000E+00 0.14744118E+03 0.14744153E+03 0.32000000E+00 0.0000E+00 0.9000E+01
       -2 -1    0    0    0  501 0.00000000E+00 0.00000000E+00 -.27807574E+03 0.27807592E+03 0.32000000E+00 0.0000E+00 0.9000E+01
       25  2    1    2    0    0 0.46093632E+02 -.86906233E+01 -.62964340E+02 0.31042347E+03 0.30032994E+03 0.0000E+00 0.0000E+00
       23  2    3    3    0    0 0.13412533E+03 -.25965829E+02 0.83395530E+01 0.16397379E+03 0.90299647E+02 0.0000E+00 0.0000E+00
      -24  1    1    2    0    0 -.46093632E+02 0.86906233E+01 -.67670217E+02 0.11509398E+03 0.80419002E+02 0.0000E+00 0.9000E+01
      -13  1    4    4    0    0 0.58589395E+02 -.57327955E+02 0.36997044E+01 0.82054315E+02 0.10565837E+00 0.0000E+00 0.9000E+01
       13  1    4    4    0    0 0.75535933E+02 0.31362127E+02 0.46398486E+01 0.81919470E+02 0.10565837E+00 0.0000E+00 0.9000E+01
       23  1    3    3    0    0 -.88031697E+02 0.17275205E+02 -.71303893E+02 0.14644968E+03 0.91188000E+02 0.0000E+00 0.9000E+01
#aMCatNLO 1  0  0  1  2 0.51001977D+03 0.00000000D+00  -5  7  0 0.00000000D+00 0.00000000D+00 0.00000000D+00 0.00000000D+00 0.00000000D+00
  <mgrwgt>
 0.2492552921D-02    3    2    0
 0.202484387288245D+03 0.000000000000000D+00 0.000000000000000D+00 0.202484387288245D+03
 0.202484387288245D+03 0.000000000000000D+00 0.000000000000000D+00 -.202484387288245D+03
 0.991050601726718D+02 -.460937247134537D+02 0.869064084294621D+01 -.339770260799502D+02
 0.874113141860224D+02 0.585893734323802D+02 -.573280741018856D+02 0.303564669930039D+02
 0.875728986813976D+02 0.755359571671871D+02 0.313622454733882D+02 0.313008197523028D+02
 0.130879501536399D+03 -.880316058861136D+02 0.172751877855512D+02 -.276802606653564D+02
 0.000000000000000D+00 -.000000000000000D+00 -.000000000000000D+00 -.000000000000000D+00
 0.523567935247018D+03 0.000000000000000D+00 0.000000000000000D+00 0.523567935247018D+03
 0.654147406697977D+03 0.000000000000000D+00 0.000000000000000D+00 -.654147406697977D+03
 0.126292492528384D+03 0.305090277232134D+02 0.860077824432649D+02 -.339770260799502D+02
 0.141213389334587D+03 0.136288893035965D+03 0.210960629998967D+02 0.303564669930039D+02
 0.235842004279001D+03 0.185450512356091D+03 0.142301852173587D+03 0.313008197523028D+02
 0.147896978400955D+03 0.671230513642406D+01 0.112902670497140D+03 -.276802606653564D+02
 0.526470477402069D+03 -.358960738251693D+03 -.362308368113889D+03 -.130579471450959D+03
0.194842783670D-04 0.000000000000D+00 0.000000000000D+00 0.356804627132D-06 0.000000000000D+00  7 1 -2 -24 -13 13 23 21 0 0.22683299D-01 0.42780923D-01 0.37013234D+05 0.37013234D+05 0.37013234D+05 0.11589644D+01  1  2  2  1  7  1        1 0.245910373111D-02 0.100000000000D+01
-.107901688439D-05 0.000000000000D+00 -.748247592577D-07 0.356804627132D-06 0.000000000000D+00  7 1 -2 -24 -13 13 23 21 2 0.22683299D-01 0.42780923D-01 0.37013234D+05 0.37013234D+05 0.37013234D+05 0.11589644D+01  1  2  3  1  7  1        1 -.182919894887D-03 0.100000000000D+01
0.127632861055D-05 0.000000000000D+00 0.000000000000D+00 0.356804627132D-06 0.000000000000D+00  7 1 -2 -24 -13 13 23 21 2 0.22683299D-01 0.42780923D-01 0.37013234D+05 0.37013234D+05 0.37013234D+05 0.11589644D+01  1  2 15  1  7  1        1 0.216369084358D-03 0.100000000000D+01
  </mgrwgt>
  </event>
  <event>
  8     66 0.29493621E-05 0.37617507E+03 0.75467711E-02 0.93950586E-01
        1 -1    0    0  501    0 0.00000000E+00 0.00000000E+00 0.52731979E+03 0.52731989E+03 0.32000000E+00 0.0000E+00 0.9000E+01
       -2 -1    0    0    0  501 0.00000000E+00 0.00000000E+00 -.12303079E+04 0.12303079E+04 0.32000000E+00 0.0000E+00 0.9000E+01
       25  2    1    2    0    0 -.22499602E+03 -.24725441E+03 -.11260921E+04 0.12124286E+04 0.30023597E+03 0.0000E+00 0.0000E+00
       23  2    3    3    0    0 -.53130497E+02 0.24545067E+02 -.36349675E+03 0.37979440E+03 0.93212621E+02 0.0000E+00 0.0000E+00
      -24  1    1    2    0    0 0.22499602E+03 0.24725441E+03 0.42310404E+03 0.54519922E+03 0.80419002E+02 0.0000E+00 0.9000E+01
      -13  1    4    4    0    0 -.54232899E+02 0.34474899E+02 -.12026599E+03 0.13635852E+03 0.10565837E+00 0.0000E+00 0.9000E+01
       13  1    4    4    0    0 0.11024019E+01 -.99298328E+01 -.24323076E+03 0.24343589E+03 0.10565837E+00 0.0000E+00 0.9000E+01
       23  1    3    3    0    0 -.17186553E+03 -.27179947E+03 -.76259539E+03 0.83263419E+03 0.91188000E+02 0.0000E+00 0.9000E+01
#aMCatNLO 1  0  0  2  1 0.25948678D+03 0.00000000D+00  -5  7  0 0.00000000D+00 0.00000000D+00 0.00000000D+00 0.00000000D+00 0.00000000D+00
  <mgrwgt>
 0.1229227443D-02    4    2    0
 0.805460002942027D+03 0.000000000000000D+00 0.000000000000000D+00 0.805460002942027D+03
 0.805460002942027D+03 0.000000000000000D+00 0.000000000000000D+00 -.805460002942027D+03
 0.779488998914301D+03 0.224996022525738D+03 0.247254407490716D+03 0.699555524099454D+03
 0.962939379612445D+02 -.542329703037403D+02 0.344749565549296D+02 -.717132121066499D+02
 0.159462596065041D+03 0.110247298169716D+01 -.992988979497758D+01 -.159149305326121D+03
 0.575674472943466D+03 -.171865525203695D+03 -.271799474250668D+03 -.468693006666683D+03
 0.000000000000000D+00 -.000000000000000D+00 -.000000000000000D+00 0.000000000000000D+00
 0.118629398702925D+04 0.000000000000000D+00 0.000000000000000D+00 0.118629398702925D+04
 0.861282710192404D+03 0.000000000000000D+00 0.000000000000000D+00 -.861282710192404D+03
 0.834502172989119D+03 0.245021634994410D+03 0.374850807463176D+03 0.699555524099454D+03
 0.101666794769165D+03 -.517767704268857D+02 0.501250278019254D+02 -.717132121066499D+02
 0.159965485510444D+03 0.506578026899675D+01 0.153229579086902D+02 -.159149305326121D+03
 0.535550766473778D+03 -.158077986338948D+03 -.183949960215866D+03 -.468693006666683D+03
 0.415891477479153D+03 -.402326584975733D+02 -.256348832957926D+03 0.325011276836851D+03
0.185303570001D-02 0.000000000000D+00 0.000000000000D+00 0.112013890881D-04 0.000000000000D+00  7 1 -2 -24 -13 13 23 21 0 0.81126132D-01 0.18927815D+00 0.14150768D+06 0.14150768D+06 0.14150768D+06 0.11095549D+01  1  2  2  2  7  2       -2 0.130385769026D-02 0.100000000000D+01
-.303907108179D-04 0.000000000000D+00 -.711614500356D-05 0.112013890881D-04 0.000000000000D+00  7 1 -2 -24 -13 13 23 21 2 0.81126132D-01 0.18927815D+00 0.14150768D+06 0.14150768D+06 0.14150768D+06 0.11095549D+01  1  2  3  2  7  2       -2 -.263259971865D-04 0.100000000000D+01
0.113829646680D-03 0.000000000000D+00 0.000000000000D+00 0.112013890881D-04 0.000000000000D+00  7 1 -2 -24 -13 13 23 21 2 0.81126132D-01 0.18927815D+00 0.14150768D+06 0.14150768D+06 0.14150768D+06 0.11095549D+01  1  2 15  2  7  2       -2 0.986050960174D-04 0.100000000000D+01
-.169592035505D-03 0.000000000000D+00 0.000000000000D+00 0.112013890881D-04 0.000000000000D+00  7 1 -2 -24 -13 13 23 21 2 0.81126132D-01 0.18927815D+00 0.14150768D+06 0.14150768D+06 0.14150768D+06 0.11095549D+01  1  2  4  2  7  2       -2 -.146909345962D-03 0.100000000000D+01
  </mgrwgt>
  </event>
  <event>
  8     66 0.29493621E-05 0.10733937E+03 0.75467711E-02 0.10048736E+00
        1 -1    0    0  501    0 0.00000000E+00 0.00000000E+00 0.18229301E+04 0.18229301E+04 0.32000000E+00 0.0000E+00 0.9000E+01
       -2 -1    0    0    0  501 0.00000000E+00 0.00000000E+00 -.61460687E+02 0.61461520E+02 0.32000000E+00 0.0000E+00 0.9000E+01
       25  2    1    2    0    0 -.17313190E+03 -.14456455E+03 0.14096836E+04 0.14588402E+04 0.30022206E+03 0.0000E+00 0.0000E+00
       23  2    3    3    0    0 0.36461200E+02 -.34003885E+02 0.22647676E+03 0.24869697E+03 0.89848638E+02 0.0000E+00 0.0000E+00
      -24  1    1    2    0    0 0.17313190E+03 0.14456455E+03 0.35178578E+03 0.42555143E+03 0.80419002E+02 0.0000E+00 0.9000E+01
      -11  1    4    4    0    0 0.11320249E+02 0.22989133E+02 0.13879463E+03 0.14114035E+03 0.51099893E-03 0.0000E+00 0.9000E+01
       11  1    4    4    0    0 0.25140951E+02 -.56993018E+02 0.87682127E+02 0.10755662E+03 0.51099893E-03 0.0000E+00 0.9000E+01
       23  1    3    3    0    0 -.20959310E+03 -.11056066E+03 0.11832069E+04 0.12101432E+04 0.91188000E+02 0.0000E+00 0.9000E+01
#aMCatNLO 1  0  0  1  2 0.32843694D+02 0.00000000D+00  -5  7  0 0.00000000D+00 0.00000000D+00 0.00000000D+00 0.00000000D+00 0.00000000D+00
  <mgrwgt>
 0.1761524851D-02    9    2    0
 0.334722791368166D+03 0.000000000000000D+00 0.000000000000000D+00 0.334722791368166D+03
 0.334722791368166D+03 0.000000000000000D+00 0.000000000000000D+00 -.334722791368166D+03
 0.272233718816325D+03 0.173131904988523D+03 0.144564548790623D+03 -.129500642524290D+03
 0.320880389919615D+02 0.113202485939222D+02 0.229891333665417D+02 0.193130516795456D+02
 0.720438176020395D+02 0.251409509990024D+02 -.569930183928213D+02 -.361944759876038D+02
 0.293080007326006D+03 -.209593104581448D+03 -.110560663764343D+03 0.146382066832348D+03
 0.000000000000000D+00 0.000000000000000D+00 0.000000000000000D+00 0.000000000000000D+00
 0.363023764636473D+03 0.000000000000000D+00 0.000000000000000D+00 0.363023764636473D+03
 0.344791791448423D+03 0.000000000000000D+00 0.000000000000000D+00 -.344791791448423D+03
 0.262741614963670D+03 0.168074054347439D+03 0.132463716240928D+03 -.129500642524290D+03
 0.308718260739352D+02 0.107250032175866D+02 0.215650176430548D+02 0.193130516795456D+02
 0.742346492410473D+02 0.237579813729609D+02 -.603017526860218D+02 -.361944759876038D+02
 0.302402681040101D+03 -.215223013676183D+03 -.124030137669328D+03 0.146382066832348D+03
 0.375647847661417D+02 0.126659747381969D+02 0.303031564713667D+02 0.182319731880501D+02
0.250619085712D-04 0.000000000000D+00 0.000000000000D+00 0.178274014239D-05 0.000000000000D+00  7 1 -2 -24 -11 11 23 21 0 0.28045085D+00 0.94555566D-02 0.84472243D+05 0.84472243D+05 0.84472243D+05 0.11277861D+01  1  2  2  1  7  1        1 0.767324476665D-03 0.100000000000D+01
-.135857031101D-05 0.000000000000D+00 -.962443278656D-07 0.178274014239D-05 0.000000000000D+00  7 1 -2 -24 -11 11 23 21 2 0.28045085D+00 0.94555566D-02 0.84472243D+05 0.84472243D+05 0.84472243D+05 0.11277861D+01  1  2  3  1  7  1        1 -.529054592987D-04 0.100000000000D+01
0.158422970655D-05 0.000000000000D+00 0.000000000000D+00 0.178274014239D-05 0.000000000000D+00  7 1 -2 -24 -11 11 23 21 2 0.28045085D+00 0.94555566D-02 0.84472243D+05 0.84472243D+05 0.84472243D+05 0.11277861D+01  1  2 15  1  7  1        1 0.616930898464D-04 0.100000000000D+01
0.595125704899D-04 0.000000000000D+00 0.000000000000D+00 0.178274014239D-05 0.000000000000D+00  7 1 -2 -24 -11 11 23 21 2 0.30812792D+00 0.94555566D-02 0.94545289D+05 0.94545289D+05 0.94545289D+05 0.11237266D+01  1  2 12  1  7  1        1 0.175051259412D-02 0.100000000000D+01
-.583784526753D-04 0.000000000000D+00 0.000000000000D+00 0.178274014239D-05 0.000000000000D+00  7 1 -2 -24 -11 11 23 21 2 0.28045085D+00 0.94555566D-02 0.84472243D+05 0.84472243D+05 0.84472243D+05 0.11277861D+01  1  2  4  1  7  1        1 -.227337431629D-02 0.100000000000D+01
-.157480352387D-03 0.000000000000D+00 -.280286030218D-04 0.178274014239D-05 0.000000000000D+00  7 1 -2 -24 -11 11 23 21 2 0.30809539D+00 0.94555566D-02 0.84472243D+05 0.84472243D+05 0.84472243D+05 0.11277861D+01  1  2  5  1  7  1        1 -.468131097582D-02 0.100000000000D+01
0.159533251375D-03 0.000000000000D+00 0.279051982582D-04 0.178274014239D-05 0.000000000000D+00  7 1 -2 -24 -11 11 23 21 2 0.28045085D+00 0.94555566D-02 0.84472243D+05 0.84472243D+05 0.84472243D+05 0.11277861D+01  1  2  6  1  7  1        1 0.621254554808D-02 0.100000000000D+01
0.917093051237D-06 0.000000000000D+00 0.000000000000D+00 0.178274014239D-05 0.000000000000D+00  7 21 -2 -24 -11 11 23 -1 2 0.30812792D+00 0.94555566D-02 0.94545289D+05 0.94545289D+05 0.94545289D+05 0.11237266D+01  1  2 12  3  7  1        1 0.143792885963D-04 0.100000000000D+01
-.234206302149D-05 0.000000000000D+00 -.431500730976D-06 0.178274014239D-05 0.000000000000D+00  7 21 -2 -24 -11 11 23 -1 2 0.30809539D+00 0.94555566D-02 0.84472243D+05 0.84472243D+05 0.84472243D+05 0.11277861D+01  1  2  5  3  7  1        1 -.373393953302D-04 0.100000000000D+01
  </mgrwgt>
  </event>
  <event>
  8     66 0.29493621E-05 0.28139109E+03 0.75467711E-02 0.94124688E-01
        1 -1    0    0  501    0 0.00000000E+00 0.00000000E+00 0.43979152E+03 0.43979164E+03 0.32000000E+00 0.0000E+00 0.9000E+01
       -2 -1    0    0    0  501 0.00000000E+00 0.00000000E+00 -.18982476E+03 0.18982503E+03 0.32000000E+00 0.0000E+00 0.9000E+01
       25  2    1    2    0    0 -.14609385E+03 0.13108742E+03 0.10440027E+03 0.37235387E+03 0.29869828E+03 0.0000E+00 0.0000E+00
       23  2    3    3    0    0 -.13170582E+03 -.37795446E+02 0.62498327E+02 0.17537808E+03 0.89869410E+02 0.0000E+00 0.0000E+00
      -24  1    1    2    0    0 0.14609385E+03 -.13108742E+03 0.14556649E+03 0.25726279E+03 0.80419002E+02 0.0000E+00 0.9000E+01
      -13  1    4    4    0    0 -.61925217E+02 0.22587872E+02 0.38290627E+01 0.66027398E+02 0.10565837E+00 0.0000E+00 0.9000E+01
       13  1    4    4    0    0 -.69780604E+02 -.60383318E+02 0.58669264E+02 0.10935068E+03 0.10565837E+00 0.0000E+00 0.9000E+01
       23  1    3    3    0    0 -.14388031E+02 0.16888286E+03 0.41901943E+02 0.19697579E+03 0.91188000E+02 0.0000E+00 0.9000E+01
#aMCatNLO 1  0  0  2  2 0.37202533D+03 0.00000000D+00  -5  7  0 0.00000000D+00 0.00000000D+00 0.00000000D+00 0.00000000D+00 0.00000000D+00
  <mgrwgt>
 0.8524827076D-03    5    2    0
 0.288935008896331D+03 0.000000000000000D+00 0.000000000000000D+00 0.288935008896331D+03
 0.288935008896331D+03 0.000000000000000D+00 0.000000000000000D+00 -.288935008896331D+03
 0.217332881199809D+03 0.146093852103365D+03 -.131087418498712D+03 0.473184993969949D+02
 0.702836127458799D+02 -.619252056822309D+02 0.225879859555857D+02 -.243893011850784D+02
 0.937644481681423D+02 -.697806150894008D+02 -.603834318875022D+02 0.166216320350470D+02
 0.196489075678830D+03 -.143880313317335D+02 0.168882864430629D+03 -.395508302469635D+02
 0.000000000000000D+00 -.000000000000000D+00 -.000000000000000D+00 -.000000000000000D+00
 0.494871593849791D+03 0.000000000000000D+00 0.000000000000000D+00 0.494871593849791D+03
 0.572417158347582D+03 0.000000000000000D+00 0.000000000000000D+00 -.572417158347582D+03
 0.234809606356897D+03 0.214783096090293D+03 -.172486675367864D+02 0.473184993969949D+02
 0.754437243214676D+02 -.397863868654548D+02 0.592786719435372D+02 -.243893011850784D+02
 0.550218199316822D+02 -.471770851122902D+02 -.229225796409060D+02 0.166216320350470D+02
 0.321992339297005D+03 0.643793868961240D+02 0.299424183378051D+03 -.395508302469635D+02
 0.380021262290321D+03 -.192199011008672D+03 -.318531608143896D+03 -.775455644977903D+02
0.131191022912D-04 0.000000000000D+00 0.000000000000D+00 0.188399208098D-06 0.000000000000D+00  7 1 -2 -24 -13 13 23 21 0 0.67660263D-01 0.29203838D-01 0.79180948D+05 0.79180948D+05 0.79180948D+05 0.11301376D+01  1  2  2  2  7  2       -2 0.796371757621D-03 0.100000000000D+01
-.728218760353D-06 0.000000000000D+00 -.503808071371D-07 0.188399208098D-06 0.000000000000D+00  7 1 -2 -24 -13 13 23 21 2 0.67660263D-01 0.29203838D-01 0.79180948D+05 0.79180948D+05 0.79180948D+05 0.11301376D+01  1  2  3  2  7  2       -2 -.564593937286D-04 0.100000000000D+01
0.853575094643D-06 0.000000000000D+00 0.000000000000D+00 0.188399208098D-06 0.000000000000D+00  7 1 -2 -24 -13 13 23 21 2 0.67660263D-01 0.29203838D-01 0.79180948D+05 0.79180948D+05 0.79180948D+05 0.11301376D+01  1  2 15  2  7  2       -2 0.661783724467D-04 0.100000000000D+01
0.185435726263D-05 0.000000000000D+00 -.427763420674D-05 0.188399208098D-06 0.000000000000D+00  7 1 -2 -24 -13 13 23 21 2 0.67660263D-01 0.93333523D-01 0.79180948D+05 0.79180948D+05 0.79180948D+05 0.11301376D+01  1  2  5  2  7  2       -2 0.141523914815D-04 0.100000000000D+01
0.433661232655D-06 0.000000000000D+00 -.572239187297D-06 0.188399208098D-06 0.000000000000D+00  7 1 21 -24 -13 13 23 2 2 0.67660263D-01 0.93333523D-01 0.79180948D+05 0.79180948D+05 0.79180948D+05 0.11301376D+01  1  2  5  4  7  2       -2 0.322395798202D-04 0.100000000000D+01
  </mgrwgt>
  </event>
  <event>
  9     66 0.29493621E-05 0.38906919E+03 0.75467711E-02 0.96095466E-01
        1 -1    0    0  502    0 0.00000000E+00 0.00000000E+00 0.18153405E+04 0.18153405E+04 0.32000000E+00 0.0000E+00 0.9000E+01
       -2 -1    0    0    0  501 0.00000000E+00 0.00000000E+00 -.12675416E+03 0.12675456E+03 0.32000000E+00 0.0000E+00 0.9000E+01
       25  2    1    2    0    0 -.22637966E+03 -.30918149E+03 0.57584574E+03 0.75380819E+03 0.29964569E+03 0.0000E+00 0.0000E+00
       23  2    3    3    0    0 -.25953433E+03 -.20974883E+03 0.43516499E+03 0.55609019E+03 0.92277232E+02 0.0000E+00 0.0000E+00
      -24  1    1    2    0    0 0.17703458E+03 0.22369811E+03 0.97341992E+03 0.10175439E+04 0.80419002E+02 0.0000E+00 0.9000E+01
      -13  1    4    4    0    0 -.15511199E+03 -.17999819E+03 0.29525983E+03 0.37899532E+03 0.10565837E+00 0.0000E+00 0.9000E+01
       13  1    4    4    0    0 -.10442234E+03 -.29750640E+02 0.13990516E+03 0.17709487E+03 0.10565837E+00 0.0000E+00 0.9000E+01
       23  1    3    3    0    0 0.33154672E+02 -.99432666E+02 0.14068074E+03 0.19771801E+03 0.91188000E+02 0.0000E+00 0.9000E+01
       21  1    1    2  502  501 0.49345079E+02 0.85483378E+02 0.13932070E+03 0.17074298E+03 0.75000000E+00 0.0000E+00 0.9000E+01
#aMCatNLO 2  0  0  1  2 0.98703317D+02 0.00000000D+00  -5  7  0 0.00000000D+00 0.00000000D+00 0.00000000D+00 0.00000000D+00 0.00000000D+00
  <mgrwgt>
 0.3590552462D-03    1    2    0
 0.426533095503244D+03 0.000000000000000D+00 0.000000000000000D+00 0.426533095503244D+03
 0.426533095503244D+03 0.000000000000000D+00 0.000000000000000D+00 -.426533095503244D+03
 0.377697305634797D+03 0.197802331708922D+03 0.259675309114975D+03 0.172136603126615D+03
 0.223731202033823D+03 -.141482819643382D+03 -.156387648224209D+03 -.747072017422607D+02
 0.104623830285673D+03 -.981521493489116D+02 -.188883436649533D+02 -.309116792722230D+02
 0.147013853052195D+03 0.418326372833710D+02 -.843993172258133D+02 -.665177221121317D+02
 0.000000000000000D+00 0.000000000000000D+00 0.000000000000000D+00 -.000000000000000D+00
 0.469470693873683D+03 0.000000000000000D+00 0.000000000000000D+00 0.469470693873683D+03
 0.490128638236090D+03 0.000000000000000D+00 0.000000000000000D+00 -.490128638236090D+03
 0.342754014566701D+03 0.177034580080139D+03 0.223698113239917D+03 0.172136603126615D+03
 0.249078972773239D+03 -.155112060096725D+03 -.179998381932069D+03 -.747072017422607D+02
 0.112892123014094D+03 -.104422270822440D+03 -.297504433493942D+02 -.309116792722230D+02
 0.154032289015446D+03 0.331546720524714D+02 -.994326660682708D+02 -.665177221121317D+02
 0.100841932740293D+03 0.493450787865554D+02 0.854833781098176D+02 -.206579443624066D+02
0.311402662875D-04 0.000000000000D+00 0.000000000000D+00 0.306176402007D-05 0.205822303609D-08  7 1 -2 -24 -13 13 23 21 2 0.27928237D+00 0.19500616D-01 0.19369479D+06 0.19369479D+06 0.19369479D+06 0.10988955D+01  1  2  1  1  7  1        1 0.359055246248D-03 0.100000000000D+01
  </mgrwgt>
  </event>
  <event>
  8     66 0.29493621E-05 0.73997043E+02 0.75467711E-02 0.11127786E+00
        1 -1    0    0  501    0 0.00000000E+00 0.00000000E+00 0.94393290E+03 0.94393295E+03 0.32000000E+00 0.0000E+00 0.9000E+01
       -2 -1    0    0    0  501 0.00000000E+00 0.00000000E+00 -.15952413E+04 0.15952413E+04 0.32000000E+00 0.0000E+00 0.9000E+01
       25  2    1    2    0    0 0.35724293E+02 -.76419608E+01 -.15788217E+04 0.16074647E+04 0.29988359E+03 0.0000E+00 0.0000E+00
       23  2    3    3    0    0 -.13776435E+02 -.35113964E+02 -.13608910E+04 0.13645366E+04 0.92265641E+02 0.0000E+00 0.0000E+00
      -24  1    1    2    0    0 -.35724293E+02 0.76419608E+01 0.92751330E+03 0.93170959E+03 0.80419002E+02 0.0000E+00 0.9000E+01
      -11  1    4    4    0    0 0.22243329E+02 0.11008468E+02 -.13584014E+03 0.13808872E+03 0.51099893E-03 0.0000E+00 0.9000E+01
       11  1    4    4    0    0 -.36019765E+02 -.46122431E+02 -.12250509E+04 0.12264479E+04 0.51099893E-03 0.0000E+00 0.9000E+01
       23  1    3    3    0    0 0.49500728E+02 0.27472003E+02 -.21793065E+03 0.24292808E+03 0.91188000E+02 0.0000E+00 0.9000E+01
#aMCatNLO 1  0  0  2  1 0.13404777D+02 0.00000000D+00  -5  7  0 0.00000000D+00 0.00000000D+00 0.00000000D+00 0.00000000D+00 0.00000000D+00
  <mgrwgt>
 0.6354482578D-02    9    2    0
 0.122711076154936D+04 0.000000000000000D+00 0.000000000000000D+00 0.122711076154936D+04
 0.122711076154936D+04 0.000000000000000D+00 0.000000000000000D+00 -.122711076154936D+04
 0.121010680481919D+04 -.357242927183901D+02 0.764196081410152D+01 0.120687888309475D+04
 0.106819008230897D+03 0.222433293452326D+02 0.110084676457724D+02 -.103895853907478D+03
 0.943793751962424D+03 -.360197646960647D+02 -.461224314984207D+02 -.941977677074793D+03
 0.193501958086207D+03 0.495007280692222D+02 0.274720030385467D+02 -.161005352112479D+03
 0.000000000000000D+00 -.000000000000000D+00 -.000000000000000D+00 -.000000000000000D+00
 0.122890191168948D+04 0.000000000000000D+00 0.000000000000000D+00 0.122890191168948D+04
 0.125246798776953D+04 0.000000000000000D+00 0.000000000000000D+00 -.125246798776953D+04
 0.121008244044127D+04 -.329994793862691D+02 0.136635504222962D+02 0.120687888309475D+04
 0.106925468027046D+03 0.224839773853457D+02 0.115402779244787D+02 -.103895853907478D+03
 0.943497209208113D+03 -.338949244247265D+02 -.414267277795154D+02 -.941977677074793D+03
 0.193753013103638D+03 0.499367260022329D+02 0.284355188110447D+02 -.161005352112479D+03
 0.271117686789366D+02 -.552629957658294D+01 -.122126193783042D+02 -.235660760800498D+02
0.776252935328D-02 0.000000000000D+00 0.000000000000D+00 0.104664363113D-03 0.000000000000D+00  7 1 -2 -24 -11 11 23 21 0 0.14522045D+00 0.24542174D+00 0.19460243D+05 0.19460243D+05 0.19460243D+05 0.11851888D+01  1  2  2  2  7  2       -2 0.112412114991D-02 0.100000000000D+01
0.204772519558D-02 0.000000000000D+00 -.298101566375D-04 0.104664363113D-03 0.000000000000D+00  7 1 -2 -24 -11 11 23 21 2 0.14522045D+00 0.24542174D+00 0.19460243D+05 0.19460243D+05 0.19460243D+05 0.11851888D+01  1  2  3  2  7  2       -2 0.416539897916D-03 0.100000000000D+01
0.479068202412D-03 0.000000000000D+00 0.000000000000D+00 0.104664363113D-03 0.000000000000D+00  7 1 -2 -24 -11 11 23 21 2 0.14522045D+00 0.24542174D+00 0.19460243D+05 0.19460243D+05 0.19460243D+05 0.11851888D+01  1  2 15  2  7  2       -2 0.974500975803D-04 0.100000000000D+01
0.204495273702D-01 0.000000000000D+00 0.000000000000D+00 0.104664363113D-03 0.000000000000D+00  7 1 -2 -24 -11 11 23 21 2 0.14522045D+00 0.25067026D+00 0.20733357D+05 0.20733357D+05 0.20733357D+05 0.11825222D+01  1  2 12  2  7  2       -2 0.382034442157D-02 0.100000000000D+01
-.207937644541D-01 0.000000000000D+00 0.000000000000D+00 0.104664363113D-03 0.000000000000D+00  7 1 -2 -24 -11 11 23 21 2 0.14522045D+00 0.24542174D+00 0.19460243D+05 0.19460243D+05 0.19460243D+05 0.11851888D+01  1  2  4  2  7  2       -2 -.422978265915D-02 0.100000000000D+01
-.377443903744D+00 0.000000000000D+00 -.370288785992D-01 0.104664363113D-03 0.000000000000D+00  7 1 -2 -24 -11 11 23 21 2 0.14522045D+00 0.25063814D+00 0.19460243D+05 0.19460243D+05 0.19460243D+05 0.11851888D+01  1  2  5  2  7  2       -2 -.712511254303D-01 0.100000000000D+01
0.378147247375D+00 0.000000000000D+00 0.370206902639D-01 0.104664363113D-03 0.000000000000D+00  7 1 -2 -24 -11 11 23 21 2 0.14522045D+00 0.24542174D+00 0.19460243D+05 0.19460243D+05 0.19460243D+05 0.11851888D+01  1  2  6  2  7  2       -2 0.769211689918D-01 0.100000000000D+01
0.110538891689D-02 0.000000000000D+00 0.000000000000D+00 0.104664363113D-03 0.000000000000D+00  7 1 21 -24 -11 11 23 2 2 0.14522045D+00 0.25067026D+00 0.20733357D+05 0.20733357D+05 0.20733357D+05 0.11825222D+01  1  2 12  4  7  2       -2 0.171802591249D-02 0.100000000000D+01
-.143660867538D-02 0.000000000000D+00 -.141524395235D-03 0.104664363113D-03 0.000000000000D+00  7 1 21 -24 -11 11 23 2 2 0.14522045D+00 0.25063814D+00 0.19460243D+05 0.19460243D+05 0.19460243D+05 0.11851888D+01  1  2  5  4  7  2       -2 -.226225980409D-02 0.100000000000D+01
  </mgrwgt>
  </event>
  <event>
  8     66 0.29493621E-05 0.45190007E+03 0.75467711E-02 0.81222737E-01
        1 -1    0    0  501    0 0.00000000E+00 0.00000000E+00 0.49013863E+03 0.49013874E+03 0.32000000E+00 0.0000E+00 0.9000E+01
       -2 -1    0    0    0  501 0.00000000E+00 0.00000000E+00 -.82700665E+03 0.82700671E+03 0.32000000E+00 0.0000E+00 0.9000E+01
       25  2    1    2    0    0 0.14561597E+03 0.37305925E+03 0.28259245E+03 0.57513757E+03 0.30091114E+03 0.0000E+00 0.0000E+00
       23  2    3    3    0    0 -.23778742E+02 0.25489548E+03 0.16335140E+03 0.31981243E+03 0.10029546E+03 0.0000E+00 0.0000E+00
      -24  1    1    2    0    0 -.14561597E+03 -.37305925E+03 -.61946046E+03 0.74200788E+03 0.80419002E+02 0.0000E+00 0.9000E+01
      -13  1    4    4    0    0 -.52561157E+02 0.20801009E+03 0.10249007E+03 0.23777110E+03 0.10565837E+00 0.0000E+00 0.9000E+01
       13  1    4    4    0    0 0.28782415E+02 0.46885395E+02 0.60861329E+02 0.82041332E+02 0.10565837E+00 0.0000E+00 0.9000E+01
       23  1    3    3    0    0 0.16939471E+03 0.11816377E+03 0.11924105E+03 0.25532513E+03 0.91188000E+02 0.0000E+00 0.9000E+01
#aMCatNLO 1  0  0  2  2 0.19269814D+04 0.00000000D+00  -5  7  0 0.00000000D+00 0.00000000D+00 0.00000000D+00 0.00000000D+00 0.00000000D+00
  <mgrwgt>
 0.2143073335D-02    3    2    0
 0.636669470846498D+03 0.000000000000000D+00 0.000000000000000D+00 0.636669470846498D+03
 0.636669470846498D+03 0.000000000000000D+00 0.000000000000000D+00 -.636669470846498D+03
 0.603653791945439D+03 -.145615969159638D+03 -.373059248083386D+03 -.444469876955565D+03
 0.273065542966946D+03 -.525612470736836D+02 0.208010264528141D+03 0.168919613759993D+03
 0.100964756013923D+03 0.287825029956621D+02 0.468852165241779D+02 0.846594705259644D+02
 0.295654850766688D+03 0.169394713237660D+03 0.118163767031068D+03 0.190890792669607D+03
 0.000000000000000D+00 -.000000000000000D+00 0.000000000000000D+00 0.000000000000000D+00
 0.324806153529647D+04 0.000000000000000D+00 0.000000000000000D+00 0.324806153529647D+04
 0.159832959192091D+04 0.000000000000000D+00 0.000000000000000D+00 -.159832959192091D+04
 0.150919706615730D+04 0.344632490259562D+03 -.139817150009576D+04 -.444469876955565D+03
 0.177007259999506D+03 0.518699281957899D+02 -.103559030833103D+02 0.168919613759993D+03
 0.137921003729767D+03 0.842115813153182D+02 -.690172941548947D+02 0.846594705259644D+02
 0.485560676230665D+03 0.350661510709925D+03 -.260866113434044D+03 0.190890792669607D+03
 0.253670512110014D+04 -.831375510480596D+03 0.173841081076801D+04 0.164973194337556D+04
0.907348500792D-03 0.000000000000D+00 0.000000000000D+00 0.173185869635D-06 0.000000000000D+00  7 1 -2 -24 -13 13 23 21 0 0.75405956D-01 0.12723180D+00 0.20421368D+06 0.20421368D+06 0.20421368D+06 0.10971306D+01  1  2  2  2  7  2       -2 0.210482445301D-02 0.100000000000D+01
-.432064960270D-04 0.000000000000D+00 -.348445715339D-05 0.173185869635D-06 0.000000000000D+00  7 1 -2 -24 -13 13 23 21 2 0.75405956D-01 0.12723180D+00 0.20421368D+06 0.20421368D+06 0.20421368D+06 0.10971306D+01  1  2  3  2  7  2       -2 -.120644486148D-03 0.100000000000D+01
0.569045954685D-04 0.000000000000D+00 0.000000000000D+00 0.173185869635D-06 0.000000000000D+00  7 1 -2 -24 -13 13 23 21 2 0.75405956D-01 0.12723180D+00 0.20421368D+06 0.20421368D+06 0.20421368D+06 0.10971306D+01  1  2 15  2  7  2       -2 0.158893368152D-03 0.100000000000D+01
  </mgrwgt>
  </event>
  <event>
  8     66 0.29493621E-05 0.17979222E+03 0.75467711E-02 0.98104865E-01
        1 -1    0    0  501    0 0.00000000E+00 0.00000000E+00 0.14976221E+04 0.14976221E+04 0.32000000E+00 0.0000E+00 0.9000E+01
       -2 -1    0    0    0  501 0.00000000E+00 0.00000000E+00 -.69597912E+02 0.69598647E+02 0.32000000E+00 0.0000E+00 0.9000E+01
       25  2    1    2    0    0 -.18659826E+03 0.23635024E+02 0.47471543E+03 0.59221189E+03 0.29997111E+03 0.0000E+00 0.0000E+00
       23  2    3    3    0    0 -.16054064E+02 0.10620417E+03 0.22010006E+03 0.26198891E+03 0.93043487E+02 0.0000E+00 0.0000E+00
      -24  1    1    2    0    0 0.18659826E+03 -.23635024E+02 0.95330876E+03 0.97500889E+03 0.80419002E+02 0.0000E+00 0.9000E+01
      -13  1    4    4    0    0 0.36768262E+01 0.34839514E+02 0.61237834E+01 0.35564346E+02 0.10565837E+00 0.0000E+00 0.9000E+01
       13  1    4    4    0    0 -.19730890E+02 0.71364657E+02 0.21397628E+03 0.22642456E+03 0.10565837E+00 0.0000E+00 0.9000E+01
       23  1    3    3    0    0 -.17054419E+03 -.82569147E+02 0.25461536E+03 0.33022299E+03 0.91188000E+02 0.0000E+00 0.9000E+01
#aMCatNLO 1  0  0  1  2 0.19777330D+03 0.00000000D+00  -5  7  0 0.00000000D+00 0.00000000D+00 0.00000000D+00 0.00000000D+00 0.00000000D+00
  <mgrwgt>
 0.1547390397D-02    8    2    0
 0.322849770459442D+03 0.000000000000000D+00 0.000000000000000D+00 0.322849770459442D+03
 0.322849770459442D+03 0.000000000000000D+00 0.000000000000000D+00 -.322849770459442D+03
 0.258179251027159D+03 0.186598256327033D+03 -.236350236533002D+02 0.157517573937619D+03
 0.727772970754623D+02 0.367685658704955D+01 0.348394679137291D+02 -.637904943603403D+02
 0.763419723481529D+02 -.197309190460226D+02 0.713647037207838D+02 0.185974901115765D+02
 0.238401020468110D+03 -.170544193868060D+03 -.825691479812127D+02 -.112324569688855D+03
 0.000000000000000D+00 0.000000000000000D+00 0.000000000000000D+00 0.000000000000000D+00
 0.554553368510340D+03 0.000000000000000D+00 0.000000000000000D+00 0.554553368510340D+03
 0.382738009789434D+03 0.000000000000000D+00 0.000000000000000D+00 -.382738009789434D+03
 0.213026085509618D+03 0.116067281785509D+03 -.250897818426257D+02 0.157517573937619D+03
 0.747685870466832D+02 -.184081118753428D+02 0.343839476413877D+02 -.637904943603403D+02
 0.854341395368164D+02 -.439458969846160D+02 0.708652502864665D+02 0.185974901115765D+02
 0.302080134939933D+03 -.251444514081821D+03 -.842377822814624D+02 -.112324569688855D+03
 0.261982431266723D+03 0.197731241156271D+03 0.407836619623384D+01 0.171815358720906D+03
0.215125696883D-04 0.000000000000D+00 0.000000000000D+00 0.137252164731D-05 0.000000000000D+00  7 1 -2 -24 -13 13 23 21 0 0.23040346D+00 0.10707430D-01 0.68622055D+05 0.68622055D+05 0.68622055D+05 0.11353944D+01  1  2  2  1  7  1        1 0.890949012405D-03 0.100000000000D+01
-.113166755023D-05 0.000000000000D+00 -.826139319927D-07 0.137252164731D-05 0.000000000000D+00  7 1 -2 -24 -13 13 23 21 2 0.23040346D+00 0.10707430D-01 0.68622055D+05 0.68622055D+05 0.68622055D+05 0.11353944D+01  1  2  3  1  7  1        1 -.604189098580D-04 0.100000000000D+01
0.139248022071D-05 0.000000000000D+00 0.000000000000D+00 0.137252164731D-05 0.000000000000D+00  7 1 -2 -24 -13 13 23 21 2 0.23040346D+00 0.10707430D-01 0.68622055D+05 0.68622055D+05 0.68622055D+05 0.11353944D+01  1  2 15  1  7  1        1 0.743435092017D-04 0.100000000000D+01
0.164148116755D-05 0.000000000000D+00 0.000000000000D+00 0.137252164731D-05 0.000000000000D+00  7 1 -2 -24 -13 13 23 21 2 0.40427216D+00 0.10707430D-01 0.13838295D+06 0.13838295D+06 0.13838295D+06 0.11103252D+01  1  2 12  1  7  1        1 0.145677176331D-04 0.100000000000D+01
-.114866286527D-04 0.000000000000D+00 -.605370118857D-05 0.137252164731D-05 0.000000000000D+00  7 1 -2 -24 -13 13 23 21 2 0.41841382D+00 0.10707430D-01 0.68622055D+05 0.68622055D+05 0.68622055D+05 0.11353944D+01  1  2  5  1  7  1        1 -.947876658187D-04 0.100000000000D+01
0.135518970113D-04 0.000000000000D+00 0.511580911749D-05 0.137252164731D-05 0.000000000000D+00  7 1 -2 -24 -13 13 23 21 2 0.23040346D+00 0.10707430D-01 0.68622055D+05 0.68622055D+05 0.68622055D+05 0.11353944D+01  1  2  6  1  7  1        1 0.723525954036D-03 0.100000000000D+01
0.101869008282D-06 0.000000000000D+00 0.000000000000D+00 0.137252164731D-05 0.000000000000D+00  7 21 -2 -24 -13 13 23 -1 2 0.40427216D+00 0.10707430D-01 0.13838295D+06 0.13838295D+06 0.13838295D+06 0.11103252D+01  1  2 12  3  7  1        1 0.288212412042D-06 0.100000000000D+01
-.424125909084D-06 0.000000000000D+00 -.395379262458D-06 0.137252164731D-05 0.000000000000D+00  7 21 -2 -24 -13 13 23 -1 2 0.41841382D+00 0.10707430D-01 0.68622055D+05 0.68622055D+05 0.68622055D+05 0.11353944D+01  1  2  5  3  7  1        1 -.107743292308D-05 0.100000000000D+01
  </mgrwgt>
  </event>
  <event>
  8     66 0.29493621E-05 0.19738563E+03 0.75467711E-02 0.93922581E-01
        1 -1    0    0  501    0 0.00000000E+00 0.00000000E+00 0.14930314E+04 0.14930315E+04 0.32000000E+00 0.0000E+00 0.9000E+01
       -2 -1    0    0    0  501 0.00000000E+00 0.00000000E+00 -.71895855E+02 0.71896567E+02 0.32000000E+00 0.0000E+00 0.9000E+01
       25  2    1    2    0    0 -.22697434E+02 -.70046186E+02 0.14226992E+04 0.14558808E+04 0.30015673E+03 0.0000E+00 0.0000E+00
       23  2    3    3    0    0 0.62391248E+02 -.12461452E+03 0.92160728E+03 0.93662535E+03 0.92117481E+02 0.0000E+00 0.0000E+00
      -24  1    1    2    0    0 0.22697434E+02 0.70046186E+02 -.15636711E+01 0.10904725E+03 0.80419002E+02 0.0000E+00 0.9000E+01
      -11  1    4    4    0    0 0.72516691E+02 -.11194627E+03 0.89878273E+03 0.90862590E+03 0.51099893E-03 0.0000E+00 0.9000E+01
       11  1    4    4    0    0 -.10125443E+02 -.12668250E+02 0.22824549E+02 0.27999450E+02 0.51099893E-03 0.0000E+00 0.9000E+01
       23  1    3    3    0    0 -.85088682E+02 0.54568338E+02 0.50109196E+03 0.51925542E+03 0.91188000E+02 0.0000E+00 0.9000E+01
#aMCatNLO 1  0  0  2  2 0.48545994D+03 0.00000000D+00  -5  7  0 0.00000000D+00 0.00000000D+00 0.00000000D+00 0.00000000D+00 0.00000000D+00
  <mgrwgt>
 0.1547364950D-02    5    2    0
 0.327632956552057D+03 0.000000000000000D+00 0.000000000000000D+00 0.327632956552057D+03
 0.327632956552057D+03 0.000000000000000D+00 0.000000000000000D+00 -.327632956552057D+03
 0.263821575178638D+03 0.226974338229295D+02 0.700461855565406D+02 -.240235230476714D+03
 0.220737920765212D+03 0.725166912255530D+02 -.111946273314216D+03 0.175882321591756D+03
 0.173675221544018D+02 -.101254429523779D+02 -.126682500193639D+02 -.621463371798081D+01
 0.153338895005861D+03 -.850886820961045D+02 0.545683377770395D+02 0.705675426029387D+02
 0.000000000000000D+00 0.000000000000000D+00 -.000000000000000D+00 -.000000000000000D+00
 0.471333878497873D+03 0.000000000000000D+00 0.000000000000000D+00 0.471333878497873D+03
 0.133438755306543D+04 0.000000000000000D+00 0.000000000000000D+00 -.133438755306543D+04
 0.341697162278982D+03 -.146552904885554D+03 0.176349127762359D+03 -.240235230476714D+03
 0.185109486261822D+03 -.409229215462860D+02 -.406969943328280D+02 0.175882321591756D+03
 0.229751535627429D+02 -.214017439273104D+02 -.558581827960650D+01 -.621463371798081D+01
 0.265720968317934D+03 -.202221347725047D+03 0.128137153531160D+03 0.705675426029387D+02
 0.990218661141826D+03 0.411098918084198D+03 -.258203468681084D+03 -.863053674567561D+03
0.357405483332D-04 0.000000000000D+00 0.000000000000D+00 0.519427904250D-05 0.000000000000D+00  7 1 -2 -24 -11 11 23 21 0 0.22969720D+00 0.11060958D-01 0.38961085D+05 0.38961085D+05 0.38961085D+05 0.11569485D+01  1  2  2  2  7  2       -2 0.143106559728D-02 0.100000000000D+01
-.136567208752D-05 0.000000000000D+00 -.137253116302D-06 0.519427904250D-05 0.000000000000D+00  7 1 -2 -24 -11 11 23 21 2 0.22969720D+00 0.11060958D-01 0.38961085D+05 0.38961085D+05 0.38961085D+05 0.11569485D+01  1  2  3  2  7  2       -2 -.731935552419D-04 0.100000000000D+01
0.223658160552D-05 0.000000000000D+00 0.000000000000D+00 0.519427904250D-05 0.000000000000D+00  7 1 -2 -24 -11 11 23 21 2 0.22969720D+00 0.11060958D-01 0.38961085D+05 0.38961085D+05 0.38961085D+05 0.11569485D+01  1  2 15  2  7  2       -2 0.119870180252D-03 0.100000000000D+01
0.116940986931D-04 0.000000000000D+00 -.168859147900D-04 0.519427904250D-05 0.000000000000D+00  7 1 -2 -24 -11 11 23 21 2 0.22969720D+00 0.64723781D-01 0.38961085D+05 0.38961085D+05 0.38961085D+05 0.11569485D+01  1  2  5  2  7  2       -2 0.290929231141D-04 0.100000000000D+01
0.153557031505D-05 0.000000000000D+00 -.365555053654D-05 0.519427904250D-05 0.000000000000D+00  7 1 21 -24 -11 11 23 2 2 0.22969720D+00 0.64723781D-01 0.38961085D+05 0.38961085D+05 0.38961085D+05 0.11569485D+01  1  2  5  4  7  2       -2 0.405298043066D-04 0.100000000000D+01
  </mgrwgt>
  </event>
  <event>
  8     66 0.29493621E-05 0.23577162E+03 0.75467711E-02 0.96072481E-01
        1 -1    0    0  501    0 0.00000000E+00 0.00000000E+00 0.23219547E+03 0.23219569E+03 0.32000000E+00 0.0000E+00 0.9000E+01
       -2 -1    0    0    0  501 0.00000000E+00 0.00000000E+00 -.81810374E+03 0.81810380E+03 0.32000000E+00 0.0000E+00 0.9000E+01
       25  2    1    2    0    0 0.95032243E+02 0.14341084E+03 0.83567247E+02 0.35440980E+03 0.29837061E+03 0.0000E+00 0.0000E+00
       23  2    3    3    0    0 0.15892466E+02 0.11581683E+03 0.14561709E+03 0.21588194E+03 0.10832620E+03 0.0000E+00 0.0000E+00
      -24  1    1    2    0    0 -.95032243E+02 -.14341084E+03 -.66947551E+03 0.69588970E+03 0.80419002E+02 0.0000E+00 0.9000E+01
      -13  1    4    4    0    0 -.44857366E+02 0.36246013E+02 0.68294958E+02 0.89387746E+02 0.10565837E+00 0.0000E+00 0.9000E+01
       13  1    4    4    0    0 0.60749832E+02 0.79570818E+02 0.77322131E+02 0.12649419E+03 0.10565837E+00 0.0000E+00 0.9000E+01
       23  1    3    3    0    0 0.79139777E+02 0.27594006E+02 -.62049841E+02 0.13852786E+03 0.91188000E+02 0.0000E+00 0.9000E+01
#aMCatNLO 1  0  0  2  2 0.34273604D+03 0.00000000D+00  -5  7  0 0.00000000D+00 0.00000000D+00 0.00000000D+00 0.00000000D+00 0.00000000D+00
  <mgrwgt>
 0.1250624399D-02    3    2    0
 0.435844161558809D+03 0.000000000000000D+00 0.000000000000000D+00 0.435844161558809D+03
 0.435844161558809D+03 0.000000000000000D+00 0.000000000000000D+00 -.435844161558809D+03
 0.388489043532512D+03 -.950322425260288D+02 -.143410836912530D+03 -.338908137593297D+03
 0.153608167915603D+03 -.448574419200360D+02 0.362459823562586D+02 0.142371022043843D+03
 0.204385542273171D+03 0.607498901401893D+02 0.795708485863299D+02 0.178189171369936D+03
 0.125205569396334D+03 0.791397943058754D+02 0.275940059699414D+02 0.183479441795178D+02
 0.000000000000000D+00 -.000000000000000D+00 0.000000000000000D+00 0.000000000000000D+00
 0.144465127884466D+04 0.000000000000000D+00 0.000000000000000D+00 0.144465127884466D+04
 0.498402788588753D+03 0.000000000000000D+00 0.000000000000000D+00 -.498402788588753D+03
 0.407973483217380D+03 0.412326294482684D+02 -.208365763972818D+03 -.338908137593297D+03
 0.143001880091635D+03 0.588886297258404D+01 0.120561637689633D+02 0.142371022043843D+03
 0.227715943682749D+03 0.134677101636201D+03 0.443311234765478D+02 0.178189171369936D+03
 0.157956184533145D+03 0.127585262675456D+03 0.450095330893631D+01 0.183479441795178D+02
 0.100640657590850D+04 -.309383856732509D+03 0.147477523418370D+03 0.946248490255905D+03
0.178828610580D-03 0.000000000000D+00 0.000000000000D+00 0.620843627509D-08 0.000000000000D+00  7 1 -2 -24 -13 13 23 21 0 0.35722402D-01 0.12586214D+00 0.55588255D+05 0.55588255D+05 0.55588255D+05 0.11432700D+01  1  2  2  2  7  2       -2 0.120163803148D-02 0.100000000000D+01
-.537478143556D-05 0.000000000000D+00 -.686748951281D-06 0.620843627509D-08 0.000000000000D+00  7 1 -2 -24 -13 13 23 21 2 0.35722402D-01 0.12586214D+00 0.55588255D+05 0.55588255D+05 0.55588255D+05 0.11432700D+01  1  2  3  2  7  2       -2 -.472057670880D-04 0.100000000000D+01
0.109522995260D-04 0.000000000000D+00 0.000000000000D+00 0.620843627509D-08 0.000000000000D+00  7 1 -2 -24 -13 13 23 21 2 0.35722402D-01 0.12586214D+00 0.55588255D+05 0.55588255D+05 0.55588255D+05 0.11432700D+01  1  2 15  2  7  2       -2 0.961921348242D-04 0.100000000000D+01
  </mgrwgt>
  </event>
  <event>
  8     66 0.29493621E-05 0.53106739E+02 0.75467711E-02 0.10668578E+00
        1 -1    0    0  501    0 0.00000000E+00 0.00000000E+00 0.86567060E+03 0.86567065E+03 0.32000000E+00 0.0000E+00 0.9000E+01
       -2 -1    0    0    0  501 0.00000000E+00 0.00000000E+00 -.62851162E+02 0.62851976E+02 0.32000000E+00 0.0000E+00 0.9000E+01
       25  2    1    2    0    0 -.10654991E+03 0.14824960E+02 0.65684694E+03 0.73015971E+03 0.30018767E+03 0.0000E+00 0.0000E+00
       23  2    3    3    0    0 -.64147787E+01 0.52098988E+02 0.68673267E+02 0.12544497E+03 0.90911872E+02 0.0000E+00 0.0000E+00
      -24  1    1    2    0    0 0.10654991E+03 -.14824960E+02 0.14597249E+03 0.19836292E+03 0.80419002E+02 0.0000E+00 0.9000E+01
      -11  1    4    4    0    0 -.20167328E+02 0.71299648E+02 0.69806108E+02 0.10180007E+03 0.51099893E-03 0.0000E+00 0.9000E+01
       11  1    4    4    0    0 0.13752550E+02 -.19200660E+02 -.11328413E+01 0.23644900E+02 0.51099893E-03 0.0000E+00 0.9000E+01
       23  1    3    3    0    0 -.10013513E+03 -.37274028E+02 0.58817368E+03 0.60471474E+03 0.91188000E+02 0.0000E+00 0.9000E+01
#aMCatNLO 1  0  0  1  2 0.16803126D+02 0.00000000D+00  -5  7  0 0.00000000D+00 0.00000000D+00 0.00000000D+00 0.00000000D+00 0.00000000D+00
  <mgrwgt>
 0.9677115457D-03    6    2    0
 0.233256957759033D+03 0.000000000000000D+00 0.000000000000000D+00 0.233256957759033D+03
 0.233256957759033D+03 0.000000000000000D+00 0.000000000000000D+00 -.233256957759033D+03
 0.143607520470727D+03 0.106549913262434D+03 -.148249599945359D+02 -.508255892863795D+02
 0.824883561927118D+02 -.201673283303723D+02 0.712996480452349D+02 -.362486960319443D+02
 0.490109540397420D+02 0.137525496691430D+02 -.192006603908846D+02 -.429450303764868D+02
 0.191407084814886D+03 -.100135134601205D+03 -.372740276598145D+02 0.130019315694811D+03
 0.000000000000000D+00 0.000000000000000D+00 -.000000000000000D+00 -.000000000000000D+00
 0.241199956860906D+03 0.000000000000000D+00 0.000000000000000D+00 0.241199956860906D+03
 0.242467325848795D+03 0.000000000000000D+00 0.000000000000000D+00 -.242467325848795D+03
 0.139846536971578D+03 0.101449902060733D+03 -.146463235705166D+02 -.508255892863795D+02
 0.833576947804243D+02 -.231512923820883D+02 0.714041663779442D+02 -.362486960319443D+02
 0.485234841374717D+02 0.119976736523951D+02 -.191391929227103D+02 -.429450303764868D+02
 0.195088713145963D+03 -.107089111258999D+03 -.370304529942437D+02 0.130019315694811D+03
 0.168508536742640D+02 0.167928279279587D+02 -.588196890473542D+00 -.126736898788929D+01
0.446351268004D-05 0.000000000000D+00 0.000000000000D+00 0.111094285205D-05 0.000000000000D+00  7 1 -2 -24 -11 11 23 21 0 0.13318016D+00 0.96694767D-02 0.34688453D+05 0.34688453D+05 0.34688453D+05 0.11615296D+01  1  2  2  1  7  1        1 0.606358379467D-03 0.100000000000D+01
-.232701456080D-06 0.000000000000D+00 -.171410639612D-07 0.111094285205D-05 0.000000000000D+00  7 1 -2 -24 -11 11 23 21 2 0.13318016D+00 0.96694767D-02 0.34688453D+05 0.34688453D+05 0.34688453D+05 0.11615296D+01  1  2  3  1  7  1        1 -.426493360831D-04 0.100000000000D+01
0.289919673433D-06 0.000000000000D+00 0.000000000000D+00 0.111094285205D-05 0.000000000000D+00  7 1 -2 -24 -11 11 23 21 2 0.13318016D+00 0.96694767D-02 0.34688453D+05 0.34688453D+05 0.34688453D+05 0.11615296D+01  1  2 15  1  7  1        1 0.531362450309D-04 0.100000000000D+01
0.915037049615D-05 0.000000000000D+00 0.000000000000D+00 0.111094285205D-05 0.000000000000D+00  7 1 -2 -24 -11 11 23 21 2 0.14025026D+00 0.96694767D-02 0.38061123D+05 0.38061123D+05 0.38061123D+05 0.11578657D+01  1  2 12  1  7  1        1 0.153353781484D-02 0.100000000000D+01
-.659759768165D-05 0.000000000000D+00 0.000000000000D+00 0.111094285205D-05 0.000000000000D+00  7 1 -2 -24 -11 11 23 21 2 0.13318016D+00 0.96694767D-02 0.34688453D+05 0.34688453D+05 0.34688453D+05 0.11615296D+01  1  2  4  1  7  1        1 -.120920240726D-02 0.100000000000D+01
0.978442082756D-07 0.000000000000D+00 0.000000000000D+00 0.111094285205D-05 0.000000000000D+00  7 21 -2 -24 -11 11 23 -1 2 0.14025026D+00 0.96694767D-02 0.38061123D+05 0.38061123D+05 0.38061123D+05 0.11578657D+01  1  2 12  3  7  1        1 0.265308497538D-04 0.100000000000D+01
  </mgrwgt>
  </event>
  <event>
  8     66 0.29493621E-05 0.30463393E+03 0.75467711E-02 0.10035258E+00
        1 -1    0    0  501    0 0.00000000E+00 0.00000000E+00 0.17872182E+04 0.17872182E+04 0.32000000E+00 0.0000E+00 0.9000E+01
       -2 -1    0    0    0  501 0.00000000E+00 0.00000000E+00 -.78670885E+02 0.78671536E+02 0.32000000E+00 0.0000E+00 0.9000E+01
       25  2    1    2    0    0 -.10146691E+03 -.20805619E+03 0.47411956E+03 0.60737396E+03 0.30088347E+03 0.0000E+00 0.0000E+00
       23  2    3    3    0    0 0.67194729E+02 -.57431930E+02 0.10496989E+03 0.16497014E+03 0.91558236E+02 0.0000E+00 0.0000E+00
      -24  1    1    2    0    0 0.10146691E+03 0.20805619E+03 0.12344277E+04 0.12585158E+04 0.80419002E+02 0.0000E+00 0.9000E+01
      -11  1    4    4    0    0 0.86168383E+02 -.52060771E+02 0.63437664E+02 0.11899433E+03 0.51099893E-03 0.0000E+00 0.9000E+01
       11  1    4    4    0    0 -.18973653E+02 -.53711597E+01 0.41532230E+02 0.45975809E+02 0.51099893E-03 0.0000E+00 0.9000E+01
       23  1    3    3    0    0 -.16866164E+03 -.15062426E+03 0.36914966E+03 0.44240382E+03 0.91188000E+02 0.0000E+00 0.9000E+01
#aMCatNLO 1  0  0  1  2 0.12839978D+02 0.00000000D+00  -5  7  0 0.00000000D+00 0.00000000D+00 0.00000000D+00 0.00000000D+00 0.00000000D+00
  <mgrwgt>
 0.8167649597D-03    6    2    0
 0.374970224004452D+03 0.000000000000000D+00 0.000000000000000D+00 0.374970224004452D+03
 0.374970224004452D+03 0.000000000000000D+00 0.000000000000000D+00 -.374970224004452D+03
 0.318923340784826D+03 0.101466913282028D+03 0.208056188664026D+03 0.204112638537157D+03
 0.151537439569143D+03 0.861683825898965D+02 -.520607705043443D+02 -.113262004253442D+03
 0.197695843668261D+02 -.189736531529534D+02 -.537115968447186D+01 -.140982116326144D+01
 0.259710083288109D+03 -.168661642718971D+03 -.150624258475210D+03 -.894408131204531D+02
 0.000000000000000D+00 0.000000000000000D+00 -.000000000000000D+00 -.000000000000000D+00
 0.376222800214529D+03 0.000000000000000D+00 0.000000000000000D+00 0.376222800214529D+03
 0.409440292903242D+03 0.000000000000000D+00 0.000000000000000D+00 -.409440292903242D+03
 0.319052519225825D+03 0.966092834817110D+02 0.210551587988609D+03 0.204112638537157D+03
 0.149840064256388D+03 0.838736557271848D+02 -.508819528301487D+02 -.113262004253442D+03
 0.200194176659814D+02 -.192766117037616D+02 -.521552770053310D+01 -.140982116326144D+01
 0.261138357555613D+03 -.172627449368221D+03 -.148586995109995D+03 -.894408131204531D+02
 0.356127344139635D+02 0.114211218630866D+02 -.586711234793262D+01 -.332174926887139D+02
0.458999122785D-04 0.000000000000D+00 0.000000000000D+00 0.262805846802D-05 0.000000000000D+00  7 1 -2 -24 -11 11 23 21 0 0.27495669D+00 0.12103265D-01 0.92801829D+05 0.92801829D+05 0.92801829D+05 0.11243942D+01  1  2  2  1  7  1        1 0.100895506007D-02 0.100000000000D+01
-.241619898729D-05 0.000000000000D+00 -.176267748874D-06 0.262805846802D-05 0.000000000000D+00  7 1 -2 -24 -11 11 23 21 2 0.27495669D+00 0.12103265D-01 0.92801829D+05 0.92801829D+05 0.92801829D+05 0.11243942D+01  1  2  3  1  7  1        1 -.671474977304D-04 0.100000000000D+01
0.293163762835D-05 0.000000000000D+00 0.000000000000D+00 0.262805846802D-05 0.000000000000D+00  7 1 -2 -24 -11 11 23 21 2 0.27495669D+00 0.12103265D-01 0.92801829D+05 0.92801829D+05 0.92801829D+05 0.11243942D+01  1  2 15  1  7  1        1 0.814718208356D-04 0.100000000000D+01
-.741538809798D-05 0.000000000000D+00 0.000000000000D+00 0.262805846802D-05 0.000000000000D+00  7 1 -2 -24 -11 11 23 21 2 0.27495669D+00 0.12103265D-01 0.92801829D+05 0.92801829D+05 0.92801829D+05 0.11243942D+01  1  2  4  1  7  1        1 -.206077710527D-03 0.100000000000D+01
0.956355957672D-07 0.000000000000D+00 0.000000000000D+00 0.262805846802D-05 0.000000000000D+00  7 1 -2 -24 -11 11 23 21 2 0.29359261D+00 0.12103265D-01 0.92801829D+05 0.92801829D+05 0.92801829D+05 0.11243942D+01  1  2  5  1  7  1        1 0.221534796434D-05 0.100000000000D+01
-.954303150003D-07 0.000000000000D+00 0.000000000000D+00 0.262805846802D-05 0.000000000000D+00  7 1 -2 -24 -11 11 23 21 2 0.27495669D+00 0.12103265D-01 0.92801829D+05 0.92801829D+05 0.92801829D+05 0.11243942D+01  1  2  6  1  7  1        1 -.265206089961D-05 0.100000000000D+01
  </mgrwgt>
  </event>
  <event>
  9     66 0.29493621E-05 0.36017258E+03 0.75467711E-02 0.89413054E-01
        1 -1    0    0  501    0 0.00000000E+00 0.00000000E+00 0.20735064E+04 0.20735065E+04 0.32000000E+00 0.0000E+00 0.9000E+01
       -2 -1    0    0    0  502 0.00000000E+00 0.00000000E+00 -.37157915E+03 0.37157929E+03 0.32000000E+00 0.0000E+00 0.9000E+01
       25  2    1    2    0    0 -.18227430E+03 -.10640737E+03 0.75731877E+03 0.84092449E+03 0.29845576E+03 0.0000E+00 0.0000E+00
       23  2    3    3    0    0 -.22523917E+03 -.99381801E+02 0.58477228E+03 0.64096730E+03 0.90945225E+02 0.0000E+00 0.0000E+00
      -24  1    1    2    0    0 -.34119642E+03 0.50002566E+03 0.63063809E+03 0.87784525E+03 0.80419002E+02 0.0000E+00 0.9000E+01
      -11  1    4    4    0    0 -.98288140E+02 0.18443166E+01 0.18538873E+03 0.20984027E+03 0.51099893E-03 0.0000E+00 0.9000E+01
       11  1    4    4    0    0 -.12695103E+03 -.10122612E+03 0.39938355E+03 0.43112703E+03 0.51099893E-03 0.0000E+00 0.9000E+01
       23  1    3    3    0    0 0.42964865E+02 -.70255710E+01 0.17254649E+03 0.19995719E+03 0.91188000E+02 0.0000E+00 0.9000E+01
       21  1    1    2  501  502 0.52347072E+03 -.39361829E+03 0.31397043E+03 0.72631601E+03 0.75000000E+00 0.0000E+00 0.9000E+01
#aMCatNLO 2  0  0  2  2 0.65494805D+03 0.00000000D+00  -5  7  0 0.00000000D+00 0.00000000D+00 0.00000000D+00 0.00000000D+00 0.00000000D+00
  <mgrwgt>
 0.1985986437D-04    1    2    0
 0.386907038558064D+03 0.000000000000000D+00 0.000000000000000D+00 0.386907038558064D+03
 0.386907038558064D+03 0.000000000000000D+00 0.000000000000000D+00 -.386907038558064D+03
 0.333529473069020D+03 -.605323823349717D+02 0.288983299136339D+03 -.132661889630962D+03
 0.661381555610522D+02 -.490656574950199D+02 -.351680102068374D+02 0.270190291034135D+02
 0.206858799483102D+03 -.124514783558476D+02 -.187322846274746D+03 0.868658441153484D+02
 0.167287649002954D+03 0.122049518185839D+03 -.664924426547560D+02 0.187770164122002D+02
 0.000000000000000D+00 0.000000000000000D+00 -.000000000000000D+00 -.000000000000000D+00
 0.676620254690226D+03 0.000000000000000D+00 0.000000000000000D+00 0.676620254690226D+03
 0.113870609319109D+04 0.000000000000000D+00 0.000000000000000D+00 -.113870609319109D+04
 0.624905633412123D+03 -.341196416510075D+03 0.500025662457500D+03 -.132661889630962D+03
 0.101950908963589D+03 -.982881396758030D+02 0.184431664329706D+01 0.270190291034135D+02
 0.184143869991222D+03 -.126951026469027D+03 -.101226117479297D+03 0.868658441153484D+02
 0.102777263864093D+03 0.429648650655035D+02 -.702557100515566D+01 0.187770164122002D+02
 0.801548671650290D+03 0.523470717589401D+03 -.393618290616345D+03 -.462085838500865D+03
0.209918518654D-04 0.000000000000D+00 0.000000000000D+00 0.604706142262D-06 0.164273713868D-10  7 1 -2 -24 -11 11 23 21 2 0.31900093D+00 0.57166022D-01 0.66205118D+06 0.66205118D+06 0.66205118D+06 0.10599989D+01  1  2  1  2  7  2       -2 0.198598643682D-04 0.100000000000D+01
  </mgrwgt>
  </event>
  <event>
  8     66 0.29493621E-05 0.21777533E+03 0.75467711E-02 0.87735584E-01
        1 -1    0    0  501    0 0.00000000E+00 0.00000000E+00 0.96405397E+03 0.96405402E+03 0.32000000E+00 0.0000E+00 0.9000E+01
       -2 -1    0    0    0  501 0.00000000E+00 0.00000000E+00 -.82302616E+03 0.82302622E+03 0.32000000E+00 0.0000E+00 0.9000E+01
       25  2    1    2    0    0 -.61464687E+03 0.98067294E+02 0.67300315E+03 0.96435735E+03 0.29940591E+03 0.0000E+00 0.0000E+00
       23  2    3    3    0    0 -.35308292E+03 -.33185825E+02 0.47422212E+03 0.59901884E+03 0.90377566E+02 0.0000E+00 0.0000E+00
      -24  1    1    2    0    0 0.61464687E+03 -.98067294E+02 -.53197534E+03 0.82272288E+03 0.80419002E+02 0.0000E+00 0.9000E+01
      -11  1    4    4    0    0 -.34835360E+03 -.17591619E+02 0.44334037E+03 0.56410140E+03 0.51099893E-03 0.0000E+00 0.9000E+01
       11  1    4    4    0    0 -.47293182E+01 -.15594206E+02 0.30881747E+02 0.34917445E+02 0.51099893E-03 0.0000E+00 0.9000E+01
       23  1    3    3    0    0 -.26156394E+03 0.13125312E+03 0.19878103E+03 0.36533851E+03 0.91188000E+02 0.0000E+00 0.9000E+01
#aMCatNLO 1  0  0  1  2 0.54548024D+03 0.00000000D+00  -5  7  0 0.00000000D+00 0.00000000D+00 0.00000000D+00 0.00000000D+00 0.00000000D+00
  <mgrwgt>
 0.1970362068D-02    8    2    0
 0.890753463366585D+03 0.000000000000000D+00 0.000000000000000D+00 0.890753463366585D+03
 0.890753463366585D+03 0.000000000000000D+00 0.000000000000000D+00 -.890753463366585D+03
 0.867408990096642D+03 0.614646867148408D+03 -.980672941690327D+02 -.598768047465058D+03
 0.530770394561621D+03 -.348353604827186D+03 -.175916190441258D+02 0.400071884398804D+03
 0.325820182269628D+02 -.472931814912327D+01 -.155942059843045D+02 0.282142198422285D+02
 0.350745523847943D+03 -.261563944172099D+03 0.131253119197463D+03 0.170481943224025D+03
 0.000000000000000D+00 -.000000000000000D+00 0.000000000000000D+00 0.000000000000000D+00
 0.155309872900949D+04 0.000000000000000D+00 0.000000000000000D+00 0.155309872900949D+04
 0.105125820451873D+04 0.000000000000000D+00 0.000000000000000D+00 -.105125820451873D+04
 0.108623201376151D+04 0.870190014936926D+03 -.240164391625770D+03 -.598768047465058D+03
 0.464491400978095D+03 -.218169844554135D+03 -.899814860035535D+02 0.400071884398804D+03
 0.351300093883176D+02 0.412765436823290D+01 -.205192063134542D+02 0.282142198422285D+02
 0.277293276360325D+03 -.179414249513972D+03 0.855730324140847D+02 0.170481943224025D+03
 0.741210233039963D+03 -.476733575237052D+03 0.265092051528693D+03 0.501840524490761D+03
0.153864970828D-02 0.000000000000D+00 0.000000000000D+00 0.182573517252D-04 0.000000000000D+00  7 1 -2 -24 -11 11 23 21 0 0.14831600D+00 0.12661942D+00 0.42198930D+06 0.42198930D+06 0.42198930D+06 0.10737562D+01  1  2  2  1  7  1        1 0.123940766796D-02 0.100000000000D+01
-.751220093140D-04 0.000000000000D+00 -.590882001558D-05 0.182573517252D-04 0.000000000000D+00  7 1 -2 -24 -11 11 23 21 2 0.14831600D+00 0.12661942D+00 0.42198930D+06 0.42198930D+06 0.42198930D+06 0.10737562D+01  1  2  3  1  7  1        1 -.697674674807D-04 0.100000000000D+01
0.968912315809D-04 0.000000000000D+00 0.000000000000D+00 0.182573517252D-04 0.000000000000D+00  7 1 -2 -24 -11 11 23 21 2 0.14831600D+00 0.12661942D+00 0.42198930D+06 0.42198930D+06 0.42198930D+06 0.10737562D+01  1  2 15  1  7  1        1 0.899850244984D-04 0.100000000000D+01
0.478473186736D-04 0.000000000000D+00 0.000000000000D+00 0.182573517252D-04 0.000000000000D+00  7 1 -2 -24 -11 11 23 21 2 0.26356810D+00 0.12661942D+00 0.92871882D+06 0.92871882D+06 0.92871882D+06 0.10500085D+01  1  2 12  1  7  1        1 0.119509049072D-04 0.100000000000D+01
-.774054570007D-03 0.000000000000D+00 -.468892674989D-03 0.182573517252D-04 0.000000000000D+00  7 1 -2 -24 -11 11 23 21 2 0.27870823D+00 0.12661942D+00 0.42198930D+06 0.42198930D+06 0.42198930D+06 0.10737562D+01  1  2  5  1  7  1        1 -.183716408443D-03 0.100000000000D+01
0.953692568013D-03 0.000000000000D+00 0.388911710084D-03 0.182573517252D-04 0.000000000000D+00  7 1 -2 -24 -11 11 23 21 2 0.14831600D+00 0.12661942D+00 0.42198930D+06 0.42198930D+06 0.42198930D+06 0.10737562D+01  1  2  6  1  7  1        1 0.885715329409D-03 0.100000000000D+01
0.302637824768D-05 0.000000000000D+00 0.000000000000D+00 0.182573517252D-04 0.000000000000D+00  7 21 -2 -24 -11 11 23 -1 2 0.26356810D+00 0.12661942D+00 0.92871882D+06 0.92871882D+06 0.92871882D+06 0.10500085D+01  1  2 12  3  7  1        1 0.460851594175D-06 0.100000000000D+01
-.267030335187D-04 0.000000000000D+00 -.321868477906D-04 0.182573517252D-04 0.000000000000D+00  7 21 -2 -24 -11 11 23 -1 2 0.27870823D+00 0.12661942D+00 0.42198930D+06 0.42198930D+06 0.42198930D+06 0.10737562D+01  1  2  5  3  7  1        1 -.367383485262D-05 0.100000000000D+01
  </mgrwgt>
  </event>
  <event>
  8     66 0.29493621E-05 0.13993521E+03 0.75467711E-02 0.10578901E+00
        1 -1    0    0  501    0 0.00000000E+00 0.00000000E+00 0.51849343E+02 0.51850331E+02 0.32000000E+00 0.0000E+00 0.9000E+01
       -2 -1    0    0    0  501 0.00000000E+00 0.00000000E+00 -.16126761E+04 0.16126761E+04 0.32000000E+00 0.0000E+00 0.9000E+01
       25  2    1    2    0    0 -.12238538E+02 -.64442621E+02 -.15236091E+04 0.15542767E+04 0.30014804E+03 0.0000E+00 0.0000E+00
       23  2    3    3    0    0 -.47843296E+02 -.14741507E+03 -.87708115E+03 0.89513656E+03 0.89319305E+02 0.0000E+00 0.0000E+00
      -24  1    1    2    0    0 0.12238538E+02 0.64442621E+02 -.37217663E+02 0.11024973E+03 0.80419002E+02 0.0000E+00 0.9000E+01
      -11  1    4    4    0    0 -.65948258E+02 -.67723223E+02 -.54573290E+03 0.55385920E+03 0.51099893E-03 0.0000E+00 0.9000E+01
       11  1    4    4    0    0 0.18104963E+02 -.79691847E+02 -.33134825E+03 0.34127737E+03 0.51099893E-03 0.0000E+00 0.9000E+01
       23  1    3    3    0    0 0.35604758E+02 0.82972448E+02 -.64652794E+03 0.65914016E+03 0.91188000E+02 0.0000E+00 0.9000E+01
#aMCatNLO 1  0  0  2  1 0.74396671D+01 0.00000000D+00  -5  7  0 0.00000000D+00 0.00000000D+00 0.00000000D+00 0.00000000D+00 0.00000000D+00
  <mgrwgt>
 0.2469388411D-02   11    2    0
 0.289166118953297D+03 0.000000000000000D+00 0.000000000000000D+00 0.289166118953297D+03
 0.289166118953297D+03 0.000000000000000D+00 0.000000000000000D+00 -.289166118953297D+03
 0.216870623335807D+03 0.122385375398456D+02 0.644426211272848D+02 0.190428511764447D+03
 0.121243061635666D+03 -.659482583389512D+02 -.677232229330459D+02 -.759228048244383D+02
 0.879909409103288D+02 0.181049625586840D+02 -.796918466097868D+02 -.326163394168604D+02
 0.152227612024793D+03 0.356047582404216D+02 0.829724484155479D+02 -.818893675231481D+02
 0.000000000000000D+00 -.000000000000000D+00 0.000000000000000D+00 -.000000000000000D+00
 0.290491893610806D+03 0.000000000000000D+00 0.000000000000000D+00 0.290491893610806D+03
 0.299818891297100D+03 0.000000000000000D+00 0.000000000000000D+00 -.299818891297100D+03
 0.216406727795327D+03 0.141891667416188D+02 0.624524245731629D+02 0.190428511764447D+03
 0.121281445214098D+03 -.648564048553298D+02 -.688372240147143D+02 -.759228048244383D+02
 0.888933822574738D+02 0.189013017285165D+02 -.805043390457005D+02 -.326163394168604D+02
 0.151798532606076D+03 0.369734941650465D+02 0.815759484973600D+02 -.818893675231481D+02
 0.119306970349319D+02 -.520755777985205D+01 0.531318998989185D+01 -.932699768629478D+01
0.974767972814D-04 0.000000000000D+00 0.000000000000D+00 0.108799222553D-05 0.000000000000D+00  7 1 -2 -24 -11 11 23 21 0 0.79769004D-02 0.24810409D+00 0.41688265D+05 0.41688265D+05 0.41688265D+05 0.11543058D+01  1  2  2  2  7  2       -2 0.627958799662D-03 0.100000000000D+01
-.461792791005D-05 0.000000000000D+00 -.374336567791D-06 0.108799222553D-05 0.000000000000D+00  7 1 -2 -24 -11 11 23 21 2 0.79769004D-02 0.24810409D+00 0.41688265D+05 0.41688265D+05 0.41688265D+05 0.11543058D+01  1  2  3  2  7  2       -2 -.396386437341D-04 0.100000000000D+01
0.605376226654D-05 0.000000000000D+00 0.000000000000D+00 0.108799222553D-05 0.000000000000D+00  7 1 -2 -24 -11 11 23 21 2 0.79769004D-02 0.24810409D+00 0.41688265D+05 0.41688265D+05 0.41688265D+05 0.11543058D+01  1  2 15  2  7  2       -2 0.519633329944D-04 0.100000000000D+01
0.366179148049D-03 0.000000000000D+00 0.000000000000D+00 0.108799222553D-05 0.000000000000D+00  7 1 -2 -24 -11 11 23 21 2 0.79769004D-02 0.25780064D+00 0.43125086D+05 0.43125086D+05 0.43125086D+05 0.11529891D+01  1  2 12  2  7  2       -2 0.272352721625D-02 0.100000000000D+01
-.395752775590D-03 0.000000000000D+00 0.000000000000D+00 0.108799222553D-05 0.000000000000D+00  7 1 -2 -24 -11 11 23 21 2 0.79769004D-02 0.24810409D+00 0.41688265D+05 0.41688265D+05 0.41688265D+05 0.11543058D+01  1  2  4  2  7  2       -2 -.339700046946D-02 0.100000000000D+01
-.248159164249D-02 0.000000000000D+00 -.258419601011D-03 0.108799222553D-05 0.000000000000D+00  7 1 -2 -24 -11 11 23 21 2 0.79769004D-02 0.25772612D+00 0.41688265D+05 0.41688265D+05 0.41688265D+05 0.11543058D+01  1  2  5  2  7  2       -2 -.185346407404D-01 0.100000000000D+01
0.248980871572D-02 0.000000000000D+00 0.258232652409D-03 0.108799222553D-05 0.000000000000D+00  7 1 -2 -24 -11 11 23 21 2 0.79769004D-02 0.24810409D+00 0.41688265D+05 0.41688265D+05 0.41688265D+05 0.11543058D+01  1  2  6  2  7  2       -2 0.213716286981D-01 0.100000000000D+01
0.225722164271D-04 0.000000000000D+00 0.000000000000D+00 0.108799222553D-05 0.139443911405D-06  7 1 -2 -24 -11 11 23 21 2 0.80134731D-02 0.25724416D+00 0.43125086D+05 0.43125086D+05 0.43125086D+05 0.11529891D+01  1  2 11  2  7  2       -2 0.168213430833D-03 0.100000000000D+01
0.811521770160D-05 0.000000000000D+00 0.000000000000D+00 0.108799222553D-05 0.000000000000D+00  7 1 21 -24 -11 11 23 2 2 0.79769004D-02 0.25780064D+00 0.43125086D+05 0.43125086D+05 0.43125086D+05 0.11529891D+01  1  2 12  4  7  2       -2 0.483829436869D-03 0.100000000000D+01
-.166023651459D-04 0.000000000000D+00 -.174280543426D-05 0.108799222553D-05 0.000000000000D+00  7 1 21 -24 -11 11 23 2 2 0.79769004D-02 0.25772612D+00 0.41688265D+05 0.41688265D+05 0.41688265D+05 0.11543058D+01  1  2  5  4  7  2       -2 -.995557712979D-03 0.100000000000D+01
0.152354342354D-06 0.000000000000D+00 0.000000000000D+00 0.108799222553D-05 0.900712059235D-09  7 1 21 -24 -11 11 23 2 2 0.80134731D-02 0.25724416D+00 0.43125086D+05 0.43125086D+05 0.43125086D+05 0.11529891D+01  1  2 11  4  7  2       -2 0.910506241597D-05 0.100000000000D+01
  </mgrwgt>
  </event>
  <event>
  8     66 0.29493621E-05 0.20562567E+03 0.75467711E-02 0.96752472E-01
        1 -1    0    0  501    0 0.00000000E+00 0.00000000E+00 0.39694959E+03 0.39694972E+03 0.32000000E+00 0.0000E+00 0.9000E+01
       -2 -1    0    0    0  501 0.00000000E+00 0.00000000E+00 -.44727231E+03 0.44727242E+03 0.32000000E+00 0.0000E+00 0.9000E+01
       25  2    1    2    0    0 0.14142631E+02 0.95911392E+02 0.32242456E+03 0.45076724E+03 0.29972404E+03 0.0000E+00 0.0000E+00
       23  2    3    3    0    0 -.73702067E+02 0.10482456E+03 0.80996223E+02 0.17800538E+03 0.93302437E+02 0.0000E+00 0.0000E+00
      -24  1    1    2    0    0 -.14142631E+02 -.95911392E+02 -.37274728E+03 0.39345490E+03 0.80419002E+02 0.0000E+00 0.9000E+01
      -11  1    4    4    0    0 -.45645824E+01 -.17371144E+02 0.11711388E+02 0.21441751E+02 0.51099893E-03 0.0000E+00 0.9000E+01
       11  1    4    4    0    0 -.69137485E+02 0.12219571E+03 0.69284835E+02 0.15656363E+03 0.51099893E-03 0.0000E+00 0.9000E+01
       23  1    3    3    0    0 0.87844698E+02 -.89131725E+01 0.24142834E+03 0.27276186E+03 0.91188000E+02 0.0000E+00 0.9000E+01
#aMCatNLO 1  0  0  2  2 0.29065678D+03 0.00000000D+00  -5  7  0 0.00000000D+00 0.00000000D+00 0.00000000D+00 0.00000000D+00 0.00000000D+00
  <mgrwgt>
 0.1276784253D-02    4    2    0
 0.421360489254785D+03 0.000000000000000D+00 0.000000000000000D+00 0.421360489254785D+03
 0.421360489254785D+03 0.000000000000000D+00 0.000000000000000D+00 -.421360489254785D+03
 0.371897331357112D+03 -.141426308455493D+02 -.959113917332722D+02 -.349916275764252D+03
 0.221792861785384D+02 -.456458244600038D+01 -.173711443463129D+02 0.130126348824030D+02
 0.160979838131906D+03 -.691374846946535D+02 0.122195708626190D+03 0.787573824375509D+02
 0.287664522842013D+03 0.878446979862031D+02 -.891317254660455D+01 0.258146258444298D+03
 0.000000000000000D+00 -.000000000000000D+00 0.000000000000000D+00 0.000000000000000D+00
 0.613080468555940D+03 0.000000000000000D+00 0.000000000000000D+00 0.613080468555940D+03
 0.571914122184848D+03 0.000000000000000D+00 0.000000000000000D+00 -.571914122184848D+03
 0.421082435524025D+03 0.435326040864714D+02 -.215654153424414D+03 -.349916275764252D+03
 0.281760964874145D+02 -.902120115122309D+00 -.249749860056668D+02 0.130126348824030D+02
 0.121967380646540D+03 -.485580853228472D+02 0.794696734807842D+02 0.787573824375509D+02
 0.320211135299673D+03 0.132056887069753D+03 -.100704556275083D+03 0.258146258444298D+03
 0.293557542783136D+03 -.126129285718255D+03 0.261864022224380D+03 0.411663463710919D+02
0.123601180816D-03 0.000000000000D+00 0.000000000000D+00 0.343667921483D-05 0.000000000000D+00  7 1 -2 -24 -11 11 23 21 0 0.61069187D-01 0.68811143D-01 0.42281918D+05 0.42281918D+05 0.42281918D+05 0.11537558D+01  1  2  2  2  7  2       -2 0.169299244381D-02 0.100000000000D+01
-.256946565585D-05 0.000000000000D+00 -.474661079273D-06 0.343667921483D-05 0.000000000000D+00  7 1 -2 -24 -11 11 23 21 2 0.61069187D-01 0.68811143D-01 0.42281918D+05 0.42281918D+05 0.42281918D+05 0.11537558D+01  1  2  3  2  7  2       -2 -.468492898111D-04 0.100000000000D+01
0.765163335163D-05 0.000000000000D+00 0.000000000000D+00 0.343667921483D-05 0.000000000000D+00  7 1 -2 -24 -11 11 23 21 2 0.61069187D-01 0.68811143D-01 0.42281918D+05 0.42281918D+05 0.42281918D+05 0.11537558D+01  1  2 15  2  7  2       -2 0.139512893508D-03 0.100000000000D+01
-.279092512113D-04 0.000000000000D+00 0.000000000000D+00 0.343667921483D-05 0.000000000000D+00  7 1 -2 -24 -11 11 23 21 2 0.61069187D-01 0.68811143D-01 0.42281918D+05 0.42281918D+05 0.42281918D+05 0.11537558D+01  1  2  4  2  7  2       -2 -.508871794193D-03 0.100000000000D+01
  </mgrwgt>
  </event>
  <event>
  8     66 0.29493621E-05 0.14473155E+03 0.75467711E-02 0.10382075E+00
        1 -1    0    0  501    0 0.00000000E+00 0.00000000E+00 0.45880476E+03 0.45880487E+03 0.32000000E+00 0.0000E+00 0.9000E+01
       -2 -1    0    0    0  501 0.00000000E+00 0.00000000E+00 -.12192814E+03 0.12192856E+03 0.32000000E+00 0.0000E+00 0.9000E+01
       25  2    1    2    0    0 0.10358308E+03 0.20347686E+02 0.15280335E+03 0.35381127E+03 0.30114791E+03 0.0000E+00 0.0000E+00
       23  2    3    3    0    0 -.54291389E+02 0.71120534E+02 0.71758649E+02 0.14793333E+03 0.93430616E+02 0.0000E+00 0.0000E+00
      -24  1    1    2    0    0 -.10358308E+03 -.20347686E+02 0.18407327E+03 0.22692216E+03 0.80419002E+02 0.0000E+00 0.9000E+01
      -13  1    4    4    0    0 -.12961045E+02 0.78886178E+02 0.22265697E+02 0.82986687E+02 0.10565837E+00 0.0000E+00 0.9000E+01
       13  1    4    4    0    0 -.41330344E+02 -.77656437E+01 0.49492952E+02 0.64946640E+02 0.10565837E+00 0.0000E+00 0.9000E+01
       23  1    3    3    0    0 0.15787447E+03 -.50772847E+02 0.81044701E+02 0.20587794E+03 0.91188000E+02 0.0000E+00 0.9000E+01
#aMCatNLO 1  0  0  2  1 0.33248211D+02 0.00000000D+00  -5  7  0 0.00000000D+00 0.00000000D+00 0.00000000D+00 0.00000000D+00 0.00000000D+00
  <mgrwgt>
 0.5618735660D-03    9    2    0
 0.236519269719040D+03 0.000000000000000D+00 0.000000000000000D+00 0.236519269719040D+03
 0.236519269719040D+03 0.000000000000000D+00 0.000000000000000D+00 -.236519269719040D+03
 0.147496048922076D+03 -.103583105472138D+03 -.203476905963831D+02 0.643768610713093D+02
 0.860233736686672D+02 -.129610034668733D+02 0.788862795312244D+02 -.317645731624458D+02
 0.444860893092529D+02 -.413303678259220D+02 -.776575169250666D+01 0.145088227659982D+02
 0.195033027538083D+03 0.157874476764934D+03 -.507728372423346D+02 -.471211106748617D+02
 0.000000000000000D+00 -.000000000000000D+00 0.000000000000000D+00 -.000000000000000D+00
 0.248735639671771D+03 0.000000000000000D+00 0.000000000000000D+00 0.248735639671771D+03
 0.260859682087133D+03 0.000000000000000D+00 0.000000000000000D+00 -.260859682087133D+03
 0.148264489644515D+03 -.102140489267925D+03 -.306281430369533D+02 0.643768610713093D+02
 0.806181624911711D+02 -.121481844832313D+02 0.730939233385504D+02 -.317645731624458D+02
 0.447326826739016D+02 -.408951899390861D+02 -.108669407376179D+02 0.145088227659982D+02
 0.200590214879937D+03 0.159804188223540D+03 -.645244551822206D+02 -.471211106748617D+02
 0.353897720693800D+02 -.462032453329686D+01 0.329256156182414D+02 -.121240424153620D+02
0.355130719296D-05 0.000000000000D+00 0.000000000000D+00 0.598956626938D-07 0.000000000000D+00  7 1 -2 -24 -13 13 23 21 0 0.70585389D-01 0.18758216D-01 0.49274665D+05 0.49274665D+05 0.49274665D+05 0.11478540D+01  1  2  2  2  7  2       -2 0.428647984941D-03 0.100000000000D+01
-.196329194210D-06 0.000000000000D+00 -.136379547016D-07 0.598956626938D-07 0.000000000000D+00  7 1 -2 -24 -13 13 23 21 2 0.70585389D-01 0.18758216D-01 0.49274665D+05 0.49274665D+05 0.49274665D+05 0.11478540D+01  1  2  3  2  7  2       -2 -.312227213672D-04 0.100000000000D+01
0.228005271456D-06 0.000000000000D+00 0.000000000000D+00 0.598956626938D-07 0.000000000000D+00  7 1 -2 -24 -13 13 23 21 2 0.70585389D-01 0.18758216D-01 0.49274665D+05 0.49274665D+05 0.49274665D+05 0.11478540D+01  1  2 15  2  7  2       -2 0.362602469265D-04 0.100000000000D+01
0.584775025428D-05 0.000000000000D+00 0.000000000000D+00 0.598956626938D-07 0.000000000000D+00  7 1 -2 -24 -13 13 23 21 2 0.70585389D-01 0.21134538D-01 0.57167629D+05 0.57167629D+05 0.57167629D+05 0.11422128D+01  1  2 12  2  7  2       -2 0.757590514968D-03 0.100000000000D+01
-.551135071443D-05 0.000000000000D+00 0.000000000000D+00 0.598956626938D-07 0.000000000000D+00  7 1 -2 -24 -13 13 23 21 2 0.70585389D-01 0.18758216D-01 0.49274665D+05 0.49274665D+05 0.49274665D+05 0.11478540D+01  1  2  4  2  7  2       -2 -.876483848498D-03 0.100000000000D+01
-.153507805156D-04 0.000000000000D+00 -.341627602061D-05 0.598956626938D-07 0.000000000000D+00  7 1 -2 -24 -13 13 23 21 2 0.70585389D-01 0.21700906D-01 0.49274665D+05 0.49274665D+05 0.49274665D+05 0.11478540D+01  1  2  5  2  7  2       -2 -.192209460777D-02 0.100000000000D+01
0.157173872306D-04 0.000000000000D+00 0.338032197736D-05 0.598956626938D-07 0.000000000000D+00  7 1 -2 -24 -13 13 23 21 2 0.70585389D-01 0.18758216D-01 0.49274665D+05 0.49274665D+05 0.49274665D+05 0.11478540D+01  1  2  6  2  7  2       -2 0.249957528780D-02 0.100000000000D+01
0.110390992060D-06 0.000000000000D+00 0.000000000000D+00 0.598956626938D-07 0.000000000000D+00  7 1 21 -24 -13 13 23 2 2 0.70585389D-01 0.21134538D-01 0.57167629D+05 0.57167629D+05 0.57167629D+05 0.11422128D+01  1  2 12  4  7  2       -2 0.184147361119D-03 0.100000000000D+01
-.319531168451D-06 0.000000000000D+00 -.761198851264D-07 0.598956626938D-07 0.000000000000D+00  7 1 21 -24 -13 13 23 2 2 0.70585389D-01 0.21700906D-01 0.49274665D+05 0.49274665D+05 0.49274665D+05 0.11478540D+01  1  2  5  4  7  2       -2 -.514546652094D-03 0.100000000000D+01
  </mgrwgt>
  </event>
  <event>
  8     66 0.29493621E-05 0.38681964E+03 0.75467711E-02 0.97582544E-01
        1 -1    0    0  501    0 0.00000000E+00 0.00000000E+00 0.50222167E+03 0.50222177E+03 0.32000000E+00 0.0000E+00 0.9000E+01
       -2 -1    0    0    0  501 0.00000000E+00 0.00000000E+00 -.40804478E+03 0.40804491E+03 0.32000000E+00 0.0000E+00 0.9000E+01
       25  2    1    2    0    0 0.12943328E+03 -.32937433E+03 0.23630726E+03 0.52051203E+03 0.29975195E+03 0.0000E+00 0.0000E+00
       23  2    3    3    0    0 0.31129444E+02 -.23544825E+03 0.28537399E+02 0.25599489E+03 0.91181581E+02 0.0000E+00 0.0000E+00
      -24  1    1    2    0    0 -.12943328E+03 0.32937433E+03 -.14213038E+03 0.38975465E+03 0.80419002E+02 0.0000E+00 0.9000E+01
      -13  1    4    4    0    0 -.21216733E+02 -.88912001E+02 0.40399541E+02 0.99938120E+02 0.10565837E+00 0.0000E+00 0.9000E+01
       13  1    4    4    0    0 0.52346177E+02 -.14653624E+03 -.11862142E+02 0.15605677E+03 0.10565837E+00 0.0000E+00 0.9000E+01
       23  1    3    3    0    0 0.98303841E+02 -.93926083E+02 0.20776986E+03 0.26451715E+03 0.91188000E+02 0.0000E+00 0.9000E+01
#aMCatNLO 1  0  0  2  2 0.31830464D+01 0.00000000D+00  -5  7  0 0.00000000D+00 0.00000000D+00 0.00000000D+00 0.00000000D+00 0.00000000D+00
  <mgrwgt>
 0.6174433396D-03    6    2    0
 0.452690883236558D+03 0.000000000000000D+00 0.000000000000000D+00 0.452690883236558D+03
 0.452690883236558D+03 0.000000000000000D+00 0.000000000000000D+00 -.452690883236558D+03
 0.406641791241997D+03 -.129433284704269D+03 0.329374328709121D+03 -.183439109320254D+03
 0.962749256898305D+02 -.212168316352401D+02 -.889119235735641D+02 0.302221312682107D+02
 0.158132729806689D+03 0.523462752512246D+02 -.146536321613967D+03 -.281590864781901D+02
 0.244332319734600D+03 0.983038410882846D+02 -.939260835215901D+02 0.181376064530234D+03
 0.000000000000000D+00 0.000000000000000D+00 -.000000000000000D+00 0.000000000000000D+00
 0.459571485010423D+03 0.000000000000000D+00 0.000000000000000D+00 0.459571485010423D+03
 0.453061959192941D+03 0.000000000000000D+00 0.000000000000000D+00 -.453061959192941D+03
 0.407336255488856D+03 -.130831089549483D+03 0.329680039220452D+03 -.183439109320254D+03
 0.962816036082577D+02 -.215474995822585D+02 -.888396039879584D+02 0.302221312682107D+02
 0.157843851748215D+03 0.518036640611002D+02 -.146417648435122D+03 -.281590864781901D+02
 0.243925650921056D+03 0.974653794616621D+02 -.937427056105153D+02 0.181376064530234D+03
 0.724608243697949D+01 0.310954560897952D+01 -.680081186855805D+00 0.650952581748192D+01
0.464893301203D-04 0.000000000000D+00 0.000000000000D+00 0.796775132299D-05 0.000000000000D+00  7 1 -2 -24 -13 13 23 21 0 0.77264889D-01 0.62776138D-01 0.14962944D+06 0.14962944D+06 0.14962944D+06 0.11076367D+01  1  2  2  2  7  2       -2 0.545031064867D-03 0.100000000000D+01
-.250508922748D-05 0.000000000000D+00 -.178531268584D-06 0.796775132299D-05 0.000000000000D+00  7 1 -2 -24 -13 13 23 21 2 0.77264889D-01 0.62776138D-01 0.14962944D+06 0.14962944D+06 0.14962944D+06 0.11076367D+01  1  2  3  2  7  2       -2 -.360317888978D-04 0.100000000000D+01
0.297608448609D-05 0.000000000000D+00 0.000000000000D+00 0.796775132299D-05 0.000000000000D+00  7 1 -2 -24 -13 13 23 21 2 0.77264889D-01 0.62776138D-01 0.14962944D+06 0.14962944D+06 0.14962944D+06 0.11076367D+01  1  2 15  2  7  2       -2 0.428063187405D-04 0.100000000000D+01
-.457942559111D-04 0.000000000000D+00 0.000000000000D+00 0.796775132299D-05 0.000000000000D+00  7 1 -2 -24 -13 13 23 21 2 0.77264889D-01 0.62776138D-01 0.14962944D+06 0.14962944D+06 0.14962944D+06 0.11076367D+01  1  2  4  2  7  2       -2 -.658678718355D-03 0.100000000000D+01
0.457630747129D-04 0.000000000000D+00 0.000000000000D+00 0.796775132299D-05 0.514384637119D-05  7 1 -2 -24 -13 13 23 21 2 0.78439265D-01 0.62827597D-01 0.15081813D+06 0.15081813D+06 0.15081813D+06 0.11073655D+01  1  2 11  2  7  2       -2 0.643004029865D-03 0.100000000000D+01
0.566793231580D-06 0.000000000000D+00 0.000000000000D+00 0.796775132299D-05 0.796374142396D-09  7 1 21 -24 -13 13 23 2 2 0.78439265D-01 0.62827597D-01 0.15081813D+06 0.15081813D+06 0.15081813D+06 0.11073655D+01  1  2 11  4  7  2       -2 0.813124334036D-04 0.100000000000D+01
  </mgrwgt>
  </event>
  <event>
  8     66 0.29493621E-05 0.17660144E+03 0.75467711E-02 0.94890853E-01
        1 -1    0    0  501    0 0.00000000E+00 0.00000000E+00 0.43432280E+03 0.43432292E+03 0.32000000E+00 0.0000E+00 0.9000E+01
       -2 -1    0    0    0  501 0.00000000E+00 0.00000000E+00 -.14192645E+03 0.14192681E+03 0.32000000E+00 0.0000E+00 0.9000E+01
       25  2    1    2    0    0 -.53673393E+02 0.87159931E+02 0.31191264E+03 0.44462227E+03 0.29986961E+03 0.0000E+00 0.0000E+00
       23  2    3    3    0    0 -.45237326E+02 -.27735405E+02 0.27365901E+03 0.29279771E+03 0.89585592E+02 0.0000E+00 0.0000E+00
      -24  1    1    2    0    0 0.53673393E+02 -.87159931E+02 -.19516283E+02 0.13162746E+03 0.80419002E+02 0.0000E+00 0.9000E+01
      -11  1    4    4    0    0 0.30635433E+01 -.27633647E+02 0.21509788E+03 0.21688730E+03 0.51099893E-03 0.0000E+00 0.9000E+01
       11  1    4    4    0    0 -.48300870E+02 -.10175828E+00 0.58561125E+02 0.75910406E+02 0.51099893E-03 0.0000E+00 0.9000E+01
       23  1    3    3    0    0 -.84360666E+01 0.11489534E+03 0.38253636E+02 0.15182456E+03 0.91188000E+02 0.0000E+00 0.9000E+01
#aMCatNLO 1  0  0  1  1 0.41676217D+03 0.00000000D+00  -5  7  0 0.00000000D+00 0.00000000D+00 0.00000000D+00 0.00000000D+00 0.00000000D+00
  <mgrwgt>
 0.7664778430D-03    5    2    0
 0.248278130010916D+03 0.000000000000000D+00 0.000000000000000D+00 0.248278130010916D+03
 0.248278130010916D+03 0.000000000000000D+00 0.000000000000000D+00 -.248278130010916D+03
 0.164244787796746D+03 0.536733931037663D+02 -.871599306581372D+02 -.100157115196200D+03
 0.125036007242152D+03 0.306354333283752D+01 -.276336469376089D+02 0.121905698661854D+03
 0.536098190381207D+02 -.483008698168488D+02 -.101758278621551D+00 0.232600154232238D+02
 0.153665645944813D+03 -.843606661975498D+01 0.114895335874368D+03 -.450085988888779D+02
 0.000000000000000D+00 -.000000000000000D+00 0.000000000000000D+00 0.000000000000000D+00
 0.670379799829878D+03 0.000000000000000D+00 0.000000000000000D+00 0.670379799829878D+03
 0.449547872714321D+03 0.000000000000000D+00 0.000000000000000D+00 -.449547872714321D+03
 0.269374493352132D+03 0.209939168586457D+03 -.109496572928789D+03 -.100157115196200D+03
 0.169066660336942D+03 0.109050946150831D+03 -.427834946546045D+02 0.121905698661854D+03
 0.298705543649942D+02 -.182165865422233D+02 -.440200810235020D+01 0.232600154232238D+02
 0.179962018304032D+03 0.111795177567988D+03 0.977094723487073D+02 -.450085988888779D+02
 0.471653946186099D+03 -.412568705763053D+03 0.589726033370363D+02 0.220831927115557D+03
0.695032978432D-05 0.000000000000D+00 0.000000000000D+00 0.770881691977D-06 0.000000000000D+00  7 1 -2 -24 -11 11 23 21 0 0.66818930D-01 0.21834875D-01 0.31188068D+05 0.31188068D+05 0.31188068D+05 0.11657742D+01  1  2  2  1  7  1        1 0.702789580489D-03 0.100000000000D+01
-.331648835360D-06 0.000000000000D+00 -.266910964357D-07 0.770881691977D-06 0.000000000000D+00  7 1 -2 -24 -11 11 23 21 2 0.66818930D-01 0.21834875D-01 0.31188068D+05 0.31188068D+05 0.31188068D+05 0.11657742D+01  1  2  3  1  7  1        1 -.455750593324D-04 0.100000000000D+01
0.446451155143D-06 0.000000000000D+00 0.000000000000D+00 0.770881691977D-06 0.000000000000D+00  7 1 -2 -24 -11 11 23 21 2 0.66818930D-01 0.21834875D-01 0.31188068D+05 0.31188068D+05 0.31188068D+05 0.11657742D+01  1  2 15  1  7  1        1 0.613511513242D-04 0.100000000000D+01
0.324471301808D-05 0.000000000000D+00 -.254281866162D-05 0.770881691977D-06 0.000000000000D+00  7 1 -2 -24 -11 11 23 21 2 0.26560625D+00 0.21834875D-01 0.31188068D+05 0.31188068D+05 0.31188068D+05 0.11657742D+01  1  2  5  1  7  1        1 0.426501126724D-04 0.100000000000D+01
0.566255951048D-06 0.000000000000D+00 -.418442945919D-06 0.770881691977D-06 0.000000000000D+00  7 21 -2 -24 -11 11 23 -1 2 0.26560625D+00 0.21834875D-01 0.31188068D+05 0.31188068D+05 0.31188068D+05 0.11657742D+01  1  2  5  3  7  1        1 0.526205788177D-05 0.100000000000D+01
  </mgrwgt>
  </event>
  <event>
  9     66 -.29493621E-05 0.53382014E+03 0.75467711E-02 0.92585358E-01
        1 -1    0    0  501    0 0.00000000E+00 0.00000000E+00 0.22982008E+04 0.22982008E+04 0.32000000E+00 0.0000E+00 0.9000E+01
       -2 -1    0    0    0  502 0.00000000E+00 0.00000000E+00 -.17362478E+03 0.17362508E+03 0.32000000E+00 0.0000E+00 0.9000E+01
       25  2    1    2    0    0 0.41987827E+03 0.38064556E+03 0.82970953E+03 0.10486269E+04 0.30001937E+03 0.0000E+00 0.0000E+00
       23  2    3    3    0    0 0.33816404E+03 0.19430244E+03 0.64271335E+03 0.75762208E+03 0.93821125E+02 0.0000E+00 0.0000E+00
      -24  1    1    2    0    0 -.35072481E+03 -.27518249E+03 0.11151703E+04 0.12036633E+04 0.80419002E+02 0.0000E+00 0.9000E+01
      -13  1    4    4    0    0 0.30566895E+03 0.20212938E+03 0.60401778E+03 0.70648940E+03 0.10565837E+00 0.0000E+00 0.9000E+01
       13  1    4    4    0    0 0.32495090E+02 -.78269327E+01 0.38695577E+02 0.51132676E+02 0.10565837E+00 0.0000E+00 0.9000E+01
       23  1    3    3    0    0 0.81714229E+02 0.18634311E+03 0.18699618E+03 0.29100480E+03 0.91188000E+02 0.0000E+00 0.9000E+01
       21  1    1    2  501  502 -.69153464E+02 -.10546307E+03 0.17969623E+03 0.21953578E+03 0.75000000E+00 0.0000E+00 0.9000E+01
#aMCatNLO 2  0  0  2  1 0.12611368D+03 0.00000000D+00  -5  7  0 0.00000000D+00 0.00000000D+00 0.00000000D+00 0.00000000D+00 0.00000000D+00
  <mgrwgt>
 -.1869255677D-03    2    2    0
 0.564435283331987D+03 0.000000000000000D+00 0.000000000000000D+00 0.564435283331987D+03
 0.564435283331987D+03 0.000000000000000D+00 0.000000000000000D+00 -.564435283331987D+03
 0.527431746092480D+03 -.381402859043943D+03 -.321968309726437D+03 0.150284055963361D+03
 0.331324358557793D+03 0.284356925133148D+03 0.169627029811446D+03 -.119850097997799D+02
 0.340918226965822D+02 0.303810089390632D+02 -.110507674890495D+02 -.108225324449836D+02
 0.236022639317119D+03 0.666649249717322D+02 0.163392047404040D+03 -.127476513718598D+03
 0.000000000000000D+00 -.000000000000000D+00 -.000000000000000D+00 -.000000000000000D+00
 0.621968228815364D+03 0.000000000000000D+00 0.000000000000000D+00 0.621968228815364D+03
 0.641549834141141D+03 0.000000000000000D+00 0.000000000000000D+00 -.641549834141141D+03
 0.477269111264385D+03 -.350724805774310D+03 -.275182488088359D+03 0.150284055963361D+03
 0.366652085131461D+03 0.305669297232421D+03 0.202129641074200D+03 -.119850097997799D+02
 0.351326146005218D+02 0.324947435491320D+02 -.782719884902768D+01 -.108225324449836D+02
 0.256839413083831D+03 0.817142286400047D+02 0.186343113790577D+03 -.127476513718598D+03
 0.127624838876307D+03 -.691534636472479D+02 -.105463067927391D+03 -.195816053257772D+02
-.161398763375D-03 0.000000000000D+00 0.000000000000D+00 0.311539866719D-05 0.000000000000D+00  7 1 -2 -24 -13 13 23 21 2 0.32086315D+00 0.27768352D-01 0.36117453D+06 0.36117453D+06 0.36117453D+06 0.10786389D+01  1  2 13  2  7  2       -2 -.631526854854D-03 0.100000000000D+01
0.147719254582D-03 0.000000000000D+00 0.000000000000D+00 0.311539866719D-05 0.123949868409D-08  7 1 -2 -24 -13 13 23 21 2 0.35356876D+00 0.26711483D-01 0.36117453D+06 0.36117453D+06 0.36117453D+06 0.10786389D+01  1  2  1  2  7  2       -2 0.444601287155D-03 0.100000000000D+01
  </mgrwgt>
  </event>
  <event>
  8     66 0.29493621E-05 0.16960601E+03 0.75467711E-02 0.10386674E+00
        1 -1    0    0  501    0 0.00000000E+00 0.00000000E+00 0.31991109E+03 0.31991125E+03 0.32000000E+00 0.0000E+00 0.9000E+01
       -2 -1    0    0    0  501 0.00000000E+00 0.00000000E+00 -.25026768E+03 0.25026788E+03 0.32000000E+00 0.0000E+00 0.9000E+01
       25  2    1    2    0    0 0.17341651E+01 0.65720164E+02 0.22645227E+03 0.38208771E+03 0.30064638E+03 0.0000E+00 0.0000E+00
       23  2    3    3    0    0 0.25066185E+02 0.95034073E+02 0.24891164E+01 0.13738701E+03 0.95964612E+02 0.0000E+00 0.0000E+00
      -24  1    1    2    0    0 -.17341651E+01 -.65720164E+02 -.15680886E+03 0.18809142E+03 0.80419002E+02 0.0000E+00 0.9000E+01
      -11  1    4    4    0    0 -.18061428E+02 0.91741342E+02 0.77112135E+01 0.93819784E+02 0.51099893E-03 0.0000E+00 0.9000E+01
       11  1    4    4    0    0 0.43127613E+02 0.32927304E+01 -.52220971E+01 0.43567228E+02 0.51099893E-03 0.0000E+00 0.9000E+01
       23  1    3    3    0    0 -.23332020E+02 -.29313909E+02 0.22396315E+03 0.24470070E+03 0.91188000E+02 0.0000E+00 0.9000E+01
#aMCatNLO 1  0  0  1  2 0.12854806D+03 0.00000000D+00  -5  7  0 0.00000000D+00 0.00000000D+00 0.00000000D+00 0.00000000D+00 0.00000000D+00
  <mgrwgt>
 0.1049898602D-02    3    2    0
 0.282954959978766D+03 0.000000000000000D+00 0.000000000000000D+00 0.282954959978766D+03
 0.282954959978766D+03 0.000000000000000D+00 0.000000000000000D+00 -.282954959978766D+03
 0.208807975559183D+03 -.173416512098226D+01 -.657201636623331D+02 -.181139193611662D+03
 0.935785819202661D+02 -.180614277781898D+02 0.917413423445434D+02 -.377649647722453D+01
 0.445385529748423D+02 0.431276128876625D+02 0.329273042467756D+01 -.106230708392235D+02
 0.218984809503241D+03 -.233320199884904D+02 -.293139091068878D+02 0.195538760928110D+03
 0.000000000000000D+00 0.000000000000000D+00 -.000000000000000D+00 -.000000000000000D+00
 0.305871663534508D+03 0.000000000000000D+00 0.000000000000000D+00 0.305871663534508D+03
 0.553151391493357D+03 0.000000000000000D+00 0.000000000000000D+00 -.553151391493357D+03
 0.201413368529913D+03 -.248264544053780D+02 -.259300745770353D+02 -.181139193611662D+03
 0.116045701352988D+03 -.298616538272000D+02 0.112074191978211D+03 -.377649647722453D+01
 0.414027159447209D+02 0.382897840619455D+02 0.116287441296842D+02 -.106230708392235D+02
 0.221464537709762D+03 -.481259120848434D+02 0.134081944981363D+02 0.195538760928110D+03
 0.278696731490482D+03 0.645242362554759D+02 -.111181056028996D+03 -.247279727958849D+03
0.178789079652D-04 0.000000000000D+00 0.000000000000D+00 0.994377083752D-07 0.000000000000D+00  7 1 -2 -24 -11 11 23 21 0 0.49217119D-01 0.38502748D-01 0.28766198D+05 0.28766198D+05 0.28766198D+05 0.11690319D+01  1  2  2  1  7  1        1 0.101455165271D-02 0.100000000000D+01
-.676923419241D-06 0.000000000000D+00 -.686597142110D-07 0.994377083752D-07 0.000000000000D+00  7 1 -2 -24 -11 11 23 21 2 0.49217119D-01 0.38502748D-01 0.28766198D+05 0.28766198D+05 0.28766198D+05 0.11690319D+01  1  2  3  1  7  1        1 -.524959090804D-04 0.100000000000D+01
0.113271470189D-05 0.000000000000D+00 0.000000000000D+00 0.994377083752D-07 0.000000000000D+00  7 1 -2 -24 -11 11 23 21 2 0.49217119D-01 0.38502748D-01 0.28766198D+05 0.28766198D+05 0.28766198D+05 0.11690319D+01  1  2 15  1  7  1        1 0.878428583116D-04 0.100000000000D+01
  </mgrwgt>
  </event>
  <event>
  8     66 0.29493621E-05 0.18506833E+03 0.75467711E-02 0.98987369E-01
        3 -1    0    0  501    0 0.00000000E+00 0.00000000E+00 0.36105298E+03 0.36105333E+03 0.50000000E+00 0.0000E+00 0.9000E+01
       -4 -1    0    0    0  501 0.00000000E+00 0.00000000E+00 -.29319413E+03 0.29319822E+03 0.15500000E+01 0.0000E+00 0.9000E+01
       25  2    1    2    0    0 0.13980778E+03 -.19679443E+03 0.98538642E+02 0.39796513E+03 0.30065283E+03 0.0000E+00 0.0000E+00
       23  2    3    3    0    0 -.34572252E+02 -.76124345E+02 0.10489338E+03 0.16704242E+03 0.99550957E+02 0.0000E+00 0.0000E+00
      -24  1    1    2    0    0 -.13980778E+03 0.19679443E+03 -.30679788E+02 0.25628642E+03 0.80419002E+02 0.0000E+00 0.9000E+01
      -13  1    4    4    0    0 -.47377639E+02 -.46727086E+01 0.11901224E+02 0.49072652E+02 0.10565837E+00 0.0000E+00 0.9000E+01
       13  1    4    4    0    0 0.12805387E+02 -.71451636E+02 0.92992159E+02 0.11796977E+03 0.10565837E+00 0.0000E+00 0.9000E+01
       23  1    3    3    0    0 0.17438003E+03 -.12067008E+03 -.63547408E+01 0.23092271E+03 0.91188000E+02 0.0000E+00 0.9000E+01
#aMCatNLO 1  0  0  2  1 0.84598956D+02 0.00000000D+00  -5  7  0 0.00000000D+00 0.00000000D+00 0.00000000D+00 0.00000000D+00 0.00000000D+00
  <mgrwgt>
 0.1076736008D-03    9    2    0
 0.325361440534553D+03 0.000000000000000D+00 0.000000000000000D+00 0.325361440534553D+03
 0.325361440534553D+03 0.000000000000000D+00 0.000000000000000D+00 -.325361440534553D+03
 0.260875537454275D+03 -.139807780822868D+03 0.196794427892205D+03 -.575722820431062D+02
 0.480975983227550D+02 -.473776990472732D+02 -.467264047316459D+01 0.684828653107017D+01
 0.108912095139136D+03 0.128054205731724D+02 -.714516890087152D+02 0.811943459197878D+02
 0.232837650152941D+03 0.174380059296969D+03 -.120670098410326D+03 -.304703504077517D+02
 0.000000000000000D+00 -.000000000000000D+00 -.000000000000000D+00 -.000000000000000D+00
 0.352875591950464D+03 0.000000000000000D+00 0.000000000000000D+00 0.352875591950464D+03
 0.400316314098665D+03 0.000000000000000D+00 0.000000000000000D+00 -.400316314098665D+03
 0.274271532570572D+03 -.120587606046382D+03 0.225614093603639D+03 -.575722820431062D+02
 0.445794465693232D+02 -.440491392917069D+02 0.318364060951906D+00 0.684828653107017D+01
 0.103024092899205D+03 0.204172544104947D+02 -.600381348036314D+02 0.811943459197878D+02
 0.234324022260765D+03 0.191158491798243D+03 -.955116999320682D+02 -.304703504077517D+02
 0.969928117492635D+02 -.469390008706486D+02 -.703826229288910D+02 -.474407221482014D+02
0.164048137044D-04 0.000000000000D+00 0.000000000000D+00 0.298587304934D-07 0.000000000000D+00  7 3 -4 -24 -13 13 23 21 0 0.55546954D-01 0.45107131D-01 0.91650422D+05 0.91650422D+05 0.91650422D+05 0.11248427D+01  1  2  2  2  7  2       -4 0.823354819482D-04 0.100000000000D+01
-.905623234123D-06 0.000000000000D+00 -.629988041117D-07 0.298587304934D-07 0.000000000000D+00  7 3 -4 -24 -13 13 23 21 2 0.55546954D-01 0.45107131D-01 0.91650422D+05 0.91650422D+05 0.91650422D+05 0.11248427D+01  1  2  3  2  7  2       -4 -.575104596466D-05 0.100000000000D+01
0.105055056935D-05 0.000000000000D+00 0.000000000000D+00 0.298587304934D-07 0.000000000000D+00  7 3 -4 -24 -13 13 23 21 2 0.55546954D-01 0.45107131D-01 0.91650422D+05 0.91650422D+05 0.91650422D+05 0.11248427D+01  1  2 15  2  7  2       -4 0.667138870213D-05 0.100000000000D+01
0.164656540786D-04 0.000000000000D+00 0.000000000000D+00 0.298587304934D-07 0.000000000000D+00  7 3 -4 -24 -13 13 23 21 2 0.55546954D-01 0.57073142D-01 0.11990967D+06 0.11990967D+06 0.11990967D+06 0.11153080D+01  1  2 12  2  7  2       -4 0.608366426724D-04 0.100000000000D+01
-.170884190160D-04 0.000000000000D+00 0.000000000000D+00 0.298587304934D-07 0.000000000000D+00  7 3 -4 -24 -13 13 23 21 2 0.55546954D-01 0.45107131D-01 0.91650422D+05 0.91650422D+05 0.91650422D+05 0.11248427D+01  1  2  4  2  7  2       -4 -.108517846629D-03 0.100000000000D+01
-.309916195399D-04 0.000000000000D+00 -.889238274270D-05 0.298587304934D-07 0.000000000000D+00  7 3 -4 -24 -13 13 23 21 2 0.55546954D-01 0.59394494D-01 0.91650422D+05 0.91650422D+05 0.91650422D+05 0.11248427D+01  1  2  5  2  7  2       -4 -.105809652462D-03 0.100000000000D+01
0.325256846387D-04 0.000000000000D+00 0.856604800187D-05 0.298587304934D-07 0.000000000000D+00  7 3 -4 -24 -13 13 23 21 2 0.55546954D-01 0.45107131D-01 0.91650422D+05 0.91650422D+05 0.91650422D+05 0.11248427D+01  1  2  6  2  7  2       -4 0.206550252181D-03 0.100000000000D+01
0.532762948599D-06 0.000000000000D+00 0.000000000000D+00 0.298587304934D-07 0.000000000000D+00  7 3 21 -24 -13 13 23 4 2 0.55546954D-01 0.57073142D-01 0.11990967D+06 0.11990967D+06 0.11990967D+06 0.11153080D+01  1  2 12  4  7  2       -4 0.420995930180D-04 0.100000000000D+01
-.951183767741D-06 0.000000000000D+00 -.322855432670D-06 0.298587304934D-07 0.000000000000D+00  7 3 21 -24 -13 13 23 4 2 0.55546954D-01 0.59394494D-01 0.91650422D+05 0.91650422D+05 0.91650422D+05 0.11248427D+01  1  2  5  4  7  2       -4 -.707412126302D-04 0.100000000000D+01
  </mgrwgt>
  </event>
  <event>
  8     66 0.29493621E-05 0.27138148E+03 0.75467711E-02 0.97100750E-01
        1 -1    0    0  501    0 0.00000000E+00 0.00000000E+00 0.79215717E+03 0.79215723E+03 0.32000000E+00 0.0000E+00 0.9000E+01
       -2 -1    0    0    0  501 0.00000000E+00 0.00000000E+00 -.33845290E+03 0.33845305E+03 0.32000000E+00 0.0000E+00 0.9000E+01
       25  2    1    2    0    0 -.32484773E+03 -.72210499E+01 -.12780532E+03 0.45964172E+03 0.29892829E+03 0.0000E+00 0.0000E+00
       23  2    3    3    0    0 -.28723380E+03 0.61503388E+02 -.39437752E+02 0.31043738E+03 0.92358611E+02 0.0000E+00 0.0000E+00
      -24  1    1    2    0    0 0.32484773E+03 0.72210499E+01 0.58150959E+03 0.67096856E+03 0.80419002E+02 0.0000E+00 0.9000E+01
      -11  1    4    4    0    0 -.25926343E+03 0.40088286E+02 -.68271804E+01 0.26243325E+03 0.51099893E-03 0.0000E+00 0.9000E+01
       11  1    4    4    0    0 -.27970361E+02 0.21415102E+02 -.32610572E+02 0.48004136E+02 0.51099893E-03 0.0000E+00 0.9000E+01
       23  1    3    3    0    0 -.37613930E+02 -.68724438E+02 -.88367566E+02 0.14920434E+03 0.91188000E+02 0.0000E+00 0.9000E+01
#aMCatNLO 1  0  0  1  2 0.55558710D+02 0.00000000D+00  -5  7  0 0.00000000D+00 0.00000000D+00 0.00000000D+00 0.00000000D+00 0.00000000D+00
  <mgrwgt>
 0.1840734111D-02    9    2    0
 0.517791473537660D+03 0.000000000000000D+00 0.000000000000000D+00 0.517791473537660D+03
 0.517791473537660D+03 0.000000000000000D+00 0.000000000000000D+00 -.517791473537660D+03
 0.477770098056878D+03 0.324847725387286D+03 0.722104992043585D+01 0.340908876962248D+03
 0.289505779439510D+03 -.259263434070685D+03 0.400882858003077D+02 -.122429561072262D+03
 0.666962758071851D+02 -.279703612738068D+02 0.214151022172575D+02 -.566343137486917D+02
 0.201610793771747D+03 -.376139300427951D+02 -.687244379380011D+02 -.161845002141295D+03
 0.000000000000000D+00 0.000000000000000D+00 -.000000000000000D+00 0.000000000000000D+00
 0.762491804804921D+03 0.000000000000000D+00 0.000000000000000D+00 0.762491804804921D+03
 0.521699364003236D+03 0.000000000000000D+00 0.000000000000000D+00 -.521699364003236D+03
 0.476334407813480D+03 0.321169974781887D+03 0.325305551687784D+02 0.340908876962248D+03
 0.294050675122686D+03 -.261512847097084D+03 0.555682725927115D+02 -.122429561072262D+03
 0.681449527587130D+02 -.284901286650515D+02 0.249920319572218D+02 -.566343137486917D+02
 0.198542194463381D+03 -.391563846540871D+02 -.581095900952711D+02 -.161845002141295D+03
 0.247118938649899D+03 0.798938563433530D+01 -.549812696234406D+02 0.240792440801684D+03
0.198724683182D-03 0.000000000000D+00 0.000000000000D+00 0.217032695499D-05 0.000000000000D+00  7 1 -2 -24 -11 11 23 21 0 0.12187035D+00 0.52069693D-01 0.14157326D+06 0.14157326D+06 0.14157326D+06 0.11095389D+01  1  2  2  1  7  1        1 0.174741089339D-02 0.100000000000D+01
-.967183384532D-05 0.000000000000D+00 -.763155108830D-06 0.217032695499D-05 0.000000000000D+00  7 1 -2 -24 -11 11 23 21 2 0.12187035D+00 0.52069693D-01 0.14157326D+06 0.14157326D+06 0.14157326D+06 0.11095389D+01  1  2  3  1  7  1        1 -.104697694990D-03 0.100000000000D+01
0.123150757335D-04 0.000000000000D+00 0.000000000000D+00 0.217032695499D-05 0.000000000000D+00  7 1 -2 -24 -11 11 23 21 2 0.12187035D+00 0.52069693D-01 0.14157326D+06 0.14157326D+06 0.14157326D+06 0.11095389D+01  1  2 15  1  7  1        1 0.133310814014D-03 0.100000000000D+01
0.217962195415D-02 0.000000000000D+00 0.000000000000D+00 0.217032695499D-05 0.000000000000D+00  7 1 -2 -24 -11 11 23 21 2 0.17975321D+00 0.52069693D-01 0.16341356D+06 0.16341356D+06 0.16341356D+06 0.11046285D+01  1  2 12  1  7  1        1 0.119089639681D-01 0.100000000000D+01
-.205135847313D-02 0.000000000000D+00 0.000000000000D+00 0.217032695499D-05 0.000000000000D+00  7 1 -2 -24 -11 11 23 21 2 0.12187035D+00 0.52069693D-01 0.14157326D+06 0.14157326D+06 0.14157326D+06 0.11095389D+01  1  2  4  1  7  1        1 -.222059753267D-01 0.100000000000D+01
-.221157858109D-02 0.000000000000D+00 -.808539509749D-04 0.217032695499D-05 0.000000000000D+00  7 1 -2 -24 -11 11 23 21 2 0.17993804D+00 0.52069693D-01 0.14157326D+06 0.14157326D+06 0.14157326D+06 0.11095389D+01  1  2  5  1  7  1        1 -.122393526692D-01 0.100000000000D+01
0.208830541581D-02 0.000000000000D+00 0.750816149961D-04 0.217032695499D-05 0.000000000000D+00  7 1 -2 -24 -11 11 23 21 2 0.12187035D+00 0.52069693D-01 0.14157326D+06 0.14157326D+06 0.14157326D+06 0.11095389D+01  1  2  6  1  7  1        1 0.226059263389D-01 0.100000000000D+01
0.101582108744D-03 0.000000000000D+00 0.000000000000D+00 0.217032695499D-05 0.000000000000D+00  7 21 -2 -24 -11 11 23 -1 2 0.17975321D+00 0.52069693D-01 0.16341356D+06 0.16341356D+06 0.16341356D+06 0.11046285D+01  1  2 12  3  7  1        1 0.618486216555D-03 0.100000000000D+01
-.100607788206D-03 0.000000000000D+00 -.377550255455D-05 0.217032695499D-05 0.000000000000D+00  7 21 -2 -24 -11 11 23 -1 2 0.17993804D+00 0.52069693D-01 0.14157326D+06 0.14157326D+06 0.14157326D+06 0.11095389D+01  1  2  5  3  7  1        1 -.623338429130D-03 0.100000000000D+01
  </mgrwgt>
  </event>
  <event>
  8     66 0.29493621E-05 0.11293677E+03 0.75467711E-02 0.97317698E-01
        1 -1    0    0  501    0 0.00000000E+00 0.00000000E+00 0.20083595E+04 0.20083595E+04 0.32000000E+00 0.0000E+00 0.9000E+01
       -2 -1    0    0    0  501 0.00000000E+00 0.00000000E+00 -.66275079E+02 0.66275852E+02 0.32000000E+00 0.0000E+00 0.9000E+01
       25  2    1    2    0    0 0.25439644E+03 0.64603146E+02 0.76022811E+03 0.86131651E+03 0.30826651E+03 0.0000E+00 0.0000E+00
       23  2    3    3    0    0 0.13191582E+03 -.34781800E+02 0.14537877E+03 0.22004135E+03 0.93121702E+02 0.0000E+00 0.0000E+00
      -24  1    1    2    0    0 -.25439644E+03 -.64603146E+02 0.11818563E+04 0.12133188E+04 0.80419002E+02 0.0000E+00 0.9000E+01
      -11  1    4    4    0    0 -.10356609E+02 -.52713422E+01 0.36974197E+02 0.38757421E+02 0.51099893E-03 0.0000E+00 0.9000E+01
       11  1    4    4    0    0 0.14227243E+03 -.29510458E+02 0.10840457E+03 0.18128393E+03 0.51099893E-03 0.0000E+00 0.9000E+01
       23  1    3    3    0    0 0.12248062E+03 0.99384946E+02 0.61484934E+03 0.64127516E+03 0.91188000E+02 0.0000E+00 0.9000E+01
#aMCatNLO 1  0  0  1  2 0.16022580D+03 0.00000000D+00  -5  7  0 0.00000000D+00 0.00000000D+00 0.00000000D+00 0.00000000D+00 0.00000000D+00
  <mgrwgt>
 0.1437967494D-02    9    2    0
 0.364835592824782D+03 0.000000000000000D+00 0.000000000000000D+00 0.364835592824782D+03
 0.364835592824782D+03 0.000000000000000D+00 0.000000000000000D+00 -.364835592824782D+03
 0.304150023746493D+03 -.254396437814734D+03 -.646031460194943D+02 0.130953835156438D+03
 0.117868208168747D+02 -.103566088118649D+02 -.527134219068351D+01 0.197046958764441D+01
 0.226906615591177D+03 0.142272431180609D+03 -.295104573485908D+02 -.174282243593770D+03
 0.186827725495019D+03 0.122480615445990D+03 0.993849455587686D+02 0.413579388496870D+02
 0.000000000000000D+00 -.000000000000000D+00 -.000000000000000D+00 0.000000000000000D+00
 0.517079522647687D+03 0.000000000000000D+00 0.000000000000000D+00 0.517079522647687D+03
 0.418237077954337D+03 0.000000000000000D+00 0.000000000000000D+00 -.418237077954337D+03
 0.279599746050699D+03 -.233531242988224D+03 -.480142098139300D+01 0.130953835156438D+03
 0.102255625823744D+02 -.956981163954102D+01 -.301630318667243D+01 0.197046958764441D+01
 0.236486105799881D+03 0.158835657263543D+03 0.179613971052675D+02 -.174282243593770D+03
 0.220744370077080D+03 0.137048623212255D+03 0.141138305737520D+03 0.413579388496870D+02
 0.188260816091989D+03 -.527832258480329D+02 -.151281978674722D+03 0.988424446933506D+02
0.556870827900D-04 0.000000000000D+00 0.000000000000D+00 0.958401536667D-08 0.000000000000D+00  7 1 -2 -24 -11 11 23 21 0 0.30897844D+00 0.10196227D-01 0.94135126D+05 0.94135126D+05 0.94135126D+05 0.11238824D+01  1  2  2  1  7  1        1 0.114538208810D-02 0.100000000000D+01
-.298088318967D-05 0.000000000000D+00 -.213853060659D-06 0.958401536667D-08 0.000000000000D+00  7 1 -2 -24 -11 11 23 21 2 0.30897844D+00 0.10196227D-01 0.94135126D+05 0.94135126D+05 0.94135126D+05 0.11238824D+01  1  2  3  1  7  1        1 -.774430807333D-04 0.100000000000D+01
0.349227031806D-05 0.000000000000D+00 0.000000000000D+00 0.958401536667D-08 0.000000000000D+00  7 1 -2 -24 -11 11 23 21 2 0.30897844D+00 0.10196227D-01 0.94135126D+05 0.94135126D+05 0.94135126D+05 0.11238824D+01  1  2 15  1  7  1        1 0.907288729466D-04 0.100000000000D+01
0.193233813011D-04 0.000000000000D+00 0.000000000000D+00 0.958401536667D-08 0.000000000000D+00  7 1 -2 -24 -11 11 23 21 2 0.45305488D+00 0.10196227D-01 0.15760097D+06 0.15760097D+06 0.15760097D+06 0.11058618D+01  1  2 12  1  7  1        1 0.108346084850D-03 0.100000000000D+01
-.331311485344D-04 0.000000000000D+00 0.000000000000D+00 0.958401536667D-08 0.000000000000D+00  7 1 -2 -24 -11 11 23 21 2 0.30897844D+00 0.10196227D-01 0.94135126D+05 0.94135126D+05 0.94135126D+05 0.11238824D+01  1  2  4  1  7  1        1 -.860744298746D-03 0.100000000000D+01
-.452407238336D-04 0.000000000000D+00 -.177598751254D-04 0.958401536667D-08 0.000000000000D+00  7 1 -2 -24 -11 11 23 21 2 0.45723562D+00 0.10196227D-01 0.94135126D+05 0.94135126D+05 0.94135126D+05 0.11238824D+01  1  2  5  1  7  1        1 -.256600924048D-03 0.100000000000D+01
0.496229075173D-04 0.000000000000D+00 0.164780218394D-04 0.958401536667D-08 0.000000000000D+00  7 1 -2 -24 -11 11 23 21 2 0.30897844D+00 0.10196227D-01 0.94135126D+05 0.94135126D+05 0.94135126D+05 0.11238824D+01  1  2  6  1  7  1        1 0.128919873358D-02 0.100000000000D+01
0.890609143703D-06 0.000000000000D+00 0.000000000000D+00 0.958401536667D-08 0.000000000000D+00  7 21 -2 -24 -11 11 23 -1 2 0.45305488D+00 0.10196227D-01 0.15760097D+06 0.15760097D+06 0.15760097D+06 0.11058618D+01  1  2 12  3  7  1        1 0.120316385213D-05 0.100000000000D+01
-.153197614091D-05 0.000000000000D+00 -.832834930969D-06 0.958401536667D-08 0.000000000000D+00  7 21 -2 -24 -11 11 23 -1 2 0.45723562D+00 0.10196227D-01 0.94135126D+05 0.94135126D+05 0.94135126D+05 0.11238824D+01  1  2  5  3  7  1        1 -.210314564028D-05 0.100000000000D+01
  </mgrwgt>
  </event>
  <event>
  8     66 0.29493621E-05 0.16673147E+03 0.75467711E-02 0.97491744E-01
        1 -1    0    0  501    0 0.00000000E+00 0.00000000E+00 0.10815290E+04 0.10815290E+04 0.32000000E+00 0.0000E+00 0.9000E+01
       -2 -1    0    0    0  501 0.00000000E+00 0.00000000E+00 -.82895653E+02 0.82896270E+02 0.32000000E+00 0.0000E+00 0.9000E+01
       25  2    1    2    0    0 0.64879903E+02 0.61726476E+02 0.23444132E+03 0.39081286E+03 0.29958705E+03 0.0000E+00 0.0000E+00
       23  2    3    3    0    0 0.59491728E+02 0.65259826E+02 0.26487508E+03 0.29446463E+03 0.93554784E+02 0.0000E+00 0.0000E+00
      -24  1    1    2    0    0 -.64879903E+02 -.61726476E+02 0.76419198E+03 0.77361241E+03 0.80419002E+02 0.0000E+00 0.9000E+01
      -11  1    4    4    0    0 -.15616348E+02 0.39183219E+02 0.14181695E+03 0.14795689E+03 0.51099893E-03 0.0000E+00 0.9000E+01
       11  1    4    4    0    0 0.75108077E+02 0.26076607E+02 0.12305813E+03 0.14650774E+03 0.51099893E-03 0.0000E+00 0.9000E+01
       23  1    3    3    0    0 0.53881748E+01 -.35333506E+01 -.30433762E+02 0.96348234E+02 0.91188000E+02 0.0000E+00 0.9000E+01
#aMCatNLO 1  0  0  2  2 0.30683130D+03 0.00000000D+00  -5  7  0 0.00000000D+00 0.00000000D+00 0.00000000D+00 0.00000000D+00 0.00000000D+00
  <mgrwgt>
 0.1248431132D-02    3    2    0
 0.299423505264996D+03 0.000000000000000D+00 0.000000000000000D+00 0.299423505264996D+03
 0.299423505264996D+03 0.000000000000000D+00 0.000000000000000D+00 -.299423505264996D+03
 0.229885557506578D+03 -.648799032713441D+02 -.617264758033041D+02 0.195858606990208D+03
 0.512010846840025D+02 -.156163482702732D+02 0.391832194735083D+02 0.290233707761661D+02
 0.796653566202881D+02 0.751080766921962D+02 0.260766069218818D+02 -.503551710140290D+01
 0.238095011719123D+03 0.538817484942113D+01 -.353335059208602D+01 -.219846460664971D+03
 0.000000000000000D+00 0.000000000000000D+00 0.000000000000000D+00 0.000000000000000D+00
 0.117707036608416D+04 0.000000000000000D+00 0.000000000000000D+00 0.117707036608416D+04
 0.364436815562570D+03 0.000000000000000D+00 0.000000000000000D+00 -.364436815562570D+03
 0.303852948954978D+03 -.146790754166416D+03 -.161094007316771D+03 0.195858606990208D+03
 0.471285391871419D+02 -.307066276148794D+02 0.208769292575388D+02 0.290233707761661D+02
 0.547259502973575D+02 0.544835458231310D+02 0.105661630174268D+01 -.503551710140290D+01
 0.267169363678218D+03 -.721528577250089D+02 -.975997766361360D+02 -.219846460664971D+03
 0.868630379529035D+03 0.195166693683173D+03 0.236760238393626D+03 0.812633550521591D+03
0.196111864048D-04 0.000000000000D+00 0.000000000000D+00 0.571787914880D-06 0.000000000000D+00  7 1 -2 -24 -11 11 23 21 0 0.16638912D+00 0.12753228D-01 0.27799384D+05 0.27799384D+05 0.27799384D+05 0.11704182D+01  1  2  2  2  7  2       -2 0.119980433205D-02 0.100000000000D+01
-.635434191938D-06 0.000000000000D+00 -.753121195386D-07 0.571787914880D-06 0.000000000000D+00  7 1 -2 -24 -11 11 23 21 2 0.16638912D+00 0.12753228D-01 0.27799384D+05 0.27799384D+05 0.27799384D+05 0.11704182D+01  1  2  3  2  7  2       -2 -.532548627032D-04 0.100000000000D+01
0.121564658693D-05 0.000000000000D+00 0.000000000000D+00 0.571787914880D-06 0.000000000000D+00  7 1 -2 -24 -11 11 23 21 2 0.16638912D+00 0.12753228D-01 0.27799384D+05 0.27799384D+05 0.27799384D+05 0.11704182D+01  1  2 15  2  7  2       -2 0.101881662812D-03 0.100000000000D+01
  </mgrwgt>
  </event>
  <event>
  9     66 0.29493621E-05 0.32081184E+03 0.75467711E-02 0.95549018E-01
        1 -1    0    0  502    0 0.00000000E+00 0.00000000E+00 0.30907631E+03 0.30907648E+03 0.32000000E+00 0.0000E+00 0.9000E+01
       -2 -1    0    0    0  501 0.00000000E+00 0.00000000E+00 -.26128361E+04 0.26128361E+04 0.32000000E+00 0.0000E+00 0.9000E+01
       25  2    1    2    0    0 -.89327379E+02 0.14649793E+03 -.23153643E+04 0.23409187E+04 0.29924493E+03 0.0000E+00 0.0000E+00
       23  2    3    3    0    0 -.13625006E+02 -.56724818E+02 -.79240717E+03 0.79989826E+03 0.92329649E+02 0.0000E+00 0.0000E+00
      -24  1    1    2    0    0 -.33154579E+02 -.34050457E+03 0.62357911E+01 0.35149493E+03 0.80419002E+02 0.0000E+00 0.9000E+01
      -13  1    4    4    0    0 -.51327783E+02 -.24780207E+02 -.33318452E+03 0.33802446E+03 0.10565837E+00 0.0000E+00 0.9000E+01
       13  1    4    4    0    0 0.37702777E+02 -.31944611E+02 -.45922264E+03 0.46187380E+03 0.10565837E+00 0.0000E+00 0.9000E+01
       23  1    3    3    0    0 -.75702373E+02 0.20322274E+03 -.15229571E+04 0.15410204E+04 0.91188000E+02 0.0000E+00 0.9000E+01
       21  1    1    2  502  501 0.12248196E+03 0.19400664E+03 0.53686750E+01 0.22949900E+03 0.75000000E+00 0.0000E+00 0.9000E+01
#aMCatNLO 2  0  0  1  2 0.22943497D+03 0.00000000D+00  -5  7  0 0.00000000D+00 0.00000000D+00 0.00000000D+00 0.00000000D+00 0.00000000D+00
  <mgrwgt>
 0.5269088202D-03    2    2    0
 0.682710826688693D+03 0.000000000000000D+00 0.000000000000000D+00 0.682710826688693D+03
 0.682710826688693D+03 0.000000000000000D+00 0.000000000000000D+00 -.682710826688693D+03
 0.652287876486160D+03 0.268041086931795D+02 -.245532344932735D+03 0.598337417520792D+03
 0.949461089063435D+02 -.425718458418014D+02 -.109109503488530D+02 -.841626562114220D+02
 0.132978501013253D+03 0.495173146325342D+02 -.132310388047221D+02 -.122703940016050D+03
 0.485209166971630D+03 -.337495774839123D+02 0.269674334086310D+03 -.391470821293320D+03
 0.000000000000000D+00 0.000000000000000D+00 0.000000000000000D+00 0.000000000000000D+00
 0.111649465411867D+04 0.000000000000000D+00 0.000000000000000D+00 0.111649465411867D+04
 0.723304266517317D+03 0.000000000000000D+00 0.000000000000000D+00 -.723304266517317D+03
 0.693914595905386D+03 -.331545789691656D+02 -.340504565526062D+03 0.598337417520792D+03
 0.101646269727547D+03 -.513278994585849D+02 -.247801974595167D+02 -.841626562114220D+02
 0.132280852200744D+03 0.377028936705678D+02 -.319446203977856D+02 -.122703940016050D+03
 0.456722003190234D+03 -.757023728393022D+02 0.203222743994203D+03 -.391470821293320D+03
 0.455235199612071D+03 0.122481957596485D+03 0.194006639389161D+03 0.393190387601349D+03
-.185442451099D-02 0.000000000000D+00 0.000000000000D+00 0.624617167252D-05 0.000000000000D+00  7 1 -2 -24 -13 13 23 21 2 0.47949335D-01 0.37941493D+00 0.21277179D+06 0.21277179D+06 0.21277179D+06 0.10957666D+01  1  2 13  1  7  1        1 -.176616900371D-03 0.100000000000D+01
0.106094706997D-01 0.000000000000D+00 0.000000000000D+00 0.624617167252D-05 0.829729176827D-09  7 1 -2 -24 -13 13 23 21 2 0.47550196D-01 0.40197463D+00 0.21277179D+06 0.21277179D+06 0.21277179D+06 0.10957666D+01  1  2  1  1  7  1        1 0.703525720547D-03 0.100000000000D+01
  </mgrwgt>
  </event>
  <event>
  8     66 0.29493621E-05 0.19001407E+03 0.75467711E-02 0.94065728E-01
        1 -1    0    0  501    0 0.00000000E+00 0.00000000E+00 0.12152529E+03 0.12152571E+03 0.32000000E+00 0.0000E+00 0.9000E+01
       -2 -1    0    0    0  501 0.00000000E+00 0.00000000E+00 -.21248826E+04 0.21248826E+04 0.32000000E+00 0.0000E+00 0.9000E+01
       25  2    1    2    0    0 -.10842040E+02 0.74980343E+02 -.79064951E+02 0.31894682E+03 0.29956002E+03 0.0000E+00 0.0000E+00
       23  2    3    3    0    0 -.52129498E+02 -.69859896E+02 -.63911254E+02 0.14223169E+03 0.92451697E+02 0.0000E+00 0.0000E+00
      -24  1    1    2    0    0 0.10842040E+02 -.74980343E+02 -.19242924E+04 0.19274615E+04 0.80419002E+02 0.0000E+00 0.9000E+01
      -13  1    4    4    0    0 -.55008250E+02 -.53037850E+02 -.85527282E+02 0.11469023E+03 0.10565837E+00 0.0000E+00 0.9000E+01
       13  1    4    4    0    0 0.28787515E+01 -.16822046E+02 0.21616028E+02 0.27541465E+02 0.10565837E+00 0.0000E+00 0.9000E+01
       23  1    3    3    0    0 0.41287459E+02 0.14484024E+03 -.15153697E+02 0.17671512E+03 0.91188000E+02 0.0000E+00 0.9000E+01
#aMCatNLO 1  0  0  2  2 0.46731634D+03 0.00000000D+00  -5  7  0 0.00000000D+00 0.00000000D+00 0.00000000D+00 0.00000000D+00 0.00000000D+00
  <mgrwgt>
 0.1472921913D-02    6    2    0
 0.508160873622129D+03 0.000000000000000D+00 0.000000000000000D+00 0.508160873622129D+03
 0.508160873622129D+03 0.000000000000000D+00 0.000000000000000D+00 -.508160873622129D+03
 0.467195014317423D+03 0.108420395294928D+02 -.749803430054810D+02 -.453943128365557D+03
 0.849134172799928D+02 -.550083253810670D+02 -.530378977536413D+02 0.370317968077587D+02
 0.103484973511810D+03 0.287882701833302D+01 -.168219986322712D+02 0.102067979600629D+03
 0.360728342135032D+03 0.412874588332412D+02 0.144840239391393D+03 0.314843351957169D+03
 0.000000000000000D+00 0.000000000000000D+00 -.000000000000000D+00 -.000000000000000D+00
 0.751080454767296D+03 0.000000000000000D+00 0.000000000000000D+00 0.751080454767296D+03
 0.843996243416757D+03 0.000000000000000D+00 0.000000000000000D+00 -.843996243416757D+03
 0.481975031530661D+03 -.945264522703076D+02 0.104082184332827D+03 -.453943128365557D+03
 0.852690617323548D+02 -.739004840861598D+02 -.209326865389094D+02 0.370317968077587D+02
 0.106562820343281D+03 -.204388275380863D+02 0.228038713517762D+02 0.102067979600629D+03
 0.444805823729059D+03 -.481358436841397D+02 0.296805616120176D+03 0.314843351957169D+03
 0.476463960848697D+03 0.237001607578693D+03 -.402758985265869D+03 -.929157886494613D+02
0.194563287716D-02 0.000000000000D+00 0.000000000000D+00 0.673380461891D-05 0.000000000000D+00  7 1 -2 -24 -13 13 23 21 0 0.18696233D-01 0.32690505D+00 0.36105346D+05 0.36105346D+05 0.36105346D+05 0.11599444D+01  1  2  2  2  7  2       -2 0.132319236680D-02 0.100000000000D+01
0.190823681236D-04 0.000000000000D+00 -.747174254519D-05 0.673380461891D-05 0.000000000000D+00  7 1 -2 -24 -13 13 23 21 2 0.18696233D-01 0.32690505D+00 0.36105346D+05 0.36105346D+05 0.36105346D+05 0.11599444D+01  1  2  3  2  7  2       -2 0.174609835317D-04 0.100000000000D+01
0.119355375624D-03 0.000000000000D+00 0.000000000000D+00 0.673380461891D-05 0.000000000000D+00  7 1 -2 -24 -13 13 23 21 2 0.18696233D-01 0.32690505D+00 0.36105346D+05 0.36105346D+05 0.36105346D+05 0.11599444D+01  1  2 15  2  7  2       -2 0.109214025990D-03 0.100000000000D+01
0.324695072758D-03 0.000000000000D+00 -.448027227516D-03 0.673380461891D-05 0.000000000000D+00  7 1 -2 -24 -13 13 23 21 2 0.18696233D-01 0.60502318D+00 0.36105346D+05 0.36105346D+05 0.36105346D+05 0.11599444D+01  1  2  5  2  7  2       -2 0.156704217452D-05 0.100000000000D+01
0.203986842675D-04 0.000000000000D+00 0.374748933637D-03 0.673380461891D-05 0.000000000000D+00  7 1 -2 -24 -13 13 23 21 2 0.18696233D-01 0.32690505D+00 0.36105346D+05 0.36105346D+05 0.36105346D+05 0.11599444D+01  1  2  6  2  7  2       -2 0.186654553437D-04 0.100000000000D+01
0.465772001567D-04 0.000000000000D+00 -.300838965354D-04 0.673380461891D-05 0.000000000000D+00  7 1 21 -24 -13 13 23 2 2 0.18696233D-01 0.60502318D+00 0.36105346D+05 0.36105346D+05 0.36105346D+05 0.11599444D+01  1  2  5  4  7  2       -2 0.282203946188D-05 0.100000000000D+01
  </mgrwgt>
  </event>
  <event>
  8     66 0.29493621E-05 0.93280122E+03 0.75467711E-02 0.85466959E-01
        1 -1    0    0  501    0 0.00000000E+00 0.00000000E+00 0.47511199E+04 0.47511200E+04 0.32000000E+00 0.0000E+00 0.9000E+01
       -2 -1    0    0    0  501 0.00000000E+00 0.00000000E+00 -.19877457E+03 0.19877483E+03 0.32000000E+00 0.0000E+00 0.9000E+01
       25  2    1    2    0    0 0.58413031E+03 0.71100103E+03 0.17578247E+04 0.20066749E+04 0.30010914E+03 0.0000E+00 0.0000E+00
       23  2    3    3    0    0 0.30473217E+03 0.45776623E+03 0.12405552E+04 0.13600883E+04 0.91930964E+02 0.0000E+00 0.0000E+00
      -24  1    1    2    0    0 -.58413031E+03 -.71100103E+03 0.27945206E+04 0.29432199E+04 0.80419002E+02 0.0000E+00 0.9000E+01
      -13  1    4    4    0    0 0.95497265E+02 0.20261155E+03 0.57873891E+03 0.62057224E+03 0.10565837E+00 0.0000E+00 0.9000E+01
       13  1    4    4    0    0 0.20923491E+03 0.25515468E+03 0.66181626E+03 0.73951601E+03 0.10565837E+00 0.0000E+00 0.9000E+01
       23  1    3    3    0    0 0.27939814E+03 0.25323481E+03 0.51726956E+03 0.64658660E+03 0.91188000E+02 0.0000E+00 0.9000E+01
#aMCatNLO 1  0  0  2  2 0.51277253D+03 0.00000000D+00  -5  7  0 0.00000000D+00 0.00000000D+00 0.00000000D+00 0.00000000D+00 0.00000000D+00
  <mgrwgt>
 0.1145628056D-03    6    2    0
 0.971803728221182D+03 0.000000000000000D+00 0.000000000000000D+00 0.971803728221182D+03
 0.971803728221182D+03 0.000000000000000D+00 0.000000000000000D+00 -.971803728221182D+03
 0.950297769645578D+03 -.584130314703955D+03 -.711001031640765D+03 0.223311315182676D+03
 0.224915586360966D+03 0.954971147560811D+02 0.202611478580972D+03 0.203938914529232D+02
 0.333251720791468D+03 0.209235059724396D+03 0.255154746444557D+03 -.466203234589455D+02
 0.435142379644352D+03 0.279398140223478D+03 0.253234806615236D+03 -.197084883176654D+03
 0.000000000000000D+00 -.000000000000000D+00 0.000000000000000D+00 -.000000000000000D+00
 0.122573522307960D+04 0.000000000000000D+00 0.000000000000000D+00 0.122573522307960D+04
 0.130292554048010D+04 0.000000000000000D+00 0.000000000000000D+00 -.130292554048010D+04
 0.977542891753127D+03 -.387538529434413D+03 -.865487627859516D+03 0.223311315182676D+03
 0.219393381328161D+03 0.140805575625404D+03 0.167006990377076D+03 0.203938914529232D+02
 0.346465006135424D+03 0.278549255394062D+03 0.200685969206660D+03 -.466203234589455D+02
 0.466709567461968D+03 0.371364601913216D+03 0.180965328960052D+03 -.197084883176654D+03
 0.518549916881018D+03 -.403180903498269D+03 0.316829339315727D+03 -.771903174005007D+02
0.978307898677D-02 0.000000000000D+00 0.000000000000D+00 0.314029088363D-04 0.000000000000D+00  7 1 -2 -24 -13 13 23 21 0 0.73094155D+00 0.30580724D-01 0.87011811D+06 0.87011811D+06 0.87011811D+06 0.10519099D+01  1  2  2  2  7  2       -2 0.136179820562D-03 0.100000000000D+01
-.542395618531D-03 0.000000000000D+00 -.375695992531D-04 0.314029088363D-04 0.000000000000D+00  7 1 -2 -24 -13 13 23 21 2 0.73094155D+00 0.30580724D-01 0.87011811D+06 0.87011811D+06 0.87011811D+06 0.10519099D+01  1  2  3  2  7  2       -2 -.835430699698D-05 0.100000000000D+01
0.621847614979D-03 0.000000000000D+00 0.000000000000D+00 0.314029088363D-04 0.000000000000D+00  7 1 -2 -24 -13 13 23 21 2 0.73094155D+00 0.30580724D-01 0.87011811D+06 0.87011811D+06 0.87011811D+06 0.10519099D+01  1  2 15  2  7  2       -2 0.957807493899D-05 0.100000000000D+01
-.190729656925D-02 0.000000000000D+00 0.000000000000D+00 0.314029088363D-04 0.000000000000D+00  7 1 -2 -24 -13 13 23 21 2 0.73094155D+00 0.30580724D-01 0.87011811D+06 0.87011811D+06 0.87011811D+06 0.10519099D+01  1  2  4  2  7  2       -2 -.293773410577D-04 0.100000000000D+01
0.476675372807D-02 0.000000000000D+00 -.382243535373D-02 0.314029088363D-04 0.000000000000D+00  7 1 -2 -24 -13 13 23 21 2 0.73094155D+00 0.13967513D+00 0.87011811D+06 0.87011811D+06 0.87011811D+06 0.10519099D+01  1  2  5  2  7  2       -2 0.265812972770D-05 0.100000000000D+01
0.832800551702D-03 0.000000000000D+00 -.702971707213D-03 0.314029088363D-04 0.000000000000D+00  7 1 21 -24 -13 13 23 2 2 0.73094155D+00 0.13967513D+00 0.87011811D+06 0.87011811D+06 0.87011811D+06 0.10519099D+01  1  2  5  4  7  2       -2 0.387842839355D-05 0.100000000000D+01
  </mgrwgt>
  </event>
  <event>
  8     66 0.29493621E-05 0.25310355E+03 0.75467711E-02 0.92564770E-01
        1 -1    0    0  501    0 0.00000000E+00 0.00000000E+00 0.86152309E+03 0.86152315E+03 0.32000000E+00 0.0000E+00 0.9000E+01
       -2 -1    0    0    0  501 0.00000000E+00 0.00000000E+00 -.99232913E+02 0.99233429E+02 0.32000000E+00 0.0000E+00 0.9000E+01
       25  2    1    2    0    0 0.13287410E+03 -.10514568E+03 0.28228736E+03 0.44541100E+03 0.29998945E+03 0.0000E+00 0.0000E+00
       23  2    3    3    0    0 0.17214466E+03 -.13053369E+03 0.23886460E+03 0.33411179E+03 0.88890735E+02 0.0000E+00 0.0000E+00
      -24  1    1    2    0    0 -.13287410E+03 0.10514568E+03 0.48000282E+03 0.51534558E+03 0.80419002E+02 0.0000E+00 0.9000E+01
      -11  1    4    4    0    0 0.87618350E+02 -.71138920E+02 0.60665664E+02 0.12813292E+03 0.51099893E-03 0.0000E+00 0.9000E+01
       11  1    4    4    0    0 0.84526307E+02 -.59394770E+02 0.17819894E+03 0.20597887E+03 0.51099893E-03 0.0000E+00 0.9000E+01
       23  1    3    3    0    0 -.39270556E+02 0.25388008E+02 0.43422755E+02 0.11129921E+03 0.91188000E+02 0.0000E+00 0.9000E+01
#aMCatNLO 1  0  0  2  1 0.50627656D+03 0.00000000D+00  -5  7  0 0.00000000D+00 0.00000000D+00 0.00000000D+00 0.00000000D+00 0.00000000D+00
  <mgrwgt>
 0.9952828967D-03    5    2    0
 0.292389676116091D+03 0.000000000000000D+00 0.000000000000000D+00 0.292389676116091D+03
 0.292389676116091D+03 0.000000000000000D+00 0.000000000000000D+00 -.292389676116091D+03
 0.220972609982315D+03 -.132874101244891D+03 0.105145680918727D+03 0.116835514337574D+03
 0.131433679184969D+03 0.876183504710423D+02 -.711389197356814D+02 -.673579303695657D+02
 0.106119100440911D+03 0.845263071266098D+02 -.593947696311707D+02 0.242657829543234D+02
 0.126253962623987D+03 -.392705563527612D+02 0.253880084481249D+02 -.737433669223315D+02
 0.000000000000000D+00 0.000000000000000D+00 -.000000000000000D+00 -.000000000000000D+00
 0.554446752593179D+03 0.000000000000000D+00 0.000000000000000D+00 0.554446752593179D+03
 0.768841710155638D+03 0.000000000000000D+00 0.000000000000000D+00 -.768841710155638D+03
 0.438267645666665D+03 -.339613322921846D+03 0.237957069168554D+03 0.116835514337574D+03
 0.767374190519932D+02 0.223354275057584D+02 -.292005030303410D+02 -.673579303695657D+02
 0.510015781748309D+02 0.352529101699936D+02 -.277410360023453D+02 0.242657829543234D+02
 0.207480811368999D+03 -.143930529451525D+03 0.926226444726146D+02 -.737433669223315D+02
 0.549801008486328D+03 0.425955514697618D+03 -.273638174608483D+03 -.214394957562459D+03
0.130995709507D-04 0.000000000000D+00 0.000000000000D+00 0.654272954080D-06 0.000000000000D+00  7 1 -2 -24 -11 11 23 21 0 0.13254206D+00 0.15266646D-01 0.64061407D+05 0.64061407D+05 0.64061407D+05 0.11379472D+01  1  2  2  2  7  2       -2 0.881033366783D-03 0.100000000000D+01
-.709332191776D-06 0.000000000000D+00 -.503058016470D-07 0.654272954080D-06 0.000000000000D+00  7 1 -2 -24 -11 11 23 21 2 0.13254206D+00 0.15266646D-01 0.64061407D+05 0.64061407D+05 0.64061407D+05 0.11379472D+01  1  2  3  2  7  2       -2 -.617773410351D-04 0.100000000000D+01
0.840407742081D-06 0.000000000000D+00 0.000000000000D+00 0.654272954080D-06 0.000000000000D+00  7 1 -2 -24 -11 11 23 21 2 0.13254206D+00 0.15266646D-01 0.64061407D+05 0.64061407D+05 0.64061407D+05 0.11379472D+01  1  2 15  2  7  2       -2 0.731930064546D-04 0.100000000000D+01
0.761740631087D-05 0.000000000000D+00 -.543943591557D-05 0.654272954080D-06 0.000000000000D+00  7 1 -2 -24 -11 11 23 21 2 0.13254206D+00 0.74780249D-01 0.64061407D+05 0.64061407D+05 0.64061407D+05 0.11379472D+01  1  2  5  2  7  2       -2 0.368395783245D-04 0.100000000000D+01
0.133998307842D-05 0.000000000000D+00 -.105200275628D-05 0.654272954080D-06 0.000000000000D+00  7 1 21 -24 -11 11 23 2 2 0.13254206D+00 0.74780249D-01 0.64061407D+05 0.64061407D+05 0.64061407D+05 0.11379472D+01  1  2  5  4  7  2       -2 0.659942862151D-04 0.100000000000D+01
  </mgrwgt>
  </event>
  <event>
  8     66 0.29493621E-05 0.23729597E+03 0.75467711E-02 0.94856314E-01
        1 -1    0    0  501    0 0.00000000E+00 0.00000000E+00 0.46396242E+03 0.46396253E+03 0.32000000E+00 0.0000E+00 0.9000E+01
       -2 -1    0    0    0  501 0.00000000E+00 0.00000000E+00 -.49497573E+03 0.49497583E+03 0.32000000E+00 0.0000E+00 0.9000E+01
       25  2    1    2    0    0 0.26466730E+01 0.34552346E+03 -.27004536E+03 0.53115687E+03 0.29968259E+03 0.0000E+00 0.0000E+00
       23  2    3    3    0    0 0.80049157E+02 0.19480936E+03 -.41107541E+02 0.23210225E+03 0.88448136E+02 0.0000E+00 0.0000E+00
      -24  1    1    2    0    0 -.26466730E+01 -.34552346E+03 0.23903206E+03 0.42778149E+03 0.80419002E+02 0.0000E+00 0.9000E+01
      -13  1    4    4    0    0 0.22024958E+02 0.31939008E+01 -.21486229E+02 0.30934915E+02 0.10565837E+00 0.0000E+00 0.9000E+01
       13  1    4    4    0    0 0.58024199E+02 0.19161545E+03 -.19621312E+02 0.20116734E+03 0.10565837E+00 0.0000E+00 0.9000E+01
       23  1    3    3    0    0 -.77402484E+02 0.15071410E+03 -.22893782E+03 0.29905462E+03 0.91188000E+02 0.0000E+00 0.9000E+01
#aMCatNLO 1  0  0  2  1 0.18903780D+03 0.00000000D+00  -5  7  0 0.00000000D+00 0.00000000D+00 0.00000000D+00 0.00000000D+00 0.00000000D+00
  <mgrwgt>
 0.1334904647D-02    9    2    0
 0.479218362155444D+03 0.000000000000000D+00 0.000000000000000D+00 0.479218362155444D+03
 0.479218362155444D+03 0.000000000000000D+00 0.000000000000000D+00 -.479218362155444D+03
 0.435740041991617D+03 -.264667299527004D+01 -.345523459039851D+03 0.252999412283266D+03
 0.302556070680219D+02 0.220249064048624D+02 0.319363193887595D+01 -.204964868197107D+02
 0.200637957506758D+03 0.580242502758760D+02 0.191615723340442D+03 -.131221545915741D+02
 0.291803117744490D+03 -.774024836854684D+02 0.150714103760533D+03 -.219380770871982D+03
 0.000000000000000D+00 0.000000000000000D+00 0.000000000000000D+00 -.000000000000000D+00
 0.532014919255817D+03 0.000000000000000D+00 0.000000000000000D+00 0.532014919255817D+03
 0.693523042689732D+03 0.000000000000000D+00 0.000000000000000D+00 -.693523042689732D+03
 0.508597242749573D+03 -.332499859784632D+02 -.432538640117680D+03 0.252999412283266D+03
 0.288029922700982D+02 0.201109834568885D+02 -.224827403968323D+01 -.204964868197107D+02
 0.165053587059258D+03 0.461732167791649D+02 0.157919377253923D+03 -.131221545915741D+02
 0.274447526999263D+03 -.957530730226005D+02 0.985374046256276D+02 -.219380770871982D+03
 0.248636612867357D+03 0.627188587650102D+02 0.178330132277812D+03 -.161508123433915D+03
0.142722818493D-03 0.000000000000D+00 0.000000000000D+00 0.180246709894D-05 0.000000000000D+00  7 1 -2 -24 -13 13 23 21 0 0.71378851D-01 0.76150128D-01 0.14808678D+06 0.14808678D+06 0.14808678D+06 0.11079921D+01  1  2  2  2  7  2       -2 0.123417059320D-02 0.100000000000D+01
-.746507053434D-05 0.000000000000D+00 -.548093202795D-06 0.180246709894D-05 0.000000000000D+00  7 1 -2 -24 -13 13 23 21 2 0.71378851D-01 0.76150128D-01 0.14808678D+06 0.14808678D+06 0.14808678D+06 0.11079921D+01  1  2  3  2  7  2       -2 -.792481316970D-04 0.100000000000D+01
0.908857821955D-05 0.000000000000D+00 0.000000000000D+00 0.180246709894D-05 0.000000000000D+00  7 1 -2 -24 -13 13 23 21 2 0.71378851D-01 0.76150128D-01 0.14808678D+06 0.14808678D+06 0.14808678D+06 0.11079921D+01  1  2 15  2  7  2       -2 0.964830593855D-04 0.100000000000D+01
0.811304802646D-04 0.000000000000D+00 0.000000000000D+00 0.180246709894D-05 0.000000000000D+00  7 1 -2 -24 -13 13 23 21 2 0.71378851D-01 0.11291758D+00 0.24005858D+06 0.24005858D+06 0.24005858D+06 0.10917873D+01  1  2 12  2  7  2       -2 0.326213808082D-03 0.100000000000D+01
-.125250248493D-03 0.000000000000D+00 0.000000000000D+00 0.180246709894D-05 0.000000000000D+00  7 1 -2 -24 -13 13 23 21 2 0.71378851D-01 0.76150128D-01 0.14808678D+06 0.14808678D+06 0.14808678D+06 0.11079921D+01  1  2  4  2  7  2       -2 -.132963890187D-02 0.100000000000D+01
-.145131996774D-03 0.000000000000D+00 -.535340947392D-04 0.180246709894D-05 0.000000000000D+00  7 1 -2 -24 -13 13 23 21 2 0.71378851D-01 0.11821324D+00 0.14808678D+06 0.14808678D+06 0.14808678D+06 0.11079921D+01  1  2  5  2  7  2       -2 -.545435155603D-03 0.100000000000D+01
0.157943936800D-03 0.000000000000D+00 0.487438682503D-04 0.180246709894D-05 0.000000000000D+00  7 1 -2 -24 -13 13 23 21 2 0.71378851D-01 0.76150128D-01 0.14808678D+06 0.14808678D+06 0.14808678D+06 0.11079921D+01  1  2  6  2  7  2       -2 0.167671046733D-02 0.100000000000D+01
0.381890947927D-05 0.000000000000D+00 0.000000000000D+00 0.180246709894D-05 0.000000000000D+00  7 1 21 -24 -13 13 23 2 2 0.71378851D-01 0.11291758D+00 0.24005858D+06 0.24005858D+06 0.24005858D+06 0.10917873D+01  1  2 12  4  7  2       -2 0.139352189230D-03 0.100000000000D+01
-.534244643504D-05 0.000000000000D+00 -.273406836843D-05 0.180246709894D-05 0.000000000000D+00  7 1 21 -24 -13 13 23 2 2 0.71378851D-01 0.11821324D+00 0.14808678D+06 0.14808678D+06 0.14808678D+06 0.11079921D+01  1  2  5  4  7  2       -2 -.183703280796D-03 0.100000000000D+01
  </mgrwgt>
  </event>
  <event>
  8     66 0.29493621E-05 0.16508787E+03 0.75467711E-02 0.10634897E+00
        1 -1    0    0  501    0 0.00000000E+00 0.00000000E+00 0.19605407E+03 0.19605433E+03 0.32000000E+00 0.0000E+00 0.9000E+01
       -2 -1    0    0    0  501 0.00000000E+00 0.00000000E+00 -.23618785E+03 0.23618807E+03 0.32000000E+00 0.0000E+00 0.9000E+01
       25  2    1    2    0    0 0.18978844E+02 0.82003377E+02 -.40342332E+02 0.31582930E+03 0.30172155E+03 0.0000E+00 0.0000E+00
       23  2    3    3    0    0 -.86170392E+01 0.98440318E+02 0.83964417E+02 0.15835192E+03 0.90887611E+02 0.0000E+00 0.0000E+00
      -24  1    1    2    0    0 -.18978844E+02 -.82003377E+02 0.20854900E+00 0.11641310E+03 0.80419002E+02 0.0000E+00 0.9000E+01
      -11  1    4    4    0    0 0.74137156E+01 0.10063074E+03 0.95143405E+02 0.13868589E+03 0.51099893E-03 0.0000E+00 0.9000E+01
       11  1    4    4    0    0 -.16030755E+02 -.21904187E+01 -.11178988E+02 0.19666032E+02 0.51099893E-03 0.0000E+00 0.9000E+01
       23  1    3    3    0    0 0.27595883E+02 -.16436941E+02 -.12430675E+03 0.15747738E+03 0.91188000E+02 0.0000E+00 0.9000E+01
#aMCatNLO 1  0  0  1  2 0.59322108D+02 0.00000000D+00  -5  7  0 0.00000000D+00 0.00000000D+00 0.00000000D+00 0.00000000D+00 0.00000000D+00
  <mgrwgt>
 0.1900993499D-02    3    2    0
 0.215187575739008D+03 0.000000000000000D+00 0.000000000000000D+00 0.215187575739008D+03
 0.215187575739008D+03 0.000000000000000D+00 0.000000000000000D+00 -.215187575739008D+03
 0.116937624099705D+03 -.189788440297803D+02 -.820033779275491D+02 0.110653270840986D+02
 0.148160007977560D+03 0.741371582664127D+01 0.100630736495254D+03 0.108489076196525D+03
 0.187088813811190D+02 -.160307547414502D+02 -.219041858412746D+01 -.939357287609785D+01
 0.146568638019632D+03 0.275958829445892D+02 -.164369399835772D+02 -.110160830404526D+03
 0.000000000000000D+00 -.000000000000000D+00 -.000000000000000D+00 -.000000000000000D+00
 0.219631810021342D+03 0.000000000000000D+00 0.000000000000000D+00 0.219631810021342D+03
 0.582329776885536D+03 0.000000000000000D+00 0.000000000000000D+00 -.582329776885536D+03
 0.108097027410568D+03 -.825255500145461D+01 -.709027873436611D+02 0.110653270840986D+02
 0.160245781670773D+03 0.221138947349816D+02 0.115843888699196D+03 0.108489076196525D+03
 0.171332140808645D+02 -.143223392919809D+02 -.422386751154621D+00 -.939357287609785D+01
 0.148968315627189D+03 0.416826680778644D+02 -.185858637080882D+01 -.110160830404526D+03
 0.367517248117484D+03 -.412216685194105D+02 -.426601282335714D+02 -.362697966864193D+03
0.158062010434D-04 0.000000000000D+00 0.000000000000D+00 0.113215383305D-06 0.000000000000D+00  7 1 -2 -24 -11 11 23 21 0 0.30162201D-01 0.36336629D-01 0.27254006D+05 0.27254006D+05 0.27254006D+05 0.11712239D+01  1  2  2  1  7  1        1 0.186306743244D-02 0.100000000000D+01
-.803127029014D-06 0.000000000000D+00 -.606999738751D-07 0.113215383305D-06 0.000000000000D+00  7 1 -2 -24 -11 11 23 21 2 0.30162201D-01 0.36336629D-01 0.27254006D+05 0.27254006D+05 0.27254006D+05 0.11712239D+01  1  2  3  1  7  1        1 -.129856949253D-03 0.100000000000D+01
0.103768859192D-05 0.000000000000D+00 0.000000000000D+00 0.113215383305D-06 0.000000000000D+00  7 1 -2 -24 -11 11 23 21 2 0.30162201D-01 0.36336629D-01 0.27254006D+05 0.27254006D+05 0.27254006D+05 0.11712239D+01  1  2 15  1  7  1        1 0.167783015579D-03 0.100000000000D+01
  </mgrwgt>
  </event>
  <event>
  9     66 0.29493621E-05 0.18408955E+03 0.75467711E-02 0.10299640E+00
        1 -1    0    0  501    0 0.00000000E+00 0.00000000E+00 0.18720341E+04 0.18720341E+04 0.32000000E+00 0.0000E+00 0.9000E+01
       -2 -1    0    0    0  502 0.00000000E+00 0.00000000E+00 -.70450190E+02 0.70450917E+02 0.32000000E+00 0.0000E+00 0.9000E+01
       25  2    1    2    0    0 0.27993525E+02 0.17421444E+03 0.46180833E+03 0.57806906E+03 0.29960406E+03 0.0000E+00 0.0000E+00
       23  2    3    3    0    0 -.36827672E+02 0.31943722E+02 0.34910728E+03 0.36485667E+03 0.94169093E+02 0.0000E+00 0.0000E+00
      -24  1    1    2    0    0 -.20058600E+02 -.50377937E+02 0.95984983E+03 0.96473789E+03 0.80419002E+02 0.0000E+00 0.9000E+01
      -13  1    4    4    0    0 0.33955647E+01 0.58001474E+02 0.18846393E+03 0.19721654E+03 0.10565837E+00 0.0000E+00 0.9000E+01
       13  1    4    4    0    0 -.40223237E+02 -.26057751E+02 0.16064335E+03 0.16764013E+03 0.10565837E+00 0.0000E+00 0.9000E+01
       23  1    3    3    0    0 0.64821197E+02 0.14227072E+03 0.11270106E+03 0.21321239E+03 0.91188000E+02 0.0000E+00 0.9000E+01
       21  1    1    2  501  502 -.79349248E+01 -.12383650E+03 0.37992570E+03 0.39967805E+03 0.75000000E+00 0.0000E+00 0.9000E+01
#aMCatNLO 2  0  0  2  2 0.12409046D+03 0.00000000D+00  -5  7  0 0.00000000D+00 0.00000000D+00 0.00000000D+00 0.00000000D+00 0.00000000D+00
  <mgrwgt>
 0.1689339817D-03    1    2    0
 0.293147959431128D+03 0.000000000000000D+00 0.000000000000000D+00 0.293147959431128D+03
 0.293147959431128D+03 0.000000000000000D+00 0.000000000000000D+00 -.293147959431128D+03
 0.222112691355209D+03 -.229280709882966D+02 -.951603672289338D+02 0.182443524895497D+03
 0.496781838569588D+02 0.265732572942447D+01 0.464794273664370D+02 0.173356108338198D+02
 0.576543273889584D+02 -.409470698523109D+02 -.373535226452194D+02 0.158768159016931D+02
 0.256850716261129D+03 0.612178151111830D+02 0.860344625077162D+02 -.215655951631010D+03
 0.000000000000000D+00 -.000000000000000D+00 -.000000000000000D+00 0.000000000000000D+00
 0.378441593470107D+03 0.000000000000000D+00 0.000000000000000D+00 0.378441593470107D+03
 0.348495201474378D+03 0.000000000000000D+00 0.000000000000000D+00 -.348495201474378D+03
 0.206623182926023D+03 -.200586002939851D+02 -.503779370961388D+02 0.182443524895497D+03
 0.606319716898575D+02 0.339561654578592D+01 0.580015721881055D+02 0.173356108338198D+02
 0.504876037992742D+02 -.402232906656703D+02 -.260578537535468D+02 0.158768159016931D+02
 0.281541270116977D+03 0.648211991983068D+02 0.142270721147036D+03 -.215655951631010D+03
 0.127652766412353D+03 -.793492478443732D+01 -.123836502485456D+03 0.299463919957292D+02
0.562478640472D-05 0.000000000000D+00 0.000000000000D+00 0.394852596012D-06 0.184624162018D-09  7 1 -2 -24 -13 13 23 21 2 0.28800442D+00 0.10838516D-01 0.64541799D+05 0.64541799D+05 0.64541799D+05 0.11376691D+01  1  2  1  2  7  2       -2 0.168933981706D-03 0.100000000000D+01
  </mgrwgt>
  </event>
  <event>
  8     66 0.29493621E-05 0.25262420E+03 0.75467711E-02 0.97309942E-01
        1 -1    0    0  501    0 0.00000000E+00 0.00000000E+00 0.21585170E+03 0.21585194E+03 0.32000000E+00 0.0000E+00 0.9000E+01
       -2 -1    0    0    0  501 0.00000000E+00 0.00000000E+00 -.57112184E+03 0.57112193E+03 0.32000000E+00 0.0000E+00 0.9000E+01
       25  2    1    2    0    0 -.99493727E+02 0.19460053E+03 -.10741064E+02 0.37111828E+03 0.29974162E+03 0.0000E+00 0.0000E+00
       23  2    3    3    0    0 -.73073515E+02 0.67068313E+02 0.10763045E+03 0.17290234E+03 0.92048949E+02 0.0000E+00 0.0000E+00
      -24  1    1    2    0    0 0.99493727E+02 -.19460053E+03 -.34452908E+03 0.41585559E+03 0.80419002E+02 0.0000E+00 0.9000E+01
      -13  1    4    4    0    0 0.55579807E+00 -.81190119E+01 -.11410134E+02 0.14015334E+02 0.10565837E+00 0.0000E+00 0.9000E+01
       13  1    4    4    0    0 -.73629313E+02 0.75187325E+02 0.11904058E+03 0.15888701E+03 0.10565837E+00 0.0000E+00 0.9000E+01
       23  1    3    3    0    0 -.26420211E+02 0.12753221E+03 -.11837151E+03 0.19821594E+03 0.91188000E+02 0.0000E+00 0.9000E+01
#aMCatNLO 1  0  0  1  1 0.23256274D+03 0.00000000D+00  -5  7  0 0.00000000D+00 0.00000000D+00 0.00000000D+00 0.00000000D+00 0.00000000D+00
  <mgrwgt>
 0.1508806172D-02    3    2    0
 0.351109311448375D+03 0.000000000000000D+00 0.000000000000000D+00 0.351109311448375D+03
 0.351109311448375D+03 0.000000000000000D+00 0.000000000000000D+00 -.351109311448375D+03
 0.291741885318095D+03 0.994937266200672D+02 -.194600527511602D+03 -.175720644063363D+03
 0.993395810354542D+01 0.555895779372451D+00 -.811912161243438D+01 -.569687350464904D+01
 0.238290030378435D+03 -.736294110637998D+02 0.751874344964159D+02 0.213793587597946D+03
 0.162252749096675D+03 -.264202113356398D+02 0.127532214627621D+03 -.323760700299333D+02
 0.000000000000000D+00 0.000000000000000D+00 -.000000000000000D+00 -.000000000000000D+00
 0.397607202797333D+03 0.000000000000000D+00 0.000000000000000D+00 0.397607202797333D+03
 0.857232607955724D+03 0.000000000000000D+00 0.000000000000000D+00 -.857232607955724D+03
 0.239145487424396D+03 0.371773044359136D+02 -.135880283654096D+03 -.175720644063363D+03
 0.848654262232682D+01 -.160633251802907D+01 -.608167195712819D+01 -.569687350464904D+01
 0.285842127337637D+03 -.135152895135004D+03 0.133160499396525D+03 0.213793587597946D+03
 0.206253103425388D+03 -.696760269043312D+02 0.168291808157282D+03 -.323760700299333D+02
 0.515112549943310D+03 0.169257950121451D+03 -.159490351942583D+03 -.459625405158391D+03
0.842281159967D-04 0.000000000000D+00 0.000000000000D+00 0.443815307678D-05 0.000000000000D+00  7 1 -2 -24 -13 13 23 21 0 0.33207979D-01 0.87864924D-01 0.63818987D+05 0.63818987D+05 0.63818987D+05 0.11380885D+01  1  2  2  1  7  1        1 0.147842964786D-02 0.100000000000D+01
-.406278529719D-05 0.000000000000D+00 -.323458143199D-06 0.443815307678D-05 0.000000000000D+00  7 1 -2 -24 -13 13 23 21 2 0.33207979D-01 0.87864924D-01 0.63818987D+05 0.63818987D+05 0.63818987D+05 0.11380885D+01  1  2  3  1  7  1        1 -.923675697443D-04 0.100000000000D+01
0.539889596157D-05 0.000000000000D+00 0.000000000000D+00 0.443815307678D-05 0.000000000000D+00  7 1 -2 -24 -13 13 23 21 2 0.33207979D-01 0.87864924D-01 0.63818987D+05 0.63818987D+05 0.63818987D+05 0.11380885D+01  1  2 15  1  7  1        1 0.122744093718D-03 0.100000000000D+01
  </mgrwgt>
  </event>
  <event>
  8     66 0.29493621E-05 0.31900467E+03 0.75467711E-02 0.88665461E-01
        1 -1    0    0  501    0 0.00000000E+00 0.00000000E+00 0.19290999E+03 0.19291026E+03 0.32000000E+00 0.0000E+00 0.9000E+01
       -2 -1    0    0    0  501 0.00000000E+00 0.00000000E+00 -.54057964E+03 0.54057974E+03 0.32000000E+00 0.0000E+00 0.9000E+01
       25  2    1    2    0    0 0.22186405E+03 -.94108060E+02 -.25871106E+03 0.46430450E+03 0.30094397E+03 0.0000E+00 0.0000E+00
       23  2    3    3    0    0 0.25956466E+03 -.66711817E+02 -.19579702E+03 0.34411582E+03 0.90856751E+02 0.0000E+00 0.0000E+00
      -24  1    1    2    0    0 -.22186405E+03 0.94108060E+02 -.88958593E+02 0.26918549E+03 0.80419002E+02 0.0000E+00 0.9000E+01
      -13  1    4    4    0    0 0.18198961E+03 -.44061552E+01 -.14290012E+03 0.23143052E+03 0.10565837E+00 0.0000E+00 0.9000E+01
       13  1    4    4    0    0 0.77575046E+02 -.62305662E+02 -.52896903E+02 0.11268530E+03 0.10565837E+00 0.0000E+00 0.9000E+01
       23  1    3    3    0    0 -.37700610E+02 -.27396242E+02 -.62914039E+02 0.12018868E+03 0.91188000E+02 0.0000E+00 0.9000E+01
#aMCatNLO 1  0  0  2  1 0.76031242D+03 0.00000000D+00  -5  7  0 0.00000000D+00 0.00000000D+00 0.00000000D+00 0.00000000D+00 0.00000000D+00
  <mgrwgt>
 0.1182764694D-02    3    2    0
 0.322929320263658D+03 0.000000000000000D+00 0.000000000000000D+00 0.322929320263658D+03
 0.322929320263658D+03 0.000000000000000D+00 0.000000000000000D+00 -.322929320263658D+03
 0.257822150504004D+03 -.221864049319460D+03 0.941080600897347D+02 0.438755282800975D+02
 0.185907577363378D+03 0.181989752792452D+03 -.440607729290719D+01 -.377086685332634D+02
 0.994998166998275D+02 0.775749046070876D+02 -.623057402111911D+02 0.585179661380172D+00
 0.102629095960107D+03 -.377006080800794D+02 -.273962425856364D+02 -.675203940821427D+01
 0.000000000000000D+00 -.000000000000000D+00 -.000000000000000D+00 0.000000000000000D+00
 0.166149894161306D+04 0.000000000000000D+00 0.000000000000000D+00 0.166149894161306D+04
 0.623096649255514D+03 0.000000000000000D+00 0.000000000000000D+00 -.623096649255514D+03
 0.452617464112478D+03 -.153899795211344D+03 0.415674324342133D+03 0.438755282800975D+02
 0.326382242898489D+03 0.230997993331058D+03 0.227471650703821D+03 -.377086685332634D+02
 0.100811006489549D+03 0.967376531472265D+02 0.283609424696484D+02 0.585179661380172D+00
 0.117790589505924D+03 -.166141438609754D+02 0.723723139035218D+02 -.675203940821427D+01
 0.128699428786213D+04 -.157221707405965D+03 -.743879231419124D+03 0.103840229235754D+04
0.511587369677D-04 0.000000000000D+00 0.000000000000D+00 0.807158621209D-06 0.000000000000D+00  7 1 -2 -24 -13 13 23 21 0 0.29678488D-01 0.83166127D-01 0.10176398D+06 0.10176398D+06 0.10176398D+06 0.11210994D+01  1  2  2  2  7  2       -2 0.116801018097D-02 0.100000000000D+01
-.284163537353D-05 0.000000000000D+00 -.196463020361D-06 0.807158621209D-06 0.000000000000D+00  7 1 -2 -24 -13 13 23 21 2 0.29678488D-01 0.83166127D-01 0.10176398D+06 0.10176398D+06 0.10176398D+06 0.11210994D+01  1  2  3  2  7  2       -2 -.815423834611D-04 0.100000000000D+01
0.335580902805D-05 0.000000000000D+00 0.000000000000D+00 0.807158621209D-06 0.000000000000D+00  7 1 -2 -24 -13 13 23 21 2 0.29678488D-01 0.83166127D-01 0.10176398D+06 0.10176398D+06 0.10176398D+06 0.11210994D+01  1  2 15  2  7  2       -2 0.962968961945D-04 0.100000000000D+01
  </mgrwgt>
  </event>
  <event>
  8     66 0.29493621E-05 0.61683684E+03 0.75467711E-02 0.91012621E-01
        1 -1    0    0  501    0 0.00000000E+00 0.00000000E+00 0.61881402E+03 0.61881410E+03 0.32000000E+00 0.0000E+00 0.9000E+01
       -2 -1    0    0    0  501 0.00000000E+00 0.00000000E+00 -.12206222E+04 0.12206222E+04 0.32000000E+00 0.0000E+00 0.9000E+01
       25  2    1    2    0    0 0.47529575E+03 -.35138795E+03 0.32407816E+03 0.73802257E+03 0.30045152E+03 0.0000E+00 0.0000E+00
       23  2    3    3    0    0 0.27323840E+03 -.96612420E+02 0.60981358E+02 0.30991870E+03 0.91310957E+02 0.0000E+00 0.0000E+00
      -24  1    1    2    0    0 -.47529575E+03 0.35138795E+03 -.92588633E+03 0.11014138E+04 0.80419002E+02 0.0000E+00 0.9000E+01
      -11  1    4    4    0    0 0.22954783E+03 -.10886013E+03 0.31955885E+02 0.25605451E+03 0.51099893E-03 0.0000E+00 0.9000E+01
       11  1    4    4    0    0 0.43690570E+02 0.12247714E+02 0.29025473E+02 0.53864186E+02 0.51099893E-03 0.0000E+00 0.9000E+01
       23  1    3    3    0    0 0.20205736E+03 -.25477553E+03 0.26309681E+03 0.42810387E+03 0.91188000E+02 0.0000E+00 0.9000E+01
#aMCatNLO 1  0  0  1  1 0.15323669D+03 0.00000000D+00  -5  7  0 0.00000000D+00 0.00000000D+00 0.00000000D+00 0.00000000D+00 0.00000000D+00
  <mgrwgt>
 0.1470750163D-02    4    2    0
 0.869101968822391D+03 0.000000000000000D+00 0.000000000000000D+00 0.869101968822391D+03
 0.869101968822391D+03 0.000000000000000D+00 0.000000000000000D+00 -.869101968822391D+03
 0.844995505971194D+03 -.475295752726008D+03 0.351387950306103D+03 -.598473595889941D+03
 0.282030934472948D+03 0.229547827204018D+03 -.108860134156536D+03 0.122469237839629D+03
 0.670505369905968D+02 0.436905703463982D+02 0.122477142301846D+02 0.493649882980798D+02
 0.544126960210042D+03 0.202057355175592D+03 -.254775530379752D+03 0.426639369752232D+03
 0.000000000000000D+00 0.000000000000000D+00 -.000000000000000D+00 -.000000000000000D+00
 0.898368650462173D+03 0.000000000000000D+00 0.000000000000000D+00 0.898368650462173D+03
 0.109916335174251D+04 0.000000000000000D+00 0.000000000000000D+00 -.109916335174251D+04
 0.899945190533608D+03 -.530614232428281D+03 0.404613422141815D+03 -.598473595889941D+03
 0.261888249040242D+03 0.212304385995316D+03 -.922691088907645D+02 0.122469237839629D+03
 0.652836651137942D+02 0.394952834305210D+02 0.162842699487356D+02 0.493649882980798D+02
 0.517828285153247D+03 0.168391024965618D+03 -.222382985970598D+03 0.426639369752232D+03
 0.252586612363796D+03 0.110423538036826D+03 -.106245597229188D+03 -.200794701280341D+03
0.307613859627D-02 0.000000000000D+00 0.000000000000D+00 0.313225219915D-04 0.000000000000D+00  7 1 -2 -24 -11 11 23 21 0 0.95202166D-01 0.18778804D+00 0.38048769D+06 0.38048769D+06 0.38048769D+06 0.10769969D+01  1  2  2  1  7  1        1 0.166933643825D-02 0.100000000000D+01
-.146471385906D-03 0.000000000000D+00 -.118131821756D-04 0.313225219915D-04 0.000000000000D+00  7 1 -2 -24 -11 11 23 21 2 0.95202166D-01 0.18778804D+00 0.38048769D+06 0.38048769D+06 0.38048769D+06 0.10769969D+01  1  2  3  1  7  1        1 -.921976050054D-04 0.100000000000D+01
0.194903673858D-03 0.000000000000D+00 0.000000000000D+00 0.313225219915D-04 0.000000000000D+00  7 1 -2 -24 -11 11 23 21 2 0.95202166D-01 0.18778804D+00 0.38048769D+06 0.38048769D+06 0.38048769D+06 0.10769969D+01  1  2 15  1  7  1        1 0.122683702522D-03 0.100000000000D+01
-.363919951221D-03 0.000000000000D+00 0.000000000000D+00 0.313225219915D-04 0.000000000000D+00  7 1 -2 -24 -11 11 23 21 2 0.95202166D-01 0.18778804D+00 0.38048769D+06 0.38048769D+06 0.38048769D+06 0.10769969D+01  1  2  4  1  7  1        1 -.229072372796D-03 0.100000000000D+01
  </mgrwgt>
  </event>
  <event>
  8     66 0.29493621E-05 0.23891122E+03 0.75467711E-02 0.89655585E-01
        1 -1    0    0  501    0 0.00000000E+00 0.00000000E+00 0.85052779E+03 0.85052785E+03 0.32000000E+00 0.0000E+00 0.9000E+01
       -2 -1    0    0    0  501 0.00000000E+00 0.00000000E+00 -.98368833E+02 0.98369354E+02 0.32000000E+00 0.0000E+00 0.9000E+01
       25  2    1    2    0    0 0.84016894E+02 -.11118584E+03 0.70826447E+03 0.78211869E+03 0.30108132E+03 0.0000E+00 0.0000E+00
       23  2    3    3    0    0 0.14920633E+03 -.11545061E+03 0.55958080E+03 0.59586635E+03 0.79590591E+02 0.0000E+00 0.0000E+00
      -24  1    1    2    0    0 -.84016894E+02 0.11118584E+03 0.43894486E+02 0.16677851E+03 0.80419002E+02 0.0000E+00 0.9000E+01
      -11  1    4    4    0    0 0.15695973E+03 -.96443791E+02 0.50514012E+03 0.53768420E+03 0.51099893E-03 0.0000E+00 0.9000E+01
       11  1    4    4    0    0 -.77534035E+01 -.19006814E+02 0.54440680E+02 0.58182144E+02 0.51099893E-03 0.0000E+00 0.9000E+01
       23  1    3    3    0    0 -.65189435E+02 0.42647641E+01 0.14868367E+03 0.18625234E+03 0.91188000E+02 0.0000E+00 0.9000E+01
#aMCatNLO 1  0  0  2  1 0.72770619D+03 0.00000000D+00  -5  7  0 0.00000000D+00 0.00000000D+00 0.00000000D+00 0.00000000D+00 0.00000000D+00
  <mgrwgt>
 0.5074309396D-02    5    2    0
 0.289250240439383D+03 0.000000000000000D+00 0.000000000000000D+00 0.289250240439383D+03
 0.289250240439383D+03 0.000000000000000D+00 0.000000000000000D+00 -.289250240439383D+03
 0.216490798799855D+03 -.840168938198651D+02 0.111185840983515D+03 -.144844469443188D+03
 0.225170723987114D+03 0.156959732363341D+03 -.964437913987250D+02 0.129476223523659D+03
 0.246513686705929D+02 -.775340348051147D+01 -.190068136928922D+02 0.136497525635290D+02
 0.112187589421205D+03 -.651894350629646D+02 0.426476410810190D+01 0.171849335600025D+01
 0.000000000000000D+00 0.000000000000000D+00 0.000000000000000D+00 -.000000000000000D+00
 0.532025885001027D+03 0.000000000000000D+00 0.000000000000000D+00 0.532025885001027D+03
 0.243462996393924D+04 0.000000000000000D+00 0.000000000000000D+00 -.243462996393924D+04
 0.381163029022775D+03 -.342909498673069D+03 -.158491050520865D+02 -.144844469443188D+03
 0.238031767283955D+03 -.436910356181030D+02 -.194900290366619D+03 0.129476223523659D+03
 0.589021070576966D+02 -.439472266751912D+02 -.367666117333396D+02 0.136497525635290D+02
 0.251536955784834D+03 -.222748193283425D+03 -.730470940630563D+02 0.171849335600025D+01
 0.203702198979101D+04 0.653295954249788D+03 0.320563101215101D+03 -.190260407893822D+04
0.715667151380D-04 0.000000000000D+00 0.000000000000D+00 0.981711322518D-08 0.000000000000D+00  7 1 -2 -24 -11 11 23 21 0 0.13085047D+00 0.15133711D-01 0.57078569D+05 0.57078569D+05 0.57078569D+05 0.11422715D+01  1  2  2  2  7  2       -2 0.498571639709D-02 0.100000000000D+01
-.379920412727D-05 0.000000000000D+00 -.274835030079D-06 0.981711322518D-08 0.000000000000D+00  7 1 -2 -24 -11 11 23 21 2 0.13085047D+00 0.15133711D-01 0.57078569D+05 0.57078569D+05 0.57078569D+05 0.11422715D+01  1  2  3  2  7  2       -2 -.345340746729D-03 0.100000000000D+01
0.461819298566D-05 0.000000000000D+00 0.000000000000D+00 0.981711322518D-08 0.000000000000D+00  7 1 -2 -24 -11 11 23 21 2 0.13085047D+00 0.15133711D-01 0.57078569D+05 0.57078569D+05 0.57078569D+05 0.11422715D+01  1  2 15  2  7  2       -2 0.419785344715D-03 0.100000000000D+01
0.421689243285D-04 0.000000000000D+00 -.662076853600D-04 0.981711322518D-08 0.000000000000D+00  7 1 -2 -24 -11 11 23 21 2 0.13085047D+00 0.19850829D+00 0.57078569D+05 0.57078569D+05 0.57078569D+05 0.11422715D+01  1  2  5  2  7  2       -2 0.173946050862D-04 0.100000000000D+01
-.931475396578D-06 0.000000000000D+00 -.195908022724D-04 0.981711322518D-08 0.000000000000D+00  7 1 21 -24 -11 11 23 2 2 0.13085047D+00 0.19850829D+00 0.57078569D+05 0.57078569D+05 0.57078569D+05 0.11422715D+01  1  2  5  4  7  2       -2 -.324620447921D-05 0.100000000000D+01
  </mgrwgt>
  </event>
  <event>
  8     66 0.29493621E-05 0.76848325E+03 0.75467711E-02 0.79230992E-01
        1 -1    0    0  501    0 0.00000000E+00 0.00000000E+00 0.21809042E+04 0.21809043E+04 0.32000000E+00 0.0000E+00 0.9000E+01
       -2 -1    0    0    0  501 0.00000000E+00 0.00000000E+00 -.70627825E+03 0.70627832E+03 0.32000000E+00 0.0000E+00 0.9000E+01
       25  2    1    2    0    0 0.12825600E+03 0.75169036E+03 0.18574272E+04 0.20301575E+04 0.30002601E+03 0.0000E+00 0.0000E+00
       23  2    3    3    0    0 0.38949225E+02 0.13985532E+03 0.22108884E+03 0.27851931E+03 0.87270716E+02 0.0000E+00 0.0000E+00
      -24  1    1    2    0    0 -.12825600E+03 -.75169036E+03 -.38280122E+03 0.85702509E+03 0.80419002E+02 0.0000E+00 0.9000E+01
      -13  1    4    4    0    0 0.33043991E+02 0.11865384E+03 0.22467374E+03 0.25622049E+03 0.10565837E+00 0.0000E+00 0.9000E+01
       13  1    4    4    0    0 0.59052339E+01 0.21201478E+02 -.35849034E+01 0.22298815E+02 0.10565837E+00 0.0000E+00 0.9000E+01
       23  1    3    3    0    0 0.89306775E+02 0.61183505E+03 0.16363384E+04 0.17516382E+04 0.91188000E+02 0.0000E+00 0.9000E+01
#aMCatNLO 1  0  0  2  2 0.23167245D+04 0.00000000D+00  -5  7  0 0.00000000D+00 0.00000000D+00 0.00000000D+00 0.00000000D+00 0.00000000D+00
  <mgrwgt>
 0.1406247293D-02    5    2    0
 0.124109845478936D+04 0.000000000000000D+00 0.000000000000000D+00 0.124109845478936D+04
 0.124109845478936D+04 0.000000000000000D+00 0.000000000000000D+00 -.124109845478936D+04
 0.122426892923138D+04 -.128255999870129D+03 -.751690364641778D+03 -.954399910587275D+03
 0.164550242885336D+03 0.330440304558083D+02 0.118653983811014D+03 0.109115107160441D+03
 0.280665263021214D+02 0.590519411526723D+01 0.212013348112431D+02 -.174172897820028D+02
 0.106531121115988D+04 0.893067752990539D+02 0.611835046019521D+03 0.862702093208836D+03
 0.000000000000000D+00 0.000000000000000D+00 0.000000000000000D+00 -.000000000000000D+00
 0.283092908938111D+04 0.000000000000000D+00 0.000000000000000D+00 0.283092908938111D+04
 0.288171863832526D+04 0.000000000000000D+00 0.000000000000000D+00 -.288171863832526D+04
 0.186755481717200D+04 -.134017121450403D+04 -.879974832409309D+03 -.954399910587275D+03
 0.182758971932733D+03 -.103092229610827D+03 0.104243596470686D+03 0.109115107160441D+03
 0.308279708032132D+02 -.171799307024704D+02 0.187577125884747D+02 -.174172897820028D+02
 0.131422478723291D+04 -.843410001838037D+03 0.513104479814835D+03 0.862702093208836D+03
 0.231728118056551D+04 0.230385337665536D+04 0.243869043535313D+03 -.507895489441485D+02
0.818645870734D-02 0.000000000000D+00 0.000000000000D+00 0.120136626284D-04 0.000000000000D+00  7 1 -2 -24 -13 13 23 21 0 0.33552374D+00 0.10865820D+00 0.59056651D+06 0.59056651D+06 0.59056651D+06 0.10634379D+01  1  2  2  2  7  2       -2 0.137213168565D-02 0.100000000000D+01
-.327751595471D-03 0.000000000000D+00 -.314381569803D-04 0.120136626284D-04 0.000000000000D+00  7 1 -2 -24 -13 13 23 21 2 0.33552374D+00 0.10865820D+00 0.59056651D+06 0.59056651D+06 0.59056651D+06 0.10634379D+01  1  2  3  2  7  2       -2 -.621253447188D-04 0.100000000000D+01
0.502367969395D-03 0.000000000000D+00 0.000000000000D+00 0.120136626284D-04 0.000000000000D+00  7 1 -2 -24 -13 13 23 21 2 0.33552374D+00 0.10865820D+00 0.59056651D+06 0.59056651D+06 0.59056651D+06 0.10634379D+01  1  2 15  2  7  2       -2 0.952238942711D-04 0.100000000000D+01
0.827538580058D-02 0.000000000000D+00 -.326269127879D-02 0.120136626284D-04 0.000000000000D+00  7 1 -2 -24 -13 13 23 21 2 0.33552374D+00 0.57993648D+00 0.59056651D+06 0.59056651D+06 0.59056651D+06 0.10634379D+01  1  2  5  2  7  2       -2 0.314443475593D-06 0.100000000000D+01
0.156071365534D-02 0.000000000000D+00 -.668047904985D-03 0.120136626284D-04 0.000000000000D+00  7 1 21 -24 -13 13 23 2 2 0.33552374D+00 0.57993648D+00 0.59056651D+06 0.59056651D+06 0.59056651D+06 0.10634379D+01  1  2  5  4  7  2       -2 0.702614340348D-06 0.100000000000D+01
  </mgrwgt>
  </event>
  <event>
  9     66 -.29493621E-05 0.22599881E+03 0.75467711E-02 0.10322213E+00
        1 -1    0    0  501    0 0.00000000E+00 0.00000000E+00 0.15663884E+04 0.15663884E+04 0.32000000E+00 0.0000E+00 0.9000E+01
       -2 -1    0    0    0  502 0.00000000E+00 0.00000000E+00 -.20739831E+03 0.20739856E+03 0.32000000E+00 0.0000E+00 0.9000E+01
       25  2    1    2    0    0 0.81306296E+00 -.15951299E+03 0.14207678E+04 0.14608468E+04 0.30007887E+03 0.0000E+00 0.0000E+00
       23  2    3    3    0    0 -.71675240E+02 -.10218218E+03 0.35720634E+03 0.38939008E+03 0.91922410E+02 0.0000E+00 0.0000E+00
      -24  1    1    2    0    0 -.47461531E+02 0.13369171E+03 -.14225383E+03 0.21640110E+03 0.80419002E+02 0.0000E+00 0.9000E+01
      -13  1    4    4    0    0 -.90861441E+00 -.78976950E+02 0.15625679E+03 0.17508392E+03 0.10565837E+00 0.0000E+00 0.9000E+01
       13  1    4    4    0    0 -.70766626E+02 -.23205234E+02 0.20094955E+03 0.21430616E+03 0.10565837E+00 0.0000E+00 0.9000E+01
       23  1    3    3    0    0 0.72488303E+02 -.57330811E+02 0.10635615E+04 0.10714568E+04 0.91188000E+02 0.0000E+00 0.9000E+01
       21  1    1    2  501  502 0.46648468E+02 0.25821287E+02 0.80476123E+02 0.96539045E+02 0.75000000E+00 0.0000E+00 0.9000E+01
#aMCatNLO 2  0  0  2  1 0.53318087D+02 0.00000000D+00  -5  7  0 0.00000000D+00 0.00000000D+00 0.00000000D+00 0.00000000D+00 0.00000000D+00
  <mgrwgt>
 -.5534960318D-03    3    2    0
 0.542153090252963D+03 0.000000000000000D+00 0.000000000000000D+00 0.542153090252963D+03
 0.542153090252963D+03 0.000000000000000D+00 0.000000000000000D+00 -.542153090252963D+03
 0.503612264185979D+03 -.258460440657892D+02 0.145656510098996D+03 -.474630656148639D+03
 0.846633366617741D+02 0.277064720878951D+01 -.769404959463602D+02 0.352188042425841D+02
 0.909590204310723D+02 -.667810115739193D+02 -.209989553108154D+02 0.580765337016481D+02
 0.405071559227101D+03 0.898564084309189D+02 -.477170588418206D+02 0.381335318204407D+03
 0.000000000000000D+00 0.000000000000000D+00 0.000000000000000D+00 0.000000000000000D+00
 0.575313311171163D+03 0.000000000000000D+00 0.000000000000000D+00 0.575313311171163D+03
 0.564672496685798D+03 0.000000000000000D+00 0.000000000000000D+00 -.564672496685798D+03
 0.501864070679316D+03 -.474615310309885D+02 0.133691708047095D+03 -.474630656148639D+03
 0.864786668223021D+02 -.908522173156955D+00 -.789770234343265D+02 0.352188042425841D+02
 0.944420011041896D+02 -.707667178758652D+02 -.232051599184921D+02 0.580765337016481D+02
 0.402831543284035D+03 0.724883030107023D+02 -.573308114120965D+02 0.381335318204407D+03
 0.543695259671180D+02 0.466484680693084D+02 0.258212867178203D+02 0.106408144853649D+02
-.162425235699D-03 0.000000000000D+00 0.000000000000D+00 0.154457548463D-04 0.000000000000D+00  7 1 -2 -24 -13 13 23 21 2 0.22709192D+00 0.32798212D-01 0.62420550D+05 0.62420550D+05 0.62420550D+05 0.11389150D+01  1  2 13  2  7  2       -2 -.144049473074D-02 0.100000000000D+01
-.274879908247D-06 0.000000000000D+00 0.000000000000D+00 0.154457548463D-04 0.000000000000D+00  7 1 -2 -24 -13 13 23 21 2 0.22709192D+00 0.30634830D-01 0.51075460D+05 0.51075460D+05 0.51075460D+05 0.11464833D+01  1  2  8  2  7  2       -2 -.280737220933D-05 0.100000000000D+01
0.109523959221D-03 0.000000000000D+00 0.000000000000D+00 0.154457548463D-04 0.376395737232D-07  7 1 -2 -24 -13 13 23 21 2 0.24098176D+00 0.31907309D-01 0.62420550D+05 0.62420550D+05 0.62420550D+05 0.11389150D+01  1  2  1  2  7  2       -2 0.889806071118D-03 0.100000000000D+01
  </mgrwgt>
  </event>
  <event>
  8     66 0.29493621E-05 0.17431712E+03 0.75467711E-02 0.10276508E+00
        1 -1    0    0  501    0 0.00000000E+00 0.00000000E+00 0.15983363E+03 0.15983395E+03 0.32000000E+00 0.0000E+00 0.9000E+01
       -2 -1    0    0    0  501 0.00000000E+00 0.00000000E+00 -.49982164E+03 0.49982174E+03 0.32000000E+00 0.0000E+00 0.9000E+01
       25  2    1    2    0    0 -.10461984E+02 0.17562697E+03 -.30610067E+03 0.46326361E+03 0.29993543E+03 0.0000E+00 0.0000E+00
       23  2    3    3    0    0 0.89662161E+02 0.14439135E+03 -.24412751E+03 0.31109123E+03 0.91056831E+02 0.0000E+00 0.0000E+00
      -24  1    1    2    0    0 0.10461984E+02 -.17562697E+03 -.33887335E+02 0.19639209E+03 0.80419002E+02 0.0000E+00 0.9000E+01
      -11  1    4    4    0    0 0.17417635E+02 0.14578919E+02 -.10542893E+03 0.10784794E+03 0.51099893E-03 0.0000E+00 0.9000E+01
       11  1    4    4    0    0 0.72244526E+02 0.12981243E+03 -.13869858E+03 0.20324329E+03 0.51099893E-03 0.0000E+00 0.9000E+01
       23  1    3    3    0    0 -.10012415E+03 0.31235627E+02 -.61973164E+02 0.15217238E+03 0.91188000E+02 0.0000E+00 0.9000E+01
#aMCatNLO 1  0  0  1  2 0.12429970D+02 0.00000000D+00  -5  7  0 0.00000000D+00 0.00000000D+00 0.00000000D+00 0.00000000D+00 0.00000000D+00
  <mgrwgt>
 0.4970543710D-03    9    2    0
 0.282645447076767D+03 0.000000000000000D+00 0.000000000000000D+00 0.282645447076767D+03
 0.282645447076767D+03 0.000000000000000D+00 0.000000000000000D+00 -.282645447076767D+03
 0.208794935010529D+03 0.104619842558401D+02 -.175626972630746D+03 0.785736743551570D+02
 0.624420741426620D+02 0.174176354211098D+02 0.145789186935281D+02 -.581643682102926D+02
 0.153752235227277D+03 0.722445255555665D+02 0.129812426875948D+03 -.396132830400575D+02
 0.140301649773065D+03 -.100124145232516D+03 0.312356270612699D+02 0.192039768951931D+02
 0.000000000000000D+00 -.000000000000000D+00 -.000000000000000D+00 0.000000000000000D+00
 0.361579618277056D+03 0.000000000000000D+00 0.000000000000000D+00 0.361579618277056D+03
 0.283203537172642D+03 0.000000000000000D+00 0.000000000000000D+00 -.283203537172642D+03
 0.205525915723136D+03 0.125645514461917D+02 -.171586700605696D+03 0.785736743551570D+02
 0.629183372828555D+02 0.180538058855350D+02 0.158013774774256D+02 -.581643682102926D+02
 0.157054783803270D+03 0.738217878140008D+02 0.132843278212429D+03 -.396132830400575D+02
 0.139928499807092D+03 -.987020523853637D+02 0.339683064133214D+02 0.192039768951931D+02
 0.793556188333445D+02 -.573809276036385D+01 -.110262614974804D+02 0.783760811044141D+02
0.140044094999D-04 0.000000000000D+00 0.000000000000D+00 0.264093051490D-05 0.000000000000D+00  7 1 -2 -24 -11 11 23 21 0 0.24589822D-01 0.76895670D-01 0.63429163D+05 0.63429163D+05 0.63429163D+05 0.11383169D+01  1  2  2  1  7  1        1 0.488104165960D-03 0.100000000000D+01
-.765435312659D-06 0.000000000000D+00 -.537806199255D-07 0.264093051490D-05 0.000000000000D+00  7 1 -2 -24 -11 11 23 21 2 0.24589822D-01 0.76895670D-01 0.63429163D+05 0.63429163D+05 0.63429163D+05 0.11383169D+01  1  2  3  1  7  1        1 -.345686614256D-04 0.100000000000D+01
0.923041989283D-06 0.000000000000D+00 0.000000000000D+00 0.264093051490D-05 0.000000000000D+00  7 1 -2 -24 -11 11 23 21 2 0.24589822D-01 0.76895670D-01 0.63429163D+05 0.63429163D+05 0.63429163D+05 0.11383169D+01  1  2 15  1  7  1        1 0.416865089465D-04 0.100000000000D+01
0.569015360719D-03 0.000000000000D+00 0.000000000000D+00 0.264093051490D-05 0.000000000000D+00  7 1 -2 -24 -11 11 23 21 2 0.31476632D-01 0.76895670D-01 0.66800762D+05 0.66800762D+05 0.66800762D+05 0.11363908D+01  1  2 12  1  7  1        1 0.186104436131D-01 0.100000000000D+01
-.554379865899D-03 0.000000000000D+00 0.000000000000D+00 0.264093051490D-05 0.000000000000D+00  7 1 -2 -24 -11 11 23 21 2 0.24589822D-01 0.76895670D-01 0.63429163D+05 0.63429163D+05 0.63429163D+05 0.11383169D+01  1  2  4  1  7  1        1 -.250369555317D-01 0.100000000000D+01
-.583701380660D-03 0.000000000000D+00 -.892543693366D-05 0.264093051490D-05 0.000000000000D+00  7 1 -2 -24 -11 11 23 21 2 0.31486084D-01 0.76895670D-01 0.63429163D+05 0.63429163D+05 0.63429163D+05 0.11383169D+01  1  2  5  1  7  1        1 -.191604832890D-01 0.100000000000D+01
0.568707076575D-03 0.000000000000D+00 0.865947767617D-05 0.264093051490D-05 0.000000000000D+00  7 1 -2 -24 -11 11 23 21 2 0.24589822D-01 0.76895670D-01 0.63429163D+05 0.63429163D+05 0.63429163D+05 0.11383169D+01  1  2  6  1  7  1        1 0.256840023649D-01 0.100000000000D+01
0.190814373301D-04 0.000000000000D+00 0.000000000000D+00 0.264093051490D-05 0.000000000000D+00  7 21 -2 -24 -11 11 23 -1 2 0.31476632D-01 0.76895670D-01 0.66800762D+05 0.66800762D+05 0.66800762D+05 0.11363908D+01  1  2 12  3  7  1        1 0.396597056650D-02 0.100000000000D+01
-.194446548189D-04 0.000000000000D+00 -.299575742393D-06 0.264093051490D-05 0.000000000000D+00  7 21 -2 -24 -11 11 23 -1 2 0.31486084D-01 0.76895670D-01 0.63429163D+05 0.63429163D+05 0.63429163D+05 0.11383169D+01  1  2  5  3  7  1        1 -.406114536613D-02 0.100000000000D+01
  </mgrwgt>
  </event>
  <event>
  8     66 0.29493621E-05 0.53002577E+03 0.75467711E-02 0.88826869E-01
        3 -1    0    0  501    0 0.00000000E+00 0.00000000E+00 0.56108706E+03 0.56108728E+03 0.50000000E+00 0.0000E+00 0.9000E+01
       -4 -1    0    0    0  501 0.00000000E+00 0.00000000E+00 -.14139533E+04 0.14139542E+04 0.15500000E+01 0.0000E+00 0.9000E+01
       25  2    1    2    0    0 -.35726080E+02 0.51473788E+03 0.32993406E+03 0.68209318E+03 0.30027187E+03 0.0000E+00 0.0000E+00
       23  2    3    3    0    0 0.11978789E+02 0.22886513E+03 0.18935487E+02 0.24731238E+03 0.91006173E+02 0.0000E+00 0.0000E+00
      -24  1    1    2    0    0 0.35726080E+02 -.51473788E+03 -.11828003E+04 0.12929483E+04 0.80419002E+02 0.0000E+00 0.9000E+01
      -11  1    4    4    0    0 -.13016635E+02 0.21398863E+02 -.23199372E+02 0.34140225E+02 0.51099893E-03 0.0000E+00 0.9000E+01
       11  1    4    4    0    0 0.24995424E+02 0.20746626E+03 0.42134859E+02 0.21317216E+03 0.51099893E-03 0.0000E+00 0.9000E+01
       23  1    3    3    0    0 -.47704869E+02 0.28587275E+03 0.31099857E+03 0.43478080E+03 0.91188000E+02 0.0000E+00 0.9000E+01
#aMCatNLO 1  0  0  2  2 0.54142478D+03 0.00000000D+00  -5  7  0 0.00000000D+00 0.00000000D+00 0.00000000D+00 0.00000000D+00 0.00000000D+00
  <mgrwgt>
 0.8455224548D-04    6    2    0
 0.890703084909766D+03 0.000000000000000D+00 0.000000000000000D+00 0.890703084909766D+03
 0.890703084909766D+03 0.000000000000000D+00 0.000000000000000D+00 -.890703084909766D+03
 0.867211536716159D+03 0.357260799831505D+02 -.514737877775863D+03 -.692356265120111D+03
 0.267442651187011D+02 -.130166347314686D+02 0.213988632363454D+02 -.937611802395194D+01
 0.256516037154142D+03 0.249954238183465D+02 0.207466264435811D+03 0.148773167024355D+03
 0.630934330830529D+03 -.477048690700284D+02 0.285872750103706D+03 0.552959216119709D+03
 0.000000000000000D+00 -.000000000000000D+00 0.000000000000000D+00 -.000000000000000D+00
 0.103844111606491D+04 0.000000000000000D+00 0.000000000000000D+00 0.103844111606491D+04
 0.161260797271662D+04 0.000000000000000D+00 0.000000000000000D+00 -.161260797271662D+04
 0.944645823056733D+03 0.300769043664876D+03 -.562200408738741D+03 -.692356265120111D+03
 0.229115836412659D+02 -.575285469465441D+01 0.200981028610622D+02 -.937611802395194D+01
 0.264465199790471D+03 0.101205844201373D+03 0.193818894262774D+03 0.148773167024355D+03
 0.629844394673025D+03 0.136724952710322D+03 0.252846006042546D+03 0.552959216119709D+03
 0.789182087620035D+03 -.532946985881917D+03 0.954374055723590D+02 -.574166856651718D+03
0.250860371349D-02 0.000000000000D+00 0.000000000000D+00 0.424856986619D-04 0.000000000000D+00  7 3 -4 -24 -11 11 23 21 0 0.86321169D-01 0.21753137D+00 0.28092732D+06 0.28092732D+06 0.28092732D+06 0.10866688D+01  1  2  2  2  7  2       -4 0.532025309249D-04 0.100000000000D+01
-.937086647212D-04 0.000000000000D+00 -.963369879034D-05 0.424856986619D-04 0.000000000000D+00  7 3 -4 -24 -11 11 23 21 2 0.86321169D-01 0.21753137D+00 0.28092732D+06 0.28092732D+06 0.28092732D+06 0.10866688D+01  1  2  3  2  7  2       -4 -.234679067078D-05 0.100000000000D+01
0.154116383143D-03 0.000000000000D+00 0.000000000000D+00 0.424856986619D-04 0.000000000000D+00  7 3 -4 -24 -11 11 23 21 2 0.86321169D-01 0.21753137D+00 0.28092732D+06 0.28092732D+06 0.28092732D+06 0.10866688D+01  1  2 15  2  7  2       -4 0.385960990108D-05 0.100000000000D+01
-.985036383722D-03 0.000000000000D+00 -.661482286351D-03 0.424856986619D-04 0.000000000000D+00  7 3 -4 -24 -11 11 23 21 2 0.86321169D-01 0.41308238D+00 0.28092732D+06 0.28092732D+06 0.28092732D+06 0.10866688D+01  1  2  5  2  7  2       -4 -.622241902731D-06 0.100000000000D+01
0.125769153570D-02 0.000000000000D+00 0.545426272887D-03 0.424856986619D-04 0.000000000000D+00  7 3 -4 -24 -11 11 23 21 2 0.86321169D-01 0.21753137D+00 0.28092732D+06 0.28092732D+06 0.28092732D+06 0.10866688D+01  1  2  6  2  7  2       -4 0.314969674521D-04 0.100000000000D+01
-.308956507281D-04 0.000000000000D+00 -.460970811041D-04 0.424856986619D-04 0.000000000000D+00  7 3 21 -24 -11 11 23 4 2 0.86321169D-01 0.41308238D+00 0.28092732D+06 0.28092732D+06 0.28092732D+06 0.10866688D+01  1  2  5  4  7  2       -4 -.103783022944D-05 0.100000000000D+01
  </mgrwgt>
  </event>
  <event>
  9     66 -.29493621E-05 0.67329597E+03 0.75467711E-02 0.91074815E-01
        1 -1    0    0  502    0 0.00000000E+00 0.00000000E+00 0.15065216E+04 0.15065216E+04 0.32000000E+00 0.0000E+00 0.9000E+01
       -2 -1    0    0    0  501 0.00000000E+00 0.00000000E+00 -.34641028E+03 0.34641043E+03 0.32000000E+00 0.0000E+00 0.9000E+01
       25  2    1    2    0    0 0.48172324E+03 -.41046519E+03 0.39642580E+03 0.80547434E+03 0.30182203E+03 0.0000E+00 0.0000E+00
       23  2    3    3    0    0 0.56832980E+02 -.15187913E+03 0.49824357E+02 0.19241129E+03 0.90787563E+02 0.0000E+00 0.0000E+00
      -24  1    1    2    0    0 -.51425918E+03 0.43003626E+03 0.74398325E+03 0.10046751E+04 0.80419002E+02 0.0000E+00 0.9000E+01
      -13  1    4    4    0    0 0.10030720E+01 -.48156952E+02 -.23568469E+02 0.53624454E+02 0.10565837E+00 0.0000E+00 0.9000E+01
       13  1    4    4    0    0 0.55829908E+02 -.10372218E+03 0.73392826E+02 0.13878684E+03 0.10565837E+00 0.0000E+00 0.9000E+01
       23  1    3    3    0    0 0.42489026E+03 -.25858606E+03 0.34660144E+03 0.61306304E+03 0.91188000E+02 0.0000E+00 0.9000E+01
       21  1    1    2  502  501 0.32535937E+02 -.19571071E+02 0.19702258E+02 0.42782654E+02 0.75000000E+00 0.0000E+00 0.9000E+01
#aMCatNLO 2  0  0  1  2 0.37968593D+02 0.00000000D+00  -5  7  0 0.00000000D+00 0.00000000D+00 0.00000000D+00 0.00000000D+00 0.00000000D+00
  <mgrwgt>
 -.5573570337D-03    3    2    0
 0.702614124807279D+03 0.000000000000000D+00 0.000000000000000D+00 0.702614124807279D+03
 0.702614124807279D+03 0.000000000000000D+00 0.000000000000000D+00 -.702614124807279D+03
 0.672501819757345D+03 -.498487032731675D+03 0.420548968025770D+03 0.142971064601899D+03
 0.888973184457596D+02 0.305250107733091D+01 -.493896970272292D+02 -.738516979600212D+02
 0.121954254787961D+03 0.586209477427862D+02 -.105401077090126D+03 -.180841835554100D+02
 0.521874856623493D+03 0.436813583911557D+03 -.265758193908415D+03 -.510351830864677D+02
 0.000000000000000D+00 0.000000000000000D+00 -.000000000000000D+00 -.000000000000000D+00
 0.717751885562188D+03 0.000000000000000D+00 0.000000000000000D+00 0.717751885562188D+03
 0.727089045422649D+03 0.000000000000000D+00 0.000000000000000D+00 -.727089045422649D+03
 0.690146092883796D+03 -.514259181500597D+03 0.430036257189244D+03 0.142971064601899D+03
 0.881712200369063D+02 0.100299782316213D+01 -.481568764205600D+02 -.738516979600212D+02
 0.119173528715423D+03 0.558299822714748D+02 -.103722250897224D+03 -.180841835554100D+02
 0.508250260964289D+03 0.424890264281832D+03 -.258586058851040D+03 -.510351830864677D+02
 0.390998283844229D+02 0.325359371241281D+02 -.195710710204193D+02 -.933715986046110D+01
-.427476159674D-03 0.000000000000D+00 0.000000000000D+00 0.175943215309D-05 0.000000000000D+00  7 1 -2 -24 -13 13 23 21 2 0.23561474D+00 0.51499693D-01 0.47940774D+06 0.47940774D+06 0.47940774D+06 0.10698037D+01  1  2 13  1  7  1        1 -.119908149152D-02 0.100000000000D+01
-.188025579986D-03 0.000000000000D+00 0.000000000000D+00 0.175943215309D-05 0.000000000000D+00  7 1 -2 -24 -13 13 23 21 2 0.22688323D+00 0.51499693D-01 0.45332747D+06 0.45332747D+06 0.45332747D+06 0.10715312D+01  1  2  8  1  7  1        1 -.579668397103D-03 0.100000000000D+01
0.448713515254D-03 0.000000000000D+00 0.000000000000D+00 0.175943215309D-05 0.746111839847D-08  7 1 -2 -24 -13 13 23 21 2 0.23177141D+00 0.53293638D-01 0.47940774D+06 0.47940774D+06 0.47940774D+06 0.10698037D+01  1  2  1  1  7  1        1 0.122139285496D-02 0.100000000000D+01
  </mgrwgt>
  </event>
  <event>
  8     66 0.29493621E-05 0.33497802E+03 0.75467711E-02 0.96455496E-01
        1 -1    0    0  501    0 0.00000000E+00 0.00000000E+00 0.15234954E+04 0.15234955E+04 0.32000000E+00 0.0000E+00 0.9000E+01
       -2 -1    0    0    0  501 0.00000000E+00 0.00000000E+00 -.88651070E+02 0.88651647E+02 0.32000000E+00 0.0000E+00 0.9000E+01
       25  2    1    2    0    0 -.14445807E+03 0.25355568E+03 0.67596858E+03 0.79512920E+03 0.30023041E+03 0.0000E+00 0.0000E+00
       23  2    3    3    0    0 -.47680569E+02 0.20842761E+03 0.58101410E+03 0.62561804E+03 0.90028013E+02 0.0000E+00 0.0000E+00
      -24  1    1    2    0    0 0.14445807E+03 -.25355568E+03 0.75887577E+03 0.81701791E+03 0.80419002E+02 0.0000E+00 0.9000E+01
      -13  1    4    4    0    0 -.68385342E+02 0.16884442E+03 0.40604721E+03 0.44503859E+03 0.10565837E+00 0.0000E+00 0.9000E+01
       13  1    4    4    0    0 0.20704774E+02 0.39583188E+02 0.17496688E+03 0.18057945E+03 0.10565837E+00 0.0000E+00 0.9000E+01
       23  1    3    3    0    0 -.96777500E+02 0.45128070E+02 0.94954489E+02 0.16951116E+03 0.91188000E+02 0.0000E+00 0.9000E+01
#aMCatNLO 1  0  0  2  2 0.16139194D+03 0.00000000D+00  -5  7  0 0.00000000D+00 0.00000000D+00 0.00000000D+00 0.00000000D+00 0.00000000D+00
  <mgrwgt>
 0.1169710031D-02    3    2    0
 0.367505090787799D+03 0.000000000000000D+00 0.000000000000000D+00 0.367505090787799D+03
 0.367505090787799D+03 0.000000000000000D+00 0.000000000000000D+00 -.367505090787799D+03
 0.310586777221380D+03 0.144458068572064D+03 -.253555676194321D+03 0.695580025910906D+02
 0.183471264077175D+03 -.683854647598012D+02 0.168844595941152D+03 0.218319805132651D+02
 0.545166086692549D+02 0.207048962311219D+02 0.395830103579461D+02 0.312498509413706D+02
 0.186435531607788D+03 -.967775000433843D+02 0.451280698952230D+02 -.122639834045726D+03
 0.000000000000000D+00 0.000000000000000D+00 -.000000000000000D+00 0.000000000000000D+00
 0.877196211243223D+03 0.000000000000000D+00 0.000000000000000D+00 0.877196211243223D+03
 0.389259670337587D+03 0.000000000000000D+00 0.000000000000000D+00 -.389259670337587D+03
 0.261749953393025D+03 0.143342499585458D+03 -.191469146953265D+03 0.695580025910906D+02
 0.225180487497140D+03 -.691819874989395D+02 0.213174738611343D+03 0.218319805132651D+02
 0.644238547964031D+02 0.204730636661346D+02 0.524855556043047D+02 0.312498509413706D+02
 0.201166351412594D+03 -.975329934735951D+02 0.871747433949293D+02 -.122639834045726D+03
 0.513935234481647D+03 0.289941772094231D+01 -.161365890657312D+03 0.487936540905636D+03
0.428306342699D-04 0.000000000000D+00 0.000000000000D+00 0.212627161839D-05 0.000000000000D+00  7 1 -2 -24 -13 13 23 21 0 0.23438396D+00 0.13638673D-01 0.11221027D+06 0.11221027D+06 0.11221027D+06 0.11176393D+01  1  2  2  2  7  2       -2 0.115630738260D-02 0.100000000000D+01
-.235463331121D-05 0.000000000000D+00 -.164480913162D-06 0.212627161839D-05 0.000000000000D+00  7 1 -2 -24 -13 13 23 21 2 0.23438396D+00 0.13638673D-01 0.11221027D+06 0.11221027D+06 0.11221027D+06 0.11176393D+01  1  2  3  2  7  2       -2 -.794045485139D-04 0.100000000000D+01
0.275207051796D-05 0.000000000000D+00 0.000000000000D+00 0.212627161839D-05 0.000000000000D+00  7 1 -2 -24 -13 13 23 21 2 0.23438396D+00 0.13638673D-01 0.11221027D+06 0.11221027D+06 0.11221027D+06 0.11176393D+01  1  2 15  2  7  2       -2 0.928071967370D-04 0.100000000000D+01
  </mgrwgt>
  </event>
  <event>
  8     66 0.29493621E-05 0.12810277E+03 0.75467711E-02 0.10292420E+00
        1 -1    0    0  501    0 0.00000000E+00 0.00000000E+00 0.31665169E+03 0.31665185E+03 0.32000000E+00 0.0000E+00 0.9000E+01
       -2 -1    0    0    0  501 0.00000000E+00 0.00000000E+00 -.16239219E+03 0.16239251E+03 0.32000000E+00 0.0000E+00 0.9000E+01
       25  2    1    2    0    0 0.88618391E+02 0.73255902E+00 0.17131503E+03 0.35816482E+03 0.30179371E+03 0.0000E+00 0.0000E+00
       23  2    3    3    0    0 0.16729991E+03 -.19945688E+02 0.11444067E+03 0.22337493E+03 0.91720237E+02 0.0000E+00 0.0000E+00
      -24  1    1    2    0    0 -.88618391E+02 -.73255902E+00 -.17055541E+02 0.12087954E+03 0.80419002E+02 0.0000E+00 0.9000E+01
      -13  1    4    4    0    0 0.12207214E+03 -.21419080E+02 0.29911836E+02 0.12749554E+03 0.10565837E+00 0.0000E+00 0.9000E+01
       13  1    4    4    0    0 0.45227769E+02 0.14733927E+01 0.84528833E+02 0.95879386E+02 0.10565837E+00 0.0000E+00 0.9000E+01
       23  1    3    3    0    0 -.78681515E+02 0.20678247E+02 0.56874364E+02 0.13478989E+03 0.91188000E+02 0.0000E+00 0.9000E+01
#aMCatNLO 1  0  0  2  1 0.88454468D+02 0.00000000D+00  -5  7  0 0.00000000D+00 0.00000000D+00 0.00000000D+00 0.00000000D+00 0.00000000D+00
  <mgrwgt>
 0.8475557667D-03    9    2    0
 0.226763922854940D+03 0.000000000000000D+00 0.000000000000000D+00 0.226763922854940D+03
 0.226763922854940D+03 0.000000000000000D+00 0.000000000000000D+00 -.226763922854940D+03
 0.133481723109735D+03 -.886184766823624D+02 -.732559729078233D+00 -.591302240543233D+02
 0.124494789652227D+03 0.122072214928729D+03 -.214191012635666D+02 -.117706879156453D+02
 0.725227309053743D+02 0.452276691349410D+02 0.147342686853501D+01 0.566730399383756D+02
 0.123028602042542D+03 -.786814073813081D+02 0.206782341241098D+02 0.142278720315930D+02
 0.000000000000000D+00 -.000000000000000D+00 -.000000000000000D+00 -.000000000000000D+00
 0.265209723264168D+03 0.000000000000000D+00 0.000000000000000D+00 0.265209723264168D+03
 0.288276058788004D+03 0.000000000000000D+00 0.000000000000000D+00 -.288276058788004D+03
 0.121575431665912D+03 -.681724311538043D+02 0.130194417794169D+02 -.591302240543233D+02
 0.144264686027258D+03 0.143616674172806D+03 -.692830715815246D+01 -.117706879156453D+02
 0.813690434688195D+02 0.575640344021418D+02 0.977086088955066D+01 0.566730399383756D+02
 0.114864101169288D+03 -.596113089750930D+02 0.335047741845396D+02 0.142278720315930D+02
 0.914125197208946D+02 -.733969684460508D+02 -.493667696953547D+02 -.230663355238358D+02
0.523113018752D-05 0.000000000000D+00 0.000000000000D+00 0.928059540033D-07 0.000000000000D+00  7 1 -2 -24 -13 13 23 21 0 0.48715681D-01 0.24983451D-01 0.42243036D+05 0.42243036D+05 0.42243036D+05 0.11537916D+01  1  2  2  2  7  2       -2 0.640466953260D-03 0.100000000000D+01
-.287203125726D-06 0.000000000000D+00 -.200889173083D-07 0.928059540033D-07 0.000000000000D+00  7 1 -2 -24 -13 13 23 21 2 0.48715681D-01 0.24983451D-01 0.42243036D+05 0.42243036D+05 0.42243036D+05 0.11537916D+01  1  2  3  2  7  2       -2 -.468106934990D-04 0.100000000000D+01
0.338723320924D-06 0.000000000000D+00 0.000000000000D+00 0.928059540033D-07 0.000000000000D+00  7 1 -2 -24 -13 13 23 21 2 0.48715681D-01 0.24983451D-01 0.42243036D+05 0.42243036D+05 0.42243036D+05 0.11537916D+01  1  2 15  2  7  2       -2 0.552078725351D-04 0.100000000000D+01
0.236223966478D-05 0.000000000000D+00 0.000000000000D+00 0.928059540033D-07 0.000000000000D+00  7 1 -2 -24 -13 13 23 21 2 0.48715681D-01 0.33406271D-01 0.65237383D+05 0.65237383D+05 0.65237383D+05 0.11372703D+01  1  2 12  2  7  2       -2 0.226343409019D-03 0.100000000000D+01
-.288690367032D-05 0.000000000000D+00 0.000000000000D+00 0.928059540033D-07 0.000000000000D+00  7 1 -2 -24 -13 13 23 21 2 0.48715681D-01 0.24983451D-01 0.42243036D+05 0.42243036D+05 0.42243036D+05 0.11537916D+01  1  2  4  2  7  2       -2 -.470530961428D-03 0.100000000000D+01
-.497729083635D-05 0.000000000000D+00 -.225608388604D-05 0.928059540033D-07 0.000000000000D+00  7 1 -2 -24 -13 13 23 21 2 0.48715681D-01 0.36725464D-01 0.42243036D+05 0.42243036D+05 0.42243036D+05 0.11537916D+01  1  2  5  2  7  2       -2 -.414564422684D-03 0.100000000000D+01
0.558453713326D-05 0.000000000000D+00 0.209842150636D-05 0.928059540033D-07 0.000000000000D+00  7 1 -2 -24 -13 13 23 21 2 0.48715681D-01 0.24983451D-01 0.42243036D+05 0.42243036D+05 0.42243036D+05 0.11537916D+01  1  2  6  2  7  2       -2 0.910213130231D-03 0.100000000000D+01
0.892185859946D-07 0.000000000000D+00 0.000000000000D+00 0.928059540033D-07 0.000000000000D+00  7 1 21 -24 -13 13 23 2 2 0.48715681D-01 0.33406271D-01 0.65237383D+05 0.65237383D+05 0.65237383D+05 0.11372703D+01  1  2 12  4  7  2       -2 0.100522139774D-03 0.100000000000D+01
-.157360139604D-06 0.000000000000D+00 -.104479642502D-06 0.928059540033D-07 0.000000000000D+00  7 1 21 -24 -13 13 23 2 2 0.48715681D-01 0.36725464D-01 0.42243036D+05 0.42243036D+05 0.42243036D+05 0.11537916D+01  1  2  5  4  7  2       -2 -.153291660509D-03 0.100000000000D+01
  </mgrwgt>
  </event>
  <event>
  7     66 0.29493621E-05 0.20401932E+03 0.75467711E-02 0.98704094E-01
        1 -1    0    0  501    0 0.00000000E+00 0.00000000E+00 0.68818049E+03 0.68818056E+03 0.32000000E+00 0.0000E+00 0.9000E+01
       -2 -1    0    0    0  501 0.00000000E+00 0.00000000E+00 -.31216856E+03 0.31216872E+03 0.32000000E+00 0.0000E+00 0.9000E+01
       25  2    1    2    0    0 -.25025638E+03 -.20614319E+03 0.47818260E+03 0.65102230E+03 0.30008026E+03 0.0000E+00 0.0000E+00
      -24  1    1    2    0    0 0.25025638E+03 0.20614319E+03 -.10217067E+03 0.34932698E+03 0.80419002E+02 0.0000E+00 0.9000E+01
      -11  1    3    3    0    0 -.50853423E+02 -.94493343E+02 -.14054495E+01 0.10731746E+03 0.51099893E-03 0.0000E+00 0.9000E+01
       11  1    3    3    0    0 -.55352924E+02 -.87879631E+01 0.12613278E+03 0.13802410E+03 0.51099893E-03 0.0000E+00 0.9000E+01
       23  1    3    3    0    0 -.14405004E+03 -.10286189E+03 0.35345527E+03 0.40568074E+03 0.91188000E+02 0.0000E+00 0.9000E+01
#aMCatNLO 1  0  0  1  2 0.11725539D+02 0.00000000D+00  -5  7  0 0.00000000D+00 0.00000000D+00 0.00000000D+00 0.00000000D+00 0.00000000D+00
  <mgrwgt>
 0.2136618283D-02    9    2    0
 0.463495876612739D+03 0.000000000000000D+00 0.000000000000000D+00 0.463495876612739D+03
 0.463495876612739D+03 0.000000000000000D+00 0.000000000000000D+00 -.463495876612739D+03
 0.418414057951749D+03 0.250256384541490D+03 0.206143191447489D+03 -.251952048122941D+03
 0.116380119683433D+03 -.508534220683199D+02 -.944933417291925D+02 -.450474204624576D+02
 0.977839091641164D+02 -.553529219323303D+02 -.878796273036484D+01 0.801281388528352D+02
 0.294413666426180D+03 -.144050040540839D+03 -.102861886987932D+03 0.216871329732564D+03
 0.000000000000000D+00 0.000000000000000D+00 -.000000000000000D+00 0.000000000000000D+00
 0.477435569794086D+03 0.000000000000000D+00 0.000000000000000D+00 0.477435569794086D+03
 0.466005299403073D+03 0.000000000000000D+00 0.000000000000000D+00 -.466005299403073D+03
 0.418928128464624D+03 0.247391656536986D+03 0.210596995674305D+03 -.251952048122941D+03
 0.115732148412566D+03 -.516475281403540D+02 -.932587418039623D+02 -.450474204624576D+02
 0.980770054526656D+02 -.560230043146498D+02 -.774618293765959D+01 0.801281388528352D+02
 0.294328626224062D+03 -.146064254754039D+03 -.997303799958708D+02 0.216871329732564D+03
 0.163749606432408D+02 0.634313067205703D+01 -.986169093681244D+01 0.114302703910137D+02
0.625979633778D-04 0.000000000000D+00 0.000000000000D+00 0.723867022600D-08 0.000000000000D+00  7 1 -2 -24 -11 11 23 21 0 0.10587394D+00 0.48025950D-01 0.12128492D+06 0.12128492D+06 0.12128492D+06 0.11149089D+01  1  2  2  1  7  1        1 0.804305096802D-03 0.100000000000D+01
-.313216993346D-05 0.000000000000D+00 -.240392661793D-06 0.723867022600D-08 0.000000000000D+00  7 1 -2 -24 -11 11 23 21 2 0.10587394D+00 0.48025950D-01 0.12128492D+06 0.12128492D+06 0.12128492D+06 0.11149089D+01  1  2  3  1  7  1        1 -.500247259255D-04 0.100000000000D+01
0.391908772316D-05 0.000000000000D+00 0.000000000000D+00 0.723867022600D-08 0.000000000000D+00  7 1 -2 -24 -11 11 23 21 2 0.10587394D+00 0.48025950D-01 0.12128492D+06 0.12128492D+06 0.12128492D+06 0.11149089D+01  1  2 15  1  7  1        1 0.625928009636D-04 0.100000000000D+01
0.181931289672D-03 0.000000000000D+00 0.000000000000D+00 0.723867022600D-08 0.000000000000D+00  7 1 -2 -24 -11 11 23 21 2 0.10933948D+00 0.48025950D-01 0.12551781D+06 0.12551781D+06 0.12551781D+06 0.11137110D+01  1  2 12  1  7  1        1 0.275963270578D-02 0.100000000000D+01
-.184617720420D-03 0.000000000000D+00 0.000000000000D+00 0.723867022600D-08 0.000000000000D+00  7 1 -2 -24 -11 11 23 21 2 0.10587394D+00 0.48025950D-01 0.12128492D+06 0.12128492D+06 0.12128492D+06 0.11149089D+01  1  2  4  1  7  1        1 -.294857911965D-02 0.100000000000D+01
-.211603104166D-02 0.000000000000D+00 -.240254232477D-03 0.723867022600D-08 0.000000000000D+00  7 1 -2 -24 -11 11 23 21 2 0.10941501D+00 0.48025950D-01 0.12128492D+06 0.12128492D+06 0.12128492D+06 0.11149089D+01  1  2  5  1  7  1        1 -.321620797989D-01 0.100000000000D+01
0.212291614872D-02 0.000000000000D+00 0.240124272668D-03 0.723867022600D-08 0.000000000000D+00  7 1 -2 -24 -11 11 23 21 2 0.10587394D+00 0.48025950D-01 0.12128492D+06 0.12128492D+06 0.12128492D+06 0.11149089D+01  1  2  6  1  7  1        1 0.339056630894D-01 0.100000000000D+01
0.484845612867D-05 0.000000000000D+00 0.000000000000D+00 0.723867022600D-08 0.000000000000D+00  7 21 -2 -24 -11 11 23 -1 2 0.10933948D+00 0.48025950D-01 0.12551781D+06 0.12551781D+06 0.12551781D+06 0.11137110D+01  1  2 12  3  7  1        1 0.151411792350D-03 0.100000000000D+01
-.123385232756D-04 0.000000000000D+00 -.141153820789D-05 0.723867022600D-08 0.000000000000D+00  7 21 -2 -24 -11 11 23 -1 2 0.10941501D+00 0.48025950D-01 0.12128492D+06 0.12128492D+06 0.12128492D+06 0.11149089D+01  1  2  5  3  7  1        1 -.386303557523D-03 0.100000000000D+01
  </mgrwgt>
  </event>
  <event>
  8     66 0.29493621E-05 0.17704442E+03 0.75467711E-02 0.10179231E+00
        1 -1    0    0  501    0 0.00000000E+00 0.00000000E+00 0.79245517E+03 0.79245524E+03 0.32000000E+00 0.0000E+00 0.9000E+01
       -2 -1    0    0    0  501 0.00000000E+00 0.00000000E+00 -.21094600E+03 0.21094624E+03 0.32000000E+00 0.0000E+00 0.9000E+01
       25  2    1    2    0    0 0.15139571E+03 -.80660617E+02 -.47018838E+02 0.34694016E+03 0.29787565E+03 0.0000E+00 0.0000E+00
       23  2    3    3    0    0 0.16901225E+03 0.27406336E+02 -.63285039E+02 0.20352241E+03 0.90000714E+02 0.0000E+00 0.0000E+00
      -24  1    1    2    0    0 -.15139571E+03 0.80660617E+02 0.62852801E+03 0.65646132E+03 0.80419002E+02 0.0000E+00 0.9000E+01
      -13  1    4    4    0    0 0.74434367E+02 0.45362483E+02 0.20256703E+01 0.87191424E+02 0.10565837E+00 0.0000E+00 0.9000E+01
       13  1    4    4    0    0 0.94577880E+02 -.17956147E+02 -.65310709E+02 0.11633099E+03 0.10565837E+00 0.0000E+00 0.9000E+01
       23  1    3    3    0    0 -.17616540E+02 -.10806695E+03 0.16266201E+02 0.14341774E+03 0.91188000E+02 0.0000E+00 0.9000E+01
#aMCatNLO 1  0  0  2  1 0.40592848D+02 0.00000000D+00  -5  7  0 0.00000000D+00 0.00000000D+00 0.00000000D+00 0.00000000D+00 0.00000000D+00
  <mgrwgt>
 0.1296447112D-02    9    2    0
 0.408858658976867D+03 0.000000000000000D+00 0.000000000000000D+00 0.408858658976867D+03
 0.408858658976867D+03 0.000000000000000D+00 0.000000000000000D+00 -.408858658976867D+03
 0.358558459182062D+03 -.151395706746927D+03 0.806606171576130D+02 0.304417735217571D+03
 0.105549878063725D+03 0.744343391353688D+02 0.453625701195623D+02 -.595192670393034D+02
 0.189191975582552D+03 0.945779075762690D+02 -.179562337328413D+02 -.162868648589761D+03
 0.164417005125396D+03 -.176165399647107D+02 -.108066953544334D+03 -.820298195885064D+02
 0.000000000000000D+00 0.000000000000000D+00 0.000000000000000D+00 -.000000000000000D+00
 0.423986366409919D+03 0.000000000000000D+00 0.000000000000000D+00 0.423986366409919D+03
 0.437530748386122D+03 0.000000000000000D+00 0.000000000000000D+00 -.437530748386122D+03
 0.358895364591202D+03 -.159570328316984D+03 0.648522904491124D+02 0.304417735217571D+03
 0.101982344695893D+03 0.720697306707705D+02 0.407898198306710D+02 -.595192670393034D+02
 0.188060168650230D+03 0.902795215151611D+02 -.262685807437605D+02 -.162868648589761D+03
 0.169786368312152D+03 -.214244311693603D+02 -.115430766990331D+03 -.820298195885064D+02
 0.427928685465631D+02 0.186455073004131D+02 0.360572374543084D+02 -.135443819762029D+02
0.414653744230D-04 0.000000000000D+00 0.000000000000D+00 0.289283860426D-06 0.000000000000D+00  7 1 -2 -24 -13 13 23 21 0 0.12191620D+00 0.32453254D-01 0.66405343D+05 0.66405343D+05 0.66405343D+05 0.11366111D+01  1  2  2  2  7  2       -2 0.900910922600D-03 0.100000000000D+01
-.170682746102D-05 0.000000000000D+00 -.159237955868D-06 0.289283860426D-06 0.000000000000D+00  7 1 -2 -24 -13 13 23 21 2 0.12191620D+00 0.32453254D-01 0.66405343D+05 0.66405343D+05 0.66405343D+05 0.11366111D+01  1  2  3  2  7  2       -2 -.479081777889D-04 0.100000000000D+01
0.259716096721D-05 0.000000000000D+00 0.000000000000D+00 0.289283860426D-06 0.000000000000D+00  7 1 -2 -24 -13 13 23 21 2 0.12191620D+00 0.32453254D-01 0.66405343D+05 0.66405343D+05 0.66405343D+05 0.11366111D+01  1  2 15  2  7  2       -2 0.728985513797D-04 0.100000000000D+01
0.928702460502D-04 0.000000000000D+00 0.000000000000D+00 0.289283860426D-06 0.000000000000D+00  7 1 -2 -24 -13 13 23 21 2 0.12191620D+00 0.35296759D-01 0.77333570D+05 0.77333570D+05 0.77333570D+05 0.11309995D+01  1  2 12  2  7  2       -2 0.221389006745D-02 0.100000000000D+01
-.865098560807D-04 0.000000000000D+00 0.000000000000D+00 0.289283860426D-06 0.000000000000D+00  7 1 -2 -24 -13 13 23 21 2 0.12191620D+00 0.32453254D-01 0.66405343D+05 0.66405343D+05 0.66405343D+05 0.11366111D+01  1  2  4  2  7  2       -2 -.242820651780D-02 0.100000000000D+01
-.241355894571D-03 0.000000000000D+00 -.550031728615D-04 0.289283860426D-06 0.000000000000D+00  7 1 -2 -24 -13 13 23 21 2 0.12191620D+00 0.35917122D-01 0.66405343D+05 0.66405343D+05 0.66405343D+05 0.11366111D+01  1  2  5  2  7  2       -2 -.564999970975D-02 0.100000000000D+01
0.245949749456D-03 0.000000000000D+00 0.547215350125D-04 0.289283860426D-06 0.000000000000D+00  7 1 -2 -24 -13 13 23 21 2 0.12191620D+00 0.32453254D-01 0.66405343D+05 0.66405343D+05 0.66405343D+05 0.11366111D+01  1  2  6  2  7  2       -2 0.690345368422D-02 0.100000000000D+01
0.129529323136D-05 0.000000000000D+00 0.000000000000D+00 0.289283860426D-06 0.000000000000D+00  7 1 21 -24 -13 13 23 2 2 0.12191620D+00 0.35296759D-01 0.77333570D+05 0.77333570D+05 0.77333570D+05 0.11309995D+01  1  2 12  4  7  2       -2 0.357559793968D-03 0.100000000000D+01
-.378171879672D-05 0.000000000000D+00 -.904264719115D-06 0.289283860426D-06 0.000000000000D+00  7 1 21 -24 -13 13 23 2 2 0.12191620D+00 0.35917122D-01 0.66405343D+05 0.66405343D+05 0.66405343D+05 0.11366111D+01  1  2  5  4  7  2       -2 -.102615150272D-02 0.100000000000D+01
  </mgrwgt>
  </event>
  <event>
  8     66 0.29493621E-05 0.12731151E+03 0.75467711E-02 0.10066142E+00
        1 -1    0    0  501    0 0.00000000E+00 0.00000000E+00 0.17314306E+03 0.17314335E+03 0.32000000E+00 0.0000E+00 0.9000E+01
       -2 -1    0    0    0  501 0.00000000E+00 0.00000000E+00 -.48306307E+03 0.48306318E+03 0.32000000E+00 0.0000E+00 0.9000E+01
       25  2    1    2    0    0 0.60964069E+02 -.11562687E+03 -.18879244E+02 0.32718048E+03 0.29934003E+03 0.0000E+00 0.0000E+00
       23  2    3    3    0    0 -.88529540E+02 -.54779765E+02 -.31962161E+02 0.14133882E+03 0.90093177E+02 0.0000E+00 0.0000E+00
      -24  1    1    2    0    0 -.60964069E+02 0.11562687E+03 -.29104077E+03 0.32902604E+03 0.80419002E+02 0.0000E+00 0.9000E+01
      -13  1    4    4    0    0 -.82180122E+02 -.76897422E+02 -.16830784E+02 0.11379839E+03 0.10565837E+00 0.0000E+00 0.9000E+01
       13  1    4    4    0    0 -.63494182E+01 0.22117657E+02 -.15131377E+02 0.27540436E+02 0.10565837E+00 0.0000E+00 0.9000E+01
       23  1    3    3    0    0 0.14949361E+03 -.60847107E+02 0.13082918E+02 0.18584166E+03 0.91188000E+02 0.0000E+00 0.9000E+01
#aMCatNLO 1  0  0  1  2 0.12280369D+03 0.00000000D+00  -5  7  0 0.00000000D+00 0.00000000D+00 0.00000000D+00 0.00000000D+00 0.00000000D+00
  <mgrwgt>
 0.9454666470D-03    9    2    0
 0.289204335676084D+03 0.000000000000000D+00 0.000000000000000D+00 0.289204335676084D+03
 0.289204335676084D+03 0.000000000000000D+00 0.000000000000000D+00 -.289204335676084D+03
 0.217337124977521D+03 -.609640687059570D+02 0.115626872444751D+03 -.153889631342027D+03
 0.120086586924710D+03 -.821802263299418D+02 -.768975581342313D+02 0.418803571209474D+02
 0.231369628707461D+02 -.634931395877347D+01 0.221177932223558D+02 -.241008010412922D+01
 0.217847996579190D+03 0.149493608994672D+03 -.608471075328750D+02 0.114419354325208D+03
 0.000000000000000D+00 0.000000000000000D+00 0.000000000000000D+00 0.000000000000000D+00
 0.369786818027072D+03 0.000000000000000D+00 0.000000000000000D+00 0.369786818027072D+03
 0.346505622041023D+03 0.000000000000000D+00 0.000000000000000D+00 -.346505622041023D+03
 0.206125703264664D+03 -.810448626289330D+02 0.759624986348809D+02 -.153889631342027D+03
 0.145210258261345D+03 -.947607196372552D+02 -.101747043227692D+03 0.418803571209474D+02
 0.200719908257096D+02 -.839830158398647D+01 0.180705522910470D+02 -.241008010412922D+01
 0.219893441689950D+03 0.128735717092051D+03 -.101848911898209D+03 0.114419354325208D+03
 0.124991046026427D+03 0.554681667581239D+02 0.109562904199973D+03 0.232811959860489D+02
0.234254569211D-04 0.000000000000D+00 0.000000000000D+00 0.895945131191D-06 0.000000000000D+00  7 1 -2 -24 -13 13 23 21 0 0.26637424D-01 0.74317426D-01 0.56266179D+05 0.56266179D+05 0.56266179D+05 0.11428122D+01  1  2  2  1  7  1        1 0.793978779814D-03 0.100000000000D+01
-.123924955919D-05 0.000000000000D+00 -.899599226414D-07 0.895945131191D-06 0.000000000000D+00  7 1 -2 -24 -13 13 23 21 2 0.26637424D-01 0.74317426D-01 0.56266179D+05 0.56266179D+05 0.56266179D+05 0.11428122D+01  1  2  3  1  7  1        1 -.548566546424D-04 0.100000000000D+01
0.146670801732D-05 0.000000000000D+00 0.000000000000D+00 0.895945131191D-06 0.000000000000D+00  7 1 -2 -24 -13 13 23 21 2 0.26637424D-01 0.74317426D-01 0.56266179D+05 0.56266179D+05 0.56266179D+05 0.11428122D+01  1  2 15  1  7  1        1 0.649253369277D-04 0.100000000000D+01
0.750737503693D-05 0.000000000000D+00 0.000000000000D+00 0.895945131191D-06 0.000000000000D+00  7 1 -2 -24 -13 13 23 21 2 0.36082013D-01 0.74317426D-01 0.92016504D+05 0.92016504D+05 0.92016504D+05 0.11246994D+01  1  2 12  1  7  1        1 0.216169837464D-03 0.100000000000D+01
-.117531470643D-04 0.000000000000D+00 0.000000000000D+00 0.895945131191D-06 0.000000000000D+00  7 1 -2 -24 -13 13 23 21 2 0.26637424D-01 0.74317426D-01 0.56266179D+05 0.56266179D+05 0.56266179D+05 0.11428122D+01  1  2  4  1  7  1        1 -.520265127143D-03 0.100000000000D+01
-.178495791635D-04 0.000000000000D+00 -.101418291119D-04 0.895945131191D-06 0.000000000000D+00  7 1 -2 -24 -13 13 23 21 2 0.40321511D-01 0.74317426D-01 0.56266179D+05 0.56266179D+05 0.56266179D+05 0.11428122D+01  1  2  5  1  7  1        1 -.463006788952D-03 0.100000000000D+01
0.210337122809D-04 0.000000000000D+00 0.932864103299D-05 0.895945131191D-06 0.000000000000D+00  7 1 -2 -24 -13 13 23 21 2 0.26637424D-01 0.74317426D-01 0.56266179D+05 0.56266179D+05 0.56266179D+05 0.11428122D+01  1  2  6  1  7  1        1 0.931078879060D-03 0.100000000000D+01
0.292625198474D-06 0.000000000000D+00 0.000000000000D+00 0.895945131191D-06 0.000000000000D+00  7 21 -2 -24 -13 13 23 -1 2 0.36082013D-01 0.74317426D-01 0.92016504D+05 0.92016504D+05 0.92016504D+05 0.11246994D+01  1  2 12  3  7  1        1 0.483251562296D-04 0.100000000000D+01
-.509160382847D-06 0.000000000000D+00 -.495642394946D-06 0.895945131191D-06 0.000000000000D+00  7 21 -2 -24 -13 13 23 -1 2 0.40321511D-01 0.74317426D-01 0.56266179D+05 0.56266179D+05 0.56266179D+05 0.11428122D+01  1  2  5  3  7  1        1 -.708827717121D-04 0.100000000000D+01
  </mgrwgt>
  </event>
  <event>
  8     66 0.29493621E-05 0.18773777E+03 0.75467711E-02 0.98225024E-01
        3 -1    0    0  501    0 0.00000000E+00 0.00000000E+00 0.16177446E+04 0.16177447E+04 0.50000000E+00 0.0000E+00 0.9000E+01
       -4 -1    0    0    0  501 0.00000000E+00 0.00000000E+00 -.94036618E+02 0.94049392E+02 0.15500000E+01 0.0000E+00 0.9000E+01
       25  2    1    2    0    0 0.92111174E+02 0.35646378E+02 0.18035743E+03 0.36241901E+03 0.29843526E+03 0.0000E+00 0.0000E+00
       23  2    3    3    0    0 -.10547706E+02 -.42109038E+02 0.17937773E+03 0.20461863E+03 0.88362824E+02 0.0000E+00 0.0000E+00
      -24  1    1    2    0    0 -.92111174E+02 -.35646378E+02 0.13433506E+04 0.13493751E+04 0.80419002E+02 0.0000E+00 0.9000E+01
      -13  1    4    4    0    0 -.63777646E+01 -.65874459E+02 0.88004225E+02 0.11011301E+03 0.10565837E+00 0.0000E+00 0.9000E+01
       13  1    4    4    0    0 -.41699413E+01 0.23765421E+02 0.91373503E+02 0.94505618E+02 0.10565837E+00 0.0000E+00 0.9000E+01
       23  1    3    3    0    0 0.10265888E+03 0.77755416E+02 0.97970744E+00 0.15780039E+03 0.91188000E+02 0.0000E+00 0.9000E+01
#aMCatNLO 1  0  0  2  2 0.28663045D+03 0.00000000D+00  -5  7  0 0.00000000D+00 0.00000000D+00 0.00000000D+00 0.00000000D+00 0.00000000D+00
  <mgrwgt>
 0.3472327386D-04    3    2    0
 0.390049015268775D+03 0.000000000000000D+00 0.000000000000000D+00 0.390049015268775D+03
 0.390049015268775D+03 0.000000000000000D+00 0.000000000000000D+00 -.390049015268775D+03
 0.337109266096536D+03 -.921111741965507D+02 -.356463784262248D+02 0.312122265509851D+03
 0.697323955376416D+02 -.637776775118306D+01 -.658745873064004D+02 -.219651954951806D+02
 0.289035153161438D+02 -.416993814843394D+01 0.237655493591875D+02 0.159129971132033D+02
 0.344352853587228D+03 0.102658880096168D+03 0.777554163734376D+02 -.306070067127874D+03
 0.000000000000000D+00 -.000000000000000D+00 0.000000000000000D+00 0.000000000000000D+00
 0.562954949412261D+03 0.000000000000000D+00 0.000000000000000D+00 0.562954949412261D+03
 0.554878870612438D+03 0.000000000000000D+00 0.000000000000000D+00 -.554878870612438D+03
 0.325879788783756D+03 0.257307427445089D+02 -.405960716595690D+02 0.312122265509851D+03
 0.729649353830098D+02 0.189857384700448D+02 -.669399261805116D+02 -.219651954951806D+02
 0.288955542215888D+02 0.610346395616917D+01 0.233340374642647D+02 0.159129971132033D+02
 0.403349338917078D+03 0.235557996630829D+03 0.721732782437765D+02 -.306070067127874D+03
 0.286744202719266D+03 -.286377941801551D+03 0.120286821320394D+02 0.807607879982329D+01
0.473748907710D-04 0.000000000000D+00 0.000000000000D+00 0.155452528413D-06 0.000000000000D+00  7 3 -4 -24 -13 13 23 21 0 0.24888478D+00 0.14468161D-01 0.35245470D+05 0.35245470D+05 0.35245470D+05 0.11608980D+01  1  2  2  2  7  2       -4 0.329009363277D-04 0.100000000000D+01
-.920895956644D-06 0.000000000000D+00 -.181932054656D-06 0.155452528413D-06 0.000000000000D+00  7 3 -4 -24 -13 13 23 21 2 0.24888478D+00 0.14468161D-01 0.35245470D+05 0.35245470D+05 0.35245470D+05 0.11608980D+01  1  2  3  2  7  2       -4 -.861903702399D-06 0.100000000000D+01
0.286796180500D-05 0.000000000000D+00 0.000000000000D+00 0.155452528413D-06 0.000000000000D+00  7 3 -4 -24 -13 13 23 21 2 0.24888478D+00 0.14468161D-01 0.35245470D+05 0.35245470D+05 0.35245470D+05 0.11608980D+01  1  2 15  2  7  2       -4 0.268424123294D-05 0.100000000000D+01
  </mgrwgt>
  </event>
  <event>
  8     66 0.29493621E-05 0.32901133E+03 0.75467711E-02 0.96580863E-01
        1 -1    0    0  501    0 0.00000000E+00 0.00000000E+00 0.70203266E+03 0.70203274E+03 0.32000000E+00 0.0000E+00 0.9000E+01
       -2 -1    0    0    0  501 0.00000000E+00 0.00000000E+00 -.28393755E+03 0.28393773E+03 0.32000000E+00 0.0000E+00 0.9000E+01
       25  2    1    2    0    0 0.20239300E+03 0.29201220E+03 0.49970321E+02 0.46807363E+03 0.30060245E+03 0.0000E+00 0.0000E+00
       23  2    3    3    0    0 0.15581665E+03 0.30162965E+03 0.80719682E+02 0.36073013E+03 0.91385356E+02 0.0000E+00 0.0000E+00
      -24  1    1    2    0    0 -.20239300E+03 -.29201220E+03 0.36812479E+03 0.51789684E+03 0.80419002E+02 0.0000E+00 0.9000E+01
      -11  1    4    4    0    0 0.12031025E+03 0.28288902E+03 0.53008204E+02 0.31194651E+03 0.51099893E-03 0.0000E+00 0.9000E+01
       11  1    4    4    0    0 0.35506399E+02 0.18740632E+02 0.27711477E+02 0.48783621E+02 0.51099893E-03 0.0000E+00 0.9000E+01
       23  1    3    3    0    0 0.46576350E+02 -.96174497E+01 -.30749360E+02 0.10734350E+03 0.91188000E+02 0.0000E+00 0.9000E+01
#aMCatNLO 1  0  0  1  2 0.29248344D+02 0.00000000D+00  -5  7  0 0.00000000D+00 0.00000000D+00 0.00000000D+00 0.00000000D+00 0.00000000D+00
  <mgrwgt>
 0.1582673255D-02    9    2    0
 0.446467868340525D+03 0.000000000000000D+00 0.000000000000000D+00 0.446467868340525D+03
 0.446467868340525D+03 0.000000000000000D+00 0.000000000000000D+00 -.446467868340525D+03
 0.399491017871430D+03 -.202393000572281D+03 -.292012203731014D+03 0.163987205589601D+03
 0.319628346796121D+03 0.120310251385104D+03 0.282889021420069D+03 -.875301379369989D+02
 0.408911573345912D+02 0.355063990058289D+02 0.187406320450664D+02 0.775700253658582D+01
 0.132925214678907D+03 0.465763501813484D+02 -.961744973412081D+01 -.842140701891883D+02
 0.000000000000000D+00 -.000000000000000D+00 0.000000000000000D+00 0.000000000000000D+00
 0.465162475696961D+03 0.000000000000000D+00 0.000000000000000D+00 0.465162475696961D+03
 0.458295746077019D+03 0.000000000000000D+00 0.000000000000000D+00 -.458295746077019D+03
 0.396358449776681D+03 -.190001005597461D+03 -.296041583278212D+03 0.163987205589601D+03
 0.320682121708560D+03 0.130280383213531D+03 0.279647134592810D+03 -.875301379369989D+02
 0.418292904140332D+02 0.367944206914438D+02 0.183218190737160D+02 0.775700253658582D+01
 0.134544764946874D+03 0.507410657188645D+02 -.109716481211328D+02 -.842140701891883D+02
 0.300435949278319D+02 -.278148640263783D+02 0.904427773281830D+01 0.686672961994137D+01
0.445667032497D-04 0.000000000000D+00 0.000000000000D+00 0.503425938224D-05 0.000000000000D+00  7 1 -2 -24 -11 11 23 21 0 0.10800504D+00 0.43682719D-01 0.16592804D+06 0.16592804D+06 0.16592804D+06 0.11041097D+01  1  2  2  1  7  1        1 0.661746787739D-03 0.100000000000D+01
-.245060710462D-05 0.000000000000D+00 -.171147875161D-06 0.503425938224D-05 0.000000000000D+00  7 1 -2 -24 -11 11 23 21 2 0.10800504D+00 0.43682719D-01 0.16592804D+06 0.16592804D+06 0.16592804D+06 0.11041097D+01  1  2  3  1  7  1        1 -.443587698071D-04 0.100000000000D+01
0.287033110178D-05 0.000000000000D+00 0.000000000000D+00 0.503425938224D-05 0.000000000000D+00  7 1 -2 -24 -11 11 23 21 2 0.10800504D+00 0.43682719D-01 0.16592804D+06 0.16592804D+06 0.16592804D+06 0.11041097D+01  1  2 15  1  7  1        1 0.519562505037D-04 0.100000000000D+01
0.113899043033D-03 0.000000000000D+00 0.000000000000D+00 0.503425938224D-05 0.000000000000D+00  7 1 -2 -24 -11 11 23 21 2 0.11390902D+00 0.43682719D-01 0.17835039D+06 0.17835039D+06 0.17835039D+06 0.11016673D+01  1  2 12  1  7  1        1 0.188881277323D-02 0.100000000000D+01
-.101004806678D-03 0.000000000000D+00 0.000000000000D+00 0.503425938224D-05 0.000000000000D+00  7 1 -2 -24 -11 11 23 21 2 0.10800504D+00 0.43682719D-01 0.16592804D+06 0.16592804D+06 0.16592804D+06 0.11041097D+01  1  2  4  1  7  1        1 -.182830163202D-02 0.100000000000D+01
-.562801875407D-03 0.000000000000D+00 -.937146620142D-04 0.503425938224D-05 0.000000000000D+00  7 1 -2 -24 -11 11 23 21 2 0.11477772D+00 0.43682719D-01 0.16592804D+06 0.16592804D+06 0.16592804D+06 0.11041097D+01  1  2  5  1  7  1        1 -.928256642019D-02 0.100000000000D+01
0.567624463070D-03 0.000000000000D+00 0.935416031100D-04 0.503425938224D-05 0.000000000000D+00  7 1 -2 -24 -11 11 23 21 2 0.10800504D+00 0.43682719D-01 0.16592804D+06 0.16592804D+06 0.16592804D+06 0.11041097D+01  1  2  6  1  7  1        1 0.102746469831D-01 0.100000000000D+01
0.135701110273D-05 0.000000000000D+00 0.000000000000D+00 0.503425938224D-05 0.000000000000D+00  7 21 -2 -24 -11 11 23 -1 2 0.11390902D+00 0.43682719D-01 0.17835039D+06 0.17835039D+06 0.17835039D+06 0.11016673D+01  1  2 12  3  7  1        1 0.436512853034D-04 0.100000000000D+01
-.575115121260D-05 0.000000000000D+00 -.977686640609D-06 0.503425938224D-05 0.000000000000D+00  7 21 -2 -24 -11 11 23 -1 2 0.11477772D+00 0.43682719D-01 0.16592804D+06 0.16592804D+06 0.16592804D+06 0.11041097D+01  1  2  5  3  7  1        1 -.182914002934D-03 0.100000000000D+01
  </mgrwgt>
  </event>
  <event>
  8     66 0.29493621E-05 0.34864633E+03 0.75467711E-02 0.96040761E-01
        1 -1    0    0  501    0 0.00000000E+00 0.00000000E+00 0.21328125E+04 0.21328125E+04 0.32000000E+00 0.0000E+00 0.9000E+01
       -2 -1    0    0    0  501 0.00000000E+00 0.00000000E+00 -.95994900E+02 0.95995434E+02 0.32000000E+00 0.0000E+00 0.9000E+01
       25  2    1    2    0    0 0.37055595E+03 -.46604515E+02 0.78110823E+03 0.91626960E+03 0.29989369E+03 0.0000E+00 0.0000E+00
       23  2    3    3    0    0 0.37658438E+02 -.60141927E+02 0.11319437E+03 0.16432001E+03 0.95670743E+02 0.0000E+00 0.0000E+00
      -24  1    1    2    0    0 -.37055595E+03 0.46604515E+02 0.12557094E+04 0.13125383E+04 0.80419002E+02 0.0000E+00 0.9000E+01
      -11  1    4    4    0    0 -.13936706E+02 -.54149119E+02 0.23458652E+02 0.60635528E+02 0.51099893E-03 0.0000E+00 0.9000E+01
       11  1    4    4    0    0 0.51595145E+02 -.59928075E+01 0.89735720E+02 0.10368448E+03 0.51099893E-03 0.0000E+00 0.9000E+01
       23  1    3    3    0    0 0.33289751E+03 0.13537412E+02 0.66791386E+03 0.75194959E+03 0.91188000E+02 0.0000E+00 0.9000E+01
#aMCatNLO 1  0  0  1  2 0.49352758D+02 0.00000000D+00  -5  7  0 0.00000000D+00 0.00000000D+00 0.00000000D+00 0.00000000D+00 0.00000000D+00
  <mgrwgt>
 0.1228498137D-02    9    2    0
 0.452481760169854D+03 0.000000000000000D+00 0.000000000000000D+00 0.452481760169854D+03
 0.452481760169854D+03 0.000000000000000D+00 0.000000000000000D+00 -.452481760169854D+03
 0.406364426128825D+03 -.370555950367724D+03 0.466045149577050D+02 0.138495984422903D+03
 0.965386453180730D+02 -.139367063309032D+02 -.541491192939181D+02 -.786978470873752D+02
 0.533916637458727D+02 0.515951445215048D+02 -.599280749765031D+01 -.123570658998594D+02
 0.348668785146937D+03 0.332897512177122D+03 0.135374118338634D+02 -.474410714356688D+02
 0.000000000000000D+00 0.000000000000000D+00 -.000000000000000D+00 0.000000000000000D+00
 0.838970940037792D+03 0.000000000000000D+00 0.000000000000000D+00 0.838970940037792D+03
 0.454732403104374D+03 0.000000000000000D+00 0.000000000000000D+00 -.454732403104374D+03
 0.412969830164453D+03 -.374420645192719D+03 0.685923277333945D+02 0.138495984422903D+03
 0.939051993906151D+02 -.148350055725674D+02 -.490383313956049D+02 -.786978470873752D+02
 0.526620175268404D+02 0.510949028801501D+02 -.314673036846170D+01 -.123570658998594D+02
 0.346771216079328D+03 0.329617210696756D+03 0.322003743869816D+02 -.474410714356688D+02
 0.387395079980931D+03 0.854353718837988D+01 -.486076403563094D+02 0.384238536933419D+03
0.124374115581D-03 0.000000000000D+00 0.000000000000D+00 0.924860751402D-06 0.000000000000D+00  7 1 -2 -24 -11 11 23 21 0 0.32812504D+00 0.14768489D-01 0.17443875D+06 0.17443875D+06 0.17443875D+06 0.11024158D+01  1  2  2  1  7  1        1 0.115716485551D-02 0.100000000000D+01
-.685579408709D-05 0.000000000000D+00 -.477629352286D-06 0.924860751402D-06 0.000000000000D+00  7 1 -2 -24 -11 11 23 21 2 0.32812504D+00 0.14768489D-01 0.17443875D+06 0.17443875D+06 0.17443875D+06 0.11024158D+01  1  2  3  1  7  1        1 -.775200156156D-04 0.100000000000D+01
0.800589193195D-05 0.000000000000D+00 0.000000000000D+00 0.924860751402D-06 0.000000000000D+00  7 1 -2 -24 -11 11 23 21 2 0.32812504D+00 0.14768489D-01 0.17443875D+06 0.17443875D+06 0.17443875D+06 0.11024158D+01  1  2 15  1  7  1        1 0.905244322827D-04 0.100000000000D+01
0.201373219141D-02 0.000000000000D+00 0.000000000000D+00 0.924860751402D-06 0.000000000000D+00  7 1 -2 -24 -11 11 23 21 2 0.60855090D+00 0.14768489D-01 0.19551530D+06 0.19551530D+06 0.19551530D+06 0.10985826D+01  1  2 12  1  7  1        1 0.922737057643D-03 0.100000000000D+01
-.169136834734D-02 0.000000000000D+00 0.000000000000D+00 0.924860751402D-06 0.000000000000D+00  7 1 -2 -24 -11 11 23 21 2 0.32812504D+00 0.14768489D-01 0.17443875D+06 0.17443875D+06 0.17443875D+06 0.11024158D+01  1  2  4  1  7  1        1 -.191246847603D-01 0.100000000000D+01
-.200840613908D-02 0.000000000000D+00 -.301285380699D-04 0.924860751402D-06 0.000000000000D+00  7 1 -2 -24 -11 11 23 21 2 0.60881267D+00 0.14768489D-01 0.17443875D+06 0.17443875D+06 0.17443875D+06 0.11024158D+01  1  2  5  1  7  1        1 -.931421396593D-03 0.100000000000D+01
0.169729534632D-02 0.000000000000D+00 0.251659634978D-04 0.924860751402D-06 0.000000000000D+00  7 1 -2 -24 -11 11 23 21 2 0.32812504D+00 0.14768489D-01 0.17443875D+06 0.17443875D+06 0.17443875D+06 0.11024158D+01  1  2  6  1  7  1        1 0.191917026795D-01 0.100000000000D+01
0.135628151294D-03 0.000000000000D+00 0.000000000000D+00 0.924860751402D-06 0.000000000000D+00  7 21 -2 -24 -11 11 23 -1 2 0.60855090D+00 0.14768489D-01 0.19551530D+06 0.19551530D+06 0.19551530D+06 0.10985826D+01  1  2 12  3  7  1        1 0.534559974635D-05 0.100000000000D+01
-.133682426942D-03 0.000000000000D+00 -.203047407337D-05 0.924860751402D-06 0.000000000000D+00  7 21 -2 -24 -11 11 23 -1 2 0.60881267D+00 0.14768489D-01 0.17443875D+06 0.17443875D+06 0.17443875D+06 0.11024158D+01  1  2  5  3  7  1        1 -.535031484425D-05 0.100000000000D+01
  </mgrwgt>
  </event>
  <event>
  9     66 0.29493621E-05 0.27236152E+03 0.75467711E-02 0.10030270E+00
        1 -1    0    0  502    0 0.00000000E+00 0.00000000E+00 0.82805853E+03 0.82805860E+03 0.32000000E+00 0.0000E+00 0.9000E+01
       -2 -1    0    0    0  501 0.00000000E+00 0.00000000E+00 -.16796356E+03 0.16796387E+03 0.32000000E+00 0.0000E+00 0.9000E+01
       25  2    1    2    0    0 0.26180677E+03 0.90978034E+02 0.53987694E+03 0.67746942E+03 0.30112775E+03 0.0000E+00 0.0000E+00
       23  2    3    3    0    0 0.12711060E+03 0.54371604E+02 0.70335578E+02 0.17920500E+03 0.89743874E+02 0.0000E+00 0.0000E+00
      -24  1    1    2    0    0 -.19267021E+03 -.84851614E+02 0.86612454E+02 0.24143434E+03 0.80419002E+02 0.0000E+00 0.9000E+01
      -11  1    4    4    0    0 0.47353834E+02 0.66597623E+02 0.50681615E+02 0.96157450E+02 0.51099893E-03 0.0000E+00 0.9000E+01
       11  1    4    4    0    0 0.79756771E+02 -.12226020E+02 0.19653963E+02 0.83047554E+02 0.51099893E-03 0.0000E+00 0.9000E+01
       23  1    3    3    0    0 0.13469617E+03 0.36606431E+02 0.46954136E+03 0.49826442E+03 0.91188000E+02 0.0000E+00 0.9000E+01
       21  1    1    2  502  501 -.69136563E+02 -.61264205E+01 0.33605573E+02 0.77118703E+02 0.75000000E+00 0.0000E+00 0.9000E+01
#aMCatNLO 2  0  0  1  2 0.69407473D+02 0.00000000D+00  -5  7  0 0.00000000D+00 0.00000000D+00 0.00000000D+00 0.00000000D+00 0.00000000D+00
  <mgrwgt>
 0.2979071221D-03    1    2    0
 0.334319368074145D+03 0.000000000000000D+00 0.000000000000000D+00 0.334319368074145D+03
 0.334319368074145D+03 0.000000000000000D+00 0.000000000000000D+00 -.334319368074145D+03
 0.271347617207690D+03 -.219515749163073D+03 -.872304861435919D+02 -.106611404485862D+03
 0.791549434540121D+02 0.389306307722357D+02 0.658512154369014D+02 -.203353998329637D+02
 0.875816795271470D+02 0.703321196527392D+02 -.130611695187858D+02 -.505306776597168D+02
 0.230554495959440D+03 0.110252998738099D+03 0.344404402254764D+02 0.177477481978542D+03
 0.000000000000000D+00 -.000000000000000D+00 -.000000000000000D+00 -.000000000000000D+00
 0.360195892234779D+03 0.000000000000000D+00 0.000000000000000D+00 0.360195892234779D+03
 0.386129924272680D+03 0.000000000000000D+00 0.000000000000000D+00 -.386129924272680D+03
 0.249308670151543D+03 -.192670208293189D+03 -.848516135861409D+02 -.106611404485862D+03
 0.842090109784511D+02 0.473538339906706D+02 0.665976234559943D+02 -.203353998329637D+02
 0.952048707467402D+02 0.797567706652741D+02 -.122260198838450D+02 -.505306776597168D+02
 0.243508923741620D+03 0.134696166366114D+03 0.366064305092740D+02 0.177477481978542D+03
 0.740943408891049D+02 -.691365627288704D+02 -.612642049528229D+01 -.259340320379004D+02
0.789400727072D-05 0.000000000000D+00 0.000000000000D+00 0.306808053394D-06 0.437516442411D-09  7 1 -2 -24 -11 11 23 21 2 0.12739299D+00 0.25840443D-01 0.97314278D+05 0.97314278D+05 0.97314278D+05 0.11226936D+01  1  2  1  1  7  1        1 0.297907122096D-03 0.100000000000D+01
  </mgrwgt>
  </event>
  <event>
  8     66 0.29493621E-05 0.15488015E+04 0.75467711E-02 0.82642154E-01
        1 -1    0    0  501    0 0.00000000E+00 0.00000000E+00 0.13479888E+04 0.13479888E+04 0.32000000E+00 0.0000E+00 0.9000E+01
       -2 -1    0    0    0  501 0.00000000E+00 0.00000000E+00 -.20816564E+04 0.20816564E+04 0.32000000E+00 0.0000E+00 0.9000E+01
       25  2    1    2    0    0 -.13373268E+04 -.76095153E+03 -.10093722E+04 0.18644071E+04 0.29948535E+03 0.0000E+00 0.0000E+00
       23  2    3    3    0    0 -.23797645E+03 -.10508114E+03 -.10616170E+03 0.29506279E+03 0.90093879E+02 0.0000E+00 0.0000E+00
      -24  1    1    2    0    0 0.13373268E+04 0.76095153E+03 0.27570462E+03 0.15652381E+04 0.80419002E+02 0.0000E+00 0.9000E+01
      -13  1    4    4    0    0 -.23875170E+03 -.85098233E+02 -.88768603E+02 0.26855905E+03 0.10565837E+00 0.0000E+00 0.9000E+01
       13  1    4    4    0    0 0.77525018E+00 -.19982912E+02 -.17393094E+02 0.26503748E+02 0.10565837E+00 0.0000E+00 0.9000E+01
       23  1    3    3    0    0 -.10993503E+04 -.65587039E+03 -.90321055E+03 0.15693443E+04 0.91188000E+02 0.0000E+00 0.9000E+01
#aMCatNLO 1  0  0  2  2 0.25584595D+03 0.00000000D+00  -5  7  0 0.00000000D+00 0.00000000D+00 0.00000000D+00 0.00000000D+00 0.00000000D+00
  <mgrwgt>
 0.5605547373D-03    4    2    0
 0.167512675369344D+04 0.000000000000000D+00 0.000000000000000D+00 0.167512675369344D+04
 0.167512675369344D+04 0.000000000000000D+00 0.000000000000000D+00 -.167512675369344D+04
 0.166270616278237D+04 0.133732679308009D+04 0.760951529525437D+03 0.625007508773383D+03
 0.255484154105689D+03 -.238752032567588D+03 -.850983224511111D+02 -.320608087850484D+02
 0.233226033870879D+02 0.775579621505756D+00 -.199828220091273D+02 -.120012136700268D+02
 0.140874058711175D+04 -.109935034013401D+04 -.655870385065198D+03 -.580945486318307D+03
 0.000000000000000D+00 0.000000000000000D+00 0.000000000000000D+00 0.000000000000000D+00
 0.226203142298327D+04 0.000000000000000D+00 0.000000000000000D+00 0.226203142298327D+04
 0.170812016048055D+04 0.000000000000000D+00 0.000000000000000D+00 -.170812016048055D+04
 0.155174249663027D+04 0.124260743452740D+04 0.683176359023116D+03 0.625007508773383D+03
 0.274443000391766D+03 -.254367264127336D+03 -.979201712848643D+02 -.320608087850484D+02
 0.243131328380699D+02 -.628090761040194D+00 -.211353921383987D+02 -.120012136700268D+02
 0.150950966098633D+04 -.118534169382593D+04 -.726478888937132D+03 -.580945486318307D+03
 0.610143292617378D+03 0.197729614186905D+03 0.162358093337280D+03 0.553911262502719D+03
0.368258074655D-01 0.000000000000D+00 0.000000000000D+00 0.401012132812D-04 0.000000000000D+00  7 1 -2 -24 -13 13 23 21 0 0.20738290D+00 0.32025484D+00 0.23987860D+07 0.23987860D+07 0.23987860D+07 0.10234684D+01  1  2  2  2  7  2       -2 0.590404236528D-03 0.100000000000D+01
-.203058578551D-02 0.000000000000D+00 -.141420797125D-03 0.401012132812D-04 0.000000000000D+00  7 1 -2 -24 -13 13 23 21 2 0.20738290D+00 0.32025484D+00 0.23987860D+07 0.23987860D+07 0.23987860D+07 0.10234684D+01  1  2  3  2  7  2       -2 -.341010239511D-04 0.100000000000D+01
0.229972791566D-02 0.000000000000D+00 0.000000000000D+00 0.401012132812D-04 0.000000000000D+00  7 1 -2 -24 -13 13 23 21 2 0.20738290D+00 0.32025484D+00 0.23987860D+07 0.23987860D+07 0.23987860D+07 0.10234684D+01  1  2 15  2  7  2       -2 0.386209128875D-04 0.100000000000D+01
-.204656585280D-02 0.000000000000D+00 0.000000000000D+00 0.401012132812D-04 0.000000000000D+00  7 1 -2 -24 -13 13 23 21 2 0.20738290D+00 0.32025484D+00 0.23987860D+07 0.23987860D+07 0.23987860D+07 0.10234684D+01  1  2  4  2  7  2       -2 -.343693882138D-04 0.100000000000D+01
  </mgrwgt>
  </event>
  <event>
  8     66 0.29493621E-05 0.30761170E+03 0.75467711E-02 0.92563249E-01
        1 -1    0    0  501    0 0.00000000E+00 0.00000000E+00 0.62794415E+03 0.62794423E+03 0.32000000E+00 0.0000E+00 0.9000E+01
       -2 -1    0    0    0  501 0.00000000E+00 0.00000000E+00 -.29949683E+03 0.29949700E+03 0.32000000E+00 0.0000E+00 0.9000E+01
       25  2    1    2    0    0 0.12296628E+03 -.19199085E+03 -.13862754E+03 0.40150651E+03 0.30001448E+03 0.0000E+00 0.0000E+00
       23  2    3    3    0    0 -.40637085E+01 0.37743610E+02 -.27931418E+02 0.10236871E+03 0.90874056E+02 0.0000E+00 0.0000E+00
      -24  1    1    2    0    0 -.12296628E+03 0.19199085E+03 0.46707486E+03 0.52593472E+03 0.80419002E+02 0.0000E+00 0.9000E+01
      -11  1    4    4    0    0 0.41393015E+02 0.24974812E+02 -.26500999E+02 0.55130988E+02 0.51099893E-03 0.0000E+00 0.9000E+01
       11  1    4    4    0    0 -.45456724E+02 0.12768798E+02 -.14304192E+01 0.47237718E+02 0.51099893E-03 0.0000E+00 0.9000E+01
       23  1    3    3    0    0 0.12702999E+03 -.22973446E+03 -.11069612E+03 0.29913780E+03 0.91188000E+02 0.0000E+00 0.9000E+01
#aMCatNLO 1  0  0  2  2 0.46477490D+03 0.00000000D+00  -5  7  0 0.00000000D+00 0.00000000D+00 0.00000000D+00 0.00000000D+00 0.00000000D+00
  <mgrwgt>
 0.1057451322D-02    5    2    0
 0.433667383321157D+03 0.000000000000000D+00 0.000000000000000D+00 0.433667383321157D+03
 0.433667383321157D+03 0.000000000000000D+00 0.000000000000000D+00 -.433667383321157D+03
 0.385507506082476D+03 -.122966280646556D+03 0.191990853082149D+03 0.300279249113722D+03
 0.689871268944604D+02 0.413930150559675D+02 0.249748120903354D+02 -.492148427080822D+02
 0.510529804983679D+02 -.454567235871456D+02 0.127687981956161D+02 -.194177983079496D+02
 0.361787153167010D+03 0.127029989177735D+03 -.229734463368100D+03 -.231646608097690D+03
 0.000000000000000D+00 0.000000000000000D+00 0.000000000000000D+00 -.000000000000000D+00
 0.650867161064915D+03 0.000000000000000D+00 0.000000000000000D+00 0.650867161064915D+03
 0.831954713593267D+03 0.000000000000000D+00 0.000000000000000D+00 -.831954713593267D+03
 0.366217229712972D+03 -.192876482128873D+03 0.166996580073816D+02 0.300279249113722D+03
 0.576198509245034D+02 0.296185996257968D+02 -.454808025297269D+01 -.492148427080822D+02
 0.605890830602694D+02 -.558394059516244D+02 -.132644953890343D+02 -.194177983079496D+02
 0.499588726284668D+03 0.469222603549593D+02 -.430594698674697D+03 -.231646608097690D+03
 0.498806984675769D+03 0.172175028099741D+03 0.431707616309323D+03 -.181087552528352D+03
0.610333215697D-04 0.000000000000D+00 0.000000000000D+00 0.103812139885D-04 0.000000000000D+00  7 1 -2 -24 -11 11 23 21 0 0.96606811D-01 0.46076455D-01 0.94624959D+05 0.94624959D+05 0.94624959D+05 0.11236964D+01  1  2  2  2  7  2       -2 0.978414246267D-03 0.100000000000D+01
-.290447101308D-05 0.000000000000D+00 -.234384025270D-06 0.103812139885D-04 0.000000000000D+00  7 1 -2 -24 -11 11 23 21 2 0.96606811D-01 0.46076455D-01 0.94624959D+05 0.94624959D+05 0.94624959D+05 0.11236964D+01  1  2  3  2  7  2       -2 -.587923442194D-04 0.100000000000D+01
0.379325647036D-05 0.000000000000D+00 0.000000000000D+00 0.103812139885D-04 0.000000000000D+00  7 1 -2 -24 -11 11 23 21 2 0.96606811D-01 0.46076455D-01 0.94624959D+05 0.94624959D+05 0.94624959D+05 0.11236964D+01  1  2 15  2  7  2       -2 0.767831522894D-04 0.100000000000D+01
0.809783281280D-05 0.000000000000D+00 -.186442747682D-04 0.103812139885D-04 0.000000000000D+00  7 1 -2 -24 -11 11 23 21 2 0.96606811D-01 0.12324016D+00 0.94624959D+05 0.94624959D+05 0.94624959D+05 0.11236964D+01  1  2  5  2  7  2       -2 0.187330287670D-04 0.100000000000D+01
0.198278712566D-05 0.000000000000D+00 -.204256531830D-05 0.103812139885D-04 0.000000000000D+00  7 1 21 -24 -11 11 23 2 2 0.96606811D-01 0.12324016D+00 0.94624959D+05 0.94624959D+05 0.94624959D+05 0.11236964D+01  1  2  5  4  7  2       -2 0.423132391984D-04 0.100000000000D+01
  </mgrwgt>
  </event>
  <event>
  8     66 0.29493621E-05 0.37946238E+03 0.75467711E-02 0.96762600E-01
        1 -1    0    0  501    0 0.00000000E+00 0.00000000E+00 0.23845298E+04 0.23845298E+04 0.32000000E+00 0.0000E+00 0.9000E+01
       -2 -1    0    0    0  501 0.00000000E+00 0.00000000E+00 -.82192972E+02 0.82193595E+02 0.32000000E+00 0.0000E+00 0.9000E+01
       25  2    1    2    0    0 -.27738473E+03 0.24964835E+03 0.15656967E+04 0.16370412E+04 0.29871615E+03 0.0000E+00 0.0000E+00
       23  2    3    3    0    0 0.37800487E+01 0.12757755E+03 0.50073446E+03 0.52509939E+03 0.93295460E+02 0.0000E+00 0.0000E+00
      -24  1    1    2    0    0 0.27738473E+03 -.24964835E+03 0.73664012E+03 0.82968215E+03 0.80419002E+02 0.0000E+00 0.9000E+01
      -11  1    4    4    0    0 0.13193435E+02 0.87334906E+02 0.16796000E+03 0.18976832E+03 0.51099893E-03 0.0000E+00 0.9000E+01
       11  1    4    4    0    0 -.94133859E+01 0.40242640E+02 0.33277447E+03 0.33533107E+03 0.51099893E-03 0.0000E+00 0.9000E+01
       23  1    3    3    0    0 -.28116478E+03 0.12207080E+03 0.10649622E+04 0.11119419E+04 0.91188000E+02 0.0000E+00 0.9000E+01
#aMCatNLO 1  0  0  1  2 0.55716689D+00 0.00000000D+00  -5  7  0 0.00000000D+00 0.00000000D+00 0.00000000D+00 0.00000000D+00 0.00000000D+00
  <mgrwgt>
 0.1906100871D-02   10    2    0
 0.442710271055626D+03 0.000000000000000D+00 0.000000000000000D+00 0.442710271055626D+03
 0.442710271055626D+03 0.000000000000000D+00 0.000000000000000D+00 -.442710271055626D+03
 0.395973087547073D+03 0.277384729039005D+03 -.249648349123049D+03 -.105170737295529D+03
 0.919398781928737D+02 0.131934346245377D+02 0.873349056592635D+02 -.255242774318110D+02
 0.689052190779671D+02 -.941338588286400D+01 0.402426395455250D+02 0.551348106445636D+02
 0.328602357293340D+03 -.281164777780679D+03 0.122070803918260D+03 0.755602040827765D+02
 0.000000000000000D+00 0.000000000000000D+00 -.000000000000000D+00 0.000000000000000D+00
 0.446433767975739D+03 0.000000000000000D+00 0.000000000000000D+00 0.446433767975739D+03
 0.442731202168734D+03 0.000000000000000D+00 0.000000000000000D+00 -.442731202168734D+03
 0.395738607039898D+03 0.277191742428783D+03 -.249490847714938D+03 -.105170737295529D+03
 0.919682128035212D+02 0.131486054281062D+02 0.873714919361783D+02 -.255242774318110D+02
 0.689258334787584D+02 -.944698340049333D+01 0.402700593563065D+02 0.551348106445636D+02
 0.328788064092732D+03 -.281325022412510D+03 0.122201583743485D+03 0.755602040827765D+02
 0.374425272956327D+01 0.431657956113958D+00 -.352287321031840D+00 0.370256580700542D+01
0.567733105363D-04 0.000000000000D+00 0.000000000000D+00 0.309216853673D-06 0.000000000000D+00  7 1 -2 -24 -11 11 23 21 0 0.36685078D+00 0.12645122D-01 0.17272453D+06 0.17272453D+06 0.17272453D+06 0.11027496D+01  1  2  2  1  7  1        1 0.458485985923D-03 0.100000000000D+01
-.313876070861D-05 0.000000000000D+00 -.218024461215D-06 0.309216853673D-06 0.000000000000D+00  7 1 -2 -24 -11 11 23 21 2 0.36685078D+00 0.12645122D-01 0.17272453D+06 0.17272453D+06 0.17272453D+06 0.11027496D+01  1  2  3  1  7  1        1 -.308243464908D-04 0.100000000000D+01
0.363129201927D-05 0.000000000000D+00 0.000000000000D+00 0.309216853673D-06 0.000000000000D+00  7 1 -2 -24 -11 11 23 21 2 0.36685078D+00 0.12645122D-01 0.17272453D+06 0.17272453D+06 0.17272453D+06 0.11027496D+01  1  2 15  1  7  1        1 0.356612732866D-04 0.100000000000D+01
-.534875075651D-01 0.000000000000D+00 0.000000000000D+00 0.309216853673D-06 0.000000000000D+00  7 1 -2 -24 -11 11 23 21 2 0.36685078D+00 0.12645122D-01 0.17272453D+06 0.17272453D+06 0.17272453D+06 0.11027496D+01  1  2  4  1  7  1        1 -.525276572244D+00 0.100000000000D+01
-.584337200997D-01 0.000000000000D+00 -.597363337255D-03 0.309216853673D-06 0.000000000000D+00  7 1 -2 -24 -11 11 23 21 2 0.36994176D+00 0.12645122D-01 0.17272453D+06 0.17272453D+06 0.17272453D+06 0.11027496D+01  1  2  5  1  7  1        1 -.556068009669D+00 0.100000000000D+01
0.584366962936D-01 0.000000000000D+00 0.597342311065D-03 0.309216853673D-06 0.000000000000D+00  7 1 -2 -24 -11 11 23 21 2 0.36685078D+00 0.12645122D-01 0.17272453D+06 0.17272453D+06 0.17272453D+06 0.11027496D+01  1  2  6  1  7  1        1 0.573880311866D+00 0.100000000000D+01
0.534892717787D-01 0.000000000000D+00 0.000000000000D+00 0.309216853673D-06 0.645985838973D-05  7 1 -2 -24 -11 11 23 21 2 0.36993625D+00 0.12645720D-01 0.17296093D+06 0.17296093D+06 0.17296093D+06 0.11027034D+01  1  2 11  1  7  1        1 0.508934884526D+00 0.100000000000D+01
0.111468849694D-12 0.000000000000D+00 0.000000000000D+00 0.309216853673D-06 0.000000000000D+00  7 21 -2 -24 -11 11 23 -1 2 0.36994489D+00 0.12645122D-01 0.17296093D+06 0.17296093D+06 0.17296093D+06 0.11027034D+01  1  2 12  3  7  1        1 0.399372302714D-12 0.100000000000D+01
-.907660621156D-04 0.000000000000D+00 -.928053863445D-06 0.309216853673D-06 0.000000000000D+00  7 21 -2 -24 -11 11 23 -1 2 0.36994176D+00 0.12645122D-01 0.17272453D+06 0.17272453D+06 0.17272453D+06 0.11027496D+01  1  2  5  3  7  1        1 -.325282551801D-03 0.100000000000D+01
0.830154293090D-04 0.000000000000D+00 0.000000000000D+00 0.309216853673D-06 0.100214597153D-07  7 21 -2 -24 -11 11 23 -1 2 0.36993625D+00 0.12645720D-01 0.17296093D+06 0.17296093D+06 0.17296093D+06 0.11027034D+01  1  2 11  3  7  1        1 0.297446031776D-03 0.100000000000D+01
  </mgrwgt>
  </event>
  <event>
  8     66 0.29493621E-05 0.25514779E+03 0.75467711E-02 0.10285536E+00
        1 -1    0    0  501    0 0.00000000E+00 0.00000000E+00 0.15529822E+03 0.15529855E+03 0.32000000E+00 0.0000E+00 0.9000E+01
       -2 -1    0    0    0  501 0.00000000E+00 0.00000000E+00 -.74488289E+03 0.74488296E+03 0.32000000E+00 0.0000E+00 0.9000E+01
       25  2    1    2    0    0 0.77557814E+02 -.19345411E+03 -.56841873E+03 0.67578249E+03 0.30023726E+03 0.0000E+00 0.0000E+00
       23  2    3    3    0    0 0.81981773E+02 -.15257552E+02 -.76249491E+02 0.14444513E+03 0.89981139E+02 0.0000E+00 0.0000E+00
      -24  1    1    2    0    0 -.77557814E+02 0.19345411E+03 -.21165940E+02 0.22439902E+03 0.80419002E+02 0.0000E+00 0.9000E+01
      -13  1    4    4    0    0 0.38791899E+02 0.47396031E+01 0.14733204E+02 0.41765461E+02 0.10565837E+00 0.0000E+00 0.9000E+01
       13  1    4    4    0    0 0.43189874E+02 -.19997155E+02 -.90982695E+02 0.10267966E+03 0.10565837E+00 0.0000E+00 0.9000E+01
       23  1    3    3    0    0 -.44239590E+01 -.17819656E+03 -.49216924E+03 0.53133737E+03 0.91188000E+02 0.0000E+00 0.9000E+01
#aMCatNLO 1  0  0  1  2 0.30656349D+01 0.00000000D+00  -5  7  0 0.00000000D+00 0.00000000D+00 0.00000000D+00 0.00000000D+00 0.00000000D+00
  <mgrwgt>
 0.7241516719D-03    8    2    0
 0.340116403947049D+03 0.000000000000000D+00 0.000000000000000D+00 0.340116403947049D+03
 0.340116403947049D+03 0.000000000000000D+00 0.000000000000000D+00 -.340116403947049D+03
 0.278611579621593D+03 -.775578142710417D+02 0.193454111465133D+03 0.166485700730133D+03
 0.680399078405633D+02 0.387918931558716D+02 0.473963714615459D+01 0.556969830786066D+02
 0.570221285574621D+02 0.431898799941830D+02 -.199971893948530D+02 -.314049331732800D+02
 0.276559191874479D+03 -.442395887901291D+01 -.178196559216434D+03 -.190777750635460D+03
 0.000000000000000D+00 0.000000000000000D+00 0.000000000000000D+00 -.000000000000000D+00
 0.340410346278699D+03 0.000000000000000D+00 0.000000000000000D+00 0.340410346278699D+03
 0.348208063248026D+03 0.000000000000000D+00 0.000000000000000D+00 -.348208063248026D+03
 0.277779939876982D+03 -.776775870998959D+02 0.192206095008518D+03 0.166485700730133D+03
 0.680026348443244D+02 0.387626076624540D+02 0.443448631958663D+01 0.556969830786066D+02
 0.570938228378400D+02 0.431653145760611D+02 -.202531576839310D+02 -.314049331732800D+02
 0.277363318315247D+03 -.454320021121583D+01 -.179439037550807D+03 -.190777750635460D+03
 0.837869365233219D+01 0.292865072596641D+00 0.305161390663332D+01 -.779771696932678D+01
0.466108743089D-04 0.000000000000D+00 0.000000000000D+00 0.264476061403D-05 0.000000000000D+00  7 1 -2 -24 -13 13 23 21 0 0.23892065D-01 0.11459740D+00 0.65100397D+05 0.65100397D+05 0.65100397D+05 0.11373484D+01  1  2  2  1  7  1        1 0.664314067343D-03 0.100000000000D+01
-.232935391249D-05 0.000000000000D+00 -.178998030271D-06 0.264476061403D-05 0.000000000000D+00  7 1 -2 -24 -13 13 23 21 2 0.23892065D-01 0.11459740D+00 0.65100397D+05 0.65100397D+05 0.65100397D+05 0.11373484D+01  1  2  3  1  7  1        1 -.429446183523D-04 0.100000000000D+01
0.301768320643D-05 0.000000000000D+00 0.000000000000D+00 0.264476061403D-05 0.000000000000D+00  7 1 -2 -24 -13 13 23 21 2 0.23892065D-01 0.11459740D+00 0.65100397D+05 0.65100397D+05 0.65100397D+05 0.11373484D+01  1  2 15  1  7  1        1 0.556348491800D-04 0.100000000000D+01
-.243833847516D-04 0.000000000000D+00 0.000000000000D+00 0.264476061403D-05 0.000000000000D+00  7 1 -2 -24 -13 13 23 21 2 0.23892065D-01 0.11459740D+00 0.65100397D+05 0.65100397D+05 0.65100397D+05 0.11373484D+01  1  2  4  1  7  1        1 -.449538881439D-03 0.100000000000D+01
0.303623335242D-06 0.000000000000D+00 0.000000000000D+00 0.264476061403D-05 0.000000000000D+00  7 1 -2 -24 -13 13 23 21 2 0.24531274D-01 0.11459740D+00 0.65100397D+05 0.65100397D+05 0.65100397D+05 0.11373484D+01  1  2  5  1  7  1        1 0.540983195128D-05 0.100000000000D+01
-.303517540056D-06 0.000000000000D+00 0.000000000000D+00 0.264476061403D-05 0.000000000000D+00  7 1 -2 -24 -13 13 23 21 2 0.23892065D-01 0.11459740D+00 0.65100397D+05 0.65100397D+05 0.65100397D+05 0.11373484D+01  1  2  6  1  7  1        1 -.559573401493D-05 0.100000000000D+01
0.243470575397D-04 0.000000000000D+00 0.000000000000D+00 0.264476061403D-05 0.194033570040D-05  7 1 -2 -24 -13 13 23 21 2 0.23912713D-01 0.11732377D+00 0.65908592D+05 0.65908592D+05 0.65908592D+05 0.11368899D+01  1  2 11  1  7  1        1 0.422451387064D-03 0.100000000000D+01
0.568601521650D-06 0.000000000000D+00 0.000000000000D+00 0.264476061403D-05 0.316854540017D-09  7 21 -2 -24 -13 13 23 -1 2 0.23912713D-01 0.11732377D+00 0.65908592D+05 0.65908592D+05 0.65908592D+05 0.11368899D+01  1  2 11  3  7  1        1 0.744207701641D-04 0.100000000000D+01
  </mgrwgt>
  </event>
  <event>
  8     66 0.29493621E-05 0.12319204E+03 0.75467711E-02 0.99018909E-01
        3 -1    0    0  501    0 0.00000000E+00 0.00000000E+00 0.14651272E+03 0.14651358E+03 0.50000000E+00 0.0000E+00 0.9000E+01
       -4 -1    0    0    0  501 0.00000000E+00 0.00000000E+00 -.46257281E+03 0.46257540E+03 0.15500000E+01 0.0000E+00 0.9000E+01
       25  2    1    2    0    0 0.13793333E+03 -.83532579E+02 -.20839993E+03 0.39918133E+03 0.29985315E+03 0.0000E+00 0.0000E+00
       23  2    3    3    0    0 0.12071369E+03 0.66010788E+02 -.92493207E+02 0.18844606E+03 0.89597474E+02 0.0000E+00 0.0000E+00
      -24  1    1    2    0    0 -.13793333E+03 0.83532579E+02 -.10766015E+03 0.20990765E+03 0.80419002E+02 0.0000E+00 0.9000E+01
      -13  1    4    4    0    0 0.51134725E+02 0.43550377E+01 0.75544313E+01 0.51872990E+02 0.10565837E+00 0.0000E+00 0.9000E+01
       13  1    4    4    0    0 0.69578960E+02 0.61655751E+02 -.10004764E+03 0.13657307E+03 0.10565837E+00 0.0000E+00 0.9000E+01
       23  1    3    3    0    0 0.17219642E+02 -.14954337E+03 -.11590672E+03 0.21073527E+03 0.91188000E+02 0.0000E+00 0.9000E+01
#aMCatNLO 1  0  0  2  1 0.16297784D+03 0.00000000D+00  -5  7  0 0.00000000D+00 0.00000000D+00 0.00000000D+00 0.00000000D+00 0.00000000D+00
  <mgrwgt>
 0.1147899838D-03    7    2    0
 0.260334116217739D+03 0.000000000000000D+00 0.000000000000000D+00 0.260334116217739D+03
 0.260334116217739D+03 0.000000000000000D+00 0.000000000000000D+00 -.260334116217739D+03
 0.180201806823304D+03 -.137933328153739D+03 0.835325798155794D+02 0.147659127714934D+01
 0.652678496337575D+02 0.511346995199837D+02 0.435495830804318D+01 0.403257862781492D+02
 0.990344905476566D+02 0.695789860746037D+02 0.616558297512420D+02 -.341343474018452D+02
 0.176164085430760D+03 0.172196425591512D+02 -.149543367874865D+03 -.766803015345328D+01
 0.000000000000000D+00 -.000000000000000D+00 0.000000000000000D+00 -.000000000000000D+00
 0.298824678899037D+03 0.000000000000000D+00 0.000000000000000D+00 0.298824678899037D+03
 0.527849738492195D+03 0.000000000000000D+00 0.000000000000000D+00 -.527849738492195D+03
 0.143311887653431D+03 -.110872709525760D+03 0.421443133653383D+02 0.147659127714934D+01
 0.760087189213848D+02 0.629519159408332D+02 -.137190594611072D+02 0.403257862781492D+02
 0.995381748314046D+02 0.861887904182971D+02 0.362517169586252D+02 -.341343474018452D+02
 0.226720895270814D+03 0.509193498662550D+02 -.201085887449028D+03 -.766803015345328D+01
 0.281094740714197D+03 -.891873466996253D+02 0.136408916586172D+03 -.229025059593157D+03
0.140125955479D-04 0.000000000000D+00 0.000000000000D+00 0.626999229347D-06 0.000000000000D+00  7 3 -4 -24 -13 13 23 21 0 0.22540684D-01 0.71165313D-01 0.62619729D+05 0.62619729D+05 0.62619729D+05 0.11387961D+01  1  2  2  2  7  2       -4 0.135102343441D-03 0.100000000000D+01
-.776997136180D-06 0.000000000000D+00 -.538120565050D-07 0.626999229347D-06 0.000000000000D+00  7 3 -4 -24 -13 13 23 21 2 0.22540684D-01 0.71165313D-01 0.62619729D+05 0.62619729D+05 0.62619729D+05 0.11387961D+01  1  2  3  2  7  2       -4 -.971528723003D-05 0.100000000000D+01
0.918840226767D-06 0.000000000000D+00 0.000000000000D+00 0.626999229347D-06 0.000000000000D+00  7 3 -4 -24 -13 13 23 21 2 0.22540684D-01 0.71165313D-01 0.62619729D+05 0.62619729D+05 0.62619729D+05 0.11387961D+01  1  2 15  2  7  2       -4 0.114888412143D-04 0.100000000000D+01
0.379914236887D-05 0.000000000000D+00 0.000000000000D+00 0.626999229347D-06 0.000000000000D+00  7 3 -4 -24 -13 13 23 21 2 0.22540684D-01 0.14457738D+00 0.11930294D+06 0.11930294D+06 0.11930294D+06 0.11154857D+01  1  2 12  2  7  2       -4 0.639497554200D-05 0.100000000000D+01
-.112317649701D-04 0.000000000000D+00 -.416970523600D-05 0.626999229347D-06 0.000000000000D+00  7 3 -4 -24 -13 13 23 21 2 0.22540684D-01 0.15579608D+00 0.62619729D+05 0.62619729D+05 0.62619729D+05 0.11387961D+01  1  2  5  2  7  2       -4 -.153697704930D-04 0.100000000000D+01
0.291229734304D-06 0.000000000000D+00 0.000000000000D+00 0.626999229347D-06 0.000000000000D+00  7 3 21 -24 -13 13 23 4 2 0.22540684D-01 0.14457738D+00 0.11930294D+06 0.11930294D+06 0.11930294D+06 0.11154857D+01  1  2 12  4  7  2       -4 0.124746684201D-04 0.100000000000D+01
-.691240483386D-06 0.000000000000D+00 -.354004759288D-06 0.626999229347D-06 0.000000000000D+00  7 3 21 -24 -13 13 23 4 2 0.22540684D-01 0.15579608D+00 0.62619729D+05 0.62619729D+05 0.62619729D+05 0.11387961D+01  1  2  5  4  7  2       -4 -.255857870858D-04 0.100000000000D+01
  </mgrwgt>
  </event>
  <event>
  8     66 0.29493621E-05 0.48342795E+03 0.75467711E-02 0.93388026E-01
        1 -1    0    0  501    0 0.00000000E+00 0.00000000E+00 0.49787870E+03 0.49787881E+03 0.32000000E+00 0.0000E+00 0.9000E+01
       -2 -1    0    0    0  501 0.00000000E+00 0.00000000E+00 -.62161533E+03 0.62161541E+03 0.32000000E+00 0.0000E+00 0.9000E+01
       25  2    1    2    0    0 -.26023028E+03 0.36124986E+03 -.32170844E+03 0.62565081E+03 0.29953523E+03 0.0000E+00 0.0000E+00
       23  2    3    3    0    0 -.22338455E+03 0.12208532E+03 -.21597147E+03 0.34627142E+03 0.91949657E+02 0.0000E+00 0.0000E+00
      -24  1    1    2    0    0 0.26023028E+03 -.36124986E+03 0.19797181E+03 0.49384341E+03 0.80419002E+02 0.0000E+00 0.9000E+01
      -13  1    4    4    0    0 -.13768416E+03 0.61004715E+02 -.18081711E+03 0.23531541E+03 0.10565837E+00 0.0000E+00 0.9000E+01
       13  1    4    4    0    0 -.85700390E+02 0.61080600E+02 -.35154363E+02 0.11095601E+03 0.10565837E+00 0.0000E+00 0.9000E+01
       23  1    3    3    0    0 -.36845737E+02 0.23916454E+03 -.10573697E+03 0.27937939E+03 0.91188000E+02 0.0000E+00 0.9000E+01
#aMCatNLO 1  0  0  1  1 0.14254969D+03 0.00000000D+00  -5  7  0 0.00000000D+00 0.00000000D+00 0.00000000D+00 0.00000000D+00 0.00000000D+00
  <mgrwgt>
 0.1183416211D-02    4    2    0
 0.556317480189073D+03 0.000000000000000D+00 0.000000000000000D+00 0.556317480189073D+03
 0.556317480189073D+03 0.000000000000000D+00 0.000000000000000D+00 -.556317480189073D+03
 0.518904427631490D+03 0.260230284284969D+03 -.361249855608326D+03 0.254112829320208D+03
 0.216657490134309D+03 -.137684225947858D+03 0.610047153233243D+02 -.155762468729657D+03
 0.107730368211832D+03 -.857003217984470D+02 0.610806002198885D+02 -.230314427571873D+02
 0.269342674400516D+03 -.368457365386641D+02 0.239164540065113D+03 -.753189178333637D+02
 0.000000000000000D+00 0.000000000000000D+00 -.000000000000000D+00 -.000000000000000D+00
 0.575424347256700D+03 0.000000000000000D+00 0.000000000000000D+00 0.575424347256700D+03
 0.909782073289937D+03 0.000000000000000D+00 0.000000000000000D+00 -.909782073289937D+03
 0.476267900165133D+03 0.259082837683995D+03 -.297769457745118D+03 0.254112829320208D+03
 0.226561801239472D+03 -.138195263539205D+03 0.892769413199523D+02 -.155762468729657D+03
 0.116633681533961D+03 -.859590164577244D+02 0.753924121003472D+02 -.230314427571873D+02
 0.302266072184634D+03 -.375048088370353D+02 0.275626517193892D+03 -.753189178333637D+02
 0.363476965423436D+03 0.257625114997059D+01 -.142526412869074D+03 -.334357726033236D+03
0.269155548897D-03 0.000000000000D+00 0.000000000000D+00 0.702282876952D-05 0.000000000000D+00  7 1 -2 -24 -13 13 23 21 0 0.76596738D-01 0.95633142D-01 0.23370258D+06 0.23370258D+06 0.23370258D+06 0.10926684D+01  1  2  2  1  7  1        1 0.123607985466D-02 0.100000000000D+01
-.145945156037D-04 0.000000000000D+00 -.103362817805D-05 0.702282876952D-05 0.000000000000D+00  7 1 -2 -24 -13 13 23 21 2 0.76596738D-01 0.95633142D-01 0.23370258D+06 0.23370258D+06 0.23370258D+06 0.10926684D+01  1  2  3  1  7  1        1 -.800220482513D-04 0.100000000000D+01
0.172104523132D-04 0.000000000000D+00 0.000000000000D+00 0.702282876952D-05 0.000000000000D+00  7 1 -2 -24 -13 13 23 21 2 0.76596738D-01 0.95633142D-01 0.23370258D+06 0.23370258D+06 0.23370258D+06 0.10926684D+01  1  2 15  1  7  1        1 0.943652864423D-04 0.100000000000D+01
-.122207941823D-04 0.000000000000D+00 0.000000000000D+00 0.702282876952D-05 0.000000000000D+00  7 1 -2 -24 -13 13 23 21 2 0.76596738D-01 0.95633142D-01 0.23370258D+06 0.23370258D+06 0.23370258D+06 0.10926684D+01  1  2  4  1  7  1        1 -.670068817819D-04 0.100000000000D+01
  </mgrwgt>
  </event>
  <event>
  8     66 0.29493621E-05 0.25631343E+03 0.75467711E-02 0.94594657E-01
        1 -1    0    0  501    0 0.00000000E+00 0.00000000E+00 0.11146891E+03 0.11146937E+03 0.32000000E+00 0.0000E+00 0.9000E+01
       -2 -1    0    0    0  501 0.00000000E+00 0.00000000E+00 -.80527998E+03 0.80528005E+03 0.32000000E+00 0.0000E+00 0.9000E+01
       25  2    1    2    0    0 0.14681025E+03 0.72583528E+02 -.21519837E+03 0.40453955E+03 0.30086590E+03 0.0000E+00 0.0000E+00
       23  2    3    3    0    0 0.75597660E+02 -.84881277E+02 -.98821348E+02 0.17710767E+03 0.93175269E+02 0.0000E+00 0.0000E+00
      -24  1    1    2    0    0 -.14681025E+03 -.72583528E+02 -.47861270E+03 0.51220987E+03 0.80419002E+02 0.0000E+00 0.9000E+01
      -13  1    4    4    0    0 0.14607287E+02 -.70650340E+02 -.87596022E+02 0.11348091E+03 0.10565837E+00 0.0000E+00 0.9000E+01
       13  1    4    4    0    0 0.60990373E+02 -.14230937E+02 -.11225326E+02 0.63626758E+02 0.10565837E+00 0.0000E+00 0.9000E+01
       23  1    3    3    0    0 0.71212586E+02 0.15746481E+03 -.11637703E+03 0.22743188E+03 0.91188000E+02 0.0000E+00 0.9000E+01
#aMCatNLO 1  0  0  1  1 0.37127658D+03 0.00000000D+00  -5  7  0 0.00000000D+00 0.00000000D+00 0.00000000D+00 0.00000000D+00 0.00000000D+00
  <mgrwgt>
 0.9725017169D-03    3    2    0
 0.299606280602095D+03 0.000000000000000D+00 0.000000000000000D+00 0.299606280602095D+03
 0.299606280602095D+03 0.000000000000000D+00 0.000000000000000D+00 -.299606280602095D+03
 0.229470005419210D+03 -.146810247623813D+03 -.725835288620212D+02 -.139167704455067D+03
 0.721921796879948D+02 0.146072280541693D+02 -.706504110097414D+02 -.261899233138087D+01
 0.843466059640089D+02 0.609904316266032D+02 -.142308657393207D+02 0.564977844517628D+02
 0.213203770132976D+03 0.712125879430405D+02 0.157464805611083D+03 0.852889123346846D+02
 0.000000000000000D+00 -.000000000000000D+00 0.000000000000000D+00 -.000000000000000D+00
 0.480276450932079D+03 0.000000000000000D+00 0.000000000000000D+00 0.480276450932079D+03
 0.622066419637283D+03 0.000000000000000D+00 0.000000000000000D+00 -.622066419637283D+03
 0.294236105353951D+03 -.114641998285111D+03 -.218167898659254D+03 -.139167704455067D+03
 0.129624016660375D+03 0.270036343423037D+02 -.126753028786868D+03 -.261899233138087D+01
 0.115988517284898D+03 0.732958641266295D+02 -.699217619623666D+02 0.564977844517628D+02
 0.165064117006744D+03 0.944474050666564D+02 0.523106154442624D+02 0.852889123346846D+02
 0.397430114263394D+03 -.801049052504786D+02 0.362532073964226D+03 -.141789968705203D+03
0.533093940463D-04 0.000000000000D+00 0.000000000000D+00 0.294124491929D-06 0.000000000000D+00  7 1 -2 -24 -13 13 23 21 0 0.17149104D-01 0.12388927D+00 0.65696573D+05 0.65696573D+05 0.65696573D+05 0.11370096D+01  1  2  2  1  7  1        1 0.960132864644D-03 0.100000000000D+01
-.287392453361D-05 0.000000000000D+00 -.204722109824D-06 0.294124491929D-06 0.000000000000D+00  7 1 -2 -24 -13 13 23 21 2 0.17149104D-01 0.12388927D+00 0.65696573D+05 0.65696573D+05 0.65696573D+05 0.11370096D+01  1  2  3  1  7  1        1 -.669161873017D-04 0.100000000000D+01
0.340514350245D-05 0.000000000000D+00 0.000000000000D+00 0.294124491929D-06 0.000000000000D+00  7 1 -2 -24 -13 13 23 21 2 0.17149104D-01 0.12388927D+00 0.65696573D+05 0.65696573D+05 0.65696573D+05 0.11370096D+01  1  2 15  1  7  1        1 0.792850395807D-04 0.100000000000D+01
  </mgrwgt>
  </event>
  <event>
  8     66 0.29493621E-05 0.12131570E+03 0.75467711E-02 0.96604855E-01
        1 -1    0    0  501    0 0.00000000E+00 0.00000000E+00 0.30658178E+03 0.30658195E+03 0.32000000E+00 0.0000E+00 0.9000E+01
       -2 -1    0    0    0  501 0.00000000E+00 0.00000000E+00 -.67622144E+03 0.67622152E+03 0.32000000E+00 0.0000E+00 0.9000E+01
       25  2    1    2    0    0 -.15474695E+03 0.19361195E+03 -.54438784E+03 0.66905779E+03 0.29974656E+03 0.0000E+00 0.0000E+00
       23  2    3    3    0    0 0.26592933E+02 0.10843765E+03 -.32984068E+03 0.36167440E+03 0.97711767E+02 0.0000E+00 0.0000E+00
      -24  1    1    2    0    0 0.15474695E+03 -.19361195E+03 0.17474818E+03 0.31374568E+03 0.80419002E+02 0.0000E+00 0.9000E+01
      -11  1    4    4    0    0 0.60081328E+02 0.52408076E+02 -.21874957E+03 0.23282557E+03 0.51099893E-03 0.0000E+00 0.9000E+01
       11  1    4    4    0    0 -.33488396E+02 0.56029576E+02 -.11109111E+03 0.12884883E+03 0.51099893E-03 0.0000E+00 0.9000E+01
       23  1    3    3    0    0 -.18133988E+03 0.85174303E+02 -.21454715E+03 0.30738339E+03 0.91188000E+02 0.0000E+00 0.9000E+01
#aMCatNLO 1  0  0  1  2 0.21491245D+03 0.00000000D+00  -5  7  0 0.00000000D+00 0.00000000D+00 0.00000000D+00 0.00000000D+00 0.00000000D+00
  <mgrwgt>
 0.4787725362D-03    9    2    0
 0.455321089816268D+03 0.000000000000000D+00 0.000000000000000D+00 0.455321089816268D+03
 0.455321089816268D+03 0.000000000000000D+00 0.000000000000000D+00 -.455321089816268D+03
 0.409539778123067D+03 0.154746946424425D+03 -.193611954750282D+03 0.315948425317822D+03
 0.162482331177342D+03 0.600813283654896D+02 0.524080757539091D+02 -.141577312880398D+03
 0.939659935740787D+02 -.334883954956065D+02 0.560295761404143D+02 -.675930611307044D+02
 0.244654076758049D+03 -.181339879294308D+03 0.851743028559588D+02 -.106778051306720D+03
 0.000000000000000D+00 0.000000000000000D+00 -.000000000000000D+00 0.000000000000000D+00
 0.793918961412858D+03 0.000000000000000D+00 0.000000000000000D+00 0.793918961412858D+03
 0.503239173559940D+03 0.000000000000000D+00 0.000000000000000D+00 -.503239173559940D+03
 0.373894947035481D+03 0.665225060703485D+02 -.170533176213908D+03 0.315948425317822D+03
 0.156358334495325D+03 0.241759256717306D+02 0.618006299452752D+02 -.141577312880398D+03
 0.107539769831133D+03 -.561804368790770D+02 0.619656251028736D+02 -.675930611307044D+02
 0.297865293577126D+03 -.242434270814137D+03 0.101156086656932D+03 -.106778051306720D+03
 0.361499790033732D+03 0.207916275951135D+03 -.543891654911730D+02 0.290679787852918D+03
0.119868191002D-03 0.000000000000D+00 0.000000000000D+00 0.468403078036D-06 0.000000000000D+00  7 1 -2 -24 -11 11 23 21 0 0.47166447D-01 0.10403409D+00 0.97874990D+05 0.97874990D+05 0.97874990D+05 0.11224883D+01  1  2  2  1  7  1        1 0.887907769293D-03 0.100000000000D+01
-.551903353355D-05 0.000000000000D+00 -.460325415466D-06 0.468403078036D-06 0.000000000000D+00  7 1 -2 -24 -11 11 23 21 2 0.47166447D-01 0.10403409D+00 0.97874990D+05 0.97874990D+05 0.97874990D+05 0.11224883D+01  1  2  3  1  7  1        1 -.515098891608D-04 0.100000000000D+01
0.750047705611D-05 0.000000000000D+00 0.000000000000D+00 0.468403078036D-06 0.000000000000D+00  7 1 -2 -24 -11 11 23 21 2 0.47166447D-01 0.10403409D+00 0.97874990D+05 0.97874990D+05 0.97874990D+05 0.11224883D+01  1  2 15  1  7  1        1 0.700029705318D-04 0.100000000000D+01
0.311255359394D-04 0.000000000000D+00 0.000000000000D+00 0.468403078036D-06 0.000000000000D+00  7 1 -2 -24 -11 11 23 21 2 0.83122217D-01 0.10403409D+00 0.17762820D+06 0.17762820D+06 0.17762820D+06 0.11018042D+01  1  2 12  1  7  1        1 0.127587370001D-03 0.100000000000D+01
-.127781825864D-03 0.000000000000D+00 0.000000000000D+00 0.468403078036D-06 0.000000000000D+00  7 1 -2 -24 -11 11 23 21 2 0.47166447D-01 0.10403409D+00 0.97874990D+05 0.97874990D+05 0.97874990D+05 0.11224883D+01  1  2  4  1  7  1        1 -.119260512678D-02 0.100000000000D+01
-.111605364505D-03 0.000000000000D+00 -.410392264145D-04 0.468403078036D-06 0.000000000000D+00  7 1 -2 -24 -11 11 23 21 2 0.88004573D-01 0.10403409D+00 0.97874990D+05 0.97874990D+05 0.97874990D+05 0.11224883D+01  1  2  5  1  7  1        1 -.448157994839D-03 0.100000000000D+01
0.119966680012D-03 0.000000000000D+00 0.341739453008D-04 0.468403078036D-06 0.000000000000D+00  7 1 -2 -24 -11 11 23 21 2 0.47166447D-01 0.10403409D+00 0.97874990D+05 0.97874990D+05 0.97874990D+05 0.11224883D+01  1  2  6  1  7  1        1 0.111966530967D-02 0.100000000000D+01
0.194434216974D-05 0.000000000000D+00 0.000000000000D+00 0.468403078036D-06 0.000000000000D+00  7 21 -2 -24 -11 11 23 -1 2 0.83122217D-01 0.10403409D+00 0.17762820D+06 0.17762820D+06 0.17762820D+06 0.11018042D+01  1  2 12  3  7  1        1 0.217804028705D-04 0.100000000000D+01
-.528955075480D-05 0.000000000000D+00 -.278829643827D-05 0.468403078036D-06 0.000000000000D+00  7 21 -2 -24 -11 11 23 -1 2 0.88004573D-01 0.10403409D+00 0.97874990D+05 0.97874990D+05 0.97874990D+05 0.11224883D+01  1  2  5  3  7  1        1 -.558982753973D-04 0.100000000000D+01
  </mgrwgt>
  </event>
  <event>
  8     66 0.29493621E-05 0.13571997E+03 0.75467711E-02 0.10044530E+00
        1 -1    0    0  501    0 0.00000000E+00 0.00000000E+00 0.25100080E+03 0.25100100E+03 0.32000000E+00 0.0000E+00 0.9000E+01
       -2 -1    0    0    0  501 0.00000000E+00 0.00000000E+00 -.46899613E+03 0.46899624E+03 0.32000000E+00 0.0000E+00 0.9000E+01
       25  2    1    2    0    0 0.10882366E+03 0.20849801E+03 0.12372781E+02 0.38110096E+03 0.29961784E+03 0.0000E+00 0.0000E+00
       23  2    3    3    0    0 0.15569545E+03 0.21010646E+03 0.23888672E+02 0.27791463E+03 0.90994901E+02 0.0000E+00 0.0000E+00
      -24  1    1    2    0    0 -.10882366E+03 -.20849801E+03 -.23036811E+03 0.33889628E+03 0.80419002E+02 0.0000E+00 0.9000E+01
      -13  1    4    4    0    0 0.11939259E+03 0.12250861E+03 -.22175342E+02 0.17249553E+03 0.10565837E+00 0.0000E+00 0.9000E+01
       13  1    4    4    0    0 0.36302856E+02 0.87597859E+02 0.46064014E+02 0.10541910E+03 0.10565837E+00 0.0000E+00 0.9000E+01
       23  1    3    3    0    0 -.46871792E+02 -.16084588E+01 -.11515891E+02 0.10318633E+03 0.91188000E+02 0.0000E+00 0.9000E+01
#aMCatNLO 1  0  0  1  2 0.21491245D+03 0.00000000D+00  -5  7  0 0.00000000D+00 0.00000000D+00 0.00000000D+00 0.00000000D+00 0.00000000D+00
  <mgrwgt>
 0.4840846508D-05    1    2    0
 0.343101319206897D+03 0.000000000000000D+00 0.000000000000000D+00 0.343101319206897D+03
 0.343101319206897D+03 0.000000000000000D+00 0.000000000000000D+00 -.343101319206897D+03
 0.282402315901055D+03 -.108823657505203D+03 -.208498005860011D+03 -.134051651207651D+03
 0.173946033272567D+03 0.119392705496574D+03 0.122508652153336D+03 0.315314844725440D+02
 0.125244572621958D+03 0.363027436105037D+02 0.875978124166462D+02 0.818225949076728D+02
 0.104609716618214D+03 -.468717916018747D+02 -.160845870997028D+01 0.206975718274339D+02
 0.000000000000000D+00 0.000000000000000D+00 -.000000000000000D+00 -.000000000000000D+00
 0.396773682370251D+03 0.000000000000000D+00 0.000000000000000D+00 0.396773682370251D+03
 0.419788238004344D+03 0.000000000000000D+00 0.000000000000000D+00 -.419788238004344D+03
 0.252501962913771D+03 -.112915138193099D+03 -.163004146254850D+03 -.134051651207651D+03
 0.195653554403169D+03 0.116565639729630D+03 0.153943270304271D+03 0.315314844725440D+02
 0.141535064494601D+03 0.342621472338872D+02 0.110287545584210D+03 0.818225949076728D+02
 0.106593271640268D+03 -.484872824138011D+02 0.163544544252752D+02 0.206975718274339D+02
 0.120278066922786D+03 0.105746336433829D+02 -.117581124058906D+03 -.230145556340930D+02
0.172684814799D-06 0.000000000000D+00 0.000000000000D+00 0.305216193189D-05 0.000000000000D+00  7 1 -2 -24 -13 13 23 21 2 0.38615532D-01 0.72153274D-01 0.95168107D+05 0.95168107D+05 0.95168107D+05 0.11234914D+01  1  2 14  1  7  1        1 0.484084650779D-05 0.100000000000D+01
  </mgrwgt>
  </event>
  <event>
  8     66 0.29493621E-05 0.38611147E+03 0.75467711E-02 0.83319345E-01
        1 -1    0    0  501    0 0.00000000E+00 0.00000000E+00 0.77347017E+03 0.77347024E+03 0.32000000E+00 0.0000E+00 0.9000E+01
       -2 -1    0    0    0  501 0.00000000E+00 0.00000000E+00 -.37876806E+03 0.37876820E+03 0.32000000E+00 0.0000E+00 0.9000E+01
       25  2    1    2    0    0 -.35045323E+02 0.34551931E+03 -.16595504E+03 0.48784741E+03 0.29973697E+03 0.0000E+00 0.0000E+00
       23  2    3    3    0    0 0.51097643E+02 0.92244431E+02 0.31567255E+02 0.14302995E+03 0.91329456E+02 0.0000E+00 0.0000E+00
      -24  1    1    2    0    0 0.35045323E+02 -.34551931E+03 0.56065715E+03 0.66439102E+03 0.80419002E+02 0.0000E+00 0.9000E+01
      -13  1    4    4    0    0 0.66258084E+02 0.37151403E+02 -.33997915E+01 0.76039004E+02 0.10565837E+00 0.0000E+00 0.9000E+01
       13  1    4    4    0    0 -.15160441E+02 0.55093028E+02 0.34967047E+02 0.66990941E+02 0.10565837E+00 0.0000E+00 0.9000E+01
       23  1    3    3    0    0 -.86142966E+02 0.25327488E+03 -.19752230E+03 0.34481747E+03 0.91188000E+02 0.0000E+00 0.9000E+01
#aMCatNLO 1  0  0  1  2 0.14585989D+04 0.00000000D+00  -5  7  0 0.00000000D+00 0.00000000D+00 0.00000000D+00 0.00000000D+00 0.00000000D+00
  <mgrwgt>
 0.1130620435D-02    5    2    0
 0.541263255822762D+03 0.000000000000000D+00 0.000000000000000D+00 0.541263255822762D+03
 0.541263255822762D+03 0.000000000000000D+00 0.000000000000000D+00 -.541263255822762D+03
 0.502753789791831D+03 0.350453231737592D+02 -.345519313896126D+03 0.354517116997297D+03
 0.821753565208360D+02 0.662581930545892D+02 0.371513785828758D+02 -.313435183388706D+02
 0.585555505572302D+02 -.151605498949488D+02 0.550930520345691D+02 0.127931952794983D+02
 0.439041814775626D+03 -.861429663333996D+02 0.253274883278681D+03 -.335966793937925D+03
 0.000000000000000D+00 0.000000000000000D+00 0.000000000000000D+00 0.000000000000000D+00
 0.165256396010015D+04 0.000000000000000D+00 0.000000000000000D+00 0.165256396010015D+04
 0.162275753857270D+04 0.000000000000000D+00 0.000000000000000D+00 -.162275753857270D+04
 0.802779832368646D+03 -.621769526568901D+03 -.354553963297084D+03 0.354517116997297D+03
 0.479290801490345D+02 0.802562826729599D+00 0.362510203302280D+02 -.313435183388706D+02
 0.117657331220469D+03 -.103813370092722D+03 0.538736107426938D+02 0.127931952794983D+02
 0.848051801046316D+03 -.733680636394960D+03 0.244367843760298D+03 -.335966793937925D+03
 0.145890345388839D+04 0.145846097022985D+04 0.200614884638647D+02 0.298064215274537D+02
0.151631364396D-03 0.000000000000D+00 0.000000000000D+00 0.136113512223D-04 0.000000000000D+00  7 1 -2 -24 -13 13 23 21 0 0.11899543D+00 0.58272025D-01 0.14908206D+06 0.14908206D+06 0.14908206D+06 0.11077623D+01  1  2  2  1  7  1        1 0.110140580583D-02 0.100000000000D+01
-.725536693387D-05 0.000000000000D+00 -.582304364734D-06 0.136113512223D-04 0.000000000000D+00  7 1 -2 -24 -13 13 23 21 2 0.11899543D+00 0.58272025D-01 0.14908206D+06 0.14908206D+06 0.14908206D+06 0.11077623D+01  1  2  3  1  7  1        1 -.646711952570D-04 0.100000000000D+01
0.971555876802D-05 0.000000000000D+00 0.000000000000D+00 0.136113512223D-04 0.000000000000D+00  7 1 -2 -24 -13 13 23 21 2 0.11899543D+00 0.58272025D-01 0.14908206D+06 0.14908206D+06 0.14908206D+06 0.11077623D+01  1  2 15  1  7  1        1 0.866002786412D-04 0.100000000000D+01
0.125131098073D-03 0.000000000000D+00 -.595441681451D-04 0.136113512223D-04 0.000000000000D+00  7 1 -2 -24 -13 13 23 21 2 0.58412633D+00 0.58272025D-01 0.14908206D+06 0.14908206D+06 0.14908206D+06 0.11077623D+01  1  2  5  1  7  1        1 0.715563832604D-05 0.100000000000D+01
0.227539835669D-04 0.000000000000D+00 -.115331944543D-04 0.136113512223D-04 0.000000000000D+00  7 21 -2 -24 -13 13 23 -1 2 0.58412633D+00 0.58272025D-01 0.14908206D+06 0.14908206D+06 0.14908206D+06 0.11077623D+01  1  2  5  3  7  1        1 0.129907798958D-06 0.100000000000D+01
  </mgrwgt>
  </event>
  <event>
  8     66 0.29493621E-05 0.18784784E+03 0.75467711E-02 0.10460093E+00
        1 -1    0    0  501    0 0.00000000E+00 0.00000000E+00 0.21824591E+03 0.21824615E+03 0.32000000E+00 0.0000E+00 0.9000E+01
       -2 -1    0    0    0  501 0.00000000E+00 0.00000000E+00 -.17656673E+03 0.17656702E+03 0.32000000E+00 0.0000E+00 0.9000E+01
       25  2    1    2    0    0 0.20935702E+02 0.27434197E+02 0.52384275E+02 0.30664995E+03 0.30016518E+03 0.0000E+00 0.0000E+00
       23  2    3    3    0    0 0.11486134E+03 0.62029563E+02 0.61164074E+02 0.17096206E+03 0.91903150E+02 0.0000E+00 0.0000E+00
      -24  1    1    2    0    0 -.20935702E+02 -.27434197E+02 -.10705092E+02 0.88163222E+02 0.80419002E+02 0.0000E+00 0.9000E+01
      -11  1    4    4    0    0 0.97536322E+02 0.81221444E+02 0.68306021E+02 0.14413872E+03 0.51099893E-03 0.0000E+00 0.9000E+01
       11  1    4    4    0    0 0.17325018E+02 -.19191881E+02 -.71419462E+01 0.26823347E+02 0.51099893E-03 0.0000E+00 0.9000E+01
       23  1    3    3    0    0 -.93925639E+02 -.34595365E+02 -.87797992E+01 0.13568788E+03 0.91188000E+02 0.0000E+00 0.9000E+01
#aMCatNLO 1  0  0  2  2 0.68951088D+02 0.00000000D+00  -5  7  0 0.00000000D+00 0.00000000D+00 0.00000000D+00 0.00000000D+00 0.00000000D+00
  <mgrwgt>
 0.1320890269D-02    4    2    0
 0.196303516692333D+03 0.000000000000000D+00 0.000000000000000D+00 0.196303516692333D+03
 0.196303516692333D+03 0.000000000000000D+00 0.000000000000000D+00 -.196303516692333D+03
 0.897950821679105D+02 -.209357028057140D+02 -.274341989682422D+02 -.201246590573104D+02
 0.137697289037476D+03 0.975363222799260D+02 0.812214445219305D+02 0.533880716466489D+02
 0.277322620062715D+02 0.173250180902472D+02 -.191918811833719D+02 -.100296460954727D+02
 0.137382400173008D+03 -.939256375644592D+02 -.345953643703164D+02 -.232337664938658D+02
 0.000000000000000D+00 -.000000000000000D+00 -.000000000000000D+00 0.000000000000000D+00
 0.245728615844759D+03 0.000000000000000D+00 0.000000000000000D+00 0.245728615844759D+03
 0.224912033116655D+03 0.000000000000000D+00 0.000000000000000D+00 -.224912033116655D+03
 0.851540708898311D+02 -.132378789959125D+02 -.142743298356330D+02 -.201246590573104D+02
 0.160766293404711D+03 0.110668824101892D+03 0.103672205883962D+03 0.533880716466489D+02
 0.267836135201981D+02 0.197237356450634D+02 -.150911366239446D+02 -.100296460954727D+02
 0.125911796055884D+03 -.823406010136143D+02 -.147900832061134D+02 -.232337664938658D+02
 0.720248750907898D+02 -.348140797374281D+02 -.595166562182713D+02 0.208165827281033D+02
0.125002160109D-04 0.000000000000D+00 0.000000000000D+00 0.625794289131D-06 0.000000000000D+00  7 1 -2 -24 -11 11 23 21 0 0.33576335D-01 0.27164153D-01 0.35286809D+05 0.35286809D+05 0.35286809D+05 0.11608516D+01  1  2  2  2  7  2       -2 0.214105891807D-02 0.100000000000D+01
-.692819555826D-06 0.000000000000D+00 -.480041208642D-07 0.625794289131D-06 0.000000000000D+00  7 1 -2 -24 -11 11 23 21 2 0.33576335D-01 0.27164153D-01 0.35286809D+05 0.35286809D+05 0.35286809D+05 0.11608516D+01  1  2  3  2  7  2       -2 -.159913320528D-03 0.100000000000D+01
0.821288596658D-06 0.000000000000D+00 0.000000000000D+00 0.625794289131D-06 0.000000000000D+00  7 1 -2 -24 -11 11 23 21 2 0.33576335D-01 0.27164153D-01 0.35286809D+05 0.35286809D+05 0.35286809D+05 0.11608516D+01  1  2 15  2  7  2       -2 0.189565934591D-03 0.100000000000D+01
-.368182455289D-05 0.000000000000D+00 0.000000000000D+00 0.625794289131D-06 0.000000000000D+00  7 1 -2 -24 -11 11 23 21 2 0.33576335D-01 0.27164153D-01 0.35286809D+05 0.35286809D+05 0.35286809D+05 0.11608516D+01  1  2  4  2  7  2       -2 -.849821262844D-03 0.100000000000D+01
  </mgrwgt>
  </event>
  <event>
  8     66 0.29493621E-05 0.23943085E+03 0.75467711E-02 0.94705928E-01
        1 -1    0    0  501    0 0.00000000E+00 0.00000000E+00 0.10557084E+04 0.10557085E+04 0.32000000E+00 0.0000E+00 0.9000E+01
       -2 -1    0    0    0  501 0.00000000E+00 0.00000000E+00 -.17636882E+03 0.17636911E+03 0.32000000E+00 0.0000E+00 0.9000E+01
       25  2    1    2    0    0 -.14461838E+03 -.12845674E+03 0.28179777E+02 0.35551848E+03 0.29695737E+03 0.0000E+00 0.0000E+00
       23  2    3    3    0    0 -.23519058E+02 -.10091766E+03 -.87007599E+02 0.16314688E+03 0.91154065E+02 0.0000E+00 0.0000E+00
      -24  1    1    2    0    0 0.14461838E+03 0.12845674E+03 0.85115981E+03 0.87655910E+03 0.80419002E+02 0.0000E+00 0.9000E+01
      -13  1    4    4    0    0 -.39109640E+02 -.81545285E+02 -.21331379E+02 0.92920592E+02 0.10565837E+00 0.0000E+00 0.9000E+01
       13  1    4    4    0    0 0.15590583E+02 -.19372374E+02 -.65676220E+02 0.70226292E+02 0.10565837E+00 0.0000E+00 0.9000E+01
       23  1    3    3    0    0 -.12109932E+03 -.27539077E+02 0.11518738E+03 0.19237159E+03 0.91188000E+02 0.0000E+00 0.9000E+01
#aMCatNLO 1  0  0  2  2 0.35534885D+03 0.00000000D+00  -5  7  0 0.00000000D+00 0.00000000D+00 0.00000000D+00 0.00000000D+00 0.00000000D+00
  <mgrwgt>
 0.3869380235D-02    3    2    0
 0.431502328859353D+03 0.000000000000000D+00 0.000000000000000D+00 0.431502328859353D+03
 0.431502328859353D+03 0.000000000000000D+00 0.000000000000000D+00 -.431502328859353D+03
 0.384158167917271D+03 0.144618382009118D+03 0.128456736050598D+03 0.322016571889516D+03
 0.154394171482151D+03 -.391097139248152D+02 -.815453683244613D+02 -.125133302398709D+03
 0.167178651845372D+03 0.155906560268670D+02 -.193722906032321D+02 -.165318926424871D+03
 0.157273666473913D+03 -.121099324111170D+03 -.275390771229046D+02 -.315643430659359D+02
 0.000000000000000D+00 -.000000000000000D+00 0.000000000000000D+00 0.000000000000000D+00
 0.114972172001402D+04 0.000000000000000D+00 0.000000000000000D+00 0.114972172001402D+04
 0.512865333048245D+03 0.000000000000000D+00 0.000000000000000D+00 -.512865333048245D+03
 0.474077230748168D+03 0.314371101260884D+03 0.125531441798555D+03 0.322016571889516D+03
 0.151447512295522D+03 0.213835465052844D+02 -.825878293100850D+02 -.125133302398709D+03
 0.187352211467978D+03 0.857142820153799D+02 -.205807085946539D+02 -.165318926424871D+03
 0.120423555954632D+03 -.661728334196754D+02 -.284856077482338D+02 -.315643430659359D+02
 0.729286542595964D+03 -.355296096361873D+03 0.612270385441762D+01 0.636856386965775D+03
0.201476727187D-03 0.000000000000D+00 0.000000000000D+00 0.334986523215D-06 0.000000000000D+00  7 1 -2 -24 -13 13 23 21 0 0.16241671D+00 0.27133691D-01 0.57327134D+05 0.57327134D+05 0.57327134D+05 0.11421078D+01  1  2  2  2  7  2       -2 0.373388462733D-02 0.100000000000D+01
-.647168815804D-05 0.000000000000D+00 -.773723682440D-06 0.334986523215D-06 0.000000000000D+00  7 1 -2 -24 -13 13 23 21 2 0.16241671D+00 0.27133691D-01 0.57327134D+05 0.57327134D+05 0.57327134D+05 0.11421078D+01  1  2  3  2  7  2       -2 -.156447198020D-03 0.100000000000D+01
0.120766803056D-04 0.000000000000D+00 0.000000000000D+00 0.334986523215D-06 0.000000000000D+00  7 1 -2 -24 -13 13 23 21 2 0.16241671D+00 0.27133691D-01 0.57327134D+05 0.57327134D+05 0.57327134D+05 0.11421078D+01  1  2 15  2  7  2       -2 0.291942805193D-03 0.100000000000D+01
  </mgrwgt>
  </event>
  <event>
  9     66 0.29493621E-05 0.18897506E+03 0.75467711E-02 0.10154791E+00
        1 -1    0    0  502    0 0.00000000E+00 0.00000000E+00 0.43011210E+03 0.43011222E+03 0.32000000E+00 0.0000E+00 0.9000E+01
       -2 -1    0    0    0  501 0.00000000E+00 0.00000000E+00 -.24164978E+03 0.24164999E+03 0.32000000E+00 0.0000E+00 0.9000E+01
       25  2    1    2    0    0 0.60784001E+02 -.59314810E+02 0.10372140E+03 0.33178431E+03 0.30349590E+03 0.0000E+00 0.0000E+00
       23  2    3    3    0    0 -.23421641E+02 -.90751824E+02 -.45004405E+02 0.13553577E+03 0.86948725E+02 0.0000E+00 0.0000E+00
      -24  1    1    2    0    0 -.83512815E+02 -.98526752E+02 -.13383749E+02 0.15273589E+03 0.80419002E+02 0.0000E+00 0.9000E+01
      -11  1    4    4    0    0 -.37682727E+02 -.10204536E+03 -.43919233E+02 0.11731215E+03 0.51099893E-03 0.0000E+00 0.9000E+01
       11  1    4    4    0    0 0.14261086E+02 0.11293532E+02 -.10851718E+01 0.18223612E+02 0.51099893E-03 0.0000E+00 0.9000E+01
       23  1    3    3    0    0 0.84205642E+02 0.31437014E+02 0.14872581E+03 0.19624855E+03 0.91188000E+02 0.0000E+00 0.9000E+01
       21  1    1    2  502  501 0.22728814E+02 0.15784156E+03 0.98124663E+02 0.18724201E+03 0.75000000E+00 0.0000E+00 0.9000E+01
#aMCatNLO 2  0  0  1  2 0.15946961D+03 0.00000000D+00  -5  7  0 0.00000000D+00 0.00000000D+00 0.00000000D+00 0.00000000D+00 0.00000000D+00
  <mgrwgt>
 0.1915225700D-03    2    2    0
 0.224258990286720D+03 0.000000000000000D+00 0.000000000000000D+00 0.224258990286720D+03
 0.224258990286720D+03 0.000000000000000D+00 0.000000000000000D+00 -.224258990286720D+03
 0.128786180917901D+03 -.764624602037662D+02 -.495651434572068D+02 -.426081350765525D+02
 0.977534643924996D+02 -.321392073825551D+02 -.635480720708794D+02 -.669660636862517D+02
 0.246020606047535D+02 0.153269654023843D+02 0.186955920776372D+02 -.456293265572328D+01
 0.197376274658286D+03 0.932747021839370D+02 0.944176234504489D+02 0.114137131418528D+03
 0.000000000000000D+00 0.000000000000000D+00 0.000000000000000D+00 0.000000000000000D+00
 0.356163286544131D+03 0.000000000000000D+00 0.000000000000000D+00 0.356163286544131D+03
 0.291821379370275D+03 0.000000000000000D+00 0.000000000000000D+00 -.291821379370275D+03
 0.158001838739885D+03 -.835128171651365D+02 -.985267541597453D+02 -.426081350765525D+02
 0.127740736630762D+03 -.376827255944736D+02 -.102045354137805D+03 -.669660636862517D+02
 0.187548074478278D+02 0.142610861621619D+02 0.112935321958998D+02 -.456293265572328D+01
 0.171526709718154D+03 0.842056423010581D+02 0.314370138364323D+02 0.114137131418528D+03
 0.171960573377777D+03 0.227288142963901D+02 0.157841562265218D+03 0.643419071738565D+02
-.152290330394D-06 0.000000000000D+00 0.000000000000D+00 0.290984340596D-08 0.000000000000D+00  7 1 -2 -24 -11 11 23 21 2 0.69471885D-01 0.28569653D-01 0.80267254D+05 0.80267254D+05 0.80267254D+05 0.11296410D+01  1  2 13  1  7  1        1 -.118253838457D-04 0.100000000000D+01
0.391771737874D-05 0.000000000000D+00 0.000000000000D+00 0.290984340596D-08 0.914344046963D-12  7 1 -2 -24 -11 11 23 21 2 0.66170944D-01 0.37176818D-01 0.80267254D+05 0.80267254D+05 0.80267254D+05 0.11296410D+01  1  2  1  1  7  1        1 0.203347953863D-03 0.100000000000D+01
  </mgrwgt>
  </event>
  <event>
  8     66 0.29493621E-05 0.19075360E+03 0.75467711E-02 0.98274405E-01
        1 -1    0    0  501    0 0.00000000E+00 0.00000000E+00 0.12591127E+04 0.12591127E+04 0.32000000E+00 0.0000E+00 0.9000E+01
       -2 -1    0    0    0  501 0.00000000E+00 0.00000000E+00 -.44603630E+02 0.44604778E+02 0.32000000E+00 0.0000E+00 0.9000E+01
       25  2    1    2    0    0 0.26700424E+02 -.12932061E+02 0.49817915E+03 0.58227734E+03 0.29997382E+03 0.0000E+00 0.0000E+00
       23  2    3    3    0    0 -.81533274E+02 -.66567882E+02 0.19691498E+03 0.24513244E+03 0.10117039E+03 0.0000E+00 0.0000E+00
      -24  1    1    2    0    0 -.26700424E+02 0.12932061E+02 0.71632993E+03 0.72144018E+03 0.80419002E+02 0.0000E+00 0.9000E+01
      -11  1    4    4    0    0 -.70597058E+02 0.61882247E+01 0.78823605E+02 0.10599717E+03 0.51099893E-03 0.0000E+00 0.9000E+01
       11  1    4    4    0    0 -.10936216E+02 -.72756107E+02 0.11809137E+03 0.13913527E+03 0.51099893E-03 0.0000E+00 0.9000E+01
       23  1    3    3    0    0 0.10823370E+03 0.53635821E+02 0.30126417E+03 0.33714490E+03 0.91188000E+02 0.0000E+00 0.9000E+01
#aMCatNLO 1  0  0  2  1 0.26042068D+03 0.00000000D+00  -5  7  0 0.00000000D+00 0.00000000D+00 0.00000000D+00 0.00000000D+00 0.00000000D+00
  <mgrwgt>
 0.1136430974D-02    3    2    0
 0.236984750174969D+03 0.000000000000000D+00 0.000000000000000D+00 0.236984750174969D+03
 0.236984750174969D+03 0.000000000000000D+00 0.000000000000000D+00 -.236984750174969D+03
 0.148880899626275D+03 -.267004241351372D+02 0.129320611507927D+02 0.121729846235647D+03
 0.895804070418959D+02 -.705970583482939D+02 0.618822389981308D+01 -.547942566636789D+02
 0.801107450075896D+02 -.109362167329259D+02 -.727561067058083D+02 -.316966806819667D+02
 0.155397448674177D+03 0.108233699216357D+03 0.536358216552025D+02 -.352389088900017D+02
 0.000000000000000D+00 0.000000000000000D+00 -.000000000000000D+00 0.000000000000000D+00
 0.599459111027733D+03 0.000000000000000D+00 0.000000000000000D+00 0.599459111027733D+03
 0.321925622782743D+03 0.000000000000000D+00 0.000000000000000D+00 -.321925622782743D+03
 0.185833821100317D+03 -.110006494760705D+03 0.338734225652284D+02 0.121729846235647D+03
 0.140659450474822D+03 -.127900716190029D+03 0.205931358134549D+02 -.547942566636789D+02
 0.874884761499593D+02 -.526494480011310D+02 -.622702940250296D+02 -.316966806819667D+02
 0.126819527406800D+03 0.379936234584093D+02 0.712926718844711D+02 -.352389088900017D+02
 0.380583458678579D+03 0.252563035493456D+03 -.634889362381249D+02 0.277533488244990D+03
0.952494505635D-05 0.000000000000D+00 0.000000000000D+00 0.300772561567D-07 0.000000000000D+00  7 1 -2 -24 -11 11 23 21 0 0.19370974D+00 0.68621883D-02 0.36386937D+05 0.36386937D+05 0.36386937D+05 0.11596375D+01  1  2  2  2  7  2       -2 0.112166340925D-02 0.100000000000D+01
-.498863522449D-06 0.000000000000D+00 -.365782969920D-07 0.300772561567D-07 0.000000000000D+00  7 1 -2 -24 -11 11 23 21 2 0.19370974D+00 0.68621883D-02 0.36386937D+05 0.36386937D+05 0.36386937D+05 0.11596375D+01  1  2  3  2  7  2       -2 -.789998672327D-04 0.100000000000D+01
0.592116834418D-06 0.000000000000D+00 0.000000000000D+00 0.300772561567D-07 0.000000000000D+00  7 1 -2 -24 -11 11 23 21 2 0.19370974D+00 0.68621883D-02 0.36386937D+05 0.36386937D+05 0.36386937D+05 0.11596375D+01  1  2 15  2  7  2       -2 0.937674317729D-04 0.100000000000D+01
  </mgrwgt>
  </event>
  <event>
  8     66 0.29493621E-05 0.29861796E+03 0.75467711E-02 0.92708224E-01
        1 -1    0    0  501    0 0.00000000E+00 0.00000000E+00 0.69322393E+03 0.69322400E+03 0.32000000E+00 0.0000E+00 0.9000E+01
       -2 -1    0    0    0  501 0.00000000E+00 0.00000000E+00 -.56433997E+03 0.56434006E+03 0.32000000E+00 0.0000E+00 0.9000E+01
       25  2    1    2    0    0 -.40718594E+03 -.34543532E+03 -.17596798E+03 0.63746094E+03 0.30044262E+03 0.0000E+00 0.0000E+00
       23  2    3    3    0    0 -.91031294E+02 0.38906005E+01 -.84530001E+01 0.12917078E+03 0.91169101E+02 0.0000E+00 0.0000E+00
      -24  1    1    2    0    0 0.40718594E+03 0.34543532E+03 0.30485194E+03 0.62010312E+03 0.80419002E+02 0.0000E+00 0.9000E+01
      -13  1    4    4    0    0 -.30422682E+02 0.45026251E+02 0.54491263E+01 0.54613250E+02 0.10565837E+00 0.0000E+00 0.9000E+01
       13  1    4    4    0    0 -.60608612E+02 -.41135651E+02 -.13902126E+02 0.74557534E+02 0.10565837E+00 0.0000E+00 0.9000E+01
       23  1    3    3    0    0 -.31615465E+03 -.34932592E+03 -.16751498E+03 0.50829016E+03 0.91188000E+02 0.0000E+00 0.9000E+01
#aMCatNLO 1  0  0  1  2 0.40421854D+02 0.00000000D+00  -5  7  0 0.00000000D+00 0.00000000D+00 0.00000000D+00 0.00000000D+00 0.00000000D+00
  <mgrwgt>
 0.1579737762D-02    9    2    0
 0.625471078262988D+03 0.000000000000000D+00 0.000000000000000D+00 0.625471078262988D+03
 0.625471078262988D+03 0.000000000000000D+00 0.000000000000000D+00 -.625471078262988D+03
 0.591976903869788D+03 0.407185941508368D+03 0.345435323065655D+03 0.242576761824707D+03
 0.543408961778558D+02 -.304226416254214D+02 0.450263671595891D+02 -.148776186111807D+00
 0.763845656110339D+02 -.606086524793134D+02 -.411357666636823D+02 -.216573730913805D+02
 0.528239790867297D+03 -.316154647403634D+03 -.349325923561562D+03 -.220770612547215D+03
 0.000000000000000D+00 0.000000000000000D+00 0.000000000000000D+00 0.000000000000000D+00
 0.716846111729571D+03 0.000000000000000D+00 0.000000000000000D+00 0.716846111729571D+03
 0.630283945693067D+03 0.000000000000000D+00 0.000000000000000D+00 -.630283945693067D+03
 0.575250353171127D+03 0.391055230881569D+03 0.335675548546416D+03 0.242576761824707D+03
 0.544571677076085D+02 -.319261963742554D+02 0.441166517933255D+02 -.148776186111807D+00
 0.787881483371683D+02 -.627530901890864D+02 -.424332438177989D+02 -.216573730913805D+02
 0.543099395201290D+03 -.330960215290588D+03 -.358283929662414D+03 -.220770612547215D+03
 0.955349930054451D+02 0.345842709723603D+02 0.209249731404720D+02 0.865621660365043D+02
0.314474255441D-03 0.000000000000D+00 0.000000000000D+00 0.166241007144D-04 0.000000000000D+00  7 1 -2 -24 -13 13 23 21 0 0.10664985D+00 0.86821546D-01 0.32917626D+06 0.32917626D+06 0.32917626D+06 0.10815823D+01  1  2  2  1  7  1        1 0.110574873357D-02 0.100000000000D+01
-.173124757625D-04 0.000000000000D+00 -.120766394387D-05 0.166241007144D-04 0.000000000000D+00  7 1 -2 -24 -13 13 23 21 2 0.10664985D+00 0.86821546D-01 0.32917626D+06 0.32917626D+06 0.32917626D+06 0.10815823D+01  1  2  3  1  7  1        1 -.712114242731D-04 0.100000000000D+01
0.200558403983D-04 0.000000000000D+00 0.000000000000D+00 0.166241007144D-04 0.000000000000D+00  7 1 -2 -24 -13 13 23 21 2 0.10664985D+00 0.86821546D-01 0.32917626D+06 0.32917626D+06 0.32917626D+06 0.10815823D+01  1  2 15  1  7  1        1 0.824957088374D-04 0.100000000000D+01
0.290820750251D-02 0.000000000000D+00 0.000000000000D+00 0.166241007144D-04 0.000000000000D+00  7 1 -2 -24 -13 13 23 21 2 0.12260336D+00 0.86821546D-01 0.35309597D+06 0.35309597D+06 0.35309597D+06 0.10793544D+01  1  2 12  1  7  1        1 0.955885768304D-02 0.100000000000D+01
-.293289533098D-02 0.000000000000D+00 0.000000000000D+00 0.166241007144D-04 0.000000000000D+00  7 1 -2 -24 -13 13 23 21 2 0.10664985D+00 0.86821546D-01 0.32917626D+06 0.32917626D+06 0.32917626D+06 0.10815823D+01  1  2  4  1  7  1        1 -.120638813667D-01 0.100000000000D+01
-.376335026543D-02 0.000000000000D+00 -.301608037727D-03 0.166241007144D-04 0.000000000000D+00  7 1 -2 -24 -13 13 23 21 2 0.12267041D+00 0.86821546D-01 0.32917626D+06 0.32917626D+06 0.32917626D+06 0.10815823D+01  1  2  5  1  7  1        1 -.124460471211D-01 0.100000000000D+01
0.377149544170D-02 0.000000000000D+00 0.298678298930D-03 0.166241007144D-04 0.000000000000D+00  7 1 -2 -24 -13 13 23 21 2 0.10664985D+00 0.86821546D-01 0.32917626D+06 0.32917626D+06 0.32917626D+06 0.10815823D+01  1  2  6  1  7  1        1 0.155132960605D-01 0.100000000000D+01
0.624946880675D-04 0.000000000000D+00 0.000000000000D+00 0.166241007144D-04 0.000000000000D+00  7 21 -2 -24 -13 13 23 -1 2 0.12260336D+00 0.86821546D-01 0.35309597D+06 0.35309597D+06 0.35309597D+06 0.10793544D+01  1  2 12  3  7  1        1 0.356816917387D-03 0.100000000000D+01
-.792836380636D-04 0.000000000000D+00 -.650210719462D-05 0.166241007144D-04 0.000000000000D+00  7 21 -2 -24 -13 13 23 -1 2 0.12267041D+00 0.86821546D-01 0.32917626D+06 0.32917626D+06 0.32917626D+06 0.10815823D+01  1  2  5  3  7  1        1 -.456337428896D-03 0.100000000000D+01
  </mgrwgt>
  </event>
  <event>
  9     66 0.29493621E-05 0.62932802E+03 0.75467711E-02 0.90739135E-01
        1 -1    0    0  501    0 0.00000000E+00 0.00000000E+00 0.17683962E+04 0.17683962E+04 0.32000000E+00 0.0000E+00 0.9000E+01
       21 -1    0    0  502  501 0.00000000E+00 0.00000000E+00 -.37264544E+03 0.37264619E+03 0.75000000E+00 0.0000E+00 0.9000E+01
       25  2    1    2    0    0 0.65367735E+03 0.18292883E+02 0.22117174E+03 0.75340550E+03 0.30178502E+03 0.0000E+00 0.0000E+00
       23  2    3    3    0    0 0.39409524E+03 -.10085683E+03 0.89669063E+02 0.42601012E+03 0.89224039E+02 0.0000E+00 0.0000E+00
      -24  1    1    2    0    0 -.54535389E+03 0.10268620E+03 0.77725310E+03 0.95840749E+03 0.80419002E+02 0.0000E+00 0.9000E+01
      -13  1    4    4    0    0 0.13059235E+03 -.40241541E+02 -.11919190E+02 0.13717078E+03 0.10565837E+00 0.0000E+00 0.9000E+01
       13  1    4    4    0    0 0.26350289E+03 -.60615284E+02 0.10158825E+03 0.28883935E+03 0.10565837E+00 0.0000E+00 0.9000E+01
       23  1    3    3    0    0 0.25958211E+03 0.11914971E+03 0.13150268E+03 0.32739538E+03 0.91188000E+02 0.0000E+00 0.9000E+01
        2  1    1    2  502    0 -.10832346E+03 -.12097908E+03 0.39732594E+03 0.42922945E+03 0.32000000E+00 0.0000E+00 0.9000E+01
#aMCatNLO 2  0  0  2  1 0.16238815D+03 0.00000000D+00  -5  7  0 0.00000000D+00 0.00000000D+00 0.00000000D+00 0.00000000D+00 0.00000000D+00
  <mgrwgt>
 0.1130867179D-03    1    2    0
 0.690485635760548D+03 0.000000000000000D+00 0.000000000000000D+00 0.690485635760548D+03
 0.690485635760548D+03 0.000000000000000D+00 0.000000000000000D+00 -.690485635760548D+03
 0.659852492014292D+03 -.595447241849248D+03 0.467403557462652D+02 0.268693164375159D+03
 0.171931973694088D+03 0.116937305848966D+03 -.554916940038851D+02 -.113167760319400D+03
 0.269231188822605D+03 0.241932868682630D+03 -.847056028561478D+02 -.823339597651125D+02
 0.279955616990111D+03 0.236577067317652D+03 0.934569411137677D+02 -.731914442906469D+02
 0.000000000000000D+00 -.000000000000000D+00 -.000000000000000D+00 0.000000000000000D+00
 0.907274820159056D+03 0.000000000000000D+00 0.000000000000000D+00 0.907274820159056D+03
 0.726334975592882D+03 0.000000000000000D+00 0.000000000000000D+00 -.726334975592882D+03
 0.621786585675229D+03 -.545353894426291D+03 0.102686198797254D+03 0.268693164375159D+03
 0.177427830526548D+03 0.130592165749142D+03 -.402415123298937D+02 -.113167760319400D+03
 0.282642825044718D+03 0.263503072955892D+03 -.606153129288144D+02 -.823339597651125D+02
 0.308628847293557D+03 0.259582113410869D+03 0.119149708004449D+03 -.731914442906469D+02
 0.243123707211886D+03 -.108323457689611D+03 -.120979081542995D+03 0.180939844566174D+03
0.726698448025D-05 0.000000000000D+00 0.000000000000D+00 0.506764017966D-06 0.136621439094D-11  7 1 21 -24 -13 13 23 2 2 0.27206098D+00 0.57330119D-01 0.51121316D+06 0.51121316D+06 0.51121316D+06 0.10678303D+01  1  2  1  4  7  2       -2 0.113086717935D-03 0.100000000000D+01
  </mgrwgt>
  </event>
  <event>
  9     66 0.29493621E-05 0.73910307E+03 0.75467711E-02 0.87492916E-01
        1 -1    0    0  502    0 0.00000000E+00 0.00000000E+00 0.32062062E+04 0.32062062E+04 0.32000000E+00 0.0000E+00 0.9000E+01
       -2 -1    0    0    0  501 0.00000000E+00 0.00000000E+00 -.41804168E+03 0.41804180E+03 0.32000000E+00 0.0000E+00 0.9000E+01
       25  2    1    2    0    0 -.73662481E+03 -.52052219E+03 0.51970541E+03 0.10833583E+04 0.30002012E+03 0.0000E+00 0.0000E+00
       23  2    3    3    0    0 -.28814008E+03 -.34752709E+03 0.27862282E+03 0.53792095E+03 0.89042064E+02 0.0000E+00 0.0000E+00
      -24  1    1    2    0    0 0.30042822E+03 0.50347814E+03 0.71957777E+03 0.93166879E+03 0.80419002E+02 0.0000E+00 0.9000E+01
      -13  1    4    4    0    0 -.15314404E+03 -.12190225E+03 0.14032094E+03 0.24083861E+03 0.10565837E+00 0.0000E+00 0.9000E+01
       13  1    4    4    0    0 -.13499604E+03 -.22562484E+03 0.13830187E+03 0.29708234E+03 0.10565837E+00 0.0000E+00 0.9000E+01
       23  1    3    3    0    0 -.44848473E+03 -.17299510E+03 0.24108259E+03 0.54543737E+03 0.91188000E+02 0.0000E+00 0.9000E+01
       21  1    1    2  502  501 0.43619659E+03 0.17044050E+02 0.15488813E+04 0.16092209E+04 0.75000000E+00 0.0000E+00 0.9000E+01
#aMCatNLO 2  0  0  1  2 0.43652946D+03 0.00000000D+00  -5  7  0 0.00000000D+00 0.00000000D+00 0.00000000D+00 0.00000000D+00 0.00000000D+00
  <mgrwgt>
 0.4352410271D-04    2    2    0
 0.763864102849120D+03 0.000000000000000D+00 0.000000000000000D+00 0.763864102849120D+03
 0.763864102849120D+03 0.000000000000000D+00 0.000000000000000D+00 -.763864102849120D+03
 0.736521261922548D+03 0.490327808686630D+03 0.510898320301294D+03 0.185897551494085D+03
 0.158745610893908D+03 -.103495932630218D+03 -.119962141188227D+03 -.989169290957673D+01
 0.238591907885869D+03 -.639690667124434D+02 -.222849662552610D+03 -.563212651912721D+02
 0.393869424995915D+03 -.322862809343968D+03 -.168086516560457D+03 -.119684593393236D+03
 0.000000000000000D+00 0.000000000000000D+00 0.000000000000000D+00 0.000000000000000D+00
 0.156538471687934D+04 0.000000000000000D+00 0.000000000000000D+00 0.156538471687934D+04
 0.856228860076225D+03 0.000000000000000D+00 0.000000000000000D+00 -.856228860076225D+03
 0.620300301364828D+03 0.300428215178050D+03 0.503478138346007D+03 0.185897551494085D+03
 0.195987433935772D+03 -.153144068273054D+03 -.121902104267684D+03 -.989169290957673D+01
 0.268891508568715D+03 -.134996014621186D+03 -.225624986435480D+03 -.563212651912721D+02
 0.503691877141197D+03 -.448484726799277D+03 -.172995097289191D+03 -.119684593393236D+03
 0.832742455945051D+03 0.436196594515467D+03 0.170440496463477D+02 0.709155856803113D+03
-.259361292023D-03 0.000000000000D+00 0.000000000000D+00 0.747886396877D-05 0.000000000000D+00  7 1 -2 -24 -13 13 23 21 2 0.49345676D+00 0.57376289D-01 0.97639022D+06 0.97639022D+06 0.97639022D+06 0.10485554D+01  1  2 13  1  7  1        1 -.355080556005D-04 0.100000000000D+01
0.732459884986D-03 0.000000000000D+00 0.000000000000D+00 0.747886396877D-05 0.318026342714D-09  7 1 -2 -24 -13 13 23 21 2 0.49326241D+00 0.64314103D-01 0.97639022D+06 0.97639022D+06 0.97639022D+06 0.10485554D+01  1  2  1  1  7  1        1 0.790321583135D-04 0.100000000000D+01
  </mgrwgt>
  </event>
  <event>
  8     66 0.29493621E-05 0.16022750E+03 0.75467711E-02 0.10797461E+00
        1 -1    0    0  501    0 0.00000000E+00 0.00000000E+00 0.75360785E+03 0.75360792E+03 0.32000000E+00 0.0000E+00 0.9000E+01
       -2 -1    0    0    0  501 0.00000000E+00 0.00000000E+00 -.11977799E+03 0.11977841E+03 0.32000000E+00 0.0000E+00 0.9000E+01
       25  2    1    2    0    0 0.34676107E+02 0.44813211E+02 0.88180882E+02 0.31894005E+03 0.30122455E+03 0.0000E+00 0.0000E+00
       23  2    3    3    0    0 -.33642947E+02 -.62097206E+01 -.67862005E+02 0.11910145E+03 0.91703296E+02 0.0000E+00 0.0000E+00
      -24  1    1    2    0    0 -.34676107E+02 -.44813211E+02 0.54564898E+03 0.55444629E+03 0.80419002E+02 0.0000E+00 0.9000E+01
      -11  1    4    4    0    0 -.12551615E+02 0.42414695E+02 -.24126853E+02 0.50385062E+02 0.51099893E-03 0.0000E+00 0.9000E+01
       11  1    4    4    0    0 -.21091332E+02 -.48624416E+02 -.43735151E+02 0.68716385E+02 0.51099893E-03 0.0000E+00 0.9000E+01
       23  1    3    3    0    0 0.68319054E+02 0.51022932E+02 0.15604289E+03 0.19983860E+03 0.91188000E+02 0.0000E+00 0.9000E+01
#aMCatNLO 1  0  0  1  1 0.29764088D+02 0.00000000D+00  -5  7  0 0.00000000D+00 0.00000000D+00 0.00000000D+00 0.00000000D+00 0.00000000D+00
  <mgrwgt>
 0.1096552181D-02    4    2    0
 0.300442753584874D+03 0.000000000000000D+00 0.000000000000000D+00 0.300442753584874D+03
 0.300442753584874D+03 0.000000000000000D+00 0.000000000000000D+00 -.300442753584874D+03
 0.230322062407349D+03 -.346761073645374D+02 -.448132114561897D+02 0.208255564473630D+03
 0.986842651100078D+02 -.125516150911271D+02 0.424146954900843D+02 -.882158418051423D+02
 0.146012170207336D+03 -.210913315626070D+02 -.486244161249481D+02 -.136052841712623D+03
 0.125867009445054D+03 0.683190540182715D+02 0.510229320910535D+02 0.160131190441353D+02
 0.000000000000000D+00 0.000000000000000D+00 0.000000000000000D+00 -.000000000000000D+00
 0.303518754767456D+03 0.000000000000000D+00 0.000000000000000D+00 0.303518754767456D+03
 0.382607350529185D+03 0.000000000000000D+00 0.000000000000000D+00 -.382607350529185D+03
 0.233355733144464D+03 -.397660022583625D+02 -.550996113160291D+02 0.208255564473630D+03
 0.971979486722648D+02 -.147018579737629D+02 0.380691719482527D+02 -.882158418051423D+02
 0.148813246361214D+03 -.243276961173864D+02 -.551649323039873D+02 -.136052841712623D+03
 0.122255290203973D+03 0.655953600261433D+02 0.455184951462234D+02 0.160131190441353D+02
 0.845038869147248D+02 0.132001963233685D+02 0.266768765255403D+02 -.790885957617292D+02
0.186973375664D-04 0.000000000000D+00 0.000000000000D+00 0.667154385169D-06 0.000000000000D+00  7 1 -2 -24 -11 11 23 21 0 0.11593971D+00 0.18427421D-01 0.25672851D+05 0.25672851D+05 0.25672851D+05 0.11736648D+01  1  2  2  1  7  1        1 0.115173667835D-02 0.100000000000D+01
-.539599154483D-06 0.000000000000D+00 -.718026993769D-07 0.667154385169D-06 0.000000000000D+00  7 1 -2 -24 -11 11 23 21 2 0.11593971D+00 0.18427421D-01 0.25672851D+05 0.25672851D+05 0.25672851D+05 0.11736648D+01  1  2  3  1  7  1        1 -.457860184091D-04 0.100000000000D+01
0.116140939769D-05 0.000000000000D+00 0.000000000000D+00 0.667154385169D-06 0.000000000000D+00  7 1 -2 -24 -11 11 23 21 2 0.11593971D+00 0.18427421D-01 0.25672851D+05 0.25672851D+05 0.25672851D+05 0.11736648D+01  1  2 15  1  7  1        1 0.985478046459D-04 0.100000000000D+01
-.127217271474D-05 0.000000000000D+00 0.000000000000D+00 0.667154385169D-06 0.000000000000D+00  7 1 -2 -24 -11 11 23 21 2 0.11593971D+00 0.18427421D-01 0.25672851D+05 0.25672851D+05 0.25672851D+05 0.11736648D+01  1  2  4  1  7  1        1 -.107946283556D-03 0.100000000000D+01
  </mgrwgt>
  </event>
  <event>
  8     66 0.29493621E-05 0.97973648E+02 0.75467711E-02 0.98425686E-01
        1 -1    0    0  501    0 0.00000000E+00 0.00000000E+00 0.22773373E+03 0.22773396E+03 0.32000000E+00 0.0000E+00 0.9000E+01
       -2 -1    0    0    0  501 0.00000000E+00 0.00000000E+00 -.33615072E+03 0.33615087E+03 0.32000000E+00 0.0000E+00 0.9000E+01
       25  2    1    2    0    0 -.88942491E+02 0.16107220E+03 -.85998809E+02 0.36183333E+03 0.29945374E+03 0.0000E+00 0.0000E+00
       23  2    3    3    0    0 -.54030636E+02 -.23405885E+02 -.10617718E+03 0.15213493E+03 0.91674955E+02 0.0000E+00 0.0000E+00
      -24  1    1    2    0    0 0.88942491E+02 -.16107220E+03 -.22418183E+02 0.20205150E+03 0.80419002E+02 0.0000E+00 0.9000E+01
      -13  1    4    4    0    0 -.50680438E+01 -.11177265E+02 0.15871886E+02 0.20063506E+02 0.10565837E+00 0.0000E+00 0.9000E+01
       13  1    4    4    0    0 -.48962592E+02 -.12228620E+02 -.12204907E+03 0.13207142E+03 0.10565837E+00 0.0000E+00 0.9000E+01
       23  1    3    3    0    0 -.34911855E+02 0.18447808E+03 0.20178372E+02 0.20969840E+03 0.91188000E+02 0.0000E+00 0.9000E+01
#aMCatNLO 1  0  0  1  2 0.19758188D+03 0.00000000D+00  -5  7  0 0.00000000D+00 0.00000000D+00 0.00000000D+00 0.00000000D+00 0.00000000D+00
  <mgrwgt>
 0.6065282983D-03    7    2    0
 0.276682063756132D+03 0.000000000000000D+00 0.000000000000000D+00 0.276682063756132D+03
 0.276682063756132D+03 0.000000000000000D+00 0.000000000000000D+00 -.276682063756132D+03
 0.201500713175185D+03 0.889424908029923D+02 -.161072197874290D+03 0.167422178173245D+02
 0.235545164020389D+02 -.506798559640399D+01 -.111772638952713D+02 0.201047142915294D+02
 0.110670242311698D+03 -.489626501970925D+02 -.122286213232241D+02 -.984937675162255D+02
 0.217638655623343D+03 -.349118550094958D+02 0.184478083092785D+03 0.616468354073716D+02
 0.000000000000000D+00 0.000000000000000D+00 0.000000000000000D+00 0.000000000000000D+00
 0.484482633241703D+03 0.000000000000000D+00 0.000000000000000D+00 0.484482633241703D+03
 0.344970112448748D+03 0.000000000000000D+00 0.000000000000000D+00 -.344970112448748D+03
 0.183533103345679D+03 0.222822676963112D+02 -.162604989954775D+03 0.167422178173245D+02
 0.269117762772691D+02 -.138051255176905D+02 -.113781665963620D+02 0.201047142915294D+02
 0.135091442905757D+03 -.915109357365310D+02 -.132069810117103D+02 -.984937675162255D+02
 0.242043847985675D+03 -.114495873176260D+03 0.182648119928936D+03 0.616468354073716D+02
 0.241872575176070D+03 0.197529666734170D+03 0.454201763391172D+01 0.139512520792954D+03
0.145040528100D-04 0.000000000000D+00 0.000000000000D+00 0.114490740834D-05 0.000000000000D+00  7 1 -2 -24 -13 13 23 21 0 0.35035988D-01 0.51715525D-01 0.55759375D+05 0.55759375D+05 0.55759375D+05 0.11431538D+01  1  2  2  1  7  1        1 0.728964370608D-03 0.100000000000D+01
-.781177881544D-06 0.000000000000D+00 -.556993817952D-07 0.114490740834D-05 0.000000000000D+00  7 1 -2 -24 -13 13 23 21 2 0.35035988D-01 0.51715525D-01 0.55759375D+05 0.55759375D+05 0.55759375D+05 0.11431538D+01  1  2  3  1  7  1        1 -.513069527780D-04 0.100000000000D+01
0.928804761323D-06 0.000000000000D+00 0.000000000000D+00 0.114490740834D-05 0.000000000000D+00  7 1 -2 -24 -13 13 23 21 2 0.35035988D-01 0.51715525D-01 0.55759375D+05 0.55759375D+05 0.55759375D+05 0.11431538D+01  1  2 15  1  7  1        1 0.610029330772D-04 0.100000000000D+01
0.385731691216D-06 0.000000000000D+00 0.000000000000D+00 0.114490740834D-05 0.000000000000D+00  7 1 -2 -24 -13 13 23 21 2 0.62982270D-01 0.51715525D-01 0.13131938D+06 0.13131938D+06 0.13131938D+06 0.11121392D+01  1  2 12  1  7  1        1 0.109984956219D-04 0.100000000000D+01
-.543591704157D-05 0.000000000000D+00 -.477631165409D-05 0.114490740834D-05 0.000000000000D+00  7 1 -2 -24 -13 13 23 21 2 0.73708637D-01 0.51715525D-01 0.55759375D+05 0.55759375D+05 0.55759375D+05 0.11431538D+01  1  2  5  1  7  1        1 -.134472322659D-03 0.100000000000D+01
0.248182701793D-07 0.000000000000D+00 0.000000000000D+00 0.114490740834D-05 0.000000000000D+00  7 21 -2 -24 -13 13 23 -1 2 0.62982270D-01 0.51715525D-01 0.13131938D+06 0.13131938D+06 0.13131938D+06 0.11121392D+01  1  2 12  3  7  1        1 0.255781079754D-05 0.100000000000D+01
-.141196571032D-06 0.000000000000D+00 -.384207975194D-06 0.114490740834D-05 0.000000000000D+00  7 21 -2 -24 -13 13 23 -1 2 0.73708637D-01 0.51715525D-01 0.55759375D+05 0.55759375D+05 0.55759375D+05 0.11431538D+01  1  2  5  3  7  1        1 -.112160363188D-04 0.100000000000D+01
  </mgrwgt>
  </event>
  <event>
  8     66 0.29493621E-05 0.19147998E+03 0.75467711E-02 0.10591015E+00
        1 -1    0    0  501    0 0.00000000E+00 0.00000000E+00 0.80722532E+03 0.80722539E+03 0.32000000E+00 0.0000E+00 0.9000E+01
       -2 -1    0    0    0  501 0.00000000E+00 0.00000000E+00 -.61707233E+02 0.61708063E+02 0.32000000E+00 0.0000E+00 0.9000E+01
       25  2    1    2    0    0 0.58578753E+02 -.65776557E+02 0.43099649E+03 0.53255706E+03 0.30016831E+03 0.0000E+00 0.0000E+00
       23  2    3    3    0    0 0.11251430E+02 0.89204140E+02 0.17315763E+03 0.21466553E+03 0.89519562E+02 0.0000E+00 0.0000E+00
      -24  1    1    2    0    0 -.58578753E+02 0.65776557E+02 0.31452160E+03 0.33637639E+03 0.80419002E+02 0.0000E+00 0.9000E+01
      -13  1    4    4    0    0 0.30324262E+02 0.79548007E+02 0.17352617E+03 0.19328421E+03 0.10565837E+00 0.0000E+00 0.9000E+01
       13  1    4    4    0    0 -.19072832E+02 0.96561332E+01 -.36853275E+00 0.21381319E+02 0.10565837E+00 0.0000E+00 0.9000E+01
       23  1    3    3    0    0 0.47327323E+02 -.15498070E+03 0.25783886E+03 0.31789152E+03 0.91188000E+02 0.0000E+00 0.9000E+01
#aMCatNLO 1  0  0  1  2 0.98350695D-01 0.00000000D+00  -5  7  0 0.00000000D+00 0.00000000D+00 0.00000000D+00 0.00000000D+00 0.00000000D+00
  <mgrwgt>
 0.4507601581D-03    9    2    0
 0.223186086313543D+03 0.000000000000000D+00 0.000000000000000D+00 0.223186086313543D+03
 0.223186086313543D+03 0.000000000000000D+00 0.000000000000000D+00 -.223186086313543D+03
 0.129504400195090D+03 -.585787570033238D+02 0.657765621929584D+02 0.504593579977092D+02
 0.864396380131779D+02 0.303243305324177D+02 0.795480995839814D+02 0.149781791345575D+02
 0.422375403896583D+02 -.190728984673168D+02 0.965603493903339D+01 -.364279473959158D+02
 0.188190594029160D+03 0.473273249382228D+02 -.154980696715973D+03 -.290095897363509D+02
 0.000000000000000D+00 -.000000000000000D+00 -.000000000000000D+00 0.000000000000000D+00
 0.223256611239685D+03 0.000000000000000D+00 0.000000000000000D+00 0.223256611239685D+03
 0.223220383160977D+03 0.000000000000000D+00 0.000000000000000D+00 -.223220383160977D+03
 0.129500430608145D+03 -.585540150227299D+02 0.657907751018436D+02 0.504593579977092D+02
 0.864541641177747D+02 0.303408465760909D+02 0.795575871439195D+02 0.149781791345575D+02
 0.422349572087207D+02 -.190648290545193D+02 0.966067037346892D+01 -.364279473959158D+02
 0.188182631527417D+03 0.473632787812994D+02 -.154960043207909D+03 -.290095897363509D+02
 0.104810938604603D+00 -.852812801412063D-01 -.489894113231717D-01 0.362280787078748D-01
0.730880655147D-06 0.000000000000D+00 0.000000000000D+00 0.412301791576D-06 0.000000000000D+00  7 1 -2 -24 -13 13 23 21 0 0.12418858D+00 0.94934892D-02 0.42378505D+05 0.42378505D+05 0.42378505D+05 0.11536671D+01  1  2  2  1  7  1        1 0.114097458588D-03 0.100000000000D+01
-.402821067818D-07 0.000000000000D+00 -.280677416106D-08 0.412301791576D-06 0.000000000000D+00  7 1 -2 -24 -13 13 23 21 2 0.12418858D+00 0.94934892D-02 0.42378505D+05 0.42378505D+05 0.42378505D+05 0.11536671D+01  1  2  3  1  7  1        1 -.836956170103D-05 0.100000000000D+01
0.477767006699D-07 0.000000000000D+00 0.000000000000D+00 0.412301791576D-06 0.000000000000D+00  7 1 -2 -24 -13 13 23 21 2 0.12418858D+00 0.94934892D-02 0.42378505D+05 0.42378505D+05 0.42378505D+05 0.11536671D+01  1  2 15  1  7  1        1 0.992674107873D-05 0.100000000000D+01
-.355487551979D-03 0.000000000000D+00 0.000000000000D+00 0.412301791576D-06 0.000000000000D+00  7 1 -2 -24 -13 13 23 21 2 0.12418858D+00 0.94934892D-02 0.42378505D+05 0.42378505D+05 0.42378505D+05 0.11536671D+01  1  2  4  1  7  1        1 -.738609580763D-01 0.100000000000D+01
-.339646591772D-02 0.000000000000D+00 -.209602691814D-03 0.412301791576D-06 0.000000000000D+00  7 1 -2 -24 -13 13 23 21 2 0.12424126D+00 0.94934892D-02 0.42378505D+05 0.42378505D+05 0.42378505D+05 0.11536671D+01  1  2  5  1  7  1        1 -.705230592495D+00 0.100000000000D+01
0.339655452744D-02 0.000000000000D+00 0.209602672963D-03 0.412301791576D-06 0.000000000000D+00  7 1 -2 -24 -13 13 23 21 2 0.12418858D+00 0.94934892D-02 0.42378505D+05 0.42378505D+05 0.42378505D+05 0.11536671D+01  1  2  6  1  7  1        1 0.705714645023D+00 0.100000000000D+01
0.355487573294D-03 0.000000000000D+00 0.000000000000D+00 0.412301791576D-06 0.302556549330D-03  7 1 -2 -24 -13 13 23 21 2 0.12422782D+00 0.94949480D-02 0.42398193D+05 0.42398193D+05 0.42398193D+05 0.11536491D+01  1  2 11  1  7  1        1 0.738052877564D-01 0.100000000000D+01
-.269908515642D-06 0.000000000000D+00 -.166574653424D-07 0.412301791576D-06 0.000000000000D+00  7 21 -2 -24 -13 13 23 -1 2 0.12424126D+00 0.94934892D-02 0.42378505D+05 0.42378505D+05 0.42378505D+05 0.11536671D+01  1  2  5  3  7  1        1 -.104154917185D-03 0.100000000000D+01
0.281896394751D-07 0.000000000000D+00 0.000000000000D+00 0.412301791576D-06 0.179157603481D-07  7 21 -2 -24 -13 13 23 -1 2 0.12422782D+00 0.94949480D-02 0.42398193D+05 0.42398193D+05 0.42398193D+05 0.11536491D+01  1  2 11  3  7  1        1 0.108782287223D-04 0.100000000000D+01
  </mgrwgt>
  </event>
  <event>
  8     66 0.29493621E-05 0.37531069E+03 0.75467711E-02 0.96490181E-01
        1 -1    0    0  501    0 0.00000000E+00 0.00000000E+00 0.18814094E+04 0.18814095E+04 0.32000000E+00 0.0000E+00 0.9000E+01
       -2 -1    0    0    0  501 0.00000000E+00 0.00000000E+00 -.86850090E+02 0.86850679E+02 0.32000000E+00 0.0000E+00 0.9000E+01
       25  2    1    2    0    0 0.23145231E+03 0.25245922E+03 0.10738975E+04 0.11663084E+04 0.29952244E+03 0.0000E+00 0.0000E+00
       23  2    3    3    0    0 0.69765033E+02 0.83865263E+02 0.68650183E+03 0.70483540E+03 0.11665180E+03 0.0000E+00 0.0000E+00
      -24  1    1    2    0    0 -.23145231E+03 -.25245922E+03 0.72066188E+03 0.80195174E+03 0.80419002E+02 0.0000E+00 0.9000E+01
      -11  1    4    4    0    0 0.22937272E+02 -.22312336E+02 0.63378841E+02 0.70998847E+02 0.51099893E-03 0.0000E+00 0.9000E+01
       11  1    4    4    0    0 0.46827761E+02 0.10617760E+03 0.62312299E+03 0.63383656E+03 0.51099893E-03 0.0000E+00 0.9000E+01
       23  1    3    3    0    0 0.16168728E+03 0.16859396E+03 0.38739563E+03 0.46147299E+03 0.91188000E+02 0.0000E+00 0.9000E+01
#aMCatNLO 1  0  0  2  2 0.93310049D+02 0.00000000D+00  -5  7  0 0.00000000D+00 0.00000000D+00 0.00000000D+00 0.00000000D+00 0.00000000D+00
  <mgrwgt>
 0.1116506540D-02    4    2    0
 0.404229123790984D+03 0.000000000000000D+00 0.000000000000000D+00 0.404229123790984D+03
 0.404229123790984D+03 0.000000000000000D+00 0.000000000000000D+00 -.404229123790984D+03
 0.352744413446172D+03 -.231452311999675D+03 -.252459218695709D+03 -.256042072455061D+02
 0.321687714353116D+02 0.229372716335049D+02 -.223123355074869D+02 -.329713661674409D+01
 0.159963792850292D+03 0.468277605185005D+02 0.106177597875303D+03 0.110099471285303D+03
 0.263581269850193D+03 0.161687279847670D+03 0.168593956327892D+03 -.811981274230530D+02
 0.000000000000000D+00 -.000000000000000D+00 0.000000000000000D+00 0.000000000000000D+00
 0.638146491479011D+03 0.000000000000000D+00 0.000000000000000D+00 0.638146491479011D+03
 0.416325989964449D+03 0.000000000000000D+00 0.000000000000000D+00 -.416325989964449D+03
 0.336712750847391D+03 -.193115069425868D+03 -.262600942802607D+03 -.256042072455061D+02
 0.356002398676820D+02 0.267055652416684D+02 -.233091989113743D+02 -.329713661674409D+01
 0.163116662076532D+03 0.647926384149783D+02 0.101425173783001D+03 0.110099471285303D+03
 0.278395576181282D+03 0.191823884254392D+03 0.160621626893314D+03 -.811981274230530D+02
 0.240647252470573D+03 -.902070184851711D+02 0.238633410376659D+02 0.221820501514562D+03
0.716209550176D-04 0.000000000000D+00 0.000000000000D+00 0.951419775761D-08 0.000000000000D+00  7 1 -2 -24 -11 11 23 21 0 0.28944765D+00 0.13361600D-01 0.14085811D+06 0.14085811D+06 0.14085811D+06 0.11097135D+01  1  2  2  2  7  2       -2 0.115470131442D-02 0.100000000000D+01
-.395228681193D-05 0.000000000000D+00 -.275043325498D-06 0.951419775761D-08 0.000000000000D+00  7 1 -2 -24 -11 11 23 21 2 0.28944765D+00 0.13361600D-01 0.14085811D+06 0.14085811D+06 0.14085811D+06 0.11097135D+01  1  2  3  2  7  2       -2 -.784692888344D-04 0.100000000000D+01
0.453461610838D-05 0.000000000000D+00 0.000000000000D+00 0.951419775761D-08 0.000000000000D+00  7 1 -2 -24 -11 11 23 21 2 0.28944765D+00 0.13361600D-01 0.14085811D+06 0.14085811D+06 0.14085811D+06 0.11097135D+01  1  2 15  2  7  2       -2 0.900309410966D-04 0.100000000000D+01
-.250609723911D-05 0.000000000000D+00 0.000000000000D+00 0.951419775761D-08 0.000000000000D+00  7 1 -2 -24 -11 11 23 21 2 0.28944765D+00 0.13361600D-01 0.14085811D+06 0.14085811D+06 0.14085811D+06 0.11097135D+01  1  2  4  2  7  2       -2 -.497564264590D-04 0.100000000000D+01
  </mgrwgt>
  </event>
  <event>
  9     66 0.29493621E-05 0.17476770E+03 0.75467711E-02 0.10764534E+00
        1 -1    0    0  501    0 0.00000000E+00 0.00000000E+00 0.58260431E+03 0.58260439E+03 0.32000000E+00 0.0000E+00 0.9000E+01
       21 -1    0    0  502  501 0.00000000E+00 0.00000000E+00 -.22158844E+03 0.22158971E+03 0.75000000E+00 0.0000E+00 0.9000E+01
       25  2    1    2    0    0 -.75284573E+02 0.27860583E+02 -.97112449E+02 0.32551509E+03 0.30014208E+03 0.0000E+00 0.0000E+00
       23  2    3    3    0    0 0.26755881E+02 -.16740472E+02 0.59604536E+02 0.11273122E+03 0.90329991E+02 0.0000E+00 0.0000E+00
      -24  1    1    2    0    0 0.82350760E+02 -.41789615E+02 0.41961726E+03 0.43711998E+03 0.80419002E+02 0.0000E+00 0.9000E+01
      -13  1    4    4    0    0 -.21940478E+02 -.25783378E+02 0.52821598E+02 0.62739935E+02 0.10565837E+00 0.0000E+00 0.9000E+01
       13  1    4    4    0    0 0.48696358E+02 0.90429053E+01 0.67829387E+01 0.49991288E+02 0.10565837E+00 0.0000E+00 0.9000E+01
       23  1    3    3    0    0 -.10204045E+03 0.44601055E+02 -.15671698E+03 0.21278386E+03 0.91188000E+02 0.0000E+00 0.9000E+01
        2  1    1    2  502    0 -.70661866E+01 0.13929032E+02 0.38511057E+02 0.41559029E+02 0.32000000E+00 0.0000E+00 0.9000E+01
#aMCatNLO 2  0  0  2  2 0.15618864D+02 0.00000000D+00  -5  7  0 0.00000000D+00 0.00000000D+00 0.00000000D+00 0.00000000D+00 0.00000000D+00
  <mgrwgt>
 0.1527314088D-03    1    2    0
 0.345455840355782D+03 0.000000000000000D+00 0.000000000000000D+00 0.345455840355782D+03
 0.345455840355782D+03 0.000000000000000D+00 0.000000000000000D+00 -.345455840355782D+03
 0.284943005190689D+03 0.794286841667773D+02 -.360295510407726D+02 0.259071912480039D+03
 0.443013880049205D+02 -.223950536704030D+02 -.248875444832303D+02 0.290118024234537D+02
 0.516990061568215D+02 0.481662326439254D+02 0.100881389000552D+02 -.158439491297945D+02
 0.309968281359134D+03 -.105199863140300D+03 0.508289566239478D+02 -.272239765773698D+03
 0.000000000000000D+00 -.000000000000000D+00 0.000000000000000D+00 0.000000000000000D+00
 0.371040065653969D+03 0.000000000000000D+00 0.000000000000000D+00 0.371040065653969D+03
 0.347936134296498D+03 0.000000000000000D+00 0.000000000000000D+00 -.347936134296498D+03
 0.286554517186559D+03 0.823507597573168D+02 -.417896147024466D+02 0.259071912480039D+03
 0.445854066557436D+02 -.219405741270468D+02 -.257834251754122D+02 0.290118024234537D+02
 0.520014462911982D+02 0.486964546465787D+02 0.904295290281704D+01 -.158439491297945D+02
 0.307946829352925D+03 -.102040453709220D+03 0.446010549518521D+02 -.272239765773698D+03
 0.278880004640408D+02 -.706618656762833D+01 0.139290320231898D+02 0.231039313574716D+02
0.298414930659D-06 0.000000000000D+00 0.000000000000D+00 0.424565247500D-05 0.172507489614D-09  7 1 21 -24 -13 13 23 2 2 0.89631301D-01 0.34090544D-01 0.33377690D+05 0.33377690D+05 0.33377690D+05 0.11630611D+01  1  2  1  4  7  2       -2 0.152731408836D-03 0.100000000000D+01
  </mgrwgt>
  </event>
  <event>
  8     66 0.29493621E-05 0.47182489E+03 0.75467711E-02 0.89897925E-01
        1 -1    0    0  501    0 0.00000000E+00 0.00000000E+00 0.87145831E+03 0.87145837E+03 0.32000000E+00 0.0000E+00 0.9000E+01
       -2 -1    0    0    0  501 0.00000000E+00 0.00000000E+00 -.92363505E+03 0.92363511E+03 0.32000000E+00 0.0000E+00 0.9000E+01
       25  2    1    2    0    0 0.25773052E+03 -.65673820E+03 -.53634948E+03 0.93566311E+03 0.30010767E+03 0.0000E+00 0.0000E+00
       23  2    3    3    0    0 0.25922838E+03 -.38876946E+03 -.27194668E+03 0.54832143E+03 0.91434909E+02 0.0000E+00 0.0000E+00
      -24  1    1    2    0    0 -.25773052E+03 0.65673820E+03 0.48417274E+03 0.85943036E+03 0.80419002E+02 0.0000E+00 0.9000E+01
      -11  1    4    4    0    0 0.25448267E+03 -.39159780E+03 -.25851503E+03 0.53379798E+03 0.51099893E-03 0.0000E+00 0.9000E+01
       11  1    4    4    0    0 0.47457122E+01 0.28283364E+01 -.13431648E+02 0.14523445E+02 0.51099893E-03 0.0000E+00 0.9000E+01
       23  1    3    3    0    0 -.14978636E+01 -.26796874E+03 -.26440280E+03 0.38734169E+03 0.91188000E+02 0.0000E+00 0.9000E+01
#aMCatNLO 1  0  0  1  2 0.85080560D+02 0.00000000D+00  -5  7  0 0.00000000D+00 0.00000000D+00 0.00000000D+00 0.00000000D+00 0.00000000D+00
  <mgrwgt>
 0.2007919567D-02    9    2    0
 0.897167512036892D+03 0.000000000000000D+00 0.000000000000000D+00 0.897167512036892D+03
 0.897167512036892D+03 0.000000000000000D+00 0.000000000000000D+00 -.897167512036892D+03
 0.873872699639938D+03 -.257730520149160D+03 0.656738204975724D+03 0.509368421018157D+03
 0.526506360910787D+03 0.254482671532624D+03 -.391597797975618D+03 -.243102206057011D+03
 0.141390101681345D+02 0.474571220264047D+01 0.282833637759875D+01 -.130150043242202D+02
 0.379816953354925D+03 -.149786358610385D+01 -.267968743377705D+03 -.253251210636926D+03
 0.000000000000000D+00 -.000000000000000D+00 0.000000000000000D+00 0.000000000000000D+00
 0.997474371804903D+03 0.000000000000000D+00 0.000000000000000D+00 0.997474371804903D+03
 0.916400025988531D+03 0.000000000000000D+00 0.000000000000000D+00 -.916400025988531D+03
 0.841433197259847D+03 -.241272769625851D+03 0.619575557783793D+03 0.509368421018157D+03
 0.548961698134011D+03 0.264801405376854D+03 -.414898155140313D+03 -.243102206057011D+03
 0.141233911330074D+02 0.501687989969353D+01 0.221602247472615D+01 -.130150043242202D+02
 0.391832703779768D+03 0.590584065782899D+01 -.284686778344937D+03 -.253251210636926D+03
 0.117523407486800D+03 -.344513563085251D+02 0.777933532267304D+02 0.810743458163718D+02
0.178252447555D-02 0.000000000000D+00 0.000000000000D+00 0.621954242234D-04 0.000000000000D+00  7 1 -2 -24 -11 11 23 21 0 0.13407052D+00 0.14209771D+00 0.53705376D+06 0.53705376D+06 0.53705376D+06 0.10663230D+01  1  2  2  1  7  1        1 0.123756215124D-02 0.100000000000D+01
-.941007560547D-04 0.000000000000D+00 -.684536333560D-05 0.621954242234D-04 0.000000000000D+00  7 1 -2 -24 -11 11 23 21 2 0.13407052D+00 0.14209771D+00 0.53705376D+06 0.53705376D+06 0.53705376D+06 0.10663230D+01  1  2  3  1  7  1        1 -.742851809038D-04 0.100000000000D+01
0.112702938964D-03 0.000000000000D+00 0.000000000000D+00 0.621954242234D-04 0.000000000000D+00  7 1 -2 -24 -11 11 23 21 2 0.13407052D+00 0.14209771D+00 0.53705376D+06 0.53705376D+06 0.53705376D+06 0.10663230D+01  1  2 15  1  7  1        1 0.889701481721D-04 0.100000000000D+01
0.629564521310D-02 0.000000000000D+00 0.000000000000D+00 0.621954242234D-04 0.000000000000D+00  7 1 -2 -24 -11 11 23 21 2 0.15039172D+00 0.14209771D+00 0.60178709D+06 0.60178709D+06 0.60178709D+06 0.10628691D+01  1  2 12  1  7  1        1 0.403044769657D-02 0.100000000000D+01
-.638740944985D-02 0.000000000000D+00 0.000000000000D+00 0.621954242234D-04 0.000000000000D+00  7 1 -2 -24 -11 11 23 21 2 0.13407052D+00 0.14209771D+00 0.53705376D+06 0.53705376D+06 0.53705376D+06 0.10663230D+01  1  2  4  1  7  1        1 -.504235976821D-02 0.100000000000D+01
-.120127440032D-01 0.000000000000D+00 -.194459134056D-02 0.621954242234D-04 0.000000000000D+00  7 1 -2 -24 -11 11 23 21 2 0.15080611D+00 0.14209771D+00 0.53705376D+06 0.53705376D+06 0.53705376D+06 0.10663230D+01  1  2  5  1  7  1        1 -.775308446686D-02 0.100000000000D+01
0.121705638490D-01 0.000000000000D+00 0.193121521297D-02 0.621954242234D-04 0.000000000000D+00  7 1 -2 -24 -11 11 23 21 2 0.13407052D+00 0.14209771D+00 0.53705376D+06 0.53705376D+06 0.53705376D+06 0.10663230D+01  1  2  6  1  7  1        1 0.960770747364D-02 0.100000000000D+01
0.115135305656D-03 0.000000000000D+00 0.000000000000D+00 0.621954242234D-04 0.000000000000D+00  7 21 -2 -24 -11 11 23 -1 2 0.15039172D+00 0.14209771D+00 0.60178709D+06 0.60178709D+06 0.60178709D+06 0.10628691D+01  1  2 12  3  7  1        1 0.979992551150D-04 0.100000000000D+01
-.215459282372D-03 0.000000000000D+00 -.362813322497D-04 0.621954242234D-04 0.000000000000D+00  7 21 -2 -24 -11 11 23 -1 2 0.15080611D+00 0.14209771D+00 0.53705376D+06 0.53705376D+06 0.53705376D+06 0.10663230D+01  1  2  5  3  7  1        1 -.185037741760D-03 0.100000000000D+01
  </mgrwgt>
  </event>
  <event>
  8     66 0.29493621E-05 0.29065897E+03 0.75467711E-02 0.97545043E-01
        1 -1    0    0  501    0 0.00000000E+00 0.00000000E+00 0.36100561E+04 0.36100561E+04 0.32000000E+00 0.0000E+00 0.9000E+01
       -2 -1    0    0    0  501 0.00000000E+00 0.00000000E+00 -.24269851E+02 0.24271961E+02 0.32000000E+00 0.0000E+00 0.9000E+01
       25  2    1    2    0    0 0.18997402E+03 -.76859283E+02 0.25070625E+04 0.25333696E+04 0.30100089E+03 0.0000E+00 0.0000E+00
       23  2    3    3    0    0 0.51419818E+02 -.14906358E+03 0.13339571E+04 0.13463977E+04 0.92093643E+02 0.0000E+00 0.0000E+00
      -24  1    1    2    0    0 -.18997402E+03 0.76859283E+02 0.10787237E+04 0.11009584E+04 0.80419002E+02 0.0000E+00 0.9000E+01
      -11  1    4    4    0    0 0.61186472E+02 -.15647163E+03 0.11725131E+04 0.11844890E+04 0.51099893E-03 0.0000E+00 0.9000E+01
       11  1    4    4    0    0 -.97666537E+01 0.74080541E+01 0.16144399E+03 0.16190870E+03 0.51099893E-03 0.0000E+00 0.9000E+01
       23  1    3    3    0    0 0.13855421E+03 0.72204293E+02 0.11731055E+04 0.11869719E+04 0.91188000E+02 0.0000E+00 0.9000E+01
#aMCatNLO 1  0  0  2  2 0.17323477D+03 0.00000000D+00  -5  7  0 0.00000000D+00 0.00000000D+00 0.00000000D+00 0.00000000D+00 0.00000000D+00
  <mgrwgt>
 0.8260665056D-03    4    2    0
 0.296005715297372D+03 0.000000000000000D+00 0.000000000000000D+00 0.296005715297372D+03
 0.296005715297372D+03 0.000000000000000D+00 0.000000000000000D+00 -.296005715297372D+03
 0.224947695931277D+03 -.189974024638912D+03 0.768592832271608D+02 -.462252149234687D+02
 0.169659182444692D+03 0.611864718985335D+02 -.156471630372812D+03 0.236026001297617D+02
 0.160904192349191D+02 -.976665366786574D+01 0.740805413078579D+01 0.104228019880821D+02
 0.181314132983856D+03 0.138554206408244D+03 0.722042930148657D+02 0.121998128056249D+02
 0.000000000000000D+00 -.000000000000000D+00 -.000000000000000D+00 0.000000000000000D+00
 0.406448127809957D+03 0.000000000000000D+00 0.000000000000000D+00 0.406448127809957D+03
 0.384952163203665D+03 0.000000000000000D+00 0.000000000000000D+00 -.384952163203665D+03
 0.212627924138230D+03 -.146971679105439D+03 0.122498870260788D+03 -.462252149234687D+02
 0.155727267394506D+03 0.931635289056692D+02 -.122533489133042D+03 0.236026001297617D+02
 0.163830275451307D+02 -.657535526125722D+01 0.107950680150706D+02 0.104228019880821D+02
 0.232098727511100D+03 0.179181978751141D+03 0.115323679383748D+03 0.121998128056249D+02
 0.174563344424654D+03 -.118798473290114D+03 -.126084128526566D+03 0.214959646062921D+02
0.159350308021D-03 0.000000000000D+00 0.000000000000D+00 0.542765979766D-06 0.000000000000D+00  7 1 -2 -24 -11 11 23 21 0 0.55539341D+00 0.37339867D-02 0.84482638D+05 0.84482638D+05 0.84482638D+05 0.11277816D+01  1  2  2  2  7  2       -2 0.103926577330D-02 0.100000000000D+01
-.884921850171D-05 0.000000000000D+00 -.611947140701D-06 0.542765979766D-06 0.000000000000D+00  7 1 -2 -24 -11 11 23 21 2 0.55539341D+00 0.37339867D-02 0.84482638D+05 0.84482638D+05 0.84482638D+05 0.11277816D+01  1  2  3  2  7  2       -2 -.734055100617D-04 0.100000000000D+01
0.103482171668D-04 0.000000000000D+00 0.000000000000D+00 0.542765979766D-06 0.000000000000D+00  7 1 -2 -24 -11 11 23 21 2 0.55539341D+00 0.37339867D-02 0.84482638D+05 0.84482638D+05 0.84482638D+05 0.11277816D+01  1  2 15  2  7  2       -2 0.858399144748D-04 0.100000000000D+01
-.272007055574D-04 0.000000000000D+00 0.000000000000D+00 0.542765979766D-06 0.000000000000D+00  7 1 -2 -24 -11 11 23 21 2 0.55539341D+00 0.37339867D-02 0.84482638D+05 0.84482638D+05 0.84482638D+05 0.11277816D+01  1  2  4  2  7  2       -2 -.225633672069D-03 0.100000000000D+01
  </mgrwgt>
  </event>
  <event>
  8     66 0.29493621E-05 0.21693527E+03 0.75467711E-02 0.95284885E-01
        1 -1    0    0  501    0 0.00000000E+00 0.00000000E+00 0.15574249E+03 0.15574282E+03 0.32000000E+00 0.0000E+00 0.9000E+01
       -2 -1    0    0    0  501 0.00000000E+00 0.00000000E+00 -.14265655E+04 0.14265655E+04 0.32000000E+00 0.0000E+00 0.9000E+01
       25  2    1    2    0    0 -.35375290E+03 -.20942727E+03 -.83512246E+03 0.97790528E+03 0.29978045E+03 0.0000E+00 0.0000E+00
       23  2    3    3    0    0 -.42818260E+02 -.13170852E+03 -.20711675E+03 0.26697141E+03 0.95894964E+02 0.0000E+00 0.0000E+00
      -24  1    1    2    0    0 0.35375290E+03 0.20942727E+03 -.43570053E+03 0.60440307E+03 0.80419002E+02 0.0000E+00 0.9000E+01
      -13  1    4    4    0    0 -.49100112E+02 -.14448410E+03 -.17727754E+03 0.23390984E+03 0.10565837E+00 0.0000E+00 0.9000E+01
       13  1    4    4    0    0 0.62818519E+01 0.12775582E+02 -.29839215E+02 0.33061565E+02 0.10565837E+00 0.0000E+00 0.9000E+01
       23  1    3    3    0    0 -.31093464E+03 -.77718744E+02 -.62800571E+03 0.71093388E+03 0.91188000E+02 0.0000E+00 0.9000E+01
#aMCatNLO 1  0  0  2  1 0.24768130D+02 0.00000000D+00  -5  7  0 0.00000000D+00 0.00000000D+00 0.00000000D+00 0.00000000D+00 0.00000000D+00
  <mgrwgt>
 0.1528867255D-02    9    2    0
 0.471356718934862D+03 0.000000000000000D+00 0.000000000000000D+00 0.471356718934862D+03
 0.471356718934862D+03 0.000000000000000D+00 0.000000000000000D+00 -.471356718934862D+03
 0.427122118437632D+03 0.353752902081902D+03 0.209427266134555D+03 0.834577292545087D+02
 0.153630227250067D+03 -.491001760408993D+02 -.144484293603622D+03 0.177681833489612D+02
 0.152677045082835D+02 0.628191940119817D+01 0.127757715773151D+02 -.551542837804808D+01
 0.346693387673741D+03 -.310934645442201D+03 -.777187441082490D+02 -.957104842254218D+02
 0.000000000000000D+00 -.000000000000000D+00 -.000000000000000D+00 -.000000000000000D+00
 0.481144356025432D+03 0.000000000000000D+00 0.000000000000000D+00 0.481144356025432D+03
 0.487453440807103D+03 0.000000000000000D+00 0.000000000000000D+00 -.487453440807103D+03
 0.438033535346703D+03 0.363975380127347D+03 0.214389580490272D+03 0.834577292545087D+02
 0.150864992702318D+03 -.455023313209452D+02 -.142737785914968D+03 0.177681833489612D+02
 0.155680326142166D+02 0.664626730133738D+01 0.129526375786210D+02 -.551542837804808D+01
 0.338572190504841D+03 -.302837706703387D+03 -.737882337992667D+02 -.957104842254218D+02
 0.255590456644562D+02 -.222816094043525D+02 -.108161983546582D+02 -.630908478167152D+01
0.235846624016D-03 0.000000000000D+00 0.000000000000D+00 0.580084435969D-06 0.000000000000D+00  7 1 -2 -24 -13 13 23 21 0 0.23960412D-01 0.21947164D+00 0.21111518D+06 0.21111518D+06 0.21111518D+06 0.10960259D+01  1  2  2  2  7  2       -2 0.516684549186D-03 0.100000000000D+01
-.130922022552D-04 0.000000000000D+00 -.905713136064D-06 0.580084435969D-06 0.000000000000D+00  7 1 -2 -24 -13 13 23 21 2 0.23960412D-01 0.21947164D+00 0.21111518D+06 0.21111518D+06 0.21111518D+06 0.10960259D+01  1  2  3  2  7  2       -2 -.344548315385D-04 0.100000000000D+01
0.149372786722D-04 0.000000000000D+00 0.000000000000D+00 0.580084435969D-06 0.000000000000D+00  7 1 -2 -24 -13 13 23 21 2 0.23960412D-01 0.21947164D+00 0.21111518D+06 0.21111518D+06 0.21111518D+06 0.10960259D+01  1  2 15  2  7  2       -2 0.393105308231D-04 0.100000000000D+01
0.485376072112D-03 0.000000000000D+00 0.000000000000D+00 0.580084435969D-06 0.000000000000D+00  7 1 -2 -24 -13 13 23 21 2 0.23960412D-01 0.22918235D+00 0.22274311D+06 0.22274311D+06 0.22274311D+06 0.10942510D+01  1  2 12  2  7  2       -2 0.109758617473D-02 0.100000000000D+01
-.433662608739D-03 0.000000000000D+00 0.000000000000D+00 0.580084435969D-06 0.000000000000D+00  7 1 -2 -24 -13 13 23 21 2 0.23960412D-01 0.21947164D+00 0.21111518D+06 0.21111518D+06 0.21111518D+06 0.10960259D+01  1  2  4  2  7  2       -2 -.114127263216D-02 0.100000000000D+01
-.368935336175D-02 0.000000000000D+00 -.546088429943D-03 0.580084435969D-06 0.000000000000D+00  7 1 -2 -24 -13 13 23 21 2 0.23960412D-01 0.22966600D+00 0.21111518D+06 0.21111518D+06 0.21111518D+06 0.10960259D+01  1  2  5  2  7  2       -2 -.832693606006D-02 0.100000000000D+01
0.371088429400D-02 0.000000000000D+00 0.545526049216D-03 0.580084435969D-06 0.000000000000D+00  7 1 -2 -24 -13 13 23 21 2 0.23960412D-01 0.21947164D+00 0.21111518D+06 0.21111518D+06 0.21111518D+06 0.10960259D+01  1  2  6  2  7  2       -2 0.976595768352D-02 0.100000000000D+01
0.667598864649D-05 0.000000000000D+00 0.000000000000D+00 0.580084435969D-06 0.000000000000D+00  7 1 21 -24 -13 13 23 2 2 0.23960412D-01 0.22918235D+00 0.22274311D+06 0.22274311D+06 0.22274311D+06 0.10942510D+01  1  2 12  4  7  2       -2 0.116221692899D-03 0.100000000000D+01
-.289769007938D-04 0.000000000000D+00 -.434808262634D-05 0.580084435969D-06 0.000000000000D+00  7 1 21 -24 -13 13 23 2 2 0.23960412D-01 0.22966600D+00 0.21111518D+06 0.21111518D+06 0.21111518D+06 0.10960259D+01  1  2  5  4  7  2       -2 -.504229852763D-03 0.100000000000D+01
  </mgrwgt>
  </event>
  <event>
  8     66 0.29493621E-05 0.42237076E+03 0.75467711E-02 0.91480445E-01
        1 -1    0    0  501    0 0.00000000E+00 0.00000000E+00 0.15950023E+04 0.15950023E+04 0.32000000E+00 0.0000E+00 0.9000E+01
       -2 -1    0    0    0  501 0.00000000E+00 0.00000000E+00 -.29303317E+03 0.29303335E+03 0.32000000E+00 0.0000E+00 0.9000E+01
       25  2    1    2    0    0 -.41699777E+03 0.49619625E+03 0.67410903E+03 0.98207024E+03 0.29990185E+03 0.0000E+00 0.0000E+00
       23  2    3    3    0    0 -.28082024E+03 0.30732452E+03 0.26283518E+03 0.50074054E+03 0.91380463E+02 0.0000E+00 0.0000E+00
      -24  1    1    2    0    0 0.41699777E+03 -.49619625E+03 0.62786011E+03 0.90596545E+03 0.80419002E+02 0.0000E+00 0.9000E+01
      -11  1    4    4    0    0 -.29392693E+02 0.46356429E+02 0.32652588E+01 0.54986460E+02 0.51099893E-03 0.0000E+00 0.9000E+01
       11  1    4    4    0    0 -.25142755E+03 0.26096809E+03 0.25956992E+03 0.44575408E+03 0.51099893E-03 0.0000E+00 0.9000E+01
       23  1    3    3    0    0 -.13617753E+03 0.18887173E+03 0.41127385E+03 0.48132970E+03 0.91188000E+02 0.0000E+00 0.9000E+01
#aMCatNLO 1  0  0  1  2 0.12109797D+02 0.00000000D+00  -5  7  0 0.00000000D+00 0.00000000D+00 0.00000000D+00 0.00000000D+00 0.00000000D+00
  <mgrwgt>
 0.1494417202D-02    9    2    0
 0.683658378989093D+03 0.000000000000000D+00 0.000000000000000D+00 0.683658378989093D+03
 0.683658378989093D+03 0.000000000000000D+00 0.000000000000000D+00 -.683658378989093D+03
 0.653133666866976D+03 0.416997769347350D+03 -.496196248908502D+03 0.430276297263840D+01
 0.728178988723540D+02 -.293926932088774D+02 0.463564289444227D+02 -.478497385325549D+02
 0.368347405737389D+03 -.251427545897877D+03 0.260968088473922D+03 -.660277008194491D+02
 0.273017786501468D+03 -.136177530240596D+03 0.188871731490157D+03 0.109574676379366D+03
 0.000000000000000D+00 -.000000000000000D+00 -.000000000000000D+00 0.000000000000000D+00
 0.691279433783492D+03 0.000000000000000D+00 0.000000000000000D+00 0.691279433783492D+03
 0.688512769460510D+03 0.000000000000000D+00 0.000000000000000D+00 -.688512769460510D+03
 0.655338447219386D+03 0.422516659221234D+03 -.494431414213210D+03 0.430276297263840D+01
 0.726978553807365D+02 -.287789350599705D+02 0.465526969802888D+02 -.478497385325549D+02
 0.366944850309137D+03 -.248326221121785D+03 0.261959832409983D+03 -.660277008194491D+02
 0.272389229920102D+03 -.133877105777843D+03 0.189607362930272D+03 0.109574676379366D+03
 0.124218204146400D+02 -.115343972616355D+02 -.368847810733425D+01 0.276666432298152D+01
0.138874827751D-03 0.000000000000D+00 0.000000000000D+00 0.190797635955D-04 0.000000000000D+00  7 1 -2 -24 -11 11 23 21 0 0.24538499D+00 0.45082042D-01 0.43589992D+06 0.43589992D+06 0.43589992D+06 0.10727471D+01  1  2  2  1  7  1        1 0.402902615641D-03 0.100000000000D+01
-.770385926704D-05 0.000000000000D+00 -.533315905144D-06 0.190797635955D-04 0.000000000000D+00  7 1 -2 -24 -11 11 23 21 2 0.24538499D+00 0.45082042D-01 0.43589992D+06 0.43589992D+06 0.43589992D+06 0.10727471D+01  1  2  3  1  7  1        1 -.257205093764D-04 0.100000000000D+01
0.879547381604D-05 0.000000000000D+00 0.000000000000D+00 0.190797635955D-04 0.000000000000D+00  7 1 -2 -24 -11 11 23 21 2 0.24538499D+00 0.45082042D-01 0.43589992D+06 0.43589992D+06 0.43589992D+06 0.10727471D+01  1  2 15  1  7  1        1 0.293650310726D-04 0.100000000000D+01
0.712969597209D-04 0.000000000000D+00 0.000000000000D+00 0.190797635955D-04 0.000000000000D+00  7 1 -2 -24 -11 11 23 21 2 0.24898364D+00 0.45082042D-01 0.44388738D+06 0.44388738D+06 0.44388738D+06 0.10721834D+01  1  2 12  1  7  1        1 0.229139216489D-03 0.100000000000D+01
-.625550705518D-04 0.000000000000D+00 0.000000000000D+00 0.190797635955D-04 0.000000000000D+00  7 1 -2 -24 -11 11 23 21 2 0.24538499D+00 0.45082042D-01 0.43589992D+06 0.43589992D+06 0.43589992D+06 0.10727471D+01  1  2  4  1  7  1        1 -.208849645729D-03 0.100000000000D+01
-.872087409000D-02 0.000000000000D+00 -.977654064219D-03 0.190797635955D-04 0.000000000000D+00  7 1 -2 -24 -11 11 23 21 2 0.24909272D+00 0.45082042D-01 0.43589992D+06 0.43589992D+06 0.43589992D+06 0.10727471D+01  1  2  5  1  7  1        1 -.280509657456D-01 0.100000000000D+01
0.873466348648D-02 0.000000000000D+00 0.977544134782D-03 0.190797635955D-04 0.000000000000D+00  7 1 -2 -24 -11 11 23 21 2 0.24538499D+00 0.45082042D-01 0.43589992D+06 0.43589992D+06 0.43589992D+06 0.10727471D+01  1  2  6  1  7  1        1 0.291620065109D-01 0.100000000000D+01
0.414413730229D-05 0.000000000000D+00 0.000000000000D+00 0.190797635955D-04 0.000000000000D+00  7 21 -2 -24 -11 11 23 -1 2 0.24898364D+00 0.45082042D-01 0.44388738D+06 0.44388738D+06 0.44388738D+06 0.10721834D+01  1  2 12  3  7  1        1 0.910639368490D-05 0.100000000000D+01
-.238988980238D-04 0.000000000000D+00 -.268825853304D-05 0.190797635955D-04 0.000000000000D+00  7 21 -2 -24 -11 11 23 -1 2 0.24909272D+00 0.45082042D-01 0.43589992D+06 0.43589992D+06 0.43589992D+06 0.10727471D+01  1  2  5  3  7  1        1 -.525666654471D-04 0.100000000000D+01
  </mgrwgt>
  </event>
  <event>
  8     66 0.29493621E-05 0.22012161E+03 0.75467711E-02 0.95572319E-01
        1 -1    0    0  501    0 0.00000000E+00 0.00000000E+00 0.84168643E+02 0.84169251E+02 0.32000000E+00 0.0000E+00 0.9000E+01
       -2 -1    0    0    0  501 0.00000000E+00 0.00000000E+00 -.63169686E+03 0.63169694E+03 0.32000000E+00 0.0000E+00 0.9000E+01
       25  2    1    2    0    0 -.57258019E+02 0.97768298E+02 -.39146682E+03 0.50691764E+03 0.30146659E+03 0.0000E+00 0.0000E+00
       23  2    3    3    0    0 -.45742136E+02 0.17426801E+03 -.23453468E+03 0.30961643E+03 0.91619510E+02 0.0000E+00 0.0000E+00
      -24  1    1    2    0    0 0.57258019E+02 -.97768298E+02 -.15606139E+03 0.20894855E+03 0.80419002E+02 0.0000E+00 0.9000E+01
      -13  1    4    4    0    0 -.27793928E+02 0.60929994E+02 -.15821141E+03 0.17180171E+03 0.10565837E+00 0.0000E+00 0.9000E+01
       13  1    4    4    0    0 -.17948208E+02 0.11333801E+03 -.76323271E+02 0.13781472E+03 0.10565837E+00 0.0000E+00 0.9000E+01
       23  1    3    3    0    0 -.11515883E+02 -.76499708E+02 -.15693214E+03 0.19730122E+03 0.91188000E+02 0.0000E+00 0.9000E+01
#aMCatNLO 1  0  0  1  2 0.36204499D+03 0.00000000D+00  -5  7  0 0.00000000D+00 0.00000000D+00 0.00000000D+00 0.00000000D+00 0.00000000D+00
  <mgrwgt>
 0.7308409605D-03    5    2    0
 0.230584721153262D+03 0.000000000000000D+00 0.000000000000000D+00 0.230584721153262D+03
 0.230584721153262D+03 0.000000000000000D+00 0.000000000000000D+00 -.230584721153262D+03
 0.139062129895310D+03 0.572580470745592D+02 -.977683459962777D+02 0.582465303768067D+01
 0.788469375867985D+02 -.277939472159643D+02 0.609299223249242D+02 -.416158699350548D+02
 0.123312105061382D+03 -.179482019184491D+02 0.113338073034284D+03 0.451466333566422D+02
 0.119948269763034D+03 -.115158979401457D+02 -.764996493629306D+02 -.935541645926807D+01
 0.000000000000000D+00 0.000000000000000D+00 0.000000000000000D+00 0.000000000000000D+00
 0.575369274519216D+03 0.000000000000000D+00 0.000000000000000D+00 0.575369274519216D+03
 0.409266051701593D+03 0.000000000000000D+00 0.000000000000000D+00 -.409266051701593D+03
 0.224225509458729D+03 -.567421255160482D+00 -.209226228250107D+03 0.582465303768067D+01
 0.678307387214603D+02 -.511410265196295D+02 0.159287128031794D+02 -.416158699350548D+02
 0.842807484075093D+02 -.509913134184331D+02 0.496478801617343D+02 0.451466333566422D+02
 0.209968241901147D+03 -.640295943340293D+02 -.177719156241954D+03 -.935541645926807D+01
 0.398330087731963D+03 0.166729355527252D+03 0.321368791527147D+03 0.166103222817623D+03
0.135719712763D-04 0.000000000000D+00 0.000000000000D+00 0.124522053591D-06 0.000000000000D+00  7 1 -2 -24 -13 13 23 21 0 0.12949075D-01 0.97184185D-01 0.48453522D+05 0.48453522D+05 0.48453522D+05 0.11484975D+01  1  2  2  1  7  1        1 0.641112951083D-03 0.100000000000D+01
-.752021422507D-06 0.000000000000D+00 -.521199432829D-07 0.124522053591D-06 0.000000000000D+00  7 1 -2 -24 -13 13 23 21 2 0.12949075D-01 0.97184185D-01 0.48453522D+05 0.48453522D+05 0.48453522D+05 0.11484975D+01  1  2  3  1  7  1        1 -.468578050037D-04 0.100000000000D+01
0.879592423590D-06 0.000000000000D+00 0.000000000000D+00 0.124522053591D-06 0.000000000000D+00  7 1 -2 -24 -13 13 23 21 2 0.12949075D-01 0.97184185D-01 0.48453522D+05 0.48453522D+05 0.48453522D+05 0.11484975D+01  1  2 15  1  7  1        1 0.548066438453D-04 0.100000000000D+01
0.505418206000D-05 0.000000000000D+00 -.550631052896D-05 0.124522053591D-06 0.000000000000D+00  7 1 -2 -24 -13 13 23 21 2 0.55913053D-01 0.97184185D-01 0.48453522D+05 0.48453522D+05 0.48453522D+05 0.11484975D+01  1  2  5  1  7  1        1 0.473985140395D-04 0.100000000000D+01
0.882712136934D-06 0.000000000000D+00 -.969919776682D-06 0.124522053591D-06 0.000000000000D+00  7 21 -2 -24 -13 13 23 -1 2 0.55913053D-01 0.97184185D-01 0.48453522D+05 0.48453522D+05 0.48453522D+05 0.11484975D+01  1  2  5  3  7  1        1 0.343806565250D-04 0.100000000000D+01
  </mgrwgt>
  </event>
  <event>
  7     66 0.29493621E-05 0.23692725E+03 0.75467711E-02 0.92452227E-01
        3 -1    0    0  501    0 0.00000000E+00 0.00000000E+00 0.13877038E+03 0.13877128E+03 0.50000000E+00 0.0000E+00 0.9000E+01
       -4 -1    0    0    0  501 0.00000000E+00 0.00000000E+00 -.59622416E+03 0.59622617E+03 0.15500000E+01 0.0000E+00 0.9000E+01
       25  2    1    2    0    0 0.13265097E+03 -.12198183E+03 -.39543462E+03 0.52814138E+03 0.30014818E+03 0.0000E+00 0.0000E+00
      -24  1    1    2    0    0 -.13265097E+03 0.12198183E+03 -.62019159E+02 0.20685608E+03 0.80419002E+02 0.0000E+00 0.9000E+01
      -11  1    3    3    0    0 0.53568483E+02 -.36757317E+02 -.20165560E+03 0.21186237E+03 0.51099893E-03 0.0000E+00 0.9000E+01
       11  1    3    3    0    0 0.99400978E+02 -.53499744E+02 -.18565677E+03 0.21728141E+03 0.51099893E-03 0.0000E+00 0.9000E+01
       23  1    3    3    0    0 -.20318490E+02 -.31724768E+02 -.81222542E+01 0.98997597E+02 0.91188000E+02 0.0000E+00 0.9000E+01
#aMCatNLO 1  0  0  2  1 0.54603616D+03 0.00000000D+00  -5  7  0 0.00000000D+00 0.00000000D+00 0.00000000D+00 0.00000000D+00 0.00000000D+00
  <mgrwgt>
 0.2507790746D-03    5    2    0
 0.287644444480916D+03 0.000000000000000D+00 0.000000000000000D+00 0.287644444480916D+03
 0.287644444480916D+03 0.000000000000000D+00 0.000000000000000D+00 -.287644444480916D+03
 0.214966425226475D+03 -.132650970922445D+03 0.121981828397596D+03 0.852496420777910D+02
 0.110327503309666D+03 0.535684830918661D+02 -.367573172848492D+02 -.891710448060448D+02
 0.129972780454713D+03 0.994009778948435D+02 -.534997435212653D+02 -.644216322040710D+02
 0.120022179970979D+03 -.203184900642649D+02 -.317247675914815D+02 0.683430349323248D+02
 0.000000000000000D+00 0.000000000000000D+00 -.000000000000000D+00 -.000000000000000D+00
 0.530184334402005D+03 0.000000000000000D+00 0.000000000000000D+00 0.530184334402005D+03
 0.954503925663932D+03 0.000000000000000D+00 0.000000000000000D+00 -.954503925663932D+03
 0.465453852909275D+03 -.302358924671641D+03 0.333903657408445D+03 0.852496420777910D+02
 0.930972169892174D+02 0.283102841383494D+01 0.266007867826470D+02 -.891710448060448D+02
 0.805865811734348D+02 0.468840268972122D+02 0.120804963179289D+02 -.644216322040710D+02
 0.154028659715521D+03 -.886712548493938D+02 0.536303534337842D+02 0.683430349323248D+02
 0.691521949278489D+03 0.341315124209988D+03 -.426215293942805D+03 -.424319591261928D+03
0.443539910770D-04 0.000000000000D+00 0.000000000000D+00 0.142973135980D-08 0.000000000000D+00  7 3 -4 -24 -11 11 23 21 0 0.21349514D-01 0.91727018D-01 0.56134521D+05 0.56134521D+05 0.56134521D+05 0.11429006D+01  1  2  2  2  7  2       -4 0.244938374444D-03 0.100000000000D+01
-.235138570752D-05 0.000000000000D+00 -.170331004410D-06 0.142973135980D-08 0.000000000000D+00  7 3 -4 -24 -11 11 23 21 2 0.21349514D-01 0.91727018D-01 0.56134521D+05 0.56134521D+05 0.56134521D+05 0.11429006D+01  1  2  3  2  7  2       -4 -.169615262324D-04 0.100000000000D+01
0.283424030251D-05 0.000000000000D+00 0.000000000000D+00 0.142973135980D-08 0.000000000000D+00  7 3 -4 -24 -11 11 23 21 2 0.21349514D-01 0.91727018D-01 0.56134521D+05 0.56134521D+05 0.56134521D+05 0.11429006D+01  1  2 15  2  7  2       -4 0.204445578989D-04 0.100000000000D+01
0.154484587109D-04 0.000000000000D+00 -.159368002212D-04 0.142973135980D-08 0.000000000000D+00  7 3 -4 -24 -11 11 23 21 2 0.21349514D-01 0.40654018D+00 0.56134521D+05 0.56134521D+05 0.56134521D+05 0.11429006D+01  1  2  5  2  7  2       -4 0.215739636036D-06 0.100000000000D+01
0.268120649685D-05 0.000000000000D+00 -.286486438604D-05 0.142973135980D-08 0.000000000000D+00  7 3 21 -24 -11 11 23 4 2 0.21349514D-01 0.40654018D+00 0.56134521D+05 0.56134521D+05 0.56134521D+05 0.11429006D+01  1  2  5  4  7  2       -4 0.214192890248D-05 0.100000000000D+01
  </mgrwgt>
  </event>
  <event>
  8     66 0.29493621E-05 0.22341449E+03 0.75467711E-02 0.92567806E-01
        1 -1    0    0  501    0 0.00000000E+00 0.00000000E+00 0.11195971E+04 0.11195971E+04 0.32000000E+00 0.0000E+00 0.9000E+01
       -2 -1    0    0    0  501 0.00000000E+00 0.00000000E+00 -.39162662E+03 0.39162675E+03 0.32000000E+00 0.0000E+00 0.9000E+01
       25  2    1    2    0    0 -.55596745E+03 0.16793405E+03 0.64594346E+03 0.91919574E+03 0.30062637E+03 0.0000E+00 0.0000E+00
       23  2    3    3    0    0 -.22022126E+03 0.35449505E+02 0.42412812E+03 0.48584259E+03 0.80026797E+02 0.0000E+00 0.0000E+00
      -24  1    1    2    0    0 0.55596745E+03 -.16793405E+03 0.82026975E+02 0.59202811E+03 0.80419002E+02 0.0000E+00 0.9000E+01
      -13  1    4    4    0    0 -.18950009E+03 0.18159568E+01 0.31535424E+03 0.36791560E+03 0.10565837E+00 0.0000E+00 0.9000E+01
       13  1    4    4    0    0 -.30721163E+02 0.33633549E+02 0.10877388E+03 0.11792699E+03 0.10565837E+00 0.0000E+00 0.9000E+01
       23  1    3    3    0    0 -.33574619E+03 0.13248455E+03 0.22181533E+03 0.43335315E+03 0.91188000E+02 0.0000E+00 0.9000E+01
#aMCatNLO 1  0  0  1  2 0.10492198D+02 0.00000000D+00  -5  7  0 0.00000000D+00 0.00000000D+00 0.00000000D+00 0.00000000D+00 0.00000000D+00
  <mgrwgt>
 0.6247607066D-02    9    2    0
 0.662166252682428D+03 0.000000000000000D+00 0.000000000000000D+00 0.662166252682428D+03
 0.662166252682428D+03 0.000000000000000D+00 0.000000000000000D+00 -.662166252682428D+03
 0.630486521287886D+03 0.555967445349313D+03 -.167934054019844D+03 -.231828364924459D+03
 0.246489961009170D+03 -.189500369224614D+03 0.181590137331862D+01 0.157618569477837D+03
 0.747769225444403D+02 -.307208865213560D+02 0.336336040828627D+02 0.593008933571530D+02
 0.372579100523359D+03 -.335746189603344D+03 0.132484548563662D+03 0.149089020894692D+02
 0.000000000000000D+00 -.000000000000000D+00 0.000000000000000D+00 0.000000000000000D+00
 0.668183241745196D+03 0.000000000000000D+00 0.000000000000000D+00 0.668183241745196D+03
 0.666776860213314D+03 0.000000000000000D+00 0.000000000000000D+00 -.666776860213314D+03
 0.635107495791753D+03 0.560757344551512D+03 -.169414063774204D+03 -.231828364924459D+03
 0.245059021314917D+03 -.187640001645041D+03 0.124107462890627D+01 0.157618569477837D+03
 0.744680619248691D+02 -.301560383770109D+02 0.334590741547633D+02 0.593008933571530D+02
 0.369739488586817D+03 -.332936733198074D+03 0.131616467063671D+03 0.149089020894692D+02
 0.105860343401529D+02 -.100245713313862D+02 0.309744792686332D+01 0.140638153188145D+01
0.553972137402D-03 0.000000000000D+00 0.000000000000D+00 0.985664281774D-07 0.000000000000D+00  7 1 -2 -24 -13 13 23 21 0 0.17224571D+00 0.60250263D-01 0.35620599D+06 0.35620599D+06 0.35620599D+06 0.10790769D+01  1  2  2  1  7  1        1 0.193466094369D-02 0.100000000000D+01
-.303724005202D-04 0.000000000000D+00 -.212739887184D-05 0.985664281774D-07 0.000000000000D+00  7 1 -2 -24 -13 13 23 21 2 0.17224571D+00 0.60250263D-01 0.35620599D+06 0.35620599D+06 0.35620599D+06 0.10790769D+01  1  2  3  1  7  1        1 -.123509630786D-03 0.100000000000D+01
0.352606424296D-04 0.000000000000D+00 0.000000000000D+00 0.985664281774D-07 0.000000000000D+00  7 1 -2 -24 -13 13 23 21 2 0.17224571D+00 0.60250263D-01 0.35620599D+06 0.35620599D+06 0.35620599D+06 0.10790769D+01  1  2 15  1  7  1        1 0.143387709011D-03 0.100000000000D+01
0.234447824971D-03 0.000000000000D+00 0.000000000000D+00 0.985664281774D-07 0.000000000000D+00  7 1 -2 -24 -13 13 23 21 2 0.17440574D+00 0.60250263D-01 0.36234541D+06 0.36234541D+06 0.36234541D+06 0.10785367D+01  1  2 12  1  7  1        1 0.929553043603D-03 0.100000000000D+01
-.194863406894D-03 0.000000000000D+00 0.000000000000D+00 0.985664281774D-07 0.000000000000D+00  7 1 -2 -24 -13 13 23 21 2 0.17224571D+00 0.60250263D-01 0.35620599D+06 0.35620599D+06 0.35620599D+06 0.10790769D+01  1  2  4  1  7  1        1 -.792413738357D-03 0.100000000000D+01
-.411910841917D-01 0.000000000000D+00 -.466698677066D-02 0.985664281774D-07 0.000000000000D+00  7 1 -2 -24 -13 13 23 21 2 0.17462827D+00 0.60250263D-01 0.35620599D+06 0.35620599D+06 0.35620599D+06 0.10790769D+01  1  2  5  1  7  1        1 -.163204070740D+00 0.100000000000D+01
0.412517447617D-01 0.000000000000D+00 0.466654643015D-02 0.985664281774D-07 0.000000000000D+00  7 1 -2 -24 -13 13 23 21 2 0.17224571D+00 0.60250263D-01 0.35620599D+06 0.35620599D+06 0.35620599D+06 0.10790769D+01  1  2  6  1  7  1        1 0.167750578733D+00 0.100000000000D+01
0.156778580560D-04 0.000000000000D+00 0.000000000000D+00 0.985664281774D-07 0.000000000000D+00  7 21 -2 -24 -13 13 23 -1 2 0.17440574D+00 0.60250263D-01 0.36234541D+06 0.36234541D+06 0.36234541D+06 0.10785367D+01  1  2 12  3  7  1        1 0.697674947640D-04 0.100000000000D+01
-.103621637896D-03 0.000000000000D+00 -.117772062916D-04 0.985664281774D-07 0.000000000000D+00  7 21 -2 -24 -13 13 23 -1 2 0.17462827D+00 0.60250263D-01 0.35620599D+06 0.35620599D+06 0.35620599D+06 0.10790769D+01  1  2  5  3  7  1        1 -.460346749276D-03 0.100000000000D+01
  </mgrwgt>
  </event>
  <event>
  8     66 0.29493621E-05 0.44574084E+03 0.75467711E-02 0.90237971E-01
        1 -1    0    0  501    0 0.00000000E+00 0.00000000E+00 0.46805031E+03 0.46805042E+03 0.32000000E+00 0.0000E+00 0.9000E+01
       -2 -1    0    0    0  501 0.00000000E+00 0.00000000E+00 -.53652995E+03 0.53653005E+03 0.32000000E+00 0.0000E+00 0.9000E+01
       25  2    1    2    0    0 -.22390051E+03 0.35228665E+03 -.21305706E+03 0.55557360E+03 0.29838128E+03 0.0000E+00 0.0000E+00
       23  2    3    3    0    0 -.15572724E+03 0.28188620E+03 -.24895861E+03 0.41698070E+03 0.90452839E+02 0.0000E+00 0.0000E+00
      -24  1    1    2    0    0 0.22390051E+03 -.35228665E+03 0.14457742E+03 0.44900687E+03 0.80419002E+02 0.0000E+00 0.9000E+01
      -11  1    4    4    0    0 -.16593504E+03 0.26106191E+03 -.24205657E+03 0.39278383E+03 0.51099893E-03 0.0000E+00 0.9000E+01
       11  1    4    4    0    0 0.10207805E+02 0.20824287E+02 -.69020426E+01 0.24196868E+02 0.51099893E-03 0.0000E+00 0.9000E+01
       23  1    3    3    0    0 -.68173271E+02 0.70400456E+02 0.35901547E+02 0.13859290E+03 0.91188000E+02 0.0000E+00 0.9000E+01
#aMCatNLO 1  0  0  1  2 0.48440108D+03 0.00000000D+00  -5  7  0 0.00000000D+00 0.00000000D+00 0.00000000D+00 0.00000000D+00 0.00000000D+00
  <mgrwgt>
 0.1502485202D-02    3    2    0
 0.501121856351863D+03 0.000000000000000D+00 0.000000000000000D+00 0.501121856351863D+03
 0.501121856351863D+03 0.000000000000000D+00 0.000000000000000D+00 -.501121856351863D+03
 0.459932187134227D+03 0.223900508448656D+03 -.352286651775260D+03 0.175593502456993D+03
 0.377160781012714D+03 -.165935041785483D+03 0.261061908754798D+03 -.215783448019240D+03
 0.237816919155448D+02 0.102078046719362D+02 0.208242870804532D+02 -.526485153982099D+01
 0.141369052641240D+03 -.681732713351088D+02 0.704004559400087D+02 0.454547971020684D+02
 0.000000000000000D+00 -.000000000000000D+00 -.000000000000000D+00 -.000000000000000D+00
 0.591219804115327D+03 0.000000000000000D+00 0.000000000000000D+00 0.591219804115327D+03
 0.225017019716914D+04 0.000000000000000D+00 0.000000000000000D+00 -.225017019716914D+04
 0.477612090431021D+03 0.383651083149682D+03 -.208865653625676D+03 0.175593502456993D+03
 0.443516822135673D+03 -.260976795569119D+02 0.386605207155825D+03 -.215783448019240D+03
 0.368086122213853D+02 0.205319420367562D+02 0.300930993439899D+02 -.526485153982099D+01
 0.155227719965448D+03 -.176353863389619D+02 0.115772398570458D+03 0.454547971020684D+02
 0.172822475653094D+04 -.360449959290564D+03 -.323605051444597D+03 -.165895039305381D+04
0.210132448894D-03 0.000000000000D+00 0.000000000000D+00 0.111842591864D-05 0.000000000000D+00  7 1 -2 -24 -11 11 23 21 0 0.72007756D-01 0.82543085D-01 0.19868489D+06 0.19868489D+06 0.19868489D+06 0.10980455D+01  1  2  2  1  7  1        1 0.148667046632D-02 0.100000000000D+01
-.114793536393D-04 0.000000000000D+00 -.806963932897D-06 0.111842591864D-05 0.000000000000D+00  7 1 -2 -24 -11 11 23 21 2 0.72007756D-01 0.82543085D-01 0.19868489D+06 0.19868489D+06 0.19868489D+06 0.10980455D+01  1  2  3  1  7  1        1 -.979218706721D-04 0.100000000000D+01
0.133333106792D-04 0.000000000000D+00 0.000000000000D+00 0.111842591864D-05 0.000000000000D+00  7 1 -2 -24 -11 11 23 21 2 0.72007756D-01 0.82543085D-01 0.19868489D+06 0.19868489D+06 0.19868489D+06 0.10980455D+01  1  2 15  1  7  1        1 0.113736606170D-03 0.100000000000D+01
  </mgrwgt>
  </event>
  <event>
  8     66 0.29493621E-05 0.18013608E+03 0.75467711E-02 0.10406249E+00
        1 -1    0    0  501    0 0.00000000E+00 0.00000000E+00 0.12492301E+04 0.12492301E+04 0.32000000E+00 0.0000E+00 0.9000E+01
       -2 -1    0    0    0  501 0.00000000E+00 0.00000000E+00 -.51666408E+02 0.51667399E+02 0.32000000E+00 0.0000E+00 0.9000E+01
       25  2    1    2    0    0 -.42272702E+02 -.48616644E+01 0.40954006E+03 0.50763903E+03 0.29692373E+03 0.0000E+00 0.0000E+00
       23  2    3    3    0    0 -.11664138E+03 -.65482331E+02 0.27373423E+03 0.31799715E+03 0.91096717E+02 0.0000E+00 0.0000E+00
      -24  1    1    2    0    0 0.42272702E+02 0.48616644E+01 0.78802360E+03 0.79325848E+03 0.80419002E+02 0.0000E+00 0.9000E+01
      -13  1    4    4    0    0 -.96973013E+02 -.40407329E+02 0.11363159E+03 0.15475357E+03 0.10565837E+00 0.0000E+00 0.9000E+01
       13  1    4    4    0    0 -.19668364E+02 -.25075002E+02 0.16010264E+03 0.16324358E+03 0.10565837E+00 0.0000E+00 0.9000E+01
       23  1    3    3    0    0 0.74368674E+02 0.60620667E+02 0.13580583E+03 0.18964187E+03 0.91188000E+02 0.0000E+00 0.9000E+01
#aMCatNLO 1  0  0  1  1 0.10106661D+03 0.00000000D+00  -5  7  0 0.00000000D+00 0.00000000D+00 0.00000000D+00 0.00000000D+00 0.00000000D+00
  <mgrwgt>
 0.2253014404D-02    4    2    0
 0.254054918723856D+03 0.000000000000000D+00 0.000000000000000D+00 0.254054918723856D+03
 0.254054918723856D+03 0.000000000000000D+00 0.000000000000000D+00 -.254054918723856D+03
 0.173662380761546D+03 0.422727034361884D+02 0.486166457800718D+01 0.147921564685900D+03
 0.128392569617770D+03 -.969731153553303D+02 -.404073485323484D+02 -.738113339259026D+02
 0.406014646342538D+02 -.196682589287764D+02 -.250749807008424D+02 0.251571831493423D+02
 0.165453422434141D+03 0.743686708479183D+02 0.606206646551837D+02 -.992674139093393D+02
 0.000000000000000D+00 0.000000000000000D+00 -.000000000000000D+00 -.000000000000000D+00
 0.289554505455549D+03 0.000000000000000D+00 0.000000000000000D+00 0.289554505455549D+03
 0.342694916006713D+03 0.000000000000000D+00 0.000000000000000D+00 -.342694916006713D+03
 0.169740249590425D+03 0.112602012506283D+02 0.183563325672574D+02 0.147921564685900D+03
 0.145387658054676D+03 -.121698056746584D+03 -.296486269970059D+02 -.738113339259026D+02
 0.429940649082272D+02 -.272177251049150D+02 -.217899333050054D+02 0.251571831493423D+02
 0.159941794987865D+03 0.449824081942873D+02 0.734076966586928D+02 -.992674139093393D+02
 0.114185653921069D+03 0.926731724065836D+02 -.403254689239389D+02 -.531404105511634D+02
0.316654538174D-04 0.000000000000D+00 0.000000000000D+00 0.767379140090D-07 0.000000000000D+00  7 1 -2 -24 -13 13 23 21 0 0.19218932D+00 0.79487575D-02 0.32449006D+05 0.32449006D+05 0.32449006D+05 0.11641871D+01  1  2  2  1  7  1        1 0.304165158734D-02 0.100000000000D+01
-.150631900078D-05 0.000000000000D+00 -.121603680364D-06 0.767379140090D-07 0.000000000000D+00  7 1 -2 -24 -13 13 23 21 2 0.19218932D+00 0.79487575D-02 0.32449006D+05 0.32449006D+05 0.32449006D+05 0.11641871D+01  1  2  3  1  7  1        1 -.196103901587D-03 0.100000000000D+01
0.193949523196D-05 0.000000000000D+00 0.000000000000D+00 0.767379140090D-07 0.000000000000D+00  7 1 -2 -24 -13 13 23 21 2 0.19218932D+00 0.79487575D-02 0.32449006D+05 0.32449006D+05 0.32449006D+05 0.11641871D+01  1  2 15  1  7  1        1 0.252498031227D-03 0.100000000000D+01
-.649087913793D-05 0.000000000000D+00 0.000000000000D+00 0.767379140090D-07 0.000000000000D+00  7 1 -2 -24 -13 13 23 21 2 0.19218932D+00 0.79487575D-02 0.32449006D+05 0.32449006D+05 0.32449006D+05 0.11641871D+01  1  2  4  1  7  1        1 -.845031313434D-03 0.100000000000D+01
  </mgrwgt>
  </event>
  <event>
  8     66 0.29493621E-05 0.88186262E+02 0.75467711E-02 0.10558832E+00
        1 -1    0    0  501    0 0.00000000E+00 0.00000000E+00 0.70520233E+03 0.70520240E+03 0.32000000E+00 0.0000E+00 0.9000E+01
       -2 -1    0    0    0  501 0.00000000E+00 0.00000000E+00 -.85085015E+02 0.85085617E+02 0.32000000E+00 0.0000E+00 0.9000E+01
       25  2    1    2    0    0 -.61012736E+02 -.50129307E+02 0.60050444E+03 0.67588792E+03 0.29997233E+03 0.0000E+00 0.0000E+00
       23  2    3    3    0    0 -.12007195E+03 -.10823795E+03 0.39600197E+03 0.43713885E+03 0.90222456E+02 0.0000E+00 0.0000E+00
      -24  1    1    2    0    0 0.61012736E+02 0.50129307E+02 0.19612875E+02 0.11440010E+03 0.80419002E+02 0.0000E+00 0.9000E+01
      -13  1    4    4    0    0 -.10744777E+03 -.12066712E+03 0.31272072E+03 0.35199409E+03 0.10565837E+00 0.0000E+00 0.9000E+01
       13  1    4    4    0    0 -.12624175E+02 0.12429164E+02 0.83281248E+02 0.85144767E+02 0.10565837E+00 0.0000E+00 0.9000E+01
       23  1    3    3    0    0 0.59059213E+02 0.58108646E+02 0.20450247E+03 0.23874906E+03 0.91188000E+02 0.0000E+00 0.9000E+01
#aMCatNLO 1  0  0  1  2 0.62527820D+01 0.00000000D+00  -5  7  0 0.00000000D+00 0.00000000D+00 0.00000000D+00 0.00000000D+00 0.00000000D+00
  <mgrwgt>
 0.1437881513D-02   11    2    0
 0.244953908142435D+03 0.000000000000000D+00 0.000000000000000D+00 0.244953908142435D+03
 0.244953908142435D+03 0.000000000000000D+00 0.000000000000000D+00 -.244953908142435D+03
 0.159717277654316D+03 0.610127365292832D+02 0.501293071686219D+02 -.113167536736193D+03
 0.171977804098011D+03 -.107447903921045D+03 -.120667298893138D+03 0.589127831899148D+02
 0.319338671692627D+02 -.126240446694704D+02 0.124293461531054D+02 0.265690933750780D+02
 0.126278867363279D+03 0.590592120612321D+02 0.581086455714111D+02 0.276856601712006D+02
 0.000000000000000D+00 0.000000000000000D+00 0.000000000000000D+00 0.000000000000000D+00
 0.252198660365921D+03 0.000000000000000D+00 0.000000000000000D+00 0.252198660365921D+03
 0.246326742965871D+03 0.000000000000000D+00 0.000000000000000D+00 -.246326742965871D+03
 0.158744402299749D+03 0.592088984369624D+02 0.491933357486336D+02 -.113167536736193D+03
 0.173918399214671D+03 -.109407137281914D+03 -.121683901457786D+03 0.589127831899148D+02
 0.320064210480859D+02 -.129862167447325D+02 0.122414231277483D+02 0.265690933750780D+02
 0.125278494790888D+03 0.576343349698254D+02 0.573693085764612D+02 0.276856601712006D+02
 0.857768597839850D+01 0.555012061985908D+01 0.287983400494248D+01 0.587191740004968D+01
0.460422821544D-05 0.000000000000D+00 0.000000000000D+00 0.175704826631D-05 0.000000000000D+00  7 1 -2 -24 -13 13 23 21 0 0.10849272D+00 0.13090054D-01 0.43098025D+05 0.43098025D+05 0.43098025D+05 0.11530135D+01  1  2  2  1  7  1        1 0.537983804483D-03 0.100000000000D+01
-.247276733464D-06 0.000000000000D+00 -.176814486684D-07 0.175704826631D-05 0.000000000000D+00  7 1 -2 -24 -13 13 23 21 2 0.10849272D+00 0.13090054D-01 0.43098025D+05 0.43098025D+05 0.43098025D+05 0.11530135D+01  1  2  3  1  7  1        1 -.384117764649D-04 0.100000000000D+01
0.285615899317D-06 0.000000000000D+00 0.000000000000D+00 0.175704826631D-05 0.000000000000D+00  7 1 -2 -24 -13 13 23 21 2 0.10849272D+00 0.13090054D-01 0.43098025D+05 0.43098025D+05 0.43098025D+05 0.11530135D+01  1  2 15  1  7  1        1 0.443673528266D-04 0.100000000000D+01
0.107723174692D-04 0.000000000000D+00 0.000000000000D+00 0.175704826631D-05 0.000000000000D+00  7 1 -2 -24 -13 13 23 21 2 0.11200002D+00 0.13090054D-01 0.44360799D+05 0.44360799D+05 0.44360799D+05 0.11518950D+01  1  2 12  1  7  1        1 0.159271875660D-02 0.100000000000D+01
-.201980941722D-04 0.000000000000D+00 0.000000000000D+00 0.175704826631D-05 0.000000000000D+00  7 1 -2 -24 -13 13 23 21 2 0.10849272D+00 0.13090054D-01 0.43098025D+05 0.43098025D+05 0.43098025D+05 0.11530135D+01  1  2  4  1  7  1        1 -.313755632199D-02 0.100000000000D+01
-.159131322366D-03 0.000000000000D+00 -.178118182827D-04 0.175704826631D-05 0.000000000000D+00  7 1 -2 -24 -13 13 23 21 2 0.11208086D+00 0.13090054D-01 0.43098025D+05 0.43098025D+05 0.43098025D+05 0.11530135D+01  1  2  5  1  7  1        1 -.235468161129D-01 0.100000000000D+01
0.159635789171D-03 0.000000000000D+00 0.178023938479D-04 0.175704826631D-05 0.000000000000D+00  7 1 -2 -24 -13 13 23 21 2 0.10849272D+00 0.13090054D-01 0.43098025D+05 0.43098025D+05 0.43098025D+05 0.11530135D+01  1  2  6  1  7  1        1 0.247976999838D-01 0.100000000000D+01
0.928291563596D-05 0.000000000000D+00 0.000000000000D+00 0.175704826631D-05 0.318118426384D-06  7 1 -2 -24 -13 13 23 21 2 0.11170150D+00 0.13163417D-01 0.44360799D+05 0.44360799D+05 0.44360799D+05 0.11518950D+01  1  2 11  1  7  1        1 0.136602995234D-02 0.100000000000D+01
0.289451274026D-06 0.000000000000D+00 0.000000000000D+00 0.175704826631D-05 0.000000000000D+00  7 21 -2 -24 -13 13 23 -1 2 0.11200002D+00 0.13090054D-01 0.44360799D+05 0.44360799D+05 0.44360799D+05 0.11518950D+01  1  2 12  3  7  1        1 0.893631759763D-04 0.100000000000D+01
-.918356086982D-06 0.000000000000D+00 -.103552743559D-06 0.175704826631D-05 0.000000000000D+00  7 21 -2 -24 -13 13 23 -1 2 0.11208086D+00 0.13090054D-01 0.43098025D+05 0.43098025D+05 0.43098025D+05 0.11530135D+01  1  2  5  3  7  1        1 -.283862518480D-03 0.100000000000D+01
0.530999624418D-07 0.000000000000D+00 0.000000000000D+00 0.175704826631D-05 0.167876951606D-08  7 21 -2 -24 -13 13 23 -1 2 0.11170150D+00 0.13163417D-01 0.44360799D+05 0.44360799D+05 0.44360799D+05 0.11518950D+01  1  2 11  3  7  1        1 0.163652165246D-04 0.100000000000D+01
  </mgrwgt>
  </event>
  <event>
  7     66 0.29493621E-05 0.32984996E+03 0.75467711E-02 0.97380816E-01
        1 -1    0    0  501    0 0.00000000E+00 0.00000000E+00 0.41023913E+04 0.41023913E+04 0.32000000E+00 0.0000E+00 0.9000E+01
       -2 -1    0    0    0  501 0.00000000E+00 0.00000000E+00 -.30968340E+02 0.30969993E+02 0.32000000E+00 0.0000E+00 0.9000E+01
       25  2    1    2    0    0 -.15428183E+03 0.22008155E+03 0.16675069E+04 0.17131302E+04 0.28635150E+03 0.0000E+00 0.0000E+00
      -24  1    1    2    0    0 0.15428183E+03 -.22008155E+03 0.24039161E+04 0.24202311E+04 0.80419002E+02 0.0000E+00 0.9000E+01
      -11  1    3    3    0    0 -.10156732E+03 0.91594906E+02 0.51256212E+03 0.53049550E+03 0.51099893E-03 0.0000E+00 0.9000E+01
       11  1    3    3    0    0 0.56429828E+02 0.66568198E+02 0.60392181E+03 0.61019440E+03 0.51099893E-03 0.0000E+00 0.9000E+01
       23  1    3    3    0    0 -.10914434E+03 0.61918447E+02 0.55102294E+03 0.57244032E+03 0.91188000E+02 0.0000E+00 0.9000E+01
#aMCatNLO 1  0  0  1  2 0.12026480D+03 0.00000000D+00  -5  7  0 0.00000000D+00 0.00000000D+00 0.00000000D+00 0.00000000D+00 0.00000000D+00
  <mgrwgt>
 0.1353697838D-02    3    2    0
 0.356437496857559D+03 0.000000000000000D+00 0.000000000000000D+00 0.356437496857559D+03
 0.356437496857559D+03 0.000000000000000D+00 0.000000000000000D+00 -.356437496857559D+03
 0.303461894124979D+03 0.154281830036037D+03 -.220081550842948D+03 0.115685492309293D+03
 0.148514632385182D+03 -.101567300275429D+03 0.915949021475321D+02 -.578882842019928D+02
 0.888413679889283D+02 0.564298268570130D+02 0.665682000286765D+02 0.166474638300796D+02
 0.172057099216028D+03 -.109144356617621D+03 0.619184486667397D+02 -.744446719373801D+02
 0.000000000000000D+00 -.000000000000000D+00 -.000000000000000D+00 -.000000000000000D+00
 0.364274374100477D+03 0.000000000000000D+00 0.000000000000000D+00 0.364274374100477D+03
 0.165278738085324D+04 0.000000000000000D+00 0.000000000000000D+00 -.165278738085324D+04
 0.280031788554641D+03 0.168803454753172D+03 -.173415244944876D+03 0.115685492309293D+03
 0.160276596387736D+03 -.938822978952997D+02 0.116291220836677D+03 -.578882842019928D+02
 0.103648514817325D+03 0.612203943008983D+02 0.819630398015229D+02 0.166474638300796D+02
 0.178991493919293D+03 -.100407679463588D+03 0.899944013610484D+02 -.744446719373801D+02
 0.129411336127472D+04 -.357338716951820D+02 -.114833417054373D+03 -.128851300675277D+04
0.815018209754D-03 0.000000000000D+00 0.000000000000D+00 0.219153360520D-11 0.000000000000D+00  7 1 -2 -24 -11 11 23 21 0 0.63113725D+00 0.47644881D-02 0.10880099D+06 0.10880099D+06 0.10880099D+06 0.11187282D+01  1  2  2  1  7  1        1 0.133755262576D-02 0.100000000000D+01
-.449479514840D-04 0.000000000000D+00 -.312988452468D-05 0.219153360520D-11 0.000000000000D+00  7 1 -2 -24 -11 11 23 21 2 0.63113725D+00 0.47644881D-02 0.10880099D+06 0.10880099D+06 0.10880099D+06 0.11187282D+01  1  2  3  1  7  1        1 -.923214606649D-04 0.100000000000D+01
0.528084664706D-04 0.000000000000D+00 0.000000000000D+00 0.219153360520D-11 0.000000000000D+00  7 1 -2 -24 -11 11 23 21 2 0.63113725D+00 0.47644881D-02 0.10880099D+06 0.10880099D+06 0.10880099D+06 0.11187282D+01  1  2 15  1  7  1        1 0.108466673098D-03 0.100000000000D+01
  </mgrwgt>
  </event>
  <event>
  8     66 0.29493621E-05 0.52685606E+03 0.75467711E-02 0.88589476E-01
        1 -1    0    0  501    0 0.00000000E+00 0.00000000E+00 0.19125620E+04 0.19125620E+04 0.32000000E+00 0.0000E+00 0.9000E+01
       -2 -1    0    0    0  501 0.00000000E+00 0.00000000E+00 -.33330329E+03 0.33330344E+03 0.32000000E+00 0.0000E+00 0.9000E+01
       25  2    1    2    0    0 -.31534380E+03 -.63388798E+03 0.12345452E+04 0.14543162E+04 0.29946277E+03 0.0000E+00 0.0000E+00
       23  2    3    3    0    0 -.30864039E+03 -.57789016E+03 0.10696461E+04 0.12576244E+04 0.90886575E+02 0.0000E+00 0.0000E+00
      -24  1    1    2    0    0 0.31534380E+03 0.63388798E+03 0.34471349E+03 0.79154930E+03 0.80419002E+02 0.0000E+00 0.9000E+01
      -11  1    4    4    0    0 -.33884166E+02 -.22310041E+02 0.84240840E+02 0.93500769E+02 0.51099893E-03 0.0000E+00 0.9000E+01
       11  1    4    4    0    0 -.27475623E+03 -.55558012E+03 0.98540525E+03 0.11641236E+04 0.51099893E-03 0.0000E+00 0.9000E+01
       23  1    3    3    0    0 -.67034086E+01 -.55997819E+02 0.16489912E+03 0.19669180E+03 0.91188000E+02 0.0000E+00 0.9000E+01
#aMCatNLO 1  0  0  1  2 0.26511081D+03 0.00000000D+00  -5  7  0 0.00000000D+00 0.00000000D+00 0.00000000D+00 0.00000000D+00 0.00000000D+00
  <mgrwgt>
 0.1972560951D-02    9    2    0
 0.798413053798815D+03 0.000000000000000D+00 0.000000000000000D+00 0.798413053798815D+03
 0.798413053798815D+03 0.000000000000000D+00 0.000000000000000D+00 -.798413053798815D+03
 0.772358013846612D+03 0.315343801876343D+03 0.633887975367780D+03 -.298016789629416D+03
 0.481906370016028D+02 -.338841662975425D+02 -.223100408736924D+02 0.260088993453187D+02
 0.662724114581275D+03 -.274756226999962D+03 -.555580115717404D+03 0.234612452337288D+03
 0.113553342168140D+03 -.670340857883801D+01 -.559978187766828D+02 0.373954379468100D+02
 0.000000000000000D+00 -.000000000000000D+00 -.000000000000000D+00 0.000000000000000D+00
 0.969721819246221D+03 0.000000000000000D+00 0.000000000000000D+00 0.969721819246221D+03
 0.918900129230386D+03 0.000000000000000D+00 0.000000000000000D+00 -.918900129230386D+03
 0.900472920599647D+03 0.376254808284732D+03 0.757629577775633D+03 -.298016789629416D+03
 0.430426188655003D+02 -.305621871791811D+02 -.155613915981348D+02 0.260088993453187D+02
 0.568893289326851D+03 -.229910657709384D+03 -.464475684316248D+03 0.234612452337288D+03
 0.106275006511486D+03 0.130096632806364D+01 -.397368138178682D+02 0.373954379468100D+02
 0.269938113173122D+03 -.117082929724231D+03 -.237855688043382D+03 0.508216900158355D+02
0.891149093442D-03 0.000000000000D+00 0.000000000000D+00 0.205131051536D-04 0.000000000000D+00  7 1 -2 -24 -11 11 23 21 0 0.29424032D+00 0.51277443D-01 0.54770501D+06 0.54770501D+06 0.54770501D+06 0.10657245D+01  1  2  2  1  7  1        1 0.121458818911D-02 0.100000000000D+01
-.491616944690D-04 0.000000000000D+00 -.342224716376D-05 0.205131051536D-04 0.000000000000D+00  7 1 -2 -24 -11 11 23 21 2 0.29424032D+00 0.51277443D-01 0.54770501D+06 0.54770501D+06 0.54770501D+06 0.10657245D+01  1  2  3  1  7  1        1 -.761018899895D-04 0.100000000000D+01
0.563789596905D-04 0.000000000000D+00 0.000000000000D+00 0.205131051536D-04 0.000000000000D+00  7 1 -2 -24 -11 11 23 21 2 0.29424032D+00 0.51277443D-01 0.54770501D+06 0.54770501D+06 0.54770501D+06 0.10657245D+01  1  2 15  1  7  1        1 0.872741559140D-04 0.100000000000D+01
0.474679531144D-03 0.000000000000D+00 0.000000000000D+00 0.205131051536D-04 0.000000000000D+00  7 1 -2 -24 -11 11 23 21 2 0.37556391D+00 0.51277443D-01 0.78046269D+06 0.78046269D+06 0.78046269D+06 0.10551058D+01  1  2 12  1  7  1        1 0.307851627413D-03 0.100000000000D+01
-.491702161703D-03 0.000000000000D+00 0.000000000000D+00 0.205131051536D-04 0.000000000000D+00  7 1 -2 -24 -11 11 23 21 2 0.29424032D+00 0.51277443D-01 0.54770501D+06 0.54770501D+06 0.54770501D+06 0.10657245D+01  1  2  4  1  7  1        1 -.761150815115D-03 0.100000000000D+01
-.120878797406D-02 0.000000000000D+00 -.398677511020D-03 0.205131051536D-04 0.000000000000D+00  7 1 -2 -24 -11 11 23 21 2 0.38029622D+00 0.51277443D-01 0.54770501D+06 0.54770501D+06 0.54770501D+06 0.10657245D+01  1  2  5  1  7  1        1 -.779486562085D-03 0.100000000000D+01
0.128143638096D-02 0.000000000000D+00 0.385907526034D-03 0.205131051536D-04 0.000000000000D+00  7 1 -2 -24 -11 11 23 21 2 0.29424032D+00 0.51277443D-01 0.54770501D+06 0.54770501D+06 0.54770501D+06 0.10657245D+01  1  2  6  1  7  1        1 0.198365275130D-02 0.100000000000D+01
0.157803559530D-04 0.000000000000D+00 0.000000000000D+00 0.205131051536D-04 0.000000000000D+00  7 21 -2 -24 -11 11 23 -1 2 0.37556391D+00 0.51277443D-01 0.78046269D+06 0.78046269D+06 0.78046269D+06 0.10551058D+01  1  2 12  3  7  1        1 0.347322394313D-05 0.100000000000D+01
-.347264704340D-04 0.000000000000D+00 -.137520742605D-04 0.205131051536D-04 0.000000000000D+00  7 21 -2 -24 -11 11 23 -1 2 0.38029622D+00 0.51277443D-01 0.54770501D+06 0.54770501D+06 0.54770501D+06 0.10657245D+01  1  2  5  3  7  1        1 -.753972980812D-05 0.100000000000D+01
  </mgrwgt>
  </event>
  <event>
  8     66 0.29493621E-05 0.70457892E+02 0.75467711E-02 0.10839116E+00
        1 -1    0    0  501    0 0.00000000E+00 0.00000000E+00 0.46233664E+03 0.46233675E+03 0.32000000E+00 0.0000E+00 0.9000E+01
       -2 -1    0    0    0  501 0.00000000E+00 0.00000000E+00 -.49258075E+03 0.49258085E+03 0.32000000E+00 0.0000E+00 0.9000E+01
       25  2    1    2    0    0 -.89977196E+02 0.49898504E+02 -.42986075E+03 0.53450539E+03 0.30054948E+03 0.0000E+00 0.0000E+00
       23  2    3    3    0    0 -.84285322E+02 -.52228735E+01 -.40719457E+02 0.13099955E+03 0.91495982E+02 0.0000E+00 0.0000E+00
      -24  1    1    2    0    0 0.89977196E+02 -.49898504E+02 0.39961664E+03 0.42041221E+03 0.80419002E+02 0.0000E+00 0.9000E+01
      -11  1    4    4    0    0 -.30464794E+01 0.18391111E+02 0.19636158E+02 0.27075685E+02 0.51099893E-03 0.0000E+00 0.9000E+01
       11  1    4    4    0    0 -.81238843E+02 -.23613985E+02 -.60355616E+02 0.10392387E+03 0.51099893E-03 0.0000E+00 0.9000E+01
       23  1    3    3    0    0 -.56918738E+01 0.55121377E+02 -.38914129E+03 0.40350584E+03 0.91188000E+02 0.0000E+00 0.9000E+01
#aMCatNLO 1  0  0  1  2 0.84335952D+01 0.00000000D+00  -5  7  0 0.00000000D+00 0.00000000D+00 0.00000000D+00 0.00000000D+00 0.00000000D+00
  <mgrwgt>
 0.1342856392D-02   11    2    0
 0.477219267923245D+03 0.000000000000000D+00 0.000000000000000D+00 0.477219267923245D+03
 0.477219267923245D+03 0.000000000000000D+00 0.000000000000000D+00 -.477219267923245D+03
 0.433286226779026D+03 0.899771961438266D+02 -.498985038042105D+02 0.413139179761774D+03
 0.277115032689383D+02 -.304647934826670D+01 0.183911114989092D+02 0.205039848526976D+02
 0.102063490118112D+03 -.812388429629686D+02 -.236139849572862D+02 -.570927852146411D+02
 0.391377315680415D+03 -.569187383259126D+01 0.551213772625875D+02 -.376550379399830D+03
 0.000000000000000D+00 0.000000000000000D+00 0.000000000000000D+00 0.000000000000000D+00
 0.483916250981117D+03 0.000000000000000D+00 0.000000000000000D+00 0.483916250981117D+03
 0.479900437690668D+03 0.000000000000000D+00 0.000000000000000D+00 -.479900437690668D+03
 0.432542624698662D+03 0.861622945510333D+02 -.501795114594291D+02 0.413139179761774D+03
 0.277274935726327D+02 -.329074738922285D+01 0.183731185867032D+02 0.205039848526976D+02
 0.102798704655956D+03 -.821414799123067D+02 -.236804736691121D+02 -.570927852146411D+02
 0.391406972594692D+03 -.914087535645791D+01 0.548673219986462D+02 -.376550379399830D+03
 0.934089314984121D+01 0.841080810695417D+01 0.619544543191780D+00 0.401581329044887D+01
0.611174176290D-04 0.000000000000D+00 0.000000000000D+00 0.732617818989D-05 0.000000000000D+00  7 1 -2 -24 -11 11 23 21 0 0.71128730D-01 0.75781670D-01 0.28991068D+05 0.28991068D+05 0.28991068D+05 0.11687169D+01  1  2  2  1  7  1        1 0.561438316117D-03 0.100000000000D+01
0.989471785680D-06 0.000000000000D+00 -.234706976281D-06 0.732617818989D-05 0.000000000000D+00  7 1 -2 -24 -11 11 23 21 2 0.71128730D-01 0.75781670D-01 0.28991068D+05 0.28991068D+05 0.28991068D+05 0.11687169D+01  1  2  3  1  7  1        1 0.124153540687D-04 0.100000000000D+01
0.373956700438D-05 0.000000000000D+00 0.000000000000D+00 0.732617818989D-05 0.000000000000D+00  7 1 -2 -24 -11 11 23 21 2 0.71128730D-01 0.75781670D-01 0.28991068D+05 0.28991068D+05 0.28991068D+05 0.11687169D+01  1  2 15  1  7  1        1 0.469220538624D-04 0.100000000000D+01
0.477682328125D-04 0.000000000000D+00 0.000000000000D+00 0.732617818989D-05 0.000000000000D+00  7 1 -2 -24 -11 11 23 21 2 0.72324738D-01 0.75781670D-01 0.30188718D+05 0.30188718D+05 0.30188718D+05 0.11670833D+01  1  2 12  1  7  1        1 0.583828157744D-03 0.100000000000D+01
-.471398503173D-04 0.000000000000D+00 0.000000000000D+00 0.732617818989D-05 0.000000000000D+00  7 1 -2 -24 -11 11 23 21 2 0.71128730D-01 0.75781670D-01 0.28991068D+05 0.28991068D+05 0.28991068D+05 0.11687169D+01  1  2  4  1  7  1        1 -.591485215551D-03 0.100000000000D+01
-.302593371078D-02 0.000000000000D+00 -.433268710340D-03 0.732617818989D-05 0.000000000000D+00  7 1 -2 -24 -11 11 23 21 2 0.72446960D-01 0.75781670D-01 0.28991068D+05 0.28991068D+05 0.28991068D+05 0.11687169D+01  1  2  5  1  7  1        1 -.370447793003D-01 0.100000000000D+01
0.303345155452D-02 0.000000000000D+00 0.433195668544D-03 0.732617818989D-05 0.000000000000D+00  7 1 -2 -24 -11 11 23 21 2 0.71128730D-01 0.75781670D-01 0.28991068D+05 0.28991068D+05 0.28991068D+05 0.11687169D+01  1  2  6  1  7  1        1 0.380621010570D-01 0.100000000000D+01
0.128062841719D-05 0.000000000000D+00 0.000000000000D+00 0.732617818989D-05 0.748332171395D-06  7 1 -2 -24 -11 11 23 21 2 0.72126904D-01 0.76207436D-01 0.30188718D+05 0.30188718D+05 0.30188718D+05 0.11670833D+01  1  2 11  1  7  1        1 0.155201884205D-04 0.100000000000D+01
0.267687368070D-05 0.000000000000D+00 0.000000000000D+00 0.732617818989D-05 0.000000000000D+00  7 21 -2 -24 -11 11 23 -1 2 0.72324738D-01 0.75781670D-01 0.30188718D+05 0.30188718D+05 0.30188718D+05 0.11670833D+01  1  2 12  3  7  1        1 0.109387527654D-03 0.100000000000D+01
-.100840006013D-04 0.000000000000D+00 -.145154504278D-05 0.732617818989D-05 0.000000000000D+00  7 21 -2 -24 -11 11 23 -1 2 0.72446960D-01 0.75781670D-01 0.28991068D+05 0.28991068D+05 0.28991068D+05 0.11687169D+01  1  2  5  3  7  1        1 -.412659032833D-03 0.100000000000D+01
0.411772642547D-08 0.000000000000D+00 0.000000000000D+00 0.732617818989D-05 0.191743160220D-08  7 21 -2 -24 -11 11 23 -1 2 0.72126904D-01 0.76207436D-01 0.30188718D+05 0.30188718D+05 0.30188718D+05 0.11670833D+01  1  2 11  3  7  1        1 0.167285973996D-06 0.100000000000D+01
  </mgrwgt>
  </event>
  <event>
  7     66 0.29493621E-05 0.84327041E+02 0.75467711E-02 0.10593720E+00
        1 -1    0    0  501    0 0.00000000E+00 0.00000000E+00 0.15586503E+04 0.15586503E+04 0.32000000E+00 0.0000E+00 0.9000E+01
       -2 -1    0    0    0  501 0.00000000E+00 0.00000000E+00 -.41077306E+02 0.41078553E+02 0.32000000E+00 0.0000E+00 0.9000E+01
       23  2    1    2    0    0 -.63854056E+02 -.24502973E+02 0.79309983E+03 0.80128473E+03 0.91499444E+02 0.0000E+00 0.0000E+00
      -24  1    1    2    0    0 0.86278807E+02 0.30636135E+02 0.68606429E+03 0.69680272E+03 0.80419002E+02 0.0000E+00 0.9000E+01
      -11  1    3    3    0    0 -.39593941E+02 -.54842330E+02 0.63008304E+03 0.63370340E+03 0.51099893E-03 0.0000E+00 0.9000E+01
       11  1    3    3    0    0 -.24260115E+02 0.30339357E+02 0.16301679E+03 0.16758133E+03 0.51099893E-03 0.0000E+00 0.9000E+01
       23  1    1    2    0    0 -.22424751E+02 -.61331617E+01 0.38408854E+02 0.10164141E+03 0.91188000E+02 0.0000E+00 0.9000E+01
#aMCatNLO 1  0  0  2  1 0.80002483D+02 0.00000000D+00  -5  7  0 0.00000000D+00 0.00000000D+00 0.00000000D+00 0.00000000D+00 0.00000000D+00
  <mgrwgt>
 0.1182444670D-02    9    2    0
 0.253033946739279D+03 0.000000000000000D+00 0.000000000000000D+00 0.253033946739279D+03
 0.253033946739279D+03 0.000000000000000D+00 0.000000000000000D+00 -.253033946739279D+03
 0.145322071963329D+03 0.862788642213377D+02 0.306361549801758D+02 0.791749470606148D+02
 0.113732972539214D+03 -.395939466052370D+02 -.548423315119777D+02 0.914320901497807D+02
 0.408933683524054D+02 -.242601236827388D+02 0.303393542595892D+02 0.127764454060931D+02
 0.206119480623609D+03 -.224247939333618D+02 -.613317772778726D+01 -.183383482616489D+03
 0.000000000000000D+00 0.000000000000000D+00 -.000000000000000D+00 -.000000000000000D+00
 0.286526208627291D+03 0.000000000000000D+00 0.000000000000000D+00 0.286526208627291D+03
 0.308897915641823D+03 0.000000000000000D+00 0.000000000000000D+00 -.308897915641823D+03
 0.143867653919631D+03 0.740520469689442D+02 0.497826072803175D+02 0.791749470606148D+02
 0.111207180997701D+03 -.491043195675679D+02 -.399496657821304D+02 0.914320901497807D+02
 0.475076723871789D+02 -.279976816708180D+02 0.361921427866904D+02 0.127764454060931D+02
 0.209770017919140D+03 -.400084230901242D+02 0.214017162649587D+02 -.183383482616489D+03
 0.830715990454634D+02 0.430583773595659D+02 -.674268005498362D+02 -.223717070145323D+02
0.127875642321D-04 0.000000000000D+00 0.000000000000D+00 0.463097698334D-09 0.000000000000D+00  7 1 -2 -24 -11 11 23 21 0 0.23979245D+00 0.63196840D-02 0.25993900D+05 0.25993900D+05 0.25993900D+05 0.11731560D+01  1  2  2  2  7  2       -2 0.108202392865D-02 0.100000000000D+01
-.534951006354D-06 0.000000000000D+00 -.491076136942D-07 0.463097698334D-09 0.000000000000D+00  7 1 -2 -24 -11 11 23 21 2 0.23979245D+00 0.63196840D-02 0.25993900D+05 0.25993900D+05 0.25993900D+05 0.11731560D+01  1  2  3  2  7  2       -2 -.622980665800D-04 0.100000000000D+01
0.799670063790D-06 0.000000000000D+00 0.000000000000D+00 0.463097698334D-09 0.000000000000D+00  7 1 -2 -24 -11 11 23 21 2 0.23979245D+00 0.63196840D-02 0.25993900D+05 0.25993900D+05 0.25993900D+05 0.11731560D+01  1  2 15  2  7  2       -2 0.931260961926D-04 0.100000000000D+01
0.559514974135D-05 0.000000000000D+00 0.000000000000D+00 0.463097698334D-09 0.000000000000D+00  7 1 -2 -24 -11 11 23 21 2 0.23979245D+00 0.80578448D-02 0.42237811D+05 0.42237811D+05 0.42237811D+05 0.11537964D+01  1  2 12  2  7  2       -2 0.436976111511D-03 0.100000000000D+01
-.832296351705D-05 0.000000000000D+00 0.000000000000D+00 0.463097698334D-09 0.000000000000D+00  7 1 -2 -24 -11 11 23 21 2 0.23979245D+00 0.63196840D-02 0.25993900D+05 0.25993900D+05 0.25993900D+05 0.11731560D+01  1  2  4  2  7  2       -2 -.969256117233D-03 0.100000000000D+01
-.113210459103D-04 0.000000000000D+00 -.619028376207D-05 0.463097698334D-09 0.000000000000D+00  7 1 -2 -24 -11 11 23 21 2 0.23979245D+00 0.88436870D-02 0.25993900D+05 0.25993900D+05 0.25993900D+05 0.11731560D+01  1  2  5  2  7  2       -2 -.799635496555D-03 0.100000000000D+01
0.129943869558D-04 0.000000000000D+00 0.585650440349D-05 0.463097698334D-09 0.000000000000D+00  7 1 -2 -24 -11 11 23 21 2 0.23979245D+00 0.63196840D-02 0.25993900D+05 0.25993900D+05 0.25993900D+05 0.11731560D+01  1  2  6  2  7  2       -2 0.151326976513D-02 0.100000000000D+01
0.185410532308D-06 0.000000000000D+00 0.000000000000D+00 0.463097698334D-09 0.000000000000D+00  7 1 21 -24 -11 11 23 2 2 0.23979245D+00 0.80578448D-02 0.42237811D+05 0.42237811D+05 0.42237811D+05 0.11537964D+01  1  2 12  4  7  2       -2 0.222819278929D-03 0.100000000000D+01
-.310020449341D-06 0.000000000000D+00 -.259676646454D-06 0.463097698334D-09 0.000000000000D+00  7 1 21 -24 -11 11 23 2 2 0.23979245D+00 0.88436870D-02 0.25993900D+05 0.25993900D+05 0.25993900D+05 0.11731560D+01  1  2  5  4  7  2       -2 -.334580829919D-03 0.100000000000D+01
  </mgrwgt>
  </event>
  <event>
  8     66 0.29493621E-05 0.19858214E+03 0.75467711E-02 0.99080304E-01
        1 -1    0    0  501    0 0.00000000E+00 0.00000000E+00 0.69339110E+03 0.69339117E+03 0.32000000E+00 0.0000E+00 0.9000E+01
       -2 -1    0    0    0  501 0.00000000E+00 0.00000000E+00 -.98690305E+02 0.98690823E+02 0.32000000E+00 0.0000E+00 0.9000E+01
       25  2    1    2    0    0 0.15756548E+03 0.24486082E+02 0.34191286E+03 0.48257367E+03 0.30090944E+03 0.0000E+00 0.0000E+00
       23  2    3    3    0    0 0.35552021E+02 0.37803767E+02 0.30819572E+03 0.32599544E+03 0.92711123E+02 0.0000E+00 0.0000E+00
      -24  1    1    2    0    0 -.15756548E+03 -.24486082E+02 0.25278794E+03 0.30950833E+03 0.80419002E+02 0.0000E+00 0.9000E+01
      -11  1    4    4    0    0 0.11397554E+02 -.79753361E+01 0.44044691E+00 0.13917766E+02 0.51099893E-03 0.0000E+00 0.9000E+01
       11  1    4    4    0    0 0.24154467E+02 0.45779103E+02 0.30775528E+03 0.31207767E+03 0.51099893E-03 0.0000E+00 0.9000E+01
       23  1    3    3    0    0 0.12201346E+03 -.13317685E+02 0.33717134E+02 0.15657823E+03 0.91188000E+02 0.0000E+00 0.9000E+01
#aMCatNLO 1  0  0  2  1 0.22213502D+03 0.00000000D+00  -5  7  0 0.00000000D+00 0.00000000D+00 0.00000000D+00 0.00000000D+00 0.00000000D+00
  <mgrwgt>
 0.1274615944D-02    3    2    0
 0.261593603852781D+03 0.000000000000000D+00 0.000000000000000D+00 0.261593603852781D+03
 0.261593603852781D+03 0.000000000000000D+00 0.000000000000000D+00 -.261593603852781D+03
 0.181240647368729D+03 -.157565479708800D+03 -.244860823128584D+02 0.308951077254827D+02
 0.205702240134046D+02 0.113975541956423D+02 -.797533608667276D+01 -.151533457897476D+02
 0.122649787103209D+03 0.241544671210851D+02 0.457791032209883D+02 0.111192651298731D+03
 0.198726549220218D+03 0.122013458392073D+03 -.133176848214572D+02 -.126934413234466D+03
 0.000000000000000D+00 -.000000000000000D+00 0.000000000000000D+00 0.000000000000000D+00
 0.416995940976867D+03 0.000000000000000D+00 0.000000000000000D+00 0.416995940976867D+03
 0.377087066910782D+03 0.000000000000000D+00 0.000000000000000D+00 -.377087066910782D+03
 0.148902681106299D+03 -.103224518218544D+03 -.639920592218584D+02 0.308951077254827D+02
 0.282528116910560D+02 0.194337326497350D+02 -.138176523015031D+02 -.151533457897476D+02
 0.130112546783728D+03 0.657586646536613D+02 0.155327766569257D+02 0.111192651298731D+03
 0.261123394643596D+03 0.197703881113094D+03 -.683447585103412D+02 -.126934413234466D+03
 0.225691573662970D+03 -.179671760197946D+03 0.130621693376777D+03 0.399088740660856D+02
0.132010767374D-04 0.000000000000D+00 0.000000000000D+00 0.295095070625D-06 0.000000000000D+00  7 1 -2 -24 -11 11 23 21 0 0.10667560D+00 0.15183169D-01 0.39434866D+05 0.39434866D+05 0.39434866D+05 0.11564750D+01  1  2  2  2  7  2       -2 0.125241266387D-02 0.100000000000D+01
-.665669051639D-06 0.000000000000D+00 -.506956105949D-07 0.295095070625D-06 0.000000000000D+00  7 1 -2 -24 -11 11 23 21 2 0.10667560D+00 0.15183169D-01 0.39434866D+05 0.39434866D+05 0.39434866D+05 0.11564750D+01  1  2  3  2  7  2       -2 -.844634817675D-04 0.100000000000D+01
0.840656350735D-06 0.000000000000D+00 0.000000000000D+00 0.295095070625D-06 0.000000000000D+00  7 1 -2 -24 -11 11 23 21 2 0.10667560D+00 0.15183169D-01 0.39434866D+05 0.39434866D+05 0.39434866D+05 0.11564750D+01  1  2 15  2  7  2       -2 0.106666762077D-03 0.100000000000D+01
  </mgrwgt>
  </event>
  <event>
  9     66 0.29493621E-05 0.33512461E+03 0.75467711E-02 0.97274647E-01
        1 -1    0    0  502    0 0.00000000E+00 0.00000000E+00 0.85117979E+03 0.85117985E+03 0.32000000E+00 0.0000E+00 0.9000E+01
       -2 -1    0    0    0  501 0.00000000E+00 0.00000000E+00 -.21540242E+03 0.21540266E+03 0.32000000E+00 0.0000E+00 0.9000E+01
       25  2    1    2    0    0 0.66257798E+01 -.33739577E+03 0.49548575E+03 0.67051894E+03 0.30034932E+03 0.0000E+00 0.0000E+00
       23  2    3    3    0    0 0.84500614E+02 -.29431318E+03 0.40100262E+03 0.51189071E+03 0.86419930E+02 0.0000E+00 0.0000E+00
      -24  1    1    2    0    0 -.40326362E+02 0.22724835E+03 0.13836790E+03 0.28085747E+03 0.80419002E+02 0.0000E+00 0.9000E+01
      -13  1    4    4    0    0 -.36646287E+01 -.49090160E+02 0.11433293E+03 0.12448013E+03 0.10565837E+00 0.0000E+00 0.9000E+01
       13  1    4    4    0    0 0.88165243E+02 -.24522302E+03 0.28666969E+03 0.38741058E+03 0.10565837E+00 0.0000E+00 0.9000E+01
       23  1    3    3    0    0 -.77874834E+02 -.43082585E+02 0.94483139E+02 0.15862823E+03 0.91188000E+02 0.0000E+00 0.9000E+01
       21  1    1    2  502  501 0.33700582E+02 0.11014742E+03 0.19237200E+01 0.11520610E+03 0.75000000E+00 0.0000E+00 0.9000E+01
#aMCatNLO 2  0  0  1  1 0.11518760D+03 0.00000000D+00  -5  7  0 0.00000000D+00 0.00000000D+00 0.00000000D+00 0.00000000D+00 0.00000000D+00
  <mgrwgt>
 0.1875020840D-03    1    2    0
 0.350028010841094D+03 0.000000000000000D+00 0.000000000000000D+00 0.350028010841094D+03
 0.350028010841094D+03 0.000000000000000D+00 0.000000000000000D+00 -.350028010841094D+03
 0.290216728838376D+03 -.273384843173973D+02 0.269698093003771D+03 -.653764456714612D+02
 0.577472035900789D+02 -.735326440364343D+00 -.395152490680005D+02 0.421039654735039D+02
 0.232591930574624D+03 0.100023889229943D+03 -.206464808125033D+03 0.382950487353143D+02
 0.119500158679108D+03 -.719500784721810D+02 -.237180358107378D+02 -.150225685373570D+02
 0.000000000000000D+00 0.000000000000000D+00 0.000000000000000D+00 -.000000000000000D+00
 0.380944453707118D+03 0.000000000000000D+00 0.000000000000000D+00 0.380944453707118D+03
 0.481291951293982D+03 0.000000000000000D+00 0.000000000000000D+00 -.481291951293982D+03
 0.253000635939897D+03 -.403263615777473D+02 0.227248345967333D+03 -.653764456714612D+02
 0.647764571494607D+02 -.366476568578214D+01 -.490898664156892D+02 0.421039654735039D+02
 0.263389671011942D+03 0.881653799434667D+02 -.245223314180286D+03 0.382950487353143D+02
 0.128302485999087D+03 -.778748344585516D+02 -.430825853697221D+02 -.150225685373570D+02
 0.152767154900714D+03 0.337005817786143D+02 0.110147419998364D+03 -.100347497586865D+03
0.836722541331D-05 0.000000000000D+00 0.000000000000D+00 0.222132265474D-06 0.118568268283D-09  7 1 -2 -24 -13 13 23 21 2 0.13095046D+00 0.33138780D-01 0.15873566D+06 0.15873566D+06 0.15873566D+06 0.11056171D+01  1  2  1  1  7  1        1 0.187502083995D-03 0.100000000000D+01
  </mgrwgt>
  </event>
  <event>
  8     66 0.29493621E-05 0.13167986E+03 0.75467711E-02 0.99853832E-01
        1 -1    0    0  501    0 0.00000000E+00 0.00000000E+00 0.21774070E+03 0.21774093E+03 0.32000000E+00 0.0000E+00 0.9000E+01
       -2 -1    0    0    0  501 0.00000000E+00 0.00000000E+00 -.47116419E+03 0.47116429E+03 0.32000000E+00 0.0000E+00 0.9000E+01
       25  2    1    2    0    0 -.15989997E+03 0.17741657E+03 -.18832478E+03 0.42861751E+03 0.30199686E+03 0.0000E+00 0.0000E+00
       23  2    3    3    0    0 -.19883402E+03 0.11403131E+03 -.18938769E+03 0.31093177E+03 0.90954712E+02 0.0000E+00 0.0000E+00
      -24  1    1    2    0    0 0.15989997E+03 -.17741657E+03 -.65098707E+02 0.26028772E+03 0.80419002E+02 0.0000E+00 0.9000E+01
      -13  1    4    4    0    0 -.73421401E+02 -.51013664E+01 -.54574883E+02 0.91625079E+02 0.10565837E+00 0.0000E+00 0.9000E+01
       13  1    4    4    0    0 -.12541262E+03 0.11913268E+03 -.13481281E+03 0.21930669E+03 0.10565837E+00 0.0000E+00 0.9000E+01
       23  1    3    3    0    0 0.38934053E+02 0.63385265E+02 0.10629114E+01 0.11768574E+03 0.91188000E+02 0.0000E+00 0.9000E+01
#aMCatNLO 1  0  0  1  2 0.29136791D+02 0.00000000D+00  -5  7  0 0.00000000D+00 0.00000000D+00 0.00000000D+00 0.00000000D+00 0.00000000D+00
  <mgrwgt>
 0.7008732052D-03    9    2    0
 0.320299449705847D+03 0.000000000000000D+00 0.000000000000000D+00 0.320299449705847D+03
 0.320299449705847D+03 0.000000000000000D+00 0.000000000000000D+00 -.320299449705847D+03
 0.254162212598903D+03 0.159899969979002D+03 -.177416577837865D+03 0.329631895880011D+02
 0.769441624931231D+02 -.734213283967600D+02 -.510153352697080D+01 -.224429729291030D+02
 0.182511839847016D+03 -.125412687809386D+03 0.119132844722748D+03 -.582202261163090D+02
 0.126980684472651D+03 0.389340462271435D+02 0.633852666420883D+02 0.477000094574109D+02
 0.000000000000000D+00 0.000000000000000D+00 0.000000000000000D+00 0.000000000000000D+00
 0.346944878985042D+03 0.000000000000000D+00 0.000000000000000D+00 0.346944878985042D+03
 0.328696100491340D+03 0.000000000000000D+00 0.000000000000000D+00 -.328696100491340D+03
 0.247360010573330D+03 0.148504023615351D+03 -.177706899074583D+03 0.329631895880011D+02
 0.803680090462381D+02 -.769958879803268D+02 -.519259841319492D+01 -.224429729291030D+02
 0.188264910367617D+03 -.133837742100317D+03 0.118918209439016D+03 -.582202261163090D+02
 0.125268251232402D+03 0.332022656424262D+02 0.632392447519487D+02 0.477000094574109D+02
 0.343797982567960D+02 0.291273408228668D+02 0.742043296813316D+00 0.182487784937022D+02
0.179746065286D-04 0.000000000000D+00 0.000000000000D+00 0.212071322287D-06 0.000000000000D+00  7 1 -2 -24 -13 13 23 21 0 0.33498595D-01 0.72486824D-01 0.94947699D+05 0.94947699D+05 0.94947699D+05 0.11235744D+01  1  2  2  1  7  1        1 0.475448587843D-03 0.100000000000D+01
-.996769381877D-06 0.000000000000D+00 -.690272218925D-07 0.212071322287D-06 0.000000000000D+00  7 1 -2 -24 -13 13 23 21 2 0.33498595D-01 0.72486824D-01 0.94947699D+05 0.94947699D+05 0.94947699D+05 0.11235744D+01  1  2  3  1  7  1        1 -.332845377835D-04 0.100000000000D+01
0.115950130856D-05 0.000000000000D+00 0.000000000000D+00 0.212071322287D-06 0.000000000000D+00  7 1 -2 -24 -13 13 23 21 2 0.33498595D-01 0.72486824D-01 0.94947699D+05 0.94947699D+05 0.94947699D+05 0.11235744D+01  1  2 15  1  7  1        1 0.387185499642D-04 0.100000000000D+01
0.571557786605D-04 0.000000000000D+00 0.000000000000D+00 0.212071322287D-06 0.000000000000D+00  7 1 -2 -24 -13 13 23 21 2 0.36699075D-01 0.72486824D-01 0.10443531D+06 0.10443531D+06 0.10443531D+06 0.11201787D+01  1  2 12  1  7  1        1 0.168267546930D-02 0.100000000000D+01
-.566507471894D-04 0.000000000000D+00 0.000000000000D+00 0.212071322287D-06 0.000000000000D+00  7 1 -2 -24 -13 13 23 21 2 0.33498595D-01 0.72486824D-01 0.94947699D+05 0.94947699D+05 0.94947699D+05 0.11235744D+01  1  2  4  1  7  1        1 -.189170531276D-02 0.100000000000D+01
-.145105261397D-03 0.000000000000D+00 -.249063791350D-04 0.212071322287D-06 0.000000000000D+00  7 1 -2 -24 -13 13 23 21 2 0.37111612D-01 0.72486824D-01 0.94947699D+05 0.94947699D+05 0.94947699D+05 0.11235744D+01  1  2  5  1  7  1        1 -.424174574495D-02 0.100000000000D+01
0.147014560353D-03 0.000000000000D+00 0.247762993146D-04 0.212071322287D-06 0.000000000000D+00  7 1 -2 -24 -13 13 23 21 2 0.33498595D-01 0.72486824D-01 0.94947699D+05 0.94947699D+05 0.94947699D+05 0.11235744D+01  1  2  6  1  7  1        1 0.490917134672D-02 0.100000000000D+01
0.857301557242D-06 0.000000000000D+00 0.000000000000D+00 0.212071322287D-06 0.000000000000D+00  7 21 -2 -24 -13 13 23 -1 2 0.36699075D-01 0.72486824D-01 0.10443531D+06 0.10443531D+06 0.10443531D+06 0.11201787D+01  1  2 12  3  7  1        1 0.142502680641D-03 0.100000000000D+01
-.232017535063D-05 0.000000000000D+00 -.412988113652D-06 0.212071322287D-06 0.000000000000D+00  7 21 -2 -24 -13 13 23 -1 2 0.37111612D-01 0.72486824D-01 0.94947699D+05 0.94947699D+05 0.94947699D+05 0.11235744D+01  1  2  5  3  7  1        1 -.380907833747D-03 0.100000000000D+01
  </mgrwgt>
  </event>
  <event>
  8     66 0.29493621E-05 0.13672325E+03 0.75467711E-02 0.10062236E+00
        1 -1    0    0  501    0 0.00000000E+00 0.00000000E+00 0.35365848E+03 0.35365863E+03 0.32000000E+00 0.0000E+00 0.9000E+01
       -2 -1    0    0    0  501 0.00000000E+00 0.00000000E+00 -.18312913E+03 0.18312941E+03 0.32000000E+00 0.0000E+00 0.9000E+01
       25  2    1    2    0    0 -.18782823E+02 -.53461630E+02 -.36537685E+02 0.30753944E+03 0.30005761E+03 0.0000E+00 0.0000E+00
       23  2    3    3    0    0 -.11621125E+03 -.68652867E+02 -.54039978E+02 0.17209701E+03 0.92080340E+02 0.0000E+00 0.0000E+00
      -24  1    1    2    0    0 0.18782823E+02 0.53461630E+02 0.20706704E+03 0.22924859E+03 0.80419002E+02 0.0000E+00 0.9000E+01
      -13  1    4    4    0    0 -.13167260E+03 -.56769451E+02 -.51840498E+02 0.15247259E+03 0.10565837E+00 0.0000E+00 0.9000E+01
       13  1    4    4    0    0 0.15461344E+02 -.11883416E+02 -.21994800E+01 0.19624413E+02 0.10565837E+00 0.0000E+00 0.9000E+01
       23  1    3    3    0    0 0.97428429E+02 0.15191236E+02 0.17502293E+02 0.13544244E+03 0.91188000E+02 0.0000E+00 0.9000E+01
#aMCatNLO 1  0  0  1  2 0.18127320D+03 0.00000000D+00  -5  7  0 0.00000000D+00 0.00000000D+00 0.00000000D+00 0.00000000D+00 0.00000000D+00
  <mgrwgt>
 0.7169058272D-03    7    2    0
 0.254490241600494D+03 0.000000000000000D+00 0.000000000000000D+00 0.254490241600494D+03
 0.254490241600494D+03 0.000000000000000D+00 0.000000000000000D+00 -.254490241600494D+03
 0.172397359467998D+03 0.187828233041857D+02 0.534616308918544D+02 0.141572218914145D+03
 0.178171654815300D+03 -.131672788611432D+03 -.567695106569862D+02 -.105757448809424D+03
 0.214332790311019D+02 0.154615366250673D+02 -.118833562486885D+02 -.889450276763866D+01
 0.136978189886587D+03 0.974284286821788D+02 0.151912360138203D+02 -.269202673370820D+02
 0.000000000000000D+00 -.000000000000000D+00 0.000000000000000D+00 0.000000000000000D+00
 0.596073286753564D+03 0.000000000000000D+00 0.000000000000000D+00 0.596073286753564D+03
 0.295353810962224D+03 0.000000000000000D+00 0.000000000000000D+00 -.295353810962224D+03
 0.173958869958041D+03 0.603576610191608D+02 0.104274671291612D+02 0.141572218914145D+03
 0.171092152403959D+03 -.897489400670656D+02 -.100164935942573D+03 -.105757448809424D+03
 0.296218935766255D+02 0.215899395101367D+02 -.182268733339000D+02 -.889450276763866D+01
 0.165624323268928D+03 0.133751293142945D+03 -.224066040126653D+02 -.269202673370820D+02
 0.351129858508234D+03 -.125949953605177D+03 0.130370946159977D+03 0.300719475791340D+03
0.112676988409D-04 0.000000000000D+00 0.000000000000D+00 0.259405522318D-05 0.000000000000D+00  7 1 -2 -24 -13 13 23 21 0 0.54409030D-01 0.28173744D-01 0.39119772D+05 0.39119772D+05 0.39119772D+05 0.11567892D+01  1  2  2  1  7  1        1 0.973255130285D-03 0.100000000000D+01
-.577622916224D-06 0.000000000000D+00 -.432709304025D-07 0.259405522318D-05 0.000000000000D+00  7 1 -2 -24 -13 13 23 21 2 0.54409030D-01 0.28173744D-01 0.39119772D+05 0.39119772D+05 0.39119772D+05 0.11567892D+01  1  2  3  1  7  1        1 -.667643094656D-04 0.100000000000D+01
0.706757409153D-06 0.000000000000D+00 0.000000000000D+00 0.259405522318D-05 0.000000000000D+00  7 1 -2 -24 -13 13 23 21 2 0.54409030D-01 0.28173744D-01 0.39119772D+05 0.39119772D+05 0.39119772D+05 0.11567892D+01  1  2 15  1  7  1        1 0.816902672253D-04 0.100000000000D+01
0.129520859101D-06 0.000000000000D+00 0.000000000000D+00 0.259405522318D-05 0.000000000000D+00  7 1 -2 -24 -13 13 23 21 2 0.12606157D+00 0.28173744D-01 0.92577296D+05 0.92577296D+05 0.92577296D+05 0.11244811D+01  1  2 12  1  7  1        1 0.429914778726D-05 0.100000000000D+01
-.803283854770D-05 0.000000000000D+00 -.358053659685D-05 0.259405522318D-05 0.000000000000D+00  7 1 -2 -24 -13 13 23 21 2 0.13885297D+00 0.28173744D-01 0.39119772D+05 0.39119772D+05 0.39119772D+05 0.11567892D+01  1  2  5  1  7  1        1 -.245629710471D-03 0.100000000000D+01
0.118536426685D-07 0.000000000000D+00 0.000000000000D+00 0.259405522318D-05 0.000000000000D+00  7 21 -2 -24 -13 13 23 -1 2 0.12606157D+00 0.28173744D-01 0.92577296D+05 0.92577296D+05 0.92577296D+05 0.11244811D+01  1  2 12  3  7  1        1 0.696167318278D-06 0.100000000000D+01
-.612617413503D-06 0.000000000000D+00 -.370499643808D-06 0.259405522318D-05 0.000000000000D+00  7 21 -2 -24 -13 13 23 -1 2 0.13885297D+00 0.28173744D-01 0.39119772D+05 0.39119772D+05 0.39119772D+05 0.11567892D+01  1  2  5  3  7  1        1 -.306408655155D-04 0.100000000000D+01
  </mgrwgt>
  </event>
  <event>
  8     66 0.29493621E-05 0.69758711E+03 0.75467711E-02 0.82931795E-01
        1 -1    0    0  501    0 0.00000000E+00 0.00000000E+00 0.10192590E+04 0.10192590E+04 0.32000000E+00 0.0000E+00 0.9000E+01
       -2 -1    0    0    0  501 0.00000000E+00 0.00000000E+00 -.19159059E+04 0.19159059E+04 0.32000000E+00 0.0000E+00 0.9000E+01
       25  2    1    2    0    0 -.19831516E+03 -.64143401E+03 0.81320128E+03 0.10964658E+04 0.30029041E+03 0.0000E+00 0.0000E+00
       23  2    3    3    0    0 0.12296220E+02 -.13631347E+03 0.18725623E+03 0.26002904E+03 0.11754849E+03 0.0000E+00 0.0000E+00
      -24  1    1    2    0    0 0.19831516E+03 0.64143401E+03 -.17098482E+04 0.18386992E+04 0.80419002E+02 0.0000E+00 0.9000E+01
      -13  1    4    4    0    0 0.38990160E+02 -.18113442E+02 0.10530276E+03 0.11374098E+03 0.10565837E+00 0.0000E+00 0.9000E+01
       13  1    4    4    0    0 -.26693940E+02 -.11820003E+03 0.81953475E+02 0.14628806E+03 0.10565837E+00 0.0000E+00 0.9000E+01
       23  1    3    3    0    0 -.21061138E+03 -.50512054E+03 0.62594505E+03 0.83643671E+03 0.91188000E+02 0.0000E+00 0.9000E+01
#aMCatNLO 1  0  0  1  2 0.13442891D+04 0.00000000D+00  -5  7  0 0.00000000D+00 0.00000000D+00 0.00000000D+00 0.00000000D+00 0.00000000D+00
  <mgrwgt>
 0.1597832448D-02    3    2    0
 0.139742776347076D+04 0.000000000000000D+00 0.000000000000000D+00 0.139742776347076D+04
 0.139742776347076D+04 0.000000000000000D+00 0.000000000000000D+00 -.139742776347076D+04
 0.138245255029355D+04 0.198315162915517D+03 0.641434010825976D+03 -.120579490120512D+04
 0.153234348784516D+03 0.389902134352666D+02 -.181133602116386D+02 0.147079689575178D+03
 0.179924491412670D+03 -.266939910306460D+02 -.118200107072799D+03 0.132999955417070D+03
 0.107924413645080D+04 -.210611385320137D+03 -.505120543541539D+03 0.925715256212868D+03
 0.000000000000000D+00 0.000000000000000D+00 -.000000000000000D+00 -.000000000000000D+00
 0.174094619095333D+04 0.000000000000000D+00 0.000000000000000D+00 0.174094619095333D+04
 0.392502139978563D+04 0.000000000000000D+00 0.000000000000000D+00 -.392502139978563D+04
 0.166359313809908D+04 -.327165946130751D+03 0.109548893791590D+04 -.120579490120512D+04
 0.150151845304081D+03 -.133477125342972D+02 0.271105170144701D+02 0.147079689575178D+03
 0.172199498500529D+03 -.874397984380935D+02 -.657111922886551D+02 0.132999955417070D+03
 0.111539885223286D+04 -.589214843583646D+03 -.177978877212497D+03 0.925715256212868D+03
 0.256462425660241D+04 0.101716830068679D+04 -.878909385429213D+03 -.218407520883230D+04
0.324469069040D-01 0.000000000000D+00 0.000000000000D+00 0.353633427819D-06 0.000000000000D+00  7 1 -2 -24 -13 13 23 21 0 0.15680908D+00 0.29475476D+00 0.48662777D+06 0.48662777D+06 0.48662777D+06 0.10693435D+01  1  2  2  1  7  1        1 0.152886263290D-02 0.100000000000D+01
-.744684745333D-03 0.000000000000D+00 -.124604665978D-03 0.353633427819D-06 0.000000000000D+00  7 1 -2 -24 -13 13 23 21 2 0.15680908D+00 0.29475476D+00 0.48662777D+06 0.48662777D+06 0.48662777D+06 0.10693435D+01  1  2  3  1  7  1        1 -.401237993271D-04 0.100000000000D+01
0.202474222066D-02 0.000000000000D+00 0.000000000000D+00 0.353633427819D-06 0.000000000000D+00  7 1 -2 -24 -13 13 23 21 2 0.15680908D+00 0.29475476D+00 0.48662777D+06 0.48662777D+06 0.48662777D+06 0.10693435D+01  1  2 15  1  7  1        1 0.109093614526D-03 0.100000000000D+01
  </mgrwgt>
  </event>
  <event>
  8     66 0.29493621E-05 0.33984885E+03 0.75467711E-02 0.75697459E-01
        1 -1    0    0  501    0 0.00000000E+00 0.00000000E+00 0.59972450E+03 0.59972458E+03 0.32000000E+00 0.0000E+00 0.9000E+01
       -2 -1    0    0    0  501 0.00000000E+00 0.00000000E+00 -.21568573E+03 0.21568597E+03 0.32000000E+00 0.0000E+00 0.9000E+01
       25  2    1    2    0    0 0.89768265E+02 0.26617215E+03 0.30882164E+03 0.51369747E+03 0.29934650E+03 0.0000E+00 0.0000E+00
       23  2    3    3    0    0 0.76870010E+02 0.28034759E+03 0.28696251E+03 0.41798759E+03 0.88669996E+02 0.0000E+00 0.0000E+00
      -24  1    1    2    0    0 -.89768265E+02 -.26617215E+03 0.75217123E+02 0.30171308E+03 0.80419002E+02 0.0000E+00 0.9000E+01
      -13  1    4    4    0    0 0.75169553E+02 0.19531131E+03 0.24780835E+03 0.32435468E+03 0.10565837E+00 0.0000E+00 0.9000E+01
       13  1    4    4    0    0 0.17004567E+01 0.85036288E+02 0.39154157E+02 0.93632906E+02 0.10565837E+00 0.0000E+00 0.9000E+01
       23  1    3    3    0    0 0.12898256E+02 -.14175450E+02 0.21859135E+02 0.95709882E+02 0.91188000E+02 0.0000E+00 0.9000E+01
#aMCatNLO 1  0  0  2  2 0.40355612D+04 0.00000000D+00  -5  7  0 0.00000000D+00 0.00000000D+00 0.00000000D+00 0.00000000D+00 0.00000000D+00
  <mgrwgt>
 0.1089523666D-02    5    2    0
 0.359655595568388D+03 0.000000000000000D+00 0.000000000000000D+00 0.359655595568388D+03
 0.359655595568388D+03 0.000000000000000D+00 0.000000000000000D+00 -.359655595568388D+03
 0.301863423513028D+03 -.897682654680112D+02 -.266172145104640D+03 -.758179278660006D+02
 0.235384030391665D+03 0.751696570497622D+02 0.195311463276844D+03 0.107743198092055D+03
 0.852376443987498D+02 0.170035253174780D+01 0.850361315416047D+02 -.560545772924853D+01
 0.968260928333338D+02 0.128982558865012D+02 -.141754497138082D+02 -.263198124968058D+02
 0.000000000000000D+00 0.000000000000000D+00 -.000000000000000D+00 -.000000000000000D+00
 0.360961393850836D+04 0.000000000000000D+00 0.000000000000000D+00 0.360961393850836D+04
 0.465942778887242D+04 0.000000000000000D+00 0.000000000000000D+00 -.465942778887242D+04
 0.335593553682470D+03 -.181444444759790D+03 0.259779469163319D+03 -.758179278660006D+02
 0.234845741851447D+04 -.296426733617402D+03 0.232718173794774D+04 0.107743198092055D+03
 0.954101936585385D+03 -.147772765153058D+03 0.942572169183159D+03 -.560545772924853D+01
 0.461013161088034D+03 -.673276625487806D+02 0.446085346854425D+03 -.263198124968058D+02
 0.416987565751043D+04 0.692971606079030D+03 -.397561872314864D+04 -.104981385036406D+04
0.343673268177D-04 0.000000000000D+00 0.000000000000D+00 0.385975231752D-06 0.000000000000D+00  7 1 -2 -24 -13 13 23 21 0 0.92265332D-01 0.33182445D-01 0.11549724D+06 0.11549724D+06 0.11549724D+06 0.11166232D+01  1  2  2  2  7  2       -2 0.107761604462D-02 0.100000000000D+01
-.190184702928D-05 0.000000000000D+00 -.131979584105D-06 0.385975231752D-06 0.000000000000D+00  7 1 -2 -24 -13 13 23 21 2 0.92265332D-01 0.33182445D-01 0.11549724D+06 0.11549724D+06 0.11549724D+06 0.11166232D+01  1  2  3  2  7  2       -2 -.743544859093D-04 0.100000000000D+01
0.220631284492D-05 0.000000000000D+00 0.000000000000D+00 0.385975231752D-06 0.000000000000D+00  7 1 -2 -24 -13 13 23 21 2 0.92265332D-01 0.33182445D-01 0.11549724D+06 0.11549724D+06 0.11549724D+06 0.11166232D+01  1  2 15  2  7  2       -2 0.862578613386D-04 0.100000000000D+01
0.257571392178D-03 0.000000000000D+00 -.661408563073D-04 0.385975231752D-06 0.000000000000D+00  7 1 -2 -24 -13 13 23 21 2 0.92265332D-01 0.96874984D+00 0.11549724D+06 0.11549724D+06 0.11549724D+06 0.11166232D+01  1  2  5  2  7  2       -2 0.424409689309D-08 0.100000000000D+01
0.677766893234D-04 0.000000000000D+00 -.223423126457D-04 0.385975231752D-06 0.000000000000D+00  7 1 21 -24 -13 13 23 2 2 0.92265332D-01 0.96874984D+00 0.11549724D+06 0.11549724D+06 0.11549724D+06 0.11166232D+01  1  2  5  4  7  2       -2 0.229017966088D-11 0.100000000000D+01
  </mgrwgt>
  </event>
  <event>
  8     66 0.29493621E-05 0.17914194E+03 0.75467711E-02 0.10415811E+00
        1 -1    0    0  501    0 0.00000000E+00 0.00000000E+00 0.38831973E+03 0.38831986E+03 0.32000000E+00 0.0000E+00 0.9000E+01
       -2 -1    0    0    0  501 0.00000000E+00 0.00000000E+00 -.23556150E+03 0.23556171E+03 0.32000000E+00 0.0000E+00 0.9000E+01
       25  2    1    2    0    0 -.61823201E+02 0.24522377E+02 0.30924821E+03 0.43578643E+03 0.29975308E+03 0.0000E+00 0.0000E+00
       23  2    3    3    0    0 0.11146708E+02 -.64842952E+02 0.25379744E+03 0.27862152E+03 0.94275949E+02 0.0000E+00 0.0000E+00
      -24  1    1    2    0    0 0.61823201E+02 -.24522377E+02 -.15648997E+03 0.18809514E+03 0.80419002E+02 0.0000E+00 0.9000E+01
      -11  1    4    4    0    0 0.46557911E+02 -.22622791E+02 0.17480455E+03 0.18230760E+03 0.51099893E-03 0.0000E+00 0.9000E+01
       11  1    4    4    0    0 -.35411203E+02 -.42220161E+02 0.78992891E+02 0.96313925E+02 0.51099893E-03 0.0000E+00 0.9000E+01
       23  1    3    3    0    0 -.72969909E+02 0.89365329E+02 0.55450763E+02 0.15716491E+03 0.91188000E+02 0.0000E+00 0.9000E+01
#aMCatNLO 1  0  0  1  2 0.94674907D+02 0.00000000D+00  -5  7  0 0.00000000D+00 0.00000000D+00 0.00000000D+00 0.00000000D+00 0.00000000D+00
  <mgrwgt>
 0.9818841058D-03    4    2    0
 0.302445507407540D+03 0.000000000000000D+00 0.000000000000000D+00 0.302445507407540D+03
 0.302445507407540D+03 0.000000000000000D+00 0.000000000000000D+00 -.302445507407540D+03
 0.233520124006871D+03 0.618232009635797D+02 -.245223773120311D+02 -.208904229721174D+03
 0.143886279156692D+03 0.465579107331357D+02 -.226227908642302D+02 0.134252864443319D+03
 0.793889599589283D+02 -.354112028020147D+02 -.422201607297603D+02 0.571499055767209D+02
 0.148095651692590D+03 -.729699088947008D+02 0.893653289060216D+02 0.175014597011345D+02
 0.000000000000000D+00 -.000000000000000D+00 -.000000000000000D+00 -.000000000000000D+00
 0.324873891797960D+03 0.000000000000000D+00 0.000000000000000D+00 0.324873891797960D+03
 0.425662559474245D+03 0.000000000000000D+00 0.000000000000000D+00 -.425662559474245D+03
 0.238496317900552D+03 0.820670082468784D+02 0.610791779251830D+01 -.208904229721174D+03
 0.146701903340195D+03 0.590206358481747D+02 -.376581684060063D+01 0.134252864443319D+03
 0.717866692053369D+02 -.289275932684870D+02 -.324100064156325D+02 0.571499055767209D+02
 0.155270348724848D+03 -.599591696417656D+02 0.109051486616806D+03 0.175014597011345D+02
 0.138281212101273D+03 -.522008811848005D+02 -.789835811530915D+02 -.100788667676285D+03
0.229759745577D-04 0.000000000000D+00 0.000000000000D+00 0.565695011960D-06 0.000000000000D+00  7 1 -2 -24 -11 11 23 21 0 0.59741524D-01 0.36240257D-01 0.32091833D+05 0.32091833D+05 0.32091833D+05 0.11646296D+01  1  2  2  1  7  1        1 0.112937259415D-02 0.100000000000D+01
-.850760611718D-06 0.000000000000D+00 -.882337920145D-07 0.565695011960D-06 0.000000000000D+00  7 1 -2 -24 -11 11 23 21 2 0.59741524D-01 0.36240257D-01 0.32091833D+05 0.32091833D+05 0.32091833D+05 0.11646296D+01  1  2  3  1  7  1        1 -.567213198163D-04 0.100000000000D+01
0.146028853613D-05 0.000000000000D+00 0.000000000000D+00 0.565695011960D-06 0.000000000000D+00  7 1 -2 -24 -11 11 23 21 2 0.59741524D-01 0.36240257D-01 0.32091833D+05 0.32091833D+05 0.32091833D+05 0.11646296D+01  1  2 15  1  7  1        1 0.973593416776D-04 0.100000000000D+01
-.282170135428D-05 0.000000000000D+00 0.000000000000D+00 0.565695011960D-06 0.000000000000D+00  7 1 -2 -24 -11 11 23 21 2 0.59741524D-01 0.36240257D-01 0.32091833D+05 0.32091833D+05 0.32091833D+05 0.11646296D+01  1  2  4  1  7  1        1 -.188126510252D-03 0.100000000000D+01
  </mgrwgt>
  </event>
  <event>
  8     66 0.29493621E-05 0.33863500E+03 0.75467711E-02 0.86636448E-01
        1 -1    0    0  501    0 0.00000000E+00 0.00000000E+00 0.17137497E+04 0.17137497E+04 0.32000000E+00 0.0000E+00 0.9000E+01
       -2 -1    0    0    0  501 0.00000000E+00 0.00000000E+00 -.11777623E+03 0.11777666E+03 0.32000000E+00 0.0000E+00 0.9000E+01
       25  2    1    2    0    0 -.65281739E+02 -.27517588E+03 0.14418383E+04 0.14995500E+04 0.29961453E+03 0.0000E+00 0.0000E+00
       23  2    3    3    0    0 -.61980662E+02 -.85452740E+01 0.22218948E+03 0.24776671E+03 0.90030825E+02 0.0000E+00 0.0000E+00
      -24  1    1    2    0    0 0.65281739E+02 0.27517588E+03 0.15413509E+03 0.33197637E+03 0.80419002E+02 0.0000E+00 0.9000E+01
      -13  1    4    4    0    0 -.16278959E+02 0.34816133E+02 0.42242388E+02 0.57110403E+02 0.10565837E+00 0.0000E+00 0.9000E+01
       13  1    4    4    0    0 -.45701702E+02 -.43361407E+02 0.17994710E+03 0.19065630E+03 0.10565837E+00 0.0000E+00 0.9000E+01
       23  1    3    3    0    0 -.33010773E+01 -.26663060E+03 0.12196489E+04 0.12517833E+04 0.91188000E+02 0.0000E+00 0.9000E+01
#aMCatNLO 1  0  0  1  2 0.99282516D+03 0.00000000D+00  -5  7  0 0.00000000D+00 0.00000000D+00 0.00000000D+00 0.00000000D+00 0.00000000D+00
  <mgrwgt>
 0.1497259257D-02    3    2    0
 0.449265391478150D+03 0.000000000000000D+00 0.000000000000000D+00 0.449265391478150D+03
 0.449265391478150D+03 0.000000000000000D+00 0.000000000000000D+00 -.449265391478150D+03
 0.402911025059915D+03 0.652817390035996D+02 0.275175875754581D+03 -.275475244107027D+03
 0.413802680146424D+02 -.162789188527658D+02 0.348162403676389D+02 -.153346923220354D+02
 0.690029683869329D+02 -.457017427905092D+02 -.433615142977766D+02 0.281520768314154D+02
 0.385236521494810D+03 -.330107736032462D+01 -.266630601824444D+03 0.262657859597647D+03
 0.000000000000000D+00 -.000000000000000D+00 0.000000000000000D+00 -.000000000000000D+00
 0.110977966456254D+04 0.000000000000000D+00 0.000000000000000D+00 0.110977966456254D+04
 0.122926076281925D+04 0.000000000000000D+00 0.000000000000000D+00 -.122926076281925D+04
 0.383794489461296D+03 0.254179594827827D+03 -.183607637047526D+02 -.275475244107027D+03
 0.195835150587740D+02 -.164075032218128D+01 0.120693500995702D+02 -.153346923220354D+02
 0.115796120350971D+03 -.132916502599943D+01 -.112314003484642D+03 0.281520768314154D+02
 0.819877539793357D+03 0.286061915524637D+03 -.716284411523499D+03 0.262657859597647D+03
 0.999988762717393D+03 -.537271595004283D+03 0.834889828613324D+03 -.119481098256714D+03
0.114924742346D-03 0.000000000000D+00 0.000000000000D+00 0.449251869994D-05 0.000000000000D+00  7 1 -2 -24 -13 13 23 21 0 0.26365383D+00 0.18119455D-01 0.11467366D+06 0.11467366D+06 0.11467366D+06 0.11168748D+01  1  2  2  1  7  1        1 0.147099442791D-02 0.100000000000D+01
-.576434424282D-05 0.000000000000D+00 -.441341270990D-06 0.449251869994D-05 0.000000000000D+00  7 1 -2 -24 -13 13 23 21 2 0.26365383D+00 0.18119455D-01 0.11467366D+06 0.11467366D+06 0.11467366D+06 0.11168748D+01  1  2  3  1  7  1        1 -.920357098867D-04 0.100000000000D+01
0.740935267139D-05 0.000000000000D+00 0.000000000000D+00 0.449251869994D-05 0.000000000000D+00  7 1 -2 -24 -13 13 23 21 2 0.26365383D+00 0.18119455D-01 0.11467366D+06 0.11467366D+06 0.11467366D+06 0.11168748D+01  1  2 15  1  7  1        1 0.118300539348D-03 0.100000000000D+01
  </mgrwgt>
  </event>
  <event>
  8     66 0.29493621E-05 0.55167293E+03 0.75467711E-02 0.85129989E-01
        1 -1    0    0  501    0 0.00000000E+00 0.00000000E+00 0.14438468E+04 0.14438468E+04 0.32000000E+00 0.0000E+00 0.9000E+01
       -2 -1    0    0    0  501 0.00000000E+00 0.00000000E+00 -.21810623E+03 0.21810647E+03 0.32000000E+00 0.0000E+00 0.9000E+01
       25  2    1    2    0    0 -.19740423E+03 0.46886937E+03 0.51093046E+03 0.78091550E+03 0.29995361E+03 0.0000E+00 0.0000E+00
       23  2    3    3    0    0 -.10300736E+03 0.43130626E+03 0.36332983E+03 0.57986090E+03 0.87146376E+02 0.0000E+00 0.0000E+00
      -24  1    1    2    0    0 0.19740423E+03 -.46886937E+03 0.71481012E+03 0.88103781E+03 0.80419002E+02 0.0000E+00 0.9000E+01
      -13  1    4    4    0    0 -.25279787E+02 0.17520459E+02 0.21225530E+02 0.37370689E+02 0.10565837E+00 0.0000E+00 0.9000E+01
       13  1    4    4    0    0 -.77727575E+02 0.41378580E+03 0.34210430E+03 0.54249021E+03 0.10565837E+00 0.0000E+00 0.9000E+01
       23  1    3    3    0    0 -.94396866E+02 0.37563112E+02 0.14760063E+03 0.20105460E+03 0.91188000E+02 0.0000E+00 0.9000E+01
#aMCatNLO 1  0  0  1  2 0.10368897D+04 0.00000000D+00  -5  7  0 0.00000000D+00 0.00000000D+00 0.00000000D+00 0.00000000D+00 0.00000000D+00
  <mgrwgt>
 0.2244119447D-02    3    2    0
 0.561170396753247D+03 0.000000000000000D+00 0.000000000000000D+00 0.561170396753247D+03
 0.561170396753247D+03 0.000000000000000D+00 0.000000000000000D+00 -.561170396753247D+03
 0.523969150903121D+03 0.197404228068646D+03 -.468869368079214D+03 0.962784584493693D+02
 0.321566241698270D+02 -.252797099804301D+02 0.175198761725972D+02 -.938289295482512D+01
 0.429693846002355D+03 -.777276517887541D+02 0.413786380335055D+03 -.858839035495892D+02
 0.136521172431191D+03 -.943968662994618D+02 0.375631115715625D+02 -.101166194495498D+01
 0.000000000000000D+00 0.000000000000000D+00 -.000000000000000D+00 -.000000000000000D+00
 0.103791699143020D+04 0.000000000000000D+00 0.000000000000000D+00 0.103791699143020D+04
 0.174526862007196D+04 0.000000000000000D+00 0.000000000000000D+00 -.174526862007196D+04
 0.246512897697573D+03 0.113370277805841D+03 -.179385148007641D+03 0.962784584493693D+02
 0.658345631360249D+02 -.359672874200451D+02 0.543369603378161D+02 -.938289295482512D+01
 0.972148864019801D+03 -.230622038860099D+03 0.940484366759004D+03 -.858839035495892D+02
 0.243505372760418D+03 -.135845115295238D+03 0.180346046282481D+03 -.101166194495498D+01
 0.125518391388834D+04 0.289064163769541D+03 -.995782225371661D+03 -.707351628641753D+03
0.342505810142D-03 0.000000000000D+00 0.000000000000D+00 0.161969680617D-05 0.000000000000D+00  7 1 -2 -24 -13 13 23 21 0 0.22213030D+00 0.33554826D-01 0.30434302D+06 0.30434302D+06 0.30434302D+06 0.10840904D+01  1  2  2  1  7  1        1 0.222073322369D-02 0.100000000000D+01
-.190213598521D-04 0.000000000000D+00 -.131531249480D-05 0.161969680617D-05 0.000000000000D+00  7 1 -2 -24 -13 13 23 21 2 0.22213030D+00 0.33554826D-01 0.30434302D+06 0.30434302D+06 0.30434302D+06 0.10840904D+01  1  2  3  1  7  1        1 -.144944241705D-03 0.100000000000D+01
0.220903866759D-04 0.000000000000D+00 0.000000000000D+00 0.161969680617D-05 0.000000000000D+00  7 1 -2 -24 -13 13 23 21 2 0.22213030D+00 0.33554826D-01 0.30434302D+06 0.30434302D+06 0.30434302D+06 0.10840904D+01  1  2 15  1  7  1        1 0.168330464835D-03 0.100000000000D+01
  </mgrwgt>
  </event>
  <event>
  8     66 0.29493621E-05 0.23827534E+03 0.75467711E-02 0.10110767E+00
        1 -1    0    0  501    0 0.00000000E+00 0.00000000E+00 0.24140708E+03 0.24140729E+03 0.32000000E+00 0.0000E+00 0.9000E+01
       -2 -1    0    0    0  501 0.00000000E+00 0.00000000E+00 -.46414113E+03 0.46414124E+03 0.32000000E+00 0.0000E+00 0.9000E+01
       25  2    1    2    0    0 0.15184029E+03 -.20381292E+02 -.35373414E+03 0.48852523E+03 0.30009697E+03 0.0000E+00 0.0000E+00
       23  2    3    3    0    0 -.52080026E+02 0.24713440E+02 -.10986843E+03 0.15475470E+03 0.92492506E+02 0.0000E+00 0.0000E+00
      -24  1    1    2    0    0 -.15184029E+03 0.20381292E+02 0.13100009E+03 0.21702329E+03 0.80419002E+02 0.0000E+00 0.9000E+01
      -11  1    4    4    0    0 -.53420025E+02 0.25993668E+01 -.11925092E+03 0.13069521E+03 0.51099893E-03 0.0000E+00 0.9000E+01
       11  1    4    4    0    0 0.13399985E+01 0.22114073E+02 0.93824971E+01 0.24059491E+02 0.51099893E-03 0.0000E+00 0.9000E+01
       23  1    3    3    0    0 0.20392032E+03 -.45094732E+02 -.24386571E+03 0.33377053E+03 0.91188000E+02 0.0000E+00 0.9000E+01
#aMCatNLO 1  0  0  1  1 0.93211236D+02 0.00000000D+00  -5  7  0 0.00000000D+00 0.00000000D+00 0.00000000D+00 0.00000000D+00 0.00000000D+00
  <mgrwgt>
 0.8843731865D-03    4    2    0
 0.334734323321492D+03 0.000000000000000D+00 0.000000000000000D+00 0.334734323321492D+03
 0.334734323321492D+03 0.000000000000000D+00 0.000000000000000D+00 -.334734323321492D+03
 0.272303486008681D+03 -.151840289582389D+03 0.203812917821566D+02 0.210264362037260D+03
 0.980637021153799D+02 -.534200248695901D+02 0.259936684664023D+01 -.821950966147187D+02
 0.284777185231748D+02 0.133999854646415D+01 0.221140732507954D+02 0.178928091824371D+02
 0.270623739995749D+03 0.203920315905515D+03 -.450947318795922D+02 -.145962074604978D+03
 0.000000000000000D+00 0.000000000000000D+00 -.000000000000000D+00 -.000000000000000D+00
 0.353328277625663D+03 0.000000000000000D+00 0.000000000000000D+00 0.353328277625663D+03
 0.479328558026605D+03 0.000000000000000D+00 0.000000000000000D+00 -.479328558026605D+03
 0.290259296123444D+03 -.175995132388054D+03 0.509691520871427D+02 0.210264362037260D+03
 0.103903208102398D+03 -.620919084765479D+02 0.135807823120525D+02 -.821950966147187D+02
 0.310531807491141D+02 -.121608863113421D+01 0.253509081225756D+02 0.178928091824371D+02
 0.250710792739929D+03 0.181535696646367D+03 -.167485483673334D+02 -.145962074604978D+03
 0.156730357937382D+03 0.577674328493690D+02 -.731522941544374D+02 -.126000280400942D+03
0.411137593703D-04 0.000000000000D+00 0.000000000000D+00 0.279280970589D-05 0.000000000000D+00  7 1 -2 -24 -11 11 23 21 0 0.37139575D-01 0.71406352D-01 0.56775137D+05 0.56775137D+05 0.56775137D+05 0.11424725D+01  1  2  2  1  7  1        1 0.989563649257D-03 0.100000000000D+01
-.196323097403D-05 0.000000000000D+00 -.157887661483D-06 0.279280970589D-05 0.000000000000D+00  7 1 -2 -24 -11 11 23 21 2 0.37139575D-01 0.71406352D-01 0.56775137D+05 0.56775137D+05 0.56775137D+05 0.11424725D+01  1  2  3  1  7  1        1 -.616764586477D-04 0.100000000000D+01
0.253350661732D-05 0.000000000000D+00 0.000000000000D+00 0.279280970589D-05 0.000000000000D+00  7 1 -2 -24 -11 11 23 21 2 0.37139575D-01 0.71406352D-01 0.56775137D+05 0.56775137D+05 0.56775137D+05 0.11424725D+01  1  2 15  1  7  1        1 0.795921204301D-04 0.100000000000D+01
-.391860625687D-05 0.000000000000D+00 0.000000000000D+00 0.279280970589D-05 0.000000000000D+00  7 1 -2 -24 -11 11 23 21 2 0.37139575D-01 0.71406352D-01 0.56775137D+05 0.56775137D+05 0.56775137D+05 0.11424725D+01  1  2  4  1  7  1        1 -.123106124524D-03 0.100000000000D+01
  </mgrwgt>
  </event>
  <event>
  8     66 0.29493621E-05 0.18332599E+03 0.75467711E-02 0.97995634E-01
        3 -1    0    0  501    0 0.00000000E+00 0.00000000E+00 0.79596689E+02 0.79598259E+02 0.50000000E+00 0.0000E+00 0.9000E+01
       -4 -1    0    0    0  501 0.00000000E+00 0.00000000E+00 -.15303960E+04 0.15303968E+04 0.15500000E+01 0.0000E+00 0.9000E+01
       25  2    1    2    0    0 -.46311403E+02 -.20098362E+03 -.12797890E+04 0.13302614E+04 0.29865754E+03 0.0000E+00 0.0000E+00
       23  2    3    3    0    0 -.10001692E+03 -.20096187E+03 -.10300803E+04 0.10590530E+04 0.10069197E+03 0.0000E+00 0.0000E+00
      -24  1    1    2    0    0 0.46311403E+02 0.20098362E+03 -.17101026E+03 0.27973360E+03 0.80419002E+02 0.0000E+00 0.9000E+01
      -11  1    4    4    0    0 -.21922106E+02 -.25870331E+00 -.21090410E+03 0.21204052E+03 0.51099893E-03 0.0000E+00 0.9000E+01
       11  1    4    4    0    0 -.78094812E+02 -.20070317E+03 -.81917616E+03 0.84701248E+03 0.51099893E-03 0.0000E+00 0.9000E+01
       23  1    3    3    0    0 0.53705515E+02 -.21749489E-01 -.24970876E+03 0.27120841E+03 0.91188000E+02 0.0000E+00 0.9000E+01
#aMCatNLO 1  0  0  2  1 0.16544610D+03 0.00000000D+00  -5  7  0 0.00000000D+00 0.00000000D+00 0.00000000D+00 0.00000000D+00 0.00000000D+00
  <mgrwgt>
 0.3242068384D-03    7    2    0
 0.349021986795914D+03 0.000000000000000D+00 0.000000000000000D+00 0.349021986795914D+03
 0.349021986795914D+03 0.000000000000000D+00 0.000000000000000D+00 -.349021986795914D+03
 0.289764178213202D+03 0.463114034384082D+02 0.200983622652734D+03 0.186967645217429D+03
 0.507198330870021D+02 -.219221060113956D+02 -.258703389631748D+00 -.457368102184080D+02
 0.251023851353517D+03 -.780948121950495D+02 -.200703169807952D+03 -.128966708439090D+03
 0.106536110938107D+03 0.537055147680369D+02 -.217494551504842D-01 -.122641265599314D+02
 0.000000000000000D+00 -.000000000000000D+00 -.000000000000000D+00 -.000000000000000D+00
 0.372071095686247D+03 0.000000000000000D+00 0.000000000000000D+00 0.372071095686247D+03
 0.870141856278193D+03 0.000000000000000D+00 0.000000000000000D+00 -.870141856278193D+03
 0.342802439252315D+03 0.897073601795803D+02 0.260848587449553D+03 0.186967645217429D+03
 0.490258236672086D+02 -.150792564424939D+02 0.918104582469026D+01 -.457368102184080D+02
 0.208600135795449D+03 -.465632357368451D+02 -.157205183903018D+03 -.128966708439090D+03
 0.116954205338916D+03 0.690376170786008D+02 0.211289713494980D+02 -.122641265599314D+02
 0.524830347910550D+03 -.971024850788420D+02 -.133953420720724D+03 -.498070760591946D+03
0.492729873807D-03 0.000000000000D+00 0.000000000000D+00 0.163147240785D-07 0.000000000000D+00  7 3 -4 -24 -11 11 23 21 0 0.12245826D-01 0.23544571D+00 0.79661336D+05 0.79661336D+05 0.79661336D+05 0.11299170D+01  1  2  2  2  7  2       -4 0.321954798708D-03 0.100000000000D+01
-.258728697042D-04 0.000000000000D+00 -.189221245417D-05 0.163147240785D-07 0.000000000000D+00  7 3 -4 -24 -11 11 23 21 2 0.12245826D-01 0.23544571D+00 0.79661336D+05 0.79661336D+05 0.79661336D+05 0.11299170D+01  1  2  3  2  7  2       -4 -.215835921982D-04 0.100000000000D+01
0.316580709995D-04 0.000000000000D+00 0.000000000000D+00 0.163147240785D-07 0.000000000000D+00  7 3 -4 -24 -11 11 23 21 2 0.12245826D-01 0.23544571D+00 0.79661336D+05 0.79661336D+05 0.79661336D+05 0.11299170D+01  1  2 15  2  7  2       -4 0.264097064626D-04 0.100000000000D+01
0.434759828516D-03 0.000000000000D+00 0.000000000000D+00 0.163147240785D-07 0.000000000000D+00  7 3 -4 -24 -11 11 23 21 2 0.12245826D-01 0.58220070D+00 0.14088485D+06 0.14088485D+06 0.14088485D+06 0.11097069D+01  1  2 12  2  7  2       -4 0.304780070228D-06 0.100000000000D+01
-.878485616327D-03 0.000000000000D+00 -.119799373739D-03 0.163147240785D-07 0.000000000000D+00  7 3 -4 -24 -11 11 23 21 2 0.12245826D-01 0.59211596D+00 0.79661336D+05 0.79661336D+05 0.79661336D+05 0.11299170D+01  1  2  5  2  7  2       -4 -.517111173719D-06 0.100000000000D+01
0.432522754814D-04 0.000000000000D+00 0.000000000000D+00 0.163147240785D-07 0.000000000000D+00  7 3 21 -24 -11 11 23 4 2 0.12245826D-01 0.58220070D+00 0.14088485D+06 0.14088485D+06 0.14088485D+06 0.11097069D+01  1  2 12  4  7  2       -4 0.324133941352D-05 0.100000000000D+01
-.818844787172D-04 0.000000000000D+00 -.121729865153D-04 0.163147240785D-07 0.000000000000D+00  7 3 21 -24 -11 11 23 4 2 0.12245826D-01 0.59211596D+00 0.79661336D+05 0.79661336D+05 0.79661336D+05 0.11299170D+01  1  2  5  4  7  2       -4 -.560308286119D-05 0.100000000000D+01
  </mgrwgt>
  </event>
  <event>
  8     66 0.29493621E-05 0.13102889E+03 0.75467711E-02 0.10497799E+00
        1 -1    0    0  501    0 0.00000000E+00 0.00000000E+00 0.74776906E+02 0.74777591E+02 0.32000000E+00 0.0000E+00 0.9000E+01
       -2 -1    0    0    0  501 0.00000000E+00 0.00000000E+00 -.52301051E+03 0.52301061E+03 0.32000000E+00 0.0000E+00 0.9000E+01
       25  2    1    2    0    0 0.31386950E+02 -.14578594E+02 -.30207742E+03 0.42741648E+03 0.30039375E+03 0.0000E+00 0.0000E+00
       23  2    3    3    0    0 -.90705368E+01 -.29541037E+02 0.12750578E+02 0.96822163E+02 0.90868072E+02 0.0000E+00 0.0000E+00
      -24  1    1    2    0    0 -.31386950E+02 0.14578594E+02 -.14615618E+03 0.17037172E+03 0.80419002E+02 0.0000E+00 0.9000E+01
      -11  1    4    4    0    0 -.11951176E+02 -.50796161E+02 -.21476227E+02 0.56429681E+02 0.51099893E-03 0.0000E+00 0.9000E+01
       11  1    4    4    0    0 0.28806394E+01 0.21255124E+02 0.34226806E+02 0.40392482E+02 0.51099893E-03 0.0000E+00 0.9000E+01
       23  1    3    3    0    0 0.40457487E+02 0.14962443E+02 -.31482800E+03 0.33059432E+03 0.91188000E+02 0.0000E+00 0.9000E+01
#aMCatNLO 1  0  0  1  1 0.15119532D+03 0.00000000D+00  -5  7  0 0.00000000D+00 0.00000000D+00 0.00000000D+00 0.00000000D+00 0.00000000D+00
  <mgrwgt>
 0.1844322229D-02    3    2    0
 0.197760819284621D+03 0.000000000000000D+00 0.000000000000000D+00 0.197760819284621D+03
 0.197760819284621D+03 0.000000000000000D+00 0.000000000000000D+00 -.197760819284621D+03
 0.918637210272155D+02 -.313869518414872D+02 0.145785951817840D+02 -.278217739050076D+02
 0.609489559534977D+02 -.119511757015599D+02 -.507961614087431D+02 0.314911831678133D+02
 0.998371505025157D+02 0.288063994177617D+01 0.212551238602310D+02 0.975057856933324D+02
 0.142871811086012D+03 0.404574876012709D+02 0.149624423667281D+02 -.101175194956138D+03
 0.000000000000000D+00 0.000000000000000D+00 0.000000000000000D+00 -.000000000000000D+00
 0.267918709011797D+03 0.000000000000000D+00 0.000000000000000D+00 0.267918709011797D+03
 0.313406138699910D+03 0.000000000000000D+00 0.000000000000000D+00 -.313406138699910D+03
 0.944071261142919D+02 -.359279621480178D+02 -.195094833211574D+02 -.278217739050076D+02
 0.851013614097174D+02 -.155116684281248D+02 -.775237720899499D+02 0.314911831678133D+02
 0.986836534042773D+02 -.195900636056036D+01 -.150747304991087D+02 0.975057856933324D+02
 0.145243087087334D+03 0.334336685649176D+02 -.377633782193506D+02 -.101175194956138D+03
 0.157889619696086D+03 0.199649683717854D+02 0.149871364129567D+03 -.454874296881136D+02
0.212634824457D-04 0.000000000000D+00 0.000000000000D+00 0.437230464654D-06 0.000000000000D+00  7 1 -2 -24 -11 11 23 21 0 0.11504200D-01 0.80463216D-01 0.17168571D+05 0.17168571D+05 0.17168571D+05 0.11905161D+01  1  2  2  1  7  1        1 0.179002915036D-02 0.100000000000D+01
-.937927610310D-06 0.000000000000D+00 -.816573713948D-07 0.437230464654D-06 0.000000000000D+00  7 1 -2 -24 -11 11 23 21 2 0.11504200D-01 0.80463216D-01 0.17168571D+05 0.17168571D+05 0.17168571D+05 0.11905161D+01  1  2  3  1  7  1        1 -.111909149656D-03 0.100000000000D+01
0.139296616402D-05 0.000000000000D+00 0.000000000000D+00 0.437230464654D-06 0.000000000000D+00  7 1 -2 -24 -11 11 23 21 2 0.11504200D-01 0.80463216D-01 0.17168571D+05 0.17168571D+05 0.17168571D+05 0.11905161D+01  1  2 15  1  7  1        1 0.166202228404D-03 0.100000000000D+01
  </mgrwgt>
  </event>
  <event>
  8     66 0.29493621E-05 0.15169819E+03 0.75467711E-02 0.10160263E+00
        1 -1    0    0  501    0 0.00000000E+00 0.00000000E+00 0.10412132E+04 0.10412132E+04 0.32000000E+00 0.0000E+00 0.9000E+01
       -2 -1    0    0    0  501 0.00000000E+00 0.00000000E+00 -.10434133E+03 0.10434182E+03 0.32000000E+00 0.0000E+00 0.9000E+01
       25  2    1    2    0    0 0.51840842E+02 -.20842042E+03 0.79186640E+03 0.87422435E+03 0.30181001E+03 0.0000E+00 0.0000E+00
       23  2    3    3    0    0 0.36905137E+02 -.61649511E+02 0.77353326E+02 0.13896320E+03 0.90358085E+02 0.0000E+00 0.0000E+00
      -24  1    1    2    0    0 -.51840842E+02 0.20842042E+03 0.14500543E+03 0.27133067E+03 0.80419002E+02 0.0000E+00 0.9000E+01
      -13  1    4    4    0    0 -.16557675E+02 -.55862185E+02 0.23400981E+02 0.62788194E+02 0.10565837E+00 0.0000E+00 0.9000E+01
       13  1    4    4    0    0 0.53462811E+02 -.57873262E+01 0.53952344E+02 0.76175009E+02 0.10565837E+00 0.0000E+00 0.9000E+01
       23  1    3    3    0    0 0.14935705E+02 -.14677090E+03 0.71451307E+03 0.73526115E+03 0.91188000E+02 0.0000E+00 0.9000E+01
#aMCatNLO 1  0  0  1  2 0.51676603D+02 0.00000000D+00  -5  7  0 0.00000000D+00 0.00000000D+00 0.00000000D+00 0.00000000D+00 0.00000000D+00
  <mgrwgt>
 0.1033713709D-02    9    2    0
 0.329608664873960D+03 0.000000000000000D+00 0.000000000000000D+00 0.329608664873960D+03
 0.329608664873960D+03 0.000000000000000D+00 0.000000000000000D+00 -.329608664873960D+03
 0.265424929968322D+03 -.518408427028333D+02 0.208420418626607D+03 -.133628715558027D+03
 0.758530248461319D+02 -.165577703504152D+02 -.558622537905493D+02 -.485688194294557D+02
 0.556966757380627D+02 0.534629068629649D+02 -.578725860574341D+01 -.145032725914910D+02
 0.262242699195403D+03 0.149357061902836D+02 -.146770906230314D+03 0.196700807578974D+03
 0.000000000000000D+00 -.000000000000000D+00 -.000000000000000D+00 0.000000000000000D+00
 0.369488232134217D+03 0.000000000000000D+00 0.000000000000000D+00 0.369488232134217D+03
 0.347796232804239D+03 0.000000000000000D+00 0.000000000000000D+00 -.347796232804239D+03
 0.278991499842091D+03 -.422366988886252D+02 0.227438933947274D+03 -.133628715558027D+03
 0.715916934809511D+02 -.139566727311683D+02 -.507114547313962D+02 -.485688194294557D+02
 0.573517735521345D+02 0.554572139879985D+02 -.183805070701794D+01 -.145032725914910D+02
 0.253304746944977D+03 0.240305673014815D+02 -.128760893185032D+03 0.196700807578974D+03
 0.560447511183025D+02 -.232944096696864D+02 -.461285353238269D+02 0.216919993299775D+02
0.127197002285D-04 0.000000000000D+00 0.000000000000D+00 0.229606139250D-06 0.000000000000D+00  7 1 -2 -24 -13 13 23 21 0 0.16018668D+00 0.16052553D-01 0.66257064D+05 0.66257064D+05 0.66257064D+05 0.11366941D+01  1  2  2  1  7  1        1 0.574163142667D-03 0.100000000000D+01
-.654122785957D-06 0.000000000000D+00 -.488469980513D-07 0.229606139250D-06 0.000000000000D+00  7 1 -2 -24 -13 13 23 21 2 0.16018668D+00 0.16052553D-01 0.66257064D+05 0.66257064D+05 0.66257064D+05 0.11366941D+01  1  2  3  1  7  1        1 -.381509090419D-04 0.100000000000D+01
0.805835079903D-06 0.000000000000D+00 0.000000000000D+00 0.229606139250D-06 0.000000000000D+00  7 1 -2 -24 -13 13 23 21 2 0.16018668D+00 0.16052553D-01 0.66257064D+05 0.66257064D+05 0.66257064D+05 0.11366941D+01  1  2 15  1  7  1        1 0.469993424723D-04 0.100000000000D+01
0.194679023607D-04 0.000000000000D+00 0.000000000000D+00 0.229606139250D-06 0.000000000000D+00  7 1 -2 -24 -13 13 23 21 2 0.18358105D+00 0.16052553D-01 0.79599701D+05 0.79599701D+05 0.79599701D+05 0.11299453D+01  1  2 12  1  7  1        1 0.871182543080D-03 0.100000000000D+01
-.188755396114D-04 0.000000000000D+00 0.000000000000D+00 0.229606139250D-06 0.000000000000D+00  7 1 -2 -24 -13 13 23 21 2 0.16018668D+00 0.16052553D-01 0.66257064D+05 0.66257064D+05 0.66257064D+05 0.11366941D+01  1  2  4  1  7  1        1 -.110089269215D-02 0.100000000000D+01
-.460449274856D-04 0.000000000000D+00 -.109652451753D-04 0.229606139250D-06 0.000000000000D+00  7 1 -2 -24 -13 13 23 21 2 0.18555730D+00 0.16052553D-01 0.66257064D+05 0.66257064D+05 0.66257064D+05 0.11366941D+01  1  2  5  1  7  1        1 -.204918782459D-02 0.100000000000D+01
0.472627969010D-04 0.000000000000D+00 0.108477908568D-04 0.229606139250D-06 0.000000000000D+00  7 1 -2 -24 -13 13 23 21 2 0.16018668D+00 0.16052553D-01 0.66257064D+05 0.66257064D+05 0.66257064D+05 0.11366941D+01  1  2  6  1  7  1        1 0.275654464933D-02 0.100000000000D+01
0.410719724188D-06 0.000000000000D+00 0.000000000000D+00 0.229606139250D-06 0.000000000000D+00  7 21 -2 -24 -13 13 23 -1 2 0.18358105D+00 0.16052553D-01 0.79599701D+05 0.79599701D+05 0.79599701D+05 0.11299453D+01  1  2 12  3  7  1        1 0.205511559134D-04 0.100000000000D+01
-.959986581112D-06 0.000000000000D+00 -.246095524335D-06 0.229606139250D-06 0.000000000000D+00  7 21 -2 -24 -13 13 23 -1 2 0.18555730D+00 0.16052553D-01 0.66257064D+05 0.66257064D+05 0.66257064D+05 0.11366941D+01  1  2  5  3  7  1        1 -.474956983530D-04 0.100000000000D+01
  </mgrwgt>
  </event>
  <event>
  8     66 0.29493621E-05 0.10993896E+04 0.75467711E-02 0.85966138E-01
        1 -1    0    0  501    0 0.00000000E+00 0.00000000E+00 0.32498272E+04 0.32498272E+04 0.32000000E+00 0.0000E+00 0.9000E+01
       -2 -1    0    0    0  501 0.00000000E+00 0.00000000E+00 -.39170816E+03 0.39170829E+03 0.32000000E+00 0.0000E+00 0.9000E+01
       25  2    1    2    0    0 -.35924379E+03 -.10223895E+04 0.10892049E+04 0.15655151E+04 0.30022294E+03 0.0000E+00 0.0000E+00
       23  2    3    3    0    0 -.36181779E+02 -.17440023E+03 0.11465871E+03 0.23078277E+03 0.91594238E+02 0.0000E+00 0.0000E+00
      -24  1    1    2    0    0 0.35924379E+03 0.10223895E+04 0.17689142E+04 0.20760204E+04 0.80419002E+02 0.0000E+00 0.9000E+01
      -11  1    4    4    0    0 -.38039488E+02 -.15292232E+02 0.27361729E+02 0.49290153E+02 0.51099893E-03 0.0000E+00 0.9000E+01
       11  1    4    4    0    0 0.18577089E+01 -.15910800E+03 0.87296985E+02 0.18149261E+03 0.51099893E-03 0.0000E+00 0.9000E+01
       23  1    3    3    0    0 -.32306201E+03 -.84798925E+03 0.97454620E+03 0.13347323E+04 0.91188000E+02 0.0000E+00 0.9000E+01
#aMCatNLO 1  0  0  2  2 0.11869816D+03 0.00000000D+00  -5  7  0 0.00000000D+00 0.00000000D+00 0.00000000D+00 0.00000000D+00 0.00000000D+00
  <mgrwgt>
 0.7765552410D-03    4    2    0
 0.112826597289081D+04 0.000000000000000D+00 0.000000000000000D+00 0.112826597289081D+04
 0.112826597289081D+04 0.000000000000000D+00 0.000000000000000D+00 -.112826597289081D+04
 0.110972721497165D+04 0.359243793914154D+03 0.102238948011508D+04 0.225146448292073D+03
 0.448869184549877D+02 -.380394878735546D+02 -.152922320566599D+02 -.182751319948083D+02
 0.182318105835934D+03 0.185770885222499D+01 -.159107996921504D+03 -.890004828585198D+02
 0.919599706519042D+03 -.323062014892824D+03 -.847989251136918D+03 -.117870833438745D+03
 0.000000000000000D+00 0.000000000000000D+00 0.000000000000000D+00 0.000000000000000D+00
 0.127573794728254D+04 0.000000000000000D+00 0.000000000000000D+00 0.127573794728254D+04
 0.115396579922872D+04 0.000000000000000D+00 0.000000000000000D+00 -.115396579922872D+04
 0.105684571600357D+04 0.325221236002352D+03 0.976727124613267D+03 0.225146448292073D+03
 0.467895393438048D+02 -.394791198148640D+02 -.172243908809979D+02 -.182751319948083D+02
 0.189223088334326D+03 -.397675054425032D+01 -.166938541579946D+03 -.890004828585198D+02
 0.966793327405528D+03 -.352684796255752D+03 -.887746578526973D+03 -.117870833438745D+03
 0.170052075424025D+03 0.709194306125138D+02 0.951823863746501D+02 0.121772148053823D+03
0.899231414375D-02 0.000000000000D+00 0.000000000000D+00 0.449806959300D-04 0.000000000000D+00  7 1 -2 -24 -11 11 23 21 0 0.49997343D+00 0.60262805D-01 0.12086575D+07 0.12086575D+07 0.12086575D+07 0.10424289D+01  1  2  2  2  7  2       -2 0.919695073450D-03 0.100000000000D+01
-.499164709479D-03 0.000000000000D+00 -.345328540427D-04 0.449806959300D-04 0.000000000000D+00  7 1 -2 -24 -11 11 23 21 2 0.49997343D+00 0.60262805D-01 0.12086575D+07 0.12086575D+07 0.12086575D+07 0.10424289D+01  1  2  3  2  7  2       -2 -.554765071710D-04 0.100000000000D+01
0.579418909362D-03 0.000000000000D+00 0.000000000000D+00 0.449806959300D-04 0.000000000000D+00  7 1 -2 -24 -11 11 23 21 2 0.49997343D+00 0.60262805D-01 0.12086575D+07 0.12086575D+07 0.12086575D+07 0.10424289D+01  1  2 15  2  7  2       -2 0.643958530517D-04 0.100000000000D+01
-.136819312263D-02 0.000000000000D+00 0.000000000000D+00 0.449806959300D-04 0.000000000000D+00  7 1 -2 -24 -11 11 23 21 2 0.49997343D+00 0.60262805D-01 0.12086575D+07 0.12086575D+07 0.12086575D+07 0.10424289D+01  1  2  4  2  7  2       -2 -.152059178338D-03 0.100000000000D+01
  </mgrwgt>
  </event>
  <event>
  9     66 0.29493621E-05 0.23858309E+03 0.75467711E-02 0.10098997E+00
        1 -1    0    0  501    0 0.00000000E+00 0.00000000E+00 0.31491355E+04 0.31491356E+04 0.32000000E+00 0.0000E+00 0.9000E+01
       21 -1    0    0  502  501 0.00000000E+00 0.00000000E+00 -.41626977E+02 0.41633733E+02 0.75000000E+00 0.0000E+00 0.9000E+01
       25  2    1    2    0    0 0.24010787E+02 -.64501013E+02 0.11990758E+04 0.12381460E+04 0.30080857E+03 0.0000E+00 0.0000E+00
       23  2    3    3    0    0 0.12507367E+03 -.74552494E+02 0.67754286E+03 0.69904803E+03 0.91664212E+02 0.0000E+00 0.0000E+00
      -24  1    1    2    0    0 -.11076086E+03 0.11846081E+03 0.38141033E+03 0.42218715E+03 0.80419002E+02 0.0000E+00 0.9000E+01
      -13  1    4    4    0    0 0.75879119E+02 -.92278865E+02 0.48970935E+03 0.50407171E+03 0.10565837E+00 0.0000E+00 0.9000E+01
       13  1    4    4    0    0 0.49194549E+02 0.17726371E+02 0.18783351E+03 0.19497633E+03 0.10565837E+00 0.0000E+00 0.9000E+01
       23  1    3    3    0    0 -.10106288E+03 0.10051481E+02 0.52153293E+03 0.53909794E+03 0.91188000E+02 0.0000E+00 0.9000E+01
        2  1    1    2  502    0 0.86750073E+02 -.53959795E+02 0.15270224E+04 0.15304362E+04 0.32000000E+00 0.0000E+00 0.9000E+01
#aMCatNLO 2  0  0  2  2 0.10216279D+03 0.00000000D+00  -5  7  0 0.00000000D+00 0.00000000D+00 0.00000000D+00 0.00000000D+00 0.00000000D+00
  <mgrwgt>
 0.7636948069D-04    1    2    0
 0.249164830041013D+03 0.000000000000000D+00 0.000000000000000D+00 0.249164830041013D+03
 0.249164830041013D+03 0.000000000000000D+00 0.000000000000000D+00 -.249164830041013D+03
 0.164864637218826D+03 -.799360650282948D+02 0.992873437840563D+02 -.668235102566708D+02
 0.149519594629627D+03 0.994195047549320D+02 -.106921448786861D+03 0.322439923367250D+02
 0.605391423534209D+02 0.589578247285175D+02 0.116535947176284D+02 0.729084290918699D+01
 0.123406285880152D+03 -.784412644551547D+02 -.401948971482394D+01 0.272886750107588D+02
 0.000000000000000D+00 0.000000000000000D+00 -.000000000000000D+00 0.000000000000000D+00
 0.494303345077503D+03 0.000000000000000D+00 0.000000000000000D+00 0.494303345077503D+03
 0.265221148417105D+03 0.000000000000000D+00 0.000000000000000D+00 -.265221148417105D+03
 0.192959921478136D+03 -.110760865821305D+03 0.118460813866736D+03 -.668235102566708D+02
 0.123744644124787D+03 0.758791537121408D+02 -.922790113714312D+02 0.322439923367250D+02
 0.527966453809119D+02 0.491945119689024D+02 0.177265158813808D+02 0.729084290918699D+01
 0.139192886525505D+03 -.101062873232625D+03 0.100514767783404D+02 0.272886750107588D+02
 0.250830395985268D+03 0.867500733728866D+02 -.539597951550259D+02 0.229082196660397D+03
0.565870126442D-06 0.000000000000D+00 0.000000000000D+00 0.481158048866D-06 0.692625152466D-11  7 1 21 -24 -13 13 23 2 2 0.48448273D+00 0.64046689D-02 0.87448835D+05 0.87448835D+05 0.87448835D+05 0.11265334D+01  1  2  1  4  7  2       -2 0.763694806870D-04 0.100000000000D+01
  </mgrwgt>
  </event>
  <event>
  8     66 0.29493621E-05 0.33949320E+03 0.75467711E-02 0.93580098E-01
        1 -1    0    0  501    0 0.00000000E+00 0.00000000E+00 0.67051066E+03 0.67051073E+03 0.32000000E+00 0.0000E+00 0.9000E+01
       -2 -1    0    0    0  501 0.00000000E+00 0.00000000E+00 -.41220020E+03 0.41220032E+03 0.32000000E+00 0.0000E+00 0.9000E+01
       25  2    1    2    0    0 -.46245414E+03 0.10606985E+03 0.70929090E+02 0.56628716E+03 0.30089129E+03 0.0000E+00 0.0000E+00
       23  2    3    3    0    0 -.93328478E+02 -.24740351E+02 -.56620853E+02 0.14444679E+03 0.91305334E+02 0.0000E+00 0.0000E+00
      -24  1    1    2    0    0 0.46245414E+03 -.10606985E+03 0.18738137E+03 0.51642389E+03 0.80419002E+02 0.0000E+00 0.9000E+01
      -13  1    4    4    0    0 0.30581129E+01 -.20697110E+02 0.13750627E+02 0.25036240E+02 0.10565837E+00 0.0000E+00 0.9000E+01
       13  1    4    4    0    0 -.96386591E+02 -.40432401E+01 -.70371480E+02 0.11941055E+03 0.10565837E+00 0.0000E+00 0.9000E+01
       23  1    3    3    0    0 -.36912566E+03 0.13081020E+03 0.12754994E+03 0.42184038E+03 0.91188000E+02 0.0000E+00 0.9000E+01
#aMCatNLO 1  0  0  1  2 0.95626534D+02 0.00000000D+00  -5  7  0 0.00000000D+00 0.00000000D+00 0.00000000D+00 0.00000000D+00 0.00000000D+00
  <mgrwgt>
 0.1096657604D-02    9    2    0
 0.525723060229449D+03 0.000000000000000D+00 0.000000000000000D+00 0.525723060229449D+03
 0.525723060229449D+03 0.000000000000000D+00 0.000000000000000D+00 -.525723060229449D+03
 0.485745569561677D+03 0.462454142009971D+03 -.106069846481115D+03 0.660824984373451D+02
 0.224024010174868D+02 0.305824602165452D+01 -.206971326733688D+02 0.800895759261458D+01
 0.140249674240236D+03 -.963867238388699D+02 -.404321780557718D+01 -.101799916413907D+03
 0.403048475639497D+03 -.369125664192756D+03 0.130810196960061D+03 0.277084603839477D+02
 0.000000000000000D+00 -.000000000000000D+00 -.000000000000000D+00 0.000000000000000D+00
 0.615351141755446D+03 0.000000000000000D+00 0.000000000000000D+00 0.615351141755446D+03
 0.554032243624714D+03 0.000000000000000D+00 0.000000000000000D+00 -.554032243624714D+03
 0.512986512434374D+03 0.496508167706230D+03 -.761622530292542D+02 0.660824984373451D+02
 0.214617140789156D+02 0.455389208085707D+01 -.193835970965332D+02 0.800895759261458D+01
 0.133999252544961D+03 -.870355873646623D+02 0.416932042640608D+01 -.101799916413907D+03
 0.387338189625816D+03 -.342175645970520D+03 0.154478769824250D+03 0.277084603839477D+02
 0.113597716696092D+03 -.718508264519052D+02 -.631022401248687D+02 0.613188981307323D+02
0.937274050741D-04 0.000000000000D+00 0.000000000000D+00 0.300847183773D-05 0.000000000000D+00  7 1 -2 -24 -13 13 23 21 0 0.10315550D+00 0.63415431D-01 0.25035902D+06 0.25035902D+06 0.25035902D+06 0.10904122D+01  1  2  2  1  7  1        1 0.699134364312D-03 0.100000000000D+01
-.519159739327D-05 0.000000000000D+00 -.359937914477D-06 0.300847183773D-05 0.000000000000D+00  7 1 -2 -24 -13 13 23 21 2 0.10315550D+00 0.63415431D-01 0.25035902D+06 0.25035902D+06 0.25035902D+06 0.10904122D+01  1  2  3  1  7  1        1 -.460443647067D-04 0.100000000000D+01
0.600320722956D-05 0.000000000000D+00 0.000000000000D+00 0.300847183773D-05 0.000000000000D+00  7 1 -2 -24 -13 13 23 21 2 0.10315550D+00 0.63415431D-01 0.25035902D+06 0.25035902D+06 0.25035902D+06 0.10904122D+01  1  2 15  1  7  1        1 0.532425460121D-04 0.100000000000D+01
0.149067830953D-03 0.000000000000D+00 0.000000000000D+00 0.300847183773D-05 0.000000000000D+00  7 1 -2 -24 -13 13 23 21 2 0.12317601D+00 0.63415431D-01 0.30125360D+06 0.30125360D+06 0.30125360D+06 0.10844179D+01  1  2 12  1  7  1        1 0.987563400505D-03 0.100000000000D+01
-.149621843357D-03 0.000000000000D+00 0.000000000000D+00 0.300847183773D-05 0.000000000000D+00  7 1 -2 -24 -13 13 23 21 2 0.10315550D+00 0.63415431D-01 0.25035902D+06 0.25035902D+06 0.25035902D+06 0.10904122D+01  1  2  4  1  7  1        1 -.132699864834D-02 0.100000000000D+01
-.305031134845D-03 0.000000000000D+00 -.679388381057D-04 0.300847183773D-05 0.000000000000D+00  7 1 -2 -24 -13 13 23 21 2 0.12503374D+00 0.63415431D-01 0.25035902D+06 0.25035902D+06 0.25035902D+06 0.10904122D+01  1  2  5  1  7  1        1 -.200800611730D-02 0.100000000000D+01
0.313519046157D-03 0.000000000000D+00 0.667011583075D-04 0.300847183773D-05 0.000000000000D+00  7 1 -2 -24 -13 13 23 21 2 0.10315550D+00 0.63415431D-01 0.25035902D+06 0.25035902D+06 0.25035902D+06 0.10904122D+01  1  2  6  1  7  1        1 0.278060569999D-02 0.100000000000D+01
0.388653144677D-05 0.000000000000D+00 0.000000000000D+00 0.300847183773D-05 0.000000000000D+00  7 21 -2 -24 -13 13 23 -1 2 0.12317601D+00 0.63415431D-01 0.30125360D+06 0.30125360D+06 0.30125360D+06 0.10844179D+01  1  2 12  3  7  1        1 0.447383369824D-04 0.100000000000D+01
-.773924586245D-05 0.000000000000D+00 -.188666044182D-05 0.300847183773D-05 0.000000000000D+00  7 21 -2 -24 -13 13 23 -1 2 0.12503374D+00 0.63415431D-01 0.25035902D+06 0.25035902D+06 0.25035902D+06 0.10904122D+01  1  2  5  3  7  1        1 -.875776135517D-04 0.100000000000D+01
  </mgrwgt>
  </event>
  <event>
  8     66 0.29493621E-05 0.11843664E+03 0.75467711E-02 0.94841512E-01
        1 -1    0    0  501    0 0.00000000E+00 0.00000000E+00 0.17638707E+04 0.17638708E+04 0.32000000E+00 0.0000E+00 0.9000E+01
       -2 -1    0    0    0  501 0.00000000E+00 0.00000000E+00 -.11304362E+03 0.11304407E+03 0.32000000E+00 0.0000E+00 0.9000E+01
       25  2    1    2    0    0 0.11746156E+03 0.31549277E+03 0.13200582E+04 0.13981579E+04 0.31457749E+03 0.0000E+00 0.0000E+00
       23  2    3    3    0    0 0.43882347E+01 0.94886416E+02 0.83946332E+03 0.84976076E+03 0.91498683E+02 0.0000E+00 0.0000E+00
      -24  1    1    2    0    0 -.11746156E+03 -.31549277E+03 0.33076892E+03 0.47875693E+03 0.80419002E+02 0.0000E+00 0.9000E+01
      -11  1    4    4    0    0 -.39106607E+02 0.66515486E+02 0.58378588E+03 0.58886296E+03 0.51099893E-03 0.0000E+00 0.9000E+01
       11  1    4    4    0    0 0.43494842E+02 0.28370930E+02 0.25567744E+03 0.26089781E+03 0.51099893E-03 0.0000E+00 0.9000E+01
       23  1    3    3    0    0 0.11307332E+03 0.22060635E+03 0.48059487E+03 0.54839714E+03 0.91188000E+02 0.0000E+00 0.9000E+01
#aMCatNLO 1  0  0  1  2 0.22614724D+03 0.00000000D+00  -5  7  0 0.00000000D+00 0.00000000D+00 0.00000000D+00 0.00000000D+00 0.00000000D+00
  <mgrwgt>
 0.1407081819D-02    9    2    0
 0.446536435124010D+03 0.000000000000000D+00 0.000000000000000D+00 0.446536435124010D+03
 0.446536435124010D+03 0.000000000000000D+00 0.000000000000000D+00 -.446536435124010D+03
 0.394753549433047D+03 -.117461558306912D+03 -.315492767783009D+03 -.189816344481570D+03
 0.158459718005120D+03 -.391066071046240D+02 0.665154860821881D+02 0.138404644511219D+03
 0.756978657850212D+02 0.434948420120639D+02 0.283709300113456D+02 0.550768184724211D+02
 0.264161737024832D+03 0.113073323399472D+03 0.220606351689476D+03 -.366511850207019D+01
 0.000000000000000D+00 -.000000000000000D+00 0.000000000000000D+00 0.000000000000000D+00
 0.650386449106648D+03 0.000000000000000D+00 0.000000000000000D+00 0.650386449106648D+03
 0.528009872092987D+03 0.000000000000000D+00 0.000000000000000D+00 -.528009872092987D+03
 0.478631913845451D+03 -.935790102940384D+02 -.421703707829361D+03 -.189816344481570D+03
 0.144855726681384D+03 -.308125079063394D+02 0.296298040262937D+02 0.138404644511219D+03
 0.734941945195869D+02 0.475744685838062D+02 0.102279340048371D+02 0.550768184724211D+02
 0.224279109055107D+03 0.126429639079566D+03 0.161207880338180D+03 -.366511850207019D+01
 0.257135377098105D+03 -.496125894629947D+02 0.220638089460049D+03 0.122376577013661D+03
0.950671471820D-04 0.000000000000D+00 0.000000000000D+00 0.154424692089D-07 0.000000000000D+00  7 1 -2 -24 -11 11 23 21 0 0.27136476D+00 0.17391364D-01 0.13665869D+06 0.13665869D+06 0.13665869D+06 0.11107585D+01  1  2  2  1  7  1        1 0.119927285535D-02 0.100000000000D+01
-.505236662973D-05 0.000000000000D+00 -.365082876934D-06 0.154424692089D-07 0.000000000000D+00  7 1 -2 -24 -11 11 23 21 2 0.27136476D+00 0.17391364D-01 0.13665869D+06 0.13665869D+06 0.13665869D+06 0.11107585D+01  1  2  3  1  7  1        1 -.786360514474D-04 0.100000000000D+01
0.599168239400D-05 0.000000000000D+00 0.000000000000D+00 0.154424692089D-07 0.000000000000D+00  7 1 -2 -24 -11 11 23 21 2 0.27136476D+00 0.17391364D-01 0.13665869D+06 0.13665869D+06 0.13665869D+06 0.11107585D+01  1  2 15  1  7  1        1 0.932557511203D-04 0.100000000000D+01
0.191364704744D-04 0.000000000000D+00 0.000000000000D+00 0.154424692089D-07 0.000000000000D+00  7 1 -2 -24 -11 11 23 21 2 0.41095565D+00 0.17391364D-01 0.24068306D+06 0.24068306D+06 0.24068306D+06 0.10917022D+01  1  2 12  1  7  1        1 0.687130858709D-04 0.100000000000D+01
-.498156422643D-04 0.000000000000D+00 0.000000000000D+00 0.154424692089D-07 0.000000000000D+00  7 1 -2 -24 -11 11 23 21 2 0.27136476D+00 0.17391364D-01 0.13665869D+06 0.13665869D+06 0.13665869D+06 0.11107585D+01  1  2  4  1  7  1        1 -.775340685874D-03 0.100000000000D+01
-.634120328961D-04 0.000000000000D+00 -.298244120008D-04 0.154424692089D-07 0.000000000000D+00  7 1 -2 -24 -11 11 23 21 2 0.41986727D+00 0.17391364D-01 0.13665869D+06 0.13665869D+06 0.13665869D+06 0.11107585D+01  1  2  5  1  7  1        1 -.221008439079D-03 0.100000000000D+01
0.720850920624D-04 0.000000000000D+00 0.271927770357D-04 0.154424692089D-07 0.000000000000D+00  7 1 -2 -24 -11 11 23 21 2 0.27136476D+00 0.17391364D-01 0.13665869D+06 0.13665869D+06 0.13665869D+06 0.11107585D+01  1  2  6  1  7  1        1 0.112194688617D-02 0.100000000000D+01
0.935977322176D-06 0.000000000000D+00 0.000000000000D+00 0.154424692089D-07 0.000000000000D+00  7 21 -2 -24 -11 11 23 -1 2 0.41095565D+00 0.17391364D-01 0.24068306D+06 0.24068306D+06 0.24068306D+06 0.10917022D+01  1  2 12  3  7  1        1 0.100324553318D-05 0.100000000000D+01
-.207822196808D-05 0.000000000000D+00 -.151455822241D-05 0.154424692089D-07 0.000000000000D+00  7 21 -2 -24 -11 11 23 -1 2 0.41986727D+00 0.17391364D-01 0.13665869D+06 0.13665869D+06 0.13665869D+06 0.11107585D+01  1  2  5  3  7  1        1 -.212482873981D-05 0.100000000000D+01
  </mgrwgt>
  </event>
  <event>
  8     66 0.29493621E-05 0.34285199E+03 0.75467711E-02 0.94956553E-01
        1 -1    0    0  501    0 0.00000000E+00 0.00000000E+00 0.35068097E+04 0.35068097E+04 0.32000000E+00 0.0000E+00 0.9000E+01
       -2 -1    0    0    0  501 0.00000000E+00 0.00000000E+00 -.59012131E+02 0.59012999E+02 0.32000000E+00 0.0000E+00 0.9000E+01
       25  2    1    2    0    0 -.28148835E+03 -.10767408E+01 0.77769716E+03 0.87972141E+03 0.29976662E+03 0.0000E+00 0.0000E+00
       23  2    3    3    0    0 -.15280533E+02 -.51326235E+02 0.11541546E+03 0.15838659E+03 0.94327652E+02 0.0000E+00 0.0000E+00
      -24  1    1    2    0    0 0.28148835E+03 0.10767408E+01 0.26701004E+04 0.26861013E+04 0.80419002E+02 0.0000E+00 0.9000E+01
      -11  1    4    4    0    0 -.25560421E+02 0.21597097E+02 0.48219139E+02 0.58692888E+02 0.51099893E-03 0.0000E+00 0.9000E+01
       11  1    4    4    0    0 0.10279888E+02 -.72923332E+02 0.67196322E+02 0.99693702E+02 0.51099893E-03 0.0000E+00 0.9000E+01
       23  1    3    3    0    0 -.26620781E+03 0.50249494E+02 0.66228170E+03 0.72133482E+03 0.91188000E+02 0.0000E+00 0.9000E+01
#aMCatNLO 1  0  0  2  2 0.23542411D+03 0.00000000D+00  -5  7  0 0.00000000D+00 0.00000000D+00 0.00000000D+00 0.00000000D+00 0.00000000D+00
  <mgrwgt>
 0.1070775572D-02    4    2    0
 0.454913052071178D+03 0.000000000000000D+00 0.000000000000000D+00 0.454913052071178D+03
 0.454913052071178D+03 0.000000000000000D+00 0.000000000000000D+00 -.454913052071178D+03
 0.409084070073730D+03 0.281488346179852D+03 0.107674084301147D+01 0.285737137991907D+03
 0.473042065272088D+02 -.255604207198226D+02 0.215970972473674D+02 -.334352843308120D+02
 0.136081771889286D+03 0.102798881058716D+02 -.729233319235158D+02 -.114432338970376D+03
 0.317356055652131D+03 -.266207813565901D+03 0.502494938331370D+02 -.137869514690719D+03
 0.000000000000000D+00 -.000000000000000D+00 0.000000000000000D+00 0.000000000000000D+00
 0.598392503668025D+03 0.000000000000000D+00 0.000000000000000D+00 0.598392503668025D+03
 0.577728252409508D+03 0.000000000000000D+00 0.000000000000000D+00 -.577728252409508D+03
 0.442677822119850D+03 0.311834753177518D+03 -.103003946163791D+03 0.285737137991907D+03
 0.416458537797978D+02 -.223913252750948D+02 0.107278819526947D+02 -.334352843308120D+02
 0.159423379897165D+03 0.208080881676568D+02 -.109032459948456D+03 -.114432338970376D+03
 0.296044436680444D+03 -.244353700152874D+03 -.247047219370325D+02 -.137869514690719D+03
 0.236329263600276D+03 -.658978159172062D+02 0.226013246096585D+03 0.206642512585169D+02
0.680961273391D-03 0.000000000000D+00 0.000000000000D+00 0.190274851602D-05 0.000000000000D+00  7 1 -2 -24 -11 11 23 21 0 0.53950925D+00 0.90788573D-02 0.11754749D+06 0.11754749D+06 0.11754749D+06 0.11160054D+01  1  2  2  2  7  2       -2 0.139988603579D-02 0.100000000000D+01
-.341523229747D-04 0.000000000000D+00 -.261507059104D-05 0.190274851602D-05 0.000000000000D+00  7 1 -2 -24 -11 11 23 21 2 0.53950925D+00 0.90788573D-02 0.11754749D+06 0.11754749D+06 0.11754749D+06 0.11160054D+01  1  2  3  2  7  2       -2 -.874426037346D-04 0.100000000000D+01
0.435033929094D-04 0.000000000000D+00 0.000000000000D+00 0.190274851602D-05 0.000000000000D+00  7 1 -2 -24 -11 11 23 21 2 0.53950925D+00 0.90788573D-02 0.11754749D+06 0.11754749D+06 0.11754749D+06 0.11160054D+01  1  2 15  2  7  2       -2 0.111384808293D-03 0.100000000000D+01
-.137891236422D-03 0.000000000000D+00 0.000000000000D+00 0.190274851602D-05 0.000000000000D+00  7 1 -2 -24 -11 11 23 21 2 0.53950925D+00 0.90788573D-02 0.11754749D+06 0.11754749D+06 0.11754749D+06 0.11160054D+01  1  2  4  2  7  2       -2 -.353052668010D-03 0.100000000000D+01
  </mgrwgt>
  </event>
  <event>
  8     66 0.29493621E-05 0.26578868E+03 0.75467711E-02 0.96477902E-01
        1 -1    0    0  501    0 0.00000000E+00 0.00000000E+00 0.22009769E+04 0.22009769E+04 0.32000000E+00 0.0000E+00 0.9000E+01
       -2 -1    0    0    0  501 0.00000000E+00 0.00000000E+00 -.13009517E+03 0.13009557E+03 0.32000000E+00 0.0000E+00 0.9000E+01
       25  2    1    2    0    0 -.13151828E+03 0.15039326E+03 0.13749820E+03 0.38573081E+03 0.29994552E+03 0.0000E+00 0.0000E+00
       23  2    3    3    0    0 -.36269033E+02 0.17393614E+03 0.14964159E+03 0.25123397E+03 0.95690539E+02 0.0000E+00 0.0000E+00
      -24  1    1    2    0    0 0.13151828E+03 -.15039326E+03 0.19333835E+04 0.19453417E+04 0.80419002E+02 0.0000E+00 0.9000E+01
      -13  1    4    4    0    0 0.32612128E+00 0.97690124E+02 0.13302627E+03 0.16504383E+03 0.10565837E+00 0.0000E+00 0.9000E+01
       13  1    4    4    0    0 -.36595154E+02 0.76246019E+02 0.16615323E+02 0.86190143E+02 0.10565837E+00 0.0000E+00 0.9000E+01
       23  1    3    3    0    0 -.95249245E+02 -.23542887E+02 -.12143387E+02 0.13449684E+03 0.91188000E+02 0.0000E+00 0.9000E+01
#aMCatNLO 1  0  0  1  2 0.27552009D+03 0.00000000D+00  -5  7  0 0.00000000D+00 0.00000000D+00 0.00000000D+00 0.00000000D+00 0.00000000D+00
  <mgrwgt>
 0.1242750188D-02    5    2    0
 0.535104623494008D+03 0.000000000000000D+00 0.000000000000000D+00 0.535104623494008D+03
 0.535104623494008D+03 0.000000000000000D+00 0.000000000000000D+00 -.535104623494008D+03
 0.496093515044470D+03 0.131518277382011D+03 -.150393255407096D+03 0.446907564444072D+03
 0.102080405804920D+03 0.326166110154299D+00 0.976901498072145D+02 -.296131304594716D+02
 0.155583753533773D+03 -.365951981127865D+02 0.762459930274328D+02 -.130589602901626D+03
 0.316451572604853D+03 -.952492453793785D+02 -.235428874275515D+02 -.286704831082974D+03
 0.000000000000000D+00 -.000000000000000D+00 -.000000000000000D+00 0.000000000000000D+00
 0.108918578819174D+04 0.000000000000000D+00 0.000000000000000D+00 0.108918578819174D+04
 0.587917621842579D+03 0.000000000000000D+00 0.000000000000000D+00 -.587917621842579D+03
 0.519661932163900D+03 0.239530122020841D+03 -.805000451757400D+02 0.446907564444072D+03
 0.119142602973364D+03 0.238502390751235D+02 0.112912304217558D+03 -.296131304594716D+02
 0.163411139781502D+03 -.267440846598316D+01 0.981957420565804D+02 -.130589602901626D+03
 0.302890272488643D+03 -.293906222881431D+02 0.190734627019649D+02 -.286704831082974D+03
 0.571997462626909D+03 -.231315330341838D+03 -.149681463800364D+03 0.501268166349159D+03
0.225097971921D-03 0.000000000000D+00 0.000000000000D+00 0.156573811228D-05 0.000000000000D+00  7 1 -2 -24 -13 13 23 21 0 0.33861186D+00 0.20014674D-01 0.70643622D+05 0.70643622D+05 0.70643622D+05 0.11343219D+01  1  2  2  1  7  1        1 0.119576917081D-02 0.100000000000D+01
-.506018555047D-05 0.000000000000D+00 -.864435481833D-06 0.156573811228D-05 0.000000000000D+00  7 1 -2 -24 -13 13 23 21 2 0.33861186D+00 0.20014674D-01 0.70643622D+05 0.70643622D+05 0.70643622D+05 0.11343219D+01  1  2  3  1  7  1        1 -.345871535141D-04 0.100000000000D+01
0.138277824290D-04 0.000000000000D+00 0.000000000000D+00 0.156573811228D-05 0.000000000000D+00  7 1 -2 -24 -13 13 23 21 2 0.33861186D+00 0.20014674D-01 0.70643622D+05 0.70643622D+05 0.70643622D+05 0.11343219D+01  1  2 15  1  7  1        1 0.945150387991D-04 0.100000000000D+01
-.148176075521D-03 0.000000000000D+00 -.511415000053D-04 0.156573811228D-05 0.000000000000D+00  7 1 -2 -24 -13 13 23 21 2 0.69696346D+00 0.20014674D-01 0.70643622D+05 0.70643622D+05 0.70643622D+05 0.11343219D+01  1  2  5  1  7  1        1 -.129059422161D-04 0.100000000000D+01
-.843450979526D-05 0.000000000000D+00 -.399199532951D-05 0.156573811228D-05 0.000000000000D+00  7 21 -2 -24 -13 13 23 -1 2 0.69696346D+00 0.20014674D-01 0.70643622D+05 0.70643622D+05 0.70643622D+05 0.11343219D+01  1  2  5  3  7  1        1 -.409254861949D-07 0.100000000000D+01
  </mgrwgt>
  </event>
  <event>
  8     66 0.29493621E-05 0.18479461E+03 0.75467711E-02 0.99582066E-01
        1 -1    0    0  501    0 0.00000000E+00 0.00000000E+00 0.22545604E+04 0.22545605E+04 0.32000000E+00 0.0000E+00 0.9000E+01
       -2 -1    0    0    0  501 0.00000000E+00 0.00000000E+00 -.28805131E+02 0.28806908E+02 0.32000000E+00 0.0000E+00 0.9000E+01
       25  2    1    2    0    0 -.22757993E+02 0.85959490E+01 0.79123515E+03 0.84638890E+03 0.29954849E+03 0.0000E+00 0.0000E+00
       23  2    3    3    0    0 0.91733980E+02 0.56415785E+02 0.30703732E+03 0.33829645E+03 0.92599727E+02 0.0000E+00 0.0000E+00
      -24  1    1    2    0    0 0.22757993E+02 -.85959490E+01 0.14345202E+04 0.14369785E+04 0.80419002E+02 0.0000E+00 0.9000E+01
      -11  1    4    4    0    0 0.50775121E+02 -.11701537E+02 0.63641638E+02 0.82251425E+02 0.51099893E-03 0.0000E+00 0.9000E+01
       11  1    4    4    0    0 0.40958859E+02 0.68117321E+02 0.24339568E+03 0.25604503E+03 0.51099893E-03 0.0000E+00 0.9000E+01
       23  1    3    3    0    0 -.11449197E+03 -.47819836E+02 0.48419783E+03 0.50809245E+03 0.91188000E+02 0.0000E+00 0.9000E+01
#aMCatNLO 1  0  0  1  2 0.24748990D+03 0.00000000D+00  -5  7  0 0.00000000D+00 0.00000000D+00 0.00000000D+00 0.00000000D+00 0.00000000D+00
  <mgrwgt>
 0.1517673015D-02    3    2    0
 0.254843018743403D+03 0.000000000000000D+00 0.000000000000000D+00 0.254843018743403D+03
 0.254843018743403D+03 0.000000000000000D+00 0.000000000000000D+00 -.254843018743403D+03
 0.173163246394553D+03 0.227579929435593D+02 -.859594902507483D+01 0.151414917907944D+03
 0.905645899361222D+02 0.507751207549654D+02 -.117015365526712D+02 -.740736532440728D+02
 0.841805049334701D+02 0.409588591260983D+02 0.681173214471194D+02 -.277265177909566D+02
 0.161777696222660D+03 -.114491972824623D+03 -.478198358693734D+02 -.496147468729148D+02
 0.000000000000000D+00 0.000000000000000D+00 -.000000000000000D+00 -.000000000000000D+00
 0.364084808318902D+03 0.000000000000000D+00 0.000000000000000D+00 0.364084808318902D+03
 0.472844070623512D+03 0.000000000000000D+00 0.000000000000000D+00 -.472844070623512D+03
 0.180840796042693D+03 -.570416034133724D+02 0.748035252821644D+01 0.151414917907944D+03
 0.753851780503398D+02 0.133667216596539D+02 -.416529912871010D+01 -.740736532440728D+02
 0.806152249301633D+02 0.381060332109548D+01 0.756011508117294D+02 -.277265177909566D+02
 0.229754871408866D+03 -.202751249872645D+03 -.300392603091533D+02 -.496147468729148D+02
 0.270332808510352D+03 0.242615528305268D+03 -.488769439020824D+02 -.108759262304609D+03
0.294333788200D-04 0.000000000000D+00 0.000000000000D+00 0.663901733373D-06 0.000000000000D+00  7 1 -2 -24 -11 11 23 21 0 0.34685559D+00 0.44316971D-02 0.34149047D+05 0.34149047D+05 0.34149047D+05 0.11621520D+01  1  2  2  1  7  1        1 0.148984803151D-02 0.100000000000D+01
-.142981236200D-05 0.000000000000D+00 -.113031924655D-06 0.663901733373D-06 0.000000000000D+00  7 1 -2 -24 -11 11 23 21 2 0.34685559D+00 0.44316971D-02 0.34149047D+05 0.34149047D+05 0.34149047D+05 0.11621520D+01  1  2  3  1  7  1        1 -.977477463934D-04 0.100000000000D+01
0.183682436398D-05 0.000000000000D+00 0.000000000000D+00 0.663901733373D-06 0.000000000000D+00  7 1 -2 -24 -11 11 23 21 2 0.34685559D+00 0.44316971D-02 0.34149047D+05 0.34149047D+05 0.34149047D+05 0.11621520D+01  1  2 15  1  7  1        1 0.125572730290D-03 0.100000000000D+01
  </mgrwgt>
  </event>
  <event>
  8     66 0.29493621E-05 0.32834821E+03 0.75467711E-02 0.85350068E-01
        1 -1    0    0  501    0 0.00000000E+00 0.00000000E+00 0.81155644E+03 0.81155650E+03 0.32000000E+00 0.0000E+00 0.9000E+01
       -2 -1    0    0    0  501 0.00000000E+00 0.00000000E+00 -.23104071E+03 0.23104093E+03 0.32000000E+00 0.0000E+00 0.9000E+01
       25  2    1    2    0    0 -.26100053E+03 0.29815465E+02 -.16729972E+01 0.39884192E+03 0.30010304E+03 0.0000E+00 0.0000E+00
       23  2    3    3    0    0 0.22806595E+02 0.40859427E+02 0.19054713E+01 0.10051909E+03 0.88942803E+02 0.0000E+00 0.0000E+00
      -24  1    1    2    0    0 0.26100053E+03 -.29815465E+02 0.58218872E+03 0.64375552E+03 0.80419002E+02 0.0000E+00 0.9000E+01
      -11  1    4    4    0    0 -.24840238E+02 0.18829107E+02 0.27998232E+02 0.41898374E+02 0.51099893E-03 0.0000E+00 0.9000E+01
       11  1    4    4    0    0 0.47646833E+02 0.22030320E+02 -.26092761E+02 0.58620712E+02 0.51099893E-03 0.0000E+00 0.9000E+01
       23  1    3    3    0    0 -.28380713E+03 -.11043962E+02 -.35784685E+01 0.29832283E+03 0.91188000E+02 0.0000E+00 0.9000E+01
#aMCatNLO 1  0  0  1  2 0.12155585D+04 0.00000000D+00  -5  7  0 0.00000000D+00 0.00000000D+00 0.00000000D+00 0.00000000D+00 0.00000000D+00
  <mgrwgt>
 0.1698744198D-02    3    2    0
 0.433015847237612D+03 0.000000000000000D+00 0.000000000000000D+00 0.433015847237612D+03
 0.433015847237612D+03 0.000000000000000D+00 0.000000000000000D+00 -.433015847237612D+03
 0.384752821925357D+03 0.261000531689158D+03 -.298154651349828D+02 0.269364582901903D+03
 0.316728854673537D+02 -.248402381148882D+02 0.188291072977962D+02 0.562129545494940D+01
 0.880626678174993D+02 0.476468329891739D+02 0.220303201564490D+02 -.707069852492761D+02
 0.361543319265015D+03 -.283807126563444D+03 -.110439623192624D+02 -.204278893107576D+03
 0.000000000000000D+00 0.000000000000000D+00 0.000000000000000D+00 -.000000000000000D+00
 0.111311593519882D+04 0.000000000000000D+00 0.000000000000000D+00 0.111311593519882D+04
 0.175316868993120D+04 0.000000000000000D+00 0.000000000000000D+00 -.175316868993120D+04
 0.300751726034777D+03 -.913637551929971D+02 -.554956797746017D+02 0.269364582901903D+03
 0.874372352672241D+02 -.860654376820949D+02 0.143670311885758D+02 0.562129545494940D+01
 0.828189352559561D+02 -.401900375136304D+02 0.156287926130552D+02 -.707069852492761D+02
 0.102150454345552D+04 -.994723889000084D+03 -.628553851277877D+02 -.204278893107576D+03
 0.137377218511654D+04 0.121234311938881D+04 0.883552411007584D+02 -.640052754732380D+03
0.948384680591D-04 0.000000000000D+00 0.000000000000D+00 0.284464667857D-05 0.000000000000D+00  7 1 -2 -24 -11 11 23 21 0 0.12485486D+00 0.35544747D-01 0.10781255D+06 0.10781255D+06 0.10781255D+06 0.11190510D+01  1  2  2  1  7  1        1 0.166838957233D-02 0.100000000000D+01
-.477833566004D-05 0.000000000000D+00 -.364204688889D-06 0.284464667857D-05 0.000000000000D+00  7 1 -2 -24 -11 11 23 21 2 0.12485486D+00 0.35544747D-01 0.10781255D+06 0.10781255D+06 0.10781255D+06 0.11190510D+01  1  2  3  1  7  1        1 -.105266292149D-03 0.100000000000D+01
0.615621824946D-05 0.000000000000D+00 0.000000000000D+00 0.284464667857D-05 0.000000000000D+00  7 1 -2 -24 -11 11 23 21 2 0.12485486D+00 0.35544747D-01 0.10781255D+06 0.10781255D+06 0.10781255D+06 0.11190510D+01  1  2 15  1  7  1        1 0.135620918011D-03 0.100000000000D+01
  </mgrwgt>
  </event>
  <event>
  9     66 -.29493621E-05 0.18436196E+03 0.75467711E-02 0.10710694E+00
        3 -1    0    0  501    0 0.00000000E+00 0.00000000E+00 0.11664328E+04 0.11664329E+04 0.50000000E+00 0.0000E+00 0.9000E+01
       -4 -1    0    0    0  502 0.00000000E+00 0.00000000E+00 -.66703342E+02 0.66721349E+02 0.15500000E+01 0.0000E+00 0.9000E+01
       25  2    1    2    0    0 -.26971902E+02 -.10537051E+03 0.99941291E+03 0.10491030E+04 0.29993409E+03 0.0000E+00 0.0000E+00
       23  2    3    3    0    0 -.84062940E+02 -.72321534E+02 0.22724558E+03 0.26877660E+03 0.91122568E+02 0.0000E+00 0.0000E+00
      -24  1    1    2    0    0 0.25211725E+02 0.11572211E+03 0.88870804E+02 0.16850067E+03 0.80419002E+02 0.0000E+00 0.9000E+01
      -11  1    4    4    0    0 -.62176307E+02 -.40447059E+02 0.21619165E+03 0.22856222E+03 0.51099893E-03 0.0000E+00 0.9000E+01
       11  1    4    4    0    0 -.21886633E+02 -.31874474E+02 0.11053930E+02 0.40214378E+02 0.51099893E-03 0.0000E+00 0.9000E+01
       23  1    3    3    0    0 0.57091038E+02 -.33048972E+02 0.77216733E+03 0.78032638E+03 0.91188000E+02 0.0000E+00 0.9000E+01
       21  1    1    2  501  502 0.17601767E+01 -.10351607E+02 0.11445729E+02 0.15550602E+02 0.75000000E+00 0.0000E+00 0.9000E+01
#aMCatNLO 2  0  0  2  1 0.10500190D+02 0.00000000D+00  -5  7  0 0.00000000D+00 0.00000000D+00 0.00000000D+00 0.00000000D+00 0.00000000D+00
  <mgrwgt>
 -.1838520368D-04    3    2    0
 0.272986688375416D+03 0.000000000000000D+00 0.000000000000000D+00 0.272986688375416D+03
 0.272986688375416D+03 0.000000000000000D+00 0.000000000000000D+00 -.272986688375416D+03
 0.196523946303945D+03 0.258485909917895D+02 0.111976701635255D+03 -.137649969673565D+03
 0.793620883600461D+02 -.619214101434770D+02 -.419461112982027D+02 0.265443738232767D+02
 0.681842553625436D+02 -.216677127570030D+02 -.331619440090222D+02 -.554967420013738D+02
 0.201903086724298D+03 0.577405319086905D+02 -.368686463280304D+02 0.166602337851662D+03
 0.000000000000000D+00 0.000000000000000D+00 -.000000000000000D+00 -.000000000000000D+00
 0.276221966954420D+03 0.000000000000000D+00 0.000000000000000D+00 0.276221966954420D+03
 0.281691877162013D+03 0.000000000000000D+00 0.000000000000000D+00 -.281691877162013D+03
 0.198600021856573D+03 0.252117250339231D+02 0.115722113257324D+03 -.137649969673565D+03
 0.787810992379503D+02 -.621763073928606D+02 -.404470594043426D+02 0.265443738232767D+02
 0.676379714255312D+02 -.218866327910511D+02 -.318744742837215D+02 -.554967420013738D+02
 0.201055245019275D+03 0.570910384215684D+02 -.330489721484352D+02 0.166602337851662D+03
 0.118395065771039D+02 0.176017672842020D+01 -.103516074208251D+02 -.546991020759339D+01
-.129452381773D-04 0.000000000000D+00 0.000000000000D+00 0.288978881097D-05 0.000000000000D+00  7 3 -4 -24 -11 11 23 21 2 0.17734316D+00 0.10320631D-01 0.35918979D+05 0.35918979D+05 0.35918979D+05 0.11601489D+01  1  2 13  2  7  2       -4 -.804528949555D-04 0.100000000000D+01
-.234890617917D-04 0.000000000000D+00 0.000000000000D+00 0.288978881097D-05 0.000000000000D+00  7 3 -4 -24 -11 11 23 21 2 0.17734316D+00 0.99458474D-02 0.33989333D+05 0.33989333D+05 0.33989333D+05 0.11623384D+01  1  2  8  2  7  2       -4 -.155751918721D-03 0.100000000000D+01
0.360776219993D-04 0.000000000000D+00 0.000000000000D+00 0.288978881097D-05 0.188211219037D-06  7 3 -4 -24 -11 11 23 21 2 0.17944492D+00 0.10263007D-01 0.35918979D+05 0.35918979D+05 0.35918979D+05 0.11601489D+01  1  2  1  2  7  2       -4 0.217819609993D-03 0.100000000000D+01
  </mgrwgt>
  </event>
  <event>
  9     66 -.29493621E-05 0.18441170E+03 0.75467711E-02 0.10679844E+00
        1 -1    0    0  502    0 0.00000000E+00 0.00000000E+00 0.39997655E+03 0.39997668E+03 0.32000000E+00 0.0000E+00 0.9000E+01
       -2 -1    0    0    0  501 0.00000000E+00 0.00000000E+00 -.21114313E+03 0.21114337E+03 0.32000000E+00 0.0000E+00 0.9000E+01
       25  2    1    2    0    0 -.84872215E+02 0.85138956E+02 0.25457228E+03 0.40996374E+03 0.29801223E+03 0.0000E+00 0.0000E+00
       23  2    3    3    0    0 0.29928473E+02 -.15273173E+02 0.20344148E+03 0.22505456E+03 0.90178370E+02 0.0000E+00 0.0000E+00
      -24  1    1    2    0    0 0.87103016E+02 -.10241601E+03 -.82424346E+02 0.17702249E+03 0.80419002E+02 0.0000E+00 0.9000E+01
      -11  1    4    4    0    0 0.10179713E+02 0.37380914E+00 0.19925242E+03 0.19951264E+03 0.51099893E-03 0.0000E+00 0.9000E+01
       11  1    4    4    0    0 0.19748760E+02 -.15646982E+02 0.41890549E+01 0.25541922E+02 0.51099893E-03 0.0000E+00 0.9000E+01
       23  1    3    3    0    0 -.11480069E+03 0.10041213E+03 0.51130800E+02 0.18490918E+03 0.91188000E+02 0.0000E+00 0.9000E+01
       21  1    1    2  502  501 -.22308011E+01 0.17277052E+02 0.16685494E+02 0.24133819E+02 0.75000000E+00 0.0000E+00 0.9000E+01
#aMCatNLO 2  0  0  1  2 0.17420476D+02 0.00000000D+00  -5  7  0 0.00000000D+00 0.00000000D+00 0.00000000D+00 0.00000000D+00 0.00000000D+00
  <mgrwgt>
 -.1335594445D-03    3    2    0
 0.280452515056131D+03 0.000000000000000D+00 0.000000000000000D+00 0.280452515056131D+03
 0.280452515056131D+03 0.000000000000000D+00 0.000000000000000D+00 -.280452515056131D+03
 0.207049649588774D+03 0.862729887976889D+02 -.959876366594574D+02 -.140519345475665D+03
 0.147607930671899D+03 0.959287974137270D+01 0.491869773184213D+01 0.147213736682860D+03
 0.248834101249948D+02 0.196487292576365D+02 -.148722640173089D+02 -.345359247860080D+01
 0.181364039726595D+03 -.115514597796698D+03 0.105941202944924D+03 -.324079872859440D+01
 0.000000000000000D+00 -.000000000000000D+00 0.000000000000000D+00 0.000000000000000D+00
 0.295668020407652D+03 0.000000000000000D+00 0.000000000000000D+00 0.295668020407652D+03
 0.285618701148421D+03 0.000000000000000D+00 0.000000000000000D+00 -.285618701148421D+03
 0.210449225058213D+03 0.871030156425229D+02 -.102416007471006D+03 -.140519345475665D+03
 0.147565749925351D+03 0.101797126495843D+02 0.373809139523815D+00 0.147213736682860D+03
 0.254316511333424D+02 0.197487603094069D+02 -.156469819646277D+02 -.345359247860080D+01
 0.177728859621534D+03 -.114800687498137D+03 0.100412128609680D+03 -.324079872859440D+01
 0.201112358176307D+02 -.223080110337715D+01 0.172770516864301D+02 0.100493192592308D+02
-.291466090395D-04 0.000000000000D+00 0.000000000000D+00 0.139005242084D-06 0.000000000000D+00  7 1 -2 -24 -11 11 23 21 2 0.62050784D-01 0.31895259D-01 0.37474201D+05 0.37474201D+05 0.37474201D+05 0.11584769D+01  1  2 13  1  7  1        1 -.229242977533D-02 0.100000000000D+01
-.599271116878D-05 0.000000000000D+00 0.000000000000D+00 0.139005242084D-06 0.000000000000D+00  7 1 -2 -24 -11 11 23 21 2 0.58366793D-01 0.31895259D-01 0.34007677D+05 0.34007677D+05 0.34007677D+05 0.11623169D+01  1  2  8  1  7  1        1 -.514406627552D-03 0.100000000000D+01
0.347109568342D-04 0.000000000000D+00 0.000000000000D+00 0.139005242084D-06 0.328486067263D-08  7 1 -2 -24 -11 11 23 21 2 0.61533390D-01 0.32482798D-01 0.37474201D+05 0.37474201D+05 0.37474201D+05 0.11584769D+01  1  2  1  1  7  1        1 0.267327695843D-02 0.100000000000D+01
  </mgrwgt>
  </event>
  <event>
  8     66 0.29493621E-05 0.21652421E+03 0.75467711E-02 0.96681204E-01
        1 -1    0    0  501    0 0.00000000E+00 0.00000000E+00 0.34076960E+03 0.34076975E+03 0.32000000E+00 0.0000E+00 0.9000E+01
       -2 -1    0    0    0  501 0.00000000E+00 0.00000000E+00 -.72897444E+03 0.72897451E+03 0.32000000E+00 0.0000E+00 0.9000E+01
       25  2    1    2    0    0 0.28935720E+03 -.10672829E+03 -.56079930E+03 0.70728795E+03 0.30106789E+03 0.0000E+00 0.0000E+00
       23  2    3    3    0    0 0.24906273E+03 0.23888561E+02 -.32404085E+03 0.41909666E+03 0.89647249E+02 0.0000E+00 0.0000E+00
      -24  1    1    2    0    0 -.28935720E+03 0.10672829E+03 0.17259446E+03 0.36245631E+03 0.80419002E+02 0.0000E+00 0.9000E+01
      -11  1    4    4    0    0 0.11615188E+03 -.33112685E+02 -.13630674E+03 0.18211875E+03 0.51099893E-03 0.0000E+00 0.9000E+01
       11  1    4    4    0    0 0.13291085E+03 0.57001246E+02 -.18773411E+03 0.23697792E+03 0.51099893E-03 0.0000E+00 0.9000E+01
       23  1    3    3    0    0 0.40294466E+02 -.13061685E+03 -.23675844E+03 0.28819129E+03 0.91188000E+02 0.0000E+00 0.9000E+01
#aMCatNLO 1  0  0  1  2 0.81417557D+02 0.00000000D+00  -5  7  0 0.00000000D+00 0.00000000D+00 0.00000000D+00 0.00000000D+00 0.00000000D+00
  <mgrwgt>
 0.9984341389D-03    9    2    0
 0.498409917647045D+03 0.000000000000000D+00 0.000000000000000D+00 0.498409917647045D+03
 0.498409917647045D+03 0.000000000000000D+00 0.000000000000000D+00 -.498409917647045D+03
 0.456188316875174D+03 -.289357199470190D+03 0.106728289036434D+03 0.326377155960949D+03
 0.142358268908019D+03 0.116151881462913D+03 -.331126852225649D+02 -.753536146210955D+02
 0.181202729302525D+03 0.132910851686574D+03 0.570012463689163D+02 -.109178718269743D+03
 0.217070520208372D+03 0.402944663207039D+02 -.130616850182785D+03 -.141844823070110D+03
 0.000000000000000D+00 0.000000000000000D+00 0.000000000000000D+00 0.000000000000000D+00
 0.600447858820256D+03 0.000000000000000D+00 0.000000000000000D+00 0.600447858820256D+03
 0.516579250900507D+03 0.000000000000000D+00 0.000000000000000D+00 -.516579250900507D+03
 0.478787788141263D+03 -.326508025891543D+03 0.981885493022566D+02 0.326377155960949D+03
 0.134192367313286D+03 0.105163274772486D+03 -.356386005309669D+02 -.753536146210955D+02
 0.170183266630594D+03 0.118948697924819D+03 0.537918114588651D+02 -.109178718269743D+03
 0.216975869543605D+03 0.230478415160975D+02 -.134581275777358D+03 -.141844823070110D+03
 0.116887818092015D+03 0.793482116781404D+02 0.182395155472032D+02 0.838686079197482D+02
0.146433388272D-03 0.000000000000D+00 0.000000000000D+00 0.118005064861D-05 0.000000000000D+00  7 1 -2 -24 -11 11 23 21 0 0.52426109D-01 0.11214993D+00 0.14004013D+06 0.14004013D+06 0.14004013D+06 0.11099143D+01  1  2  2  1  7  1        1 0.776337174583D-03 0.100000000000D+01
-.732283855958D-05 0.000000000000D+00 -.562342767760D-06 0.118005064861D-05 0.000000000000D+00  7 1 -2 -24 -11 11 23 21 2 0.52426109D-01 0.11214993D+00 0.14004013D+06 0.14004013D+06 0.14004013D+06 0.11099143D+01  1  2  3  1  7  1        1 -.478265046273D-04 0.100000000000D+01
0.934590068985D-05 0.000000000000D+00 0.000000000000D+00 0.118005064861D-05 0.000000000000D+00  7 1 -2 -24 -11 11 23 21 2 0.52426109D-01 0.11214993D+00 0.14004013D+06 0.14004013D+06 0.14004013D+06 0.11099143D+01  1  2 15  1  7  1        1 0.610394123744D-04 0.100000000000D+01
0.334223857568D-03 0.000000000000D+00 0.000000000000D+00 0.118005064861D-05 0.000000000000D+00  7 1 -2 -24 -11 11 23 21 2 0.63978753D-01 0.11214993D+00 0.17535178D+06 0.17535178D+06 0.17535178D+06 0.11022395D+01  1  2 12  1  7  1        1 0.163641859810D-02 0.100000000000D+01
-.344960058058D-03 0.000000000000D+00 0.000000000000D+00 0.118005064861D-05 0.000000000000D+00  7 1 -2 -24 -11 11 23 21 2 0.52426109D-01 0.11214993D+00 0.14004013D+06 0.14004013D+06 0.14004013D+06 0.11099143D+01  1  2  4  1  7  1        1 -.225298341329D-02 0.100000000000D+01
-.507078018238D-03 0.000000000000D+00 -.103005401173D-03 0.118005064861D-05 0.000000000000D+00  7 1 -2 -24 -11 11 23 21 2 0.64825031D-01 0.11214993D+00 0.14004013D+06 0.14004013D+06 0.14004013D+06 0.11099143D+01  1  2  5  1  7  1        1 -.249253146468D-02 0.100000000000D+01
0.519473671951D-03 0.000000000000D+00 0.100727189017D-03 0.118005064861D-05 0.000000000000D+00  7 1 -2 -24 -11 11 23 21 2 0.52426109D-01 0.11214993D+00 0.14004013D+06 0.14004013D+06 0.14004013D+06 0.11099143D+01  1  2  6  1  7  1        1 0.339275675316D-02 0.100000000000D+01
0.953308324239D-05 0.000000000000D+00 0.000000000000D+00 0.118005064861D-05 0.000000000000D+00  7 21 -2 -24 -11 11 23 -1 2 0.63978753D-01 0.11214993D+00 0.17535178D+06 0.17535178D+06 0.17535178D+06 0.11022395D+01  1  2 12  3  7  1        1 0.164716716347D-03 0.100000000000D+01
-.138724516992D-04 0.000000000000D+00 -.308482587138D-05 0.118005064861D-05 0.000000000000D+00  7 21 -2 -24 -11 11 23 -1 2 0.64825031D-01 0.11214993D+00 0.14004013D+06 0.14004013D+06 0.14004013D+06 0.11099143D+01  1  2  5  3  7  1        1 -.239493133053D-03 0.100000000000D+01
  </mgrwgt>
  </event>
  <event>
  8     66 0.29493621E-05 0.28910901E+03 0.75467711E-02 0.89717265E-01
        1 -1    0    0  501    0 0.00000000E+00 0.00000000E+00 0.48051124E+03 0.48051135E+03 0.32000000E+00 0.0000E+00 0.9000E+01
       -2 -1    0    0    0  501 0.00000000E+00 0.00000000E+00 -.39607353E+03 0.39607366E+03 0.32000000E+00 0.0000E+00 0.9000E+01
       25  2    1    2    0    0 -.19976676E+03 -.12626658E+03 0.34582444E+03 0.51514310E+03 0.29987975E+03 0.0000E+00 0.0000E+00
       23  2    3    3    0    0 0.85613585E+01 -.80545397E+02 0.32989992E+02 0.12569262E+03 0.90274240E+02 0.0000E+00 0.0000E+00
      -24  1    1    2    0    0 0.19976676E+03 0.12626658E+03 -.26138674E+03 0.36144190E+03 0.80419002E+02 0.0000E+00 0.9000E+01
      -13  1    4    4    0    0 -.90057344E+01 -.78410005E+02 -.96622963E+01 0.79514799E+02 0.10565837E+00 0.0000E+00 0.9000E+01
       13  1    4    4    0    0 0.17567093E+02 -.21353917E+01 0.42652289E+02 0.46177825E+02 0.10565837E+00 0.0000E+00 0.9000E+01
       23  1    3    3    0    0 -.20832812E+03 -.45721181E+02 0.31283445E+03 0.38945048E+03 0.91188000E+02 0.0000E+00 0.9000E+01
#aMCatNLO 1  0  0  1  2 0.71403578D+03 0.00000000D+00  -5  7  0 0.00000000D+00 0.00000000D+00 0.00000000D+00 0.00000000D+00 0.00000000D+00
  <mgrwgt>
 0.1377839583D-02    3    2    0
 0.436254384731515D+03 0.000000000000000D+00 0.000000000000000D+00 0.436254384731515D+03
 0.436254384731515D+03 0.000000000000000D+00 0.000000000000000D+00 -.436254384731515D+03
 0.388426413041593D+03 0.199766763208460D+03 0.126266578121849D+03 -.297586716707251D+03
 0.808214100594809D+02 -.900577070841853D+01 -.784101094310269D+02 -.174026192558630D+02
 0.422658006857034D+02 0.175671292401787D+02 -.213528726901942D+01 0.383827360429299D+02
 0.360995145676252D+03 -.208328121740220D+03 -.457211814218029D+02 0.276606599920184D+03
 0.000000000000000D+00 0.000000000000000D+00 0.000000000000000D+00 -.000000000000000D+00
 0.862522906775421D+03 0.000000000000000D+00 0.000000000000000D+00 0.862522906775421D+03
 0.990293498999258D+03 0.000000000000000D+00 0.000000000000000D+00 -.990293498999258D+03
 0.343810152274191D+03 0.995545965436800D+02 -.115192157714210D+03 -.297586716707251D+03
 0.166527925045949D+03 -.428574164307515D+02 -.159974812142493D+03 -.174026192558630D+02
 0.507181744205896D+02 0.484156205071851D+01 -.327972265187953D+02 0.383827360429299D+02
 0.566382724144647D+03 -.335246866383410D+03 -.351528756044524D+03 0.276606599920184D+03
 0.725377429889302D+03 0.273708124219763D+03 0.659492952420022D+03 -.127770592223836D+03
0.100242443295D-03 0.000000000000D+00 0.000000000000D+00 0.783696879401D-05 0.000000000000D+00  7 1 -2 -24 -13 13 23 21 0 0.73924824D-01 0.60934408D-01 0.83584018D+05 0.83584018D+05 0.83584018D+05 0.11281693D+01  1  2  2  1  7  1        1 0.134761843776D-02 0.100000000000D+01
-.442289149803D-05 0.000000000000D+00 -.384957376694D-06 0.783696879401D-05 0.000000000000D+00  7 1 -2 -24 -13 13 23 21 2 0.73924824D-01 0.60934408D-01 0.83584018D+05 0.83584018D+05 0.83584018D+05 0.11281693D+01  1  2  3  1  7  1        1 -.756780873821D-04 0.100000000000D+01
0.618912070151D-05 0.000000000000D+00 0.000000000000D+00 0.783696879401D-05 0.000000000000D+00  7 1 -2 -24 -13 13 23 21 2 0.73924824D-01 0.60934408D-01 0.83584018D+05 0.83584018D+05 0.83584018D+05 0.11281693D+01  1  2 15  1  7  1        1 0.105899232996D-03 0.100000000000D+01
  </mgrwgt>
  </event>
  <event>
  9     66 0.29493621E-05 0.24147057E+03 0.75467711E-02 0.10004469E+00
        1 -1    0    0  501    0 0.00000000E+00 0.00000000E+00 0.66877708E+03 0.66877716E+03 0.32000000E+00 0.0000E+00 0.9000E+01
       21 -1    0    0  502  501 0.00000000E+00 0.00000000E+00 -.17040392E+03 0.17040557E+03 0.75000000E+00 0.0000E+00 0.9000E+01
       25  2    1    2    0    0 -.18950574E+03 0.14731820E+03 0.26387048E+03 0.46666921E+03 0.30089441E+03 0.0000E+00 0.0000E+00
       23  2    3    3    0    0 -.19625569E+03 0.17107958E+03 0.14594351E+03 0.31556598E+03 0.10245905E+03 0.0000E+00 0.0000E+00
      -24  1    1    2    0    0 0.10988188E+03 -.39795069E+02 0.63597760E+02 0.15546564E+03 0.80419002E+02 0.0000E+00 0.9000E+01
      -11  1    4    4    0    0 -.15333341E+03 0.98582787E+02 0.52393171E+02 0.18967009E+03 0.51099893E-03 0.0000E+00 0.9000E+01
       11  1    4    4    0    0 -.42922288E+02 0.72496794E+02 0.93550337E+02 0.12589588E+03 0.51099893E-03 0.0000E+00 0.9000E+01
       23  1    3    3    0    0 0.67499554E+01 -.23761385E+02 0.11792697E+03 0.15110323E+03 0.91188000E+02 0.0000E+00 0.9000E+01
        2  1    1    2  502    0 0.79623858E+02 -.10752313E+03 0.17090493E+03 0.21704787E+03 0.32000000E+00 0.0000E+00 0.9000E+01
#aMCatNLO 2  0  0  2  2 0.13379530D+03 0.00000000D+00  -5  7  0 0.00000000D+00 0.00000000D+00 0.00000000D+00 0.00000000D+00 0.00000000D+00
  <mgrwgt>
 0.2255628513D-03    1    2    0
 0.255888230790942D+03 0.000000000000000D+00 0.000000000000000D+00 0.255888230790942D+03
 0.255888230790942D+03 0.000000000000000D+00 0.000000000000000D+00 -.255888230790942D+03
 0.173752537035414D+03 0.134151606531304D+03 -.725686229085940D+02 -.214445705504407D+02
 0.152477408877810D+03 -.127082988217816D+03 0.631345290747058D+02 -.557970031653710D+02
 0.712747368678598D+02 -.305720082673562D+02 0.558191207987137D+02 0.320884119167959D+02
 0.114271778800801D+03 0.235033899538679D+02 -.463850269648255D+02 0.451531617990158D+02
 0.000000000000000D+00 0.000000000000000D+00 -.000000000000000D+00 0.000000000000000D+00
 0.372542753713394D+03 0.000000000000000D+00 0.000000000000000D+00 0.372542753713394D+03
 0.305905393764793D+03 0.000000000000000D+00 0.000000000000000D+00 -.305905393764793D+03
 0.143473903159450D+03 0.109881881126678D+03 -.397950691343328D+02 -.214445705504407D+02
 0.190638414862852D+03 -.153333406748669D+03 0.985827877168825D+02 -.557970031653710D+02
 0.901541685934934D+02 -.429222877885390D+02 0.724967940424947D+02 0.320884119167959D+02
 0.104710193748724D+03 0.674995559614020D+01 -.237613848480550D+02 0.451531617990158D+02
 0.149471467113668D+03 0.796238578143895D+02 -.107523127776989D+03 0.666373599486009D+02
0.363756268295D-06 0.000000000000D+00 0.000000000000D+00 0.596272869972D-08 0.983242575947D-13  7 1 21 -24 -11 11 23 2 2 0.10288886D+00 0.26216106D-01 0.10133793D+06 0.10133793D+06 0.10133793D+06 0.11212487D+01  1  2  1  4  7  2       -2 0.225562851337D-03 0.100000000000D+01
  </mgrwgt>
  </event>
  <event>
  8     66 0.29493621E-05 0.26619715E+03 0.75467711E-02 0.86438720E-01
        1 -1    0    0  501    0 0.00000000E+00 0.00000000E+00 0.66856317E+03 0.66856324E+03 0.32000000E+00 0.0000E+00 0.9000E+01
       -2 -1    0    0    0  501 0.00000000E+00 0.00000000E+00 -.30066482E+03 0.30066499E+03 0.32000000E+00 0.0000E+00 0.9000E+01
       25  2    1    2    0    0 -.16428541E+03 0.10347741E+03 0.57325386E+03 0.67539942E+03 0.29974508E+03 0.0000E+00 0.0000E+00
       23  2    3    3    0    0 -.33616933E+02 -.43542951E+02 0.34410233E+03 0.35993958E+03 0.90133227E+02 0.0000E+00 0.0000E+00
      -24  1    1    2    0    0 0.16428541E+03 -.10347741E+03 -.20535551E+03 0.29382881E+03 0.80419002E+02 0.0000E+00 0.9000E+01
      -13  1    4    4    0    0 0.30951892E+02 -.91395887E+01 0.96444861E+02 0.10170140E+03 0.10565837E+00 0.0000E+00 0.9000E+01
       13  1    4    4    0    0 -.64568825E+02 -.34403362E+02 0.24765747E+03 0.25823818E+03 0.10565837E+00 0.0000E+00 0.9000E+01
       23  1    3    3    0    0 -.13066848E+03 0.14702036E+03 0.22915153E+03 0.31545984E+03 0.91188000E+02 0.0000E+00 0.9000E+01
#aMCatNLO 1  0  0  1  2 0.10855294D+04 0.00000000D+00  -5  7  0 0.00000000D+00 0.00000000D+00 0.00000000D+00 0.00000000D+00 0.00000000D+00
  <mgrwgt>
 0.1132620725D-02    5    2    0
 0.448345338810279D+03 0.000000000000000D+00 0.000000000000000D+00 0.448345338810279D+03
 0.448345338810279D+03 0.000000000000000D+00 0.000000000000000D+00 -.448345338810279D+03
 0.401852216068623D+03 0.164285409889950D+03 -.103477406103480D+03 -.342521120703935D+03
 0.703585187494827D+02 0.309520231771957D+02 -.913955403250233D+01 0.625200925618846D+02
 0.177518397724089D+03 -.645689559794115D+02 -.344033968574221D+02 0.161740649618231D+03
 0.246961545078364D+03 -.130668477087734D+03 0.147020356993404D+03 0.118260378523819D+03
 0.000000000000000D+00 0.000000000000000D+00 -.000000000000000D+00 0.000000000000000D+00
 0.192682091179724D+04 0.000000000000000D+00 0.000000000000000D+00 0.192682091179724D+04
 0.944905494846894D+03 0.000000000000000D+00 0.000000000000000D+00 -.944905494846894D+03
 0.396893002027508D+03 -.170768101170812D+03 0.676341378171799D+02 -.342521120703935D+03
 0.720744774920836D+02 -.287950330811085D+02 0.213732169237136D+02 0.625200925618846D+02
 0.329411600771799D+03 -.277213328690550D+03 0.741939039302861D+02 0.161740649618231D+03
 0.609608258125383D+03 -.489977945901980D+03 0.330519397965902D+03 0.118260378523819D+03
 0.146373906822736D+04 0.966754408844450D+03 -.493720656637082D+03 0.981915416950346D+03
0.745104563737D-04 0.000000000000D+00 0.000000000000D+00 0.580487547062D-05 0.000000000000D+00  7 1 -2 -24 -13 13 23 21 0 0.10285589D+00 0.46256145D-01 0.70860925D+05 0.70860925D+05 0.70860925D+05 0.11342086D+01  1  2  2  1  7  1        1 0.108912476496D-02 0.100000000000D+01
-.277159631230D-05 0.000000000000D+00 -.286139771529D-06 0.580487547062D-05 0.000000000000D+00  7 1 -2 -24 -13 13 23 21 2 0.10285589D+00 0.46256145D-01 0.70860925D+05 0.70860925D+05 0.70860925D+05 0.11342086D+01  1  2  3  1  7  1        1 -.521166215526D-04 0.100000000000D+01
0.465147344427D-05 0.000000000000D+00 0.000000000000D+00 0.580487547062D-05 0.000000000000D+00  7 1 -2 -24 -13 13 23 21 2 0.10285589D+00 0.46256145D-01 0.70860925D+05 0.70860925D+05 0.70860925D+05 0.11342086D+01  1  2 15  1  7  1        1 0.874655086246D-04 0.100000000000D+01
0.628339942456D-04 0.000000000000D+00 -.322788149879D-04 0.580487547062D-05 0.000000000000D+00  7 1 -2 -24 -13 13 23 21 2 0.56697809D+00 0.46256145D-01 0.70860925D+05 0.70860925D+05 0.70860925D+05 0.11342086D+01  1  2  5  1  7  1        1 0.797765468666D-05 0.100000000000D+01
0.116016957137D-04 0.000000000000D+00 -.674383235579D-05 0.580487547062D-05 0.000000000000D+00  7 21 -2 -24 -13 13 23 -1 2 0.56697809D+00 0.46256145D-01 0.70860925D+05 0.70860925D+05 0.70860925D+05 0.11342086D+01  1  2  5  3  7  1        1 0.169418601779D-06 0.100000000000D+01
  </mgrwgt>
  </event>
  <event>
  8     66 0.29493621E-05 0.16717457E+03 0.75467711E-02 0.98331072E-01
        3 -1    0    0  501    0 0.00000000E+00 0.00000000E+00 0.10289605E+04 0.10289606E+04 0.50000000E+00 0.0000E+00 0.9000E+01
       -4 -1    0    0    0  501 0.00000000E+00 0.00000000E+00 -.27953981E+03 0.27954411E+03 0.15500000E+01 0.0000E+00 0.9000E+01
       25  2    1    2    0    0 0.25131249E+03 -.78100648E+02 0.90758445E+03 0.99110806E+03 0.29887786E+03 0.0000E+00 0.0000E+00
       23  2    3    3    0    0 0.50504638E+02 -.13483743E+03 0.40844607E+03 0.44247592E+03 0.90691199E+02 0.0000E+00 0.0000E+00
      -24  1    1    2    0    0 -.25131249E+03 0.78100648E+02 -.15816373E+03 0.31739669E+03 0.80419002E+02 0.0000E+00 0.9000E+01
      -13  1    4    4    0    0 0.16074166E+02 0.10357309E+02 0.28940395E+02 0.34687321E+02 0.10565837E+00 0.0000E+00 0.9000E+01
       13  1    4    4    0    0 0.34430472E+02 -.14519474E+03 0.37950567E+03 0.40778859E+03 0.10565837E+00 0.0000E+00 0.9000E+01
       23  1    3    3    0    0 0.20080785E+03 0.56736780E+02 0.49913838E+03 0.54863215E+03 0.91188000E+02 0.0000E+00 0.9000E+01
#aMCatNLO 1  0  0  2  1 0.57094660D+02 0.00000000D+00  -5  7  0 0.00000000D+00 0.00000000D+00 0.00000000D+00 0.00000000D+00 0.00000000D+00
  <mgrwgt>
 0.5874784270D-04    9    2    0
 0.536319234081617D+03 0.000000000000000D+00 0.000000000000000D+00 0.536319234081617D+03
 0.536319234081617D+03 0.000000000000000D+00 0.000000000000000D+00 -.536319234081617D+03
 0.497694496888618D+03 -.251312491972081D+03 0.781006477090178D+02 -.414698585101346D+03
 0.220947580502603D+02 0.160741406063486D+02 0.103575202313405D+02 0.110689706713971D+02
 0.232309592196656D+03 0.344304971091157D+02 -.145194947890743D+03 0.178046944939811D+03
 0.320539621027700D+03 0.200807854256616D+03 0.567367799503846D+02 0.225582669490138D+03
 0.000000000000000D+00 0.000000000000000D+00 0.000000000000000D+00 -.000000000000000D+00
 0.548442995421879D+03 0.000000000000000D+00 0.000000000000000D+00 0.548442995421879D+03
 0.608788382870987D+03 0.000000000000000D+00 0.000000000000000D+00 -.608788382870987D+03
 0.494934704552786D+03 -.252668932971583D+03 0.517362507563739D+02 -.414698585101346D+03
 0.215314893436630D+02 0.160145247593298D+02 0.919879983284981D+01 0.110689706713971D+02
 0.240262551653001D+03 0.337847209923043D+02 -.157746542757308D+03 0.178046944939811D+03
 0.317428172045651D+03 0.199936062786418D+03 0.397922490871337D+02 0.225582669490138D+03
 0.830744606977648D+02 0.293362443353165D+01 0.570192430809503D+02 -.603453874491080D+02
0.138879757285D-03 0.000000000000D+00 0.000000000000D+00 0.466955859892D-05 0.000000000000D+00  7 3 -4 -24 -13 13 23 21 0 0.15830196D+00 0.43006464D-01 0.11264377D+06 0.11264377D+06 0.11264377D+06 0.11175034D+01  1  2  2  2  7  2       -4 0.629028837146D-04 0.100000000000D+01
-.565440918415D-05 0.000000000000D+00 -.533334835854D-06 0.466955859892D-05 0.000000000000D+00  7 3 -4 -24 -13 13 23 21 2 0.15830196D+00 0.43006464D-01 0.11264377D+06 0.11264377D+06 0.11264377D+06 0.11175034D+01  1  2  3  2  7  2       -4 -.319828053749D-05 0.100000000000D+01
0.858351309444D-05 0.000000000000D+00 0.000000000000D+00 0.466955859892D-05 0.000000000000D+00  7 3 -4 -24 -13 13 23 21 2 0.15830196D+00 0.43006464D-01 0.11264377D+06 0.11264377D+06 0.11264377D+06 0.11175034D+01  1  2 15  2  7  2       -4 0.485505770439D-05 0.100000000000D+01
0.467309456530D-03 0.000000000000D+00 0.000000000000D+00 0.466955859892D-05 0.000000000000D+00  7 3 -4 -24 -13 13 23 21 2 0.15830196D+00 0.49260470D-01 0.13335935D+06 0.13335935D+06 0.13335935D+06 0.11116046D+01  1  2 12  2  7  2       -4 0.193651089491D-03 0.100000000000D+01
-.477923495834D-03 0.000000000000D+00 0.000000000000D+00 0.466955859892D-05 0.000000000000D+00  7 3 -4 -24 -13 13 23 21 2 0.15830196D+00 0.43006464D-01 0.11264377D+06 0.11264377D+06 0.11264377D+06 0.11175034D+01  1  2  4  2  7  2       -4 -.270325928909D-03 0.100000000000D+01
-.736030853623D-03 0.000000000000D+00 -.131926106198D-03 0.466955859892D-05 0.000000000000D+00  7 3 -4 -24 -13 13 23 21 2 0.15830196D+00 0.49654753D-01 0.11264377D+06 0.11264377D+06 0.11264377D+06 0.11175034D+01  1  2  5  2  7  2       -4 -.303754394090D-03 0.100000000000D+01
0.748598517337D-03 0.000000000000D+00 0.130574797559D-03 0.466955859892D-05 0.000000000000D+00  7 3 -4 -24 -13 13 23 21 2 0.15830196D+00 0.43006464D-01 0.11264377D+06 0.11264377D+06 0.11264377D+06 0.11175034D+01  1  2  6  2  7  2       -4 0.423426743700D-03 0.100000000000D+01
0.982648885049D-05 0.000000000000D+00 0.000000000000D+00 0.466955859892D-05 0.000000000000D+00  7 3 21 -24 -13 13 23 4 2 0.15830196D+00 0.49260470D-01 0.13335935D+06 0.13335935D+06 0.13335935D+06 0.11116046D+01  1  2 12  4  7  2       -4 0.853588904998D-04 0.100000000000D+01
-.153702529974D-04 0.000000000000D+00 -.290696012072D-05 0.466955859892D-05 0.000000000000D+00  7 3 21 -24 -13 13 23 4 2 0.15830196D+00 0.49654753D-01 0.11264377D+06 0.11264377D+06 0.11264377D+06 0.11175034D+01  1  2  5  4  7  2       -4 -.134168218870D-03 0.100000000000D+01
  </mgrwgt>
  </event>
  <event>
  8     66 0.29493621E-05 0.13632387E+04 0.75467711E-02 0.83607257E-01
        1 -1    0    0  501    0 0.00000000E+00 0.00000000E+00 0.24270390E+04 0.24270390E+04 0.32000000E+00 0.0000E+00 0.9000E+01
       -2 -1    0    0    0  501 0.00000000E+00 0.00000000E+00 -.16225049E+04 0.16225050E+04 0.32000000E+00 0.0000E+00 0.9000E+01
       25  2    1    2    0    0 0.43916535E+03 -.12793051E+04 -.10596525E+04 0.17449516E+04 0.30414647E+03 0.0000E+00 0.0000E+00
       23  2    3    3    0    0 0.31636304E+03 -.65701907E+03 -.45942844E+03 0.86693998E+03 0.93545758E+02 0.0000E+00 0.0000E+00
      -24  1    1    2    0    0 -.43916535E+03 0.12793051E+04 0.18641865E+04 0.23045924E+04 0.80419002E+02 0.0000E+00 0.9000E+01
      -13  1    4    4    0    0 0.21053807E+03 -.38483121E+03 -.32216766E+03 0.54425486E+03 0.10565837E+00 0.0000E+00 0.9000E+01
       13  1    4    4    0    0 0.10582497E+03 -.27218786E+03 -.13726078E+03 0.32268512E+03 0.10565837E+00 0.0000E+00 0.9000E+01
       23  1    3    3    0    0 0.12280231E+03 -.62228598E+03 -.60022401E+03 0.87801160E+03 0.91188000E+02 0.0000E+00 0.9000E+01
#aMCatNLO 1  0  0  1  2 0.26952940D+03 0.00000000D+00  -5  7  0 0.00000000D+00 0.00000000D+00 0.00000000D+00 0.00000000D+00 0.00000000D+00
  <mgrwgt>
 0.2186587735D-03    4    2    0
 0.198440994739567D+04 0.000000000000000D+00 0.000000000000000D+00 0.198440994739567D+04
 0.198440994739567D+04 0.000000000000000D+00 0.000000000000000D+00 -.198440994739567D+04
 0.197357072295273D+04 -.439165352805071D+03 0.127930505085230D+04 0.143493085627886D+04
 0.620632892204547D+03 0.210538203286118D+03 -.384831352852534D+03 -.439048609728948D+03
 0.357072694380799D+03 0.105824837819345D+03 -.272187713557091D+03 -.205464988164494D+03
 0.101754358525327D+04 0.122802311699608D+03 -.622285984442672D+03 -.790417258385423D+03
 0.000000000000000D+00 0.000000000000000D+00 0.000000000000000D+00 -.000000000000000D+00
 0.204937014884241D+04 0.000000000000000D+00 0.000000000000000D+00 0.204937014884241D+04
 0.228972092774256D+04 0.000000000000000D+00 0.000000000000000D+00 -.228972092774256D+04
 0.198316895475599D+04 -.568299109806155D+03 0.124277972571406D+04 0.143493085627886D+04
 0.615417246756527D+03 0.170197970850563D+03 -.396241538229919D+03 -.439048609728948D+03
 0.356010725516508D+03 0.825523588171774D+02 -.278770305762782D+03 -.205464988164494D+03
 0.102336454254708D+04 0.561944082983098D+02 -.641125948407231D+03 -.790417258385423D+03
 0.361129607008860D+03 0.259354371840105D+03 0.733580666858686D+02 -.240350778900152D+03
0.326473407903D-01 0.000000000000D+00 0.000000000000D+00 0.938720611854D-06 0.000000000000D+00  7 1 -2 -24 -13 13 23 21 0 0.37339061D+00 0.24961615D+00 0.18584197D+07 0.18584197D+07 0.18584197D+07 0.10304044D+01  1  2  2  1  7  1        1 0.282694279882D-03 0.100000000000D+01
-.150287005214D-02 0.000000000000D+00 -.125374384877D-03 0.938720611854D-06 0.000000000000D+00  7 1 -2 -24 -13 13 23 21 2 0.37339061D+00 0.24961615D+00 0.18584197D+07 0.18584197D+07 0.18584197D+07 0.10304044D+01  1  2  3  1  7  1        1 -.138167541420D-04 0.100000000000D+01
0.208481647144D-02 0.000000000000D+00 0.000000000000D+00 0.938720611854D-06 0.000000000000D+00  7 1 -2 -24 -13 13 23 21 2 0.37339061D+00 0.24961615D+00 0.18584197D+07 0.18584197D+07 0.18584197D+07 0.10304044D+01  1  2 15  1  7  1        1 0.191669243632D-04 0.100000000000D+01
-.754718904223D-02 0.000000000000D+00 0.000000000000D+00 0.938720611854D-06 0.000000000000D+00  7 1 -2 -24 -13 13 23 21 2 0.37339061D+00 0.24961615D+00 0.18584197D+07 0.18584197D+07 0.18584197D+07 0.10304044D+01  1  2  4  1  7  1        1 -.693856766334D-04 0.100000000000D+01
  </mgrwgt>
  </event>
  <event>
  8     66 0.29493621E-05 0.12545832E+03 0.75467711E-02 0.10122367E+00
        1 -1    0    0  501    0 0.00000000E+00 0.00000000E+00 0.71542435E+02 0.71543151E+02 0.32000000E+00 0.0000E+00 0.9000E+01
       -2 -1    0    0    0  501 0.00000000E+00 0.00000000E+00 -.11962323E+04 0.11962323E+04 0.32000000E+00 0.0000E+00 0.9000E+01
       25  2    1    2    0    0 -.10524935E+03 0.16678347E+03 -.57015175E+03 0.67374360E+03 0.29993878E+03 0.0000E+00 0.0000E+00
       23  2    3    3    0    0 -.13880033E+03 0.48992722E+02 -.43525470E+03 0.46999672E+03 0.98916332E+02 0.0000E+00 0.0000E+00
      -24  1    1    2    0    0 0.10524935E+03 -.16678347E+03 -.55453812E+03 0.59403189E+03 0.80419002E+02 0.0000E+00 0.9000E+01
      -11  1    4    4    0    0 -.10274275E+03 -.11521375E+02 -.21152033E+03 0.23543506E+03 0.51099893E-03 0.0000E+00 0.9000E+01
       11  1    4    4    0    0 -.36057579E+02 0.60514097E+02 -.22373437E+03 0.23456166E+03 0.51099893E-03 0.0000E+00 0.9000E+01
       23  1    3    3    0    0 0.33550980E+02 0.11779075E+03 -.13489704E+03 0.20374688E+03 0.91188000E+02 0.0000E+00 0.9000E+01
#aMCatNLO 1  0  0  2  1 0.41584591D+02 0.00000000D+00  -5  7  0 0.00000000D+00 0.00000000D+00 0.00000000D+00 0.00000000D+00 0.00000000D+00
  <mgrwgt>
 0.9130021730D-03    9    2    0
 0.292543761677930D+03 0.000000000000000D+00 0.000000000000000D+00 0.292543761677930D+03
 0.292543761677930D+03 0.000000000000000D+00 0.000000000000000D+00 -.292543761677930D+03
 0.221190284833665D+03 0.105249345087170D+03 -.166783469163660D+03 -.596973694804383D+02
 0.103546932913468D+03 -.102742745904790D+03 -.115213751744713D+02 -.575789838562391D+01
 0.781759081655789D+02 -.360575792003436D+02 0.605140970138062D+02 -.339023253233111D+02
 0.182174397443147D+03 0.335509800179639D+02 0.117790747324325D+03 0.993575931893733D+02
 0.000000000000000D+00 0.000000000000000D+00 0.000000000000000D+00 -.000000000000000D+00
 0.297627592776335D+03 0.000000000000000D+00 0.000000000000000D+00 0.297627592776335D+03
 0.392760104358211D+03 0.000000000000000D+00 0.000000000000000D+00 -.392760104358211D+03
 0.232707348545706D+03 0.103477060895726D+03 -.182795558092368D+03 -.596973694804383D+02
 0.105425388866187D+03 -.103558697157018D+03 -.188932651203656D+02 -.575789838562391D+01
 0.743801675614111D+02 -.366532481385284D+02 0.551323957853406D+02 -.339023253233111D+02
 0.174050551286926D+03 0.321600676209730D+02 0.105224245236125D+03 0.993575931893733D+02
 0.103824240874316D+03 0.457481677884788D+01 0.413321821912683D+02 -.951325115818764D+02
0.589797720913D-04 0.000000000000D+00 0.000000000000D+00 0.701685263846D-07 0.000000000000D+00  7 1 -2 -24 -11 11 23 21 0 0.11006587D-01 0.18403580D+00 0.72766522D+05 0.72766522D+05 0.72766522D+05 0.11332314D+01  1  2  2  2  7  2       -2 0.643736269177D-03 0.100000000000D+01
-.325044525617D-05 0.000000000000D+00 -.226497854561D-06 0.701685263846D-07 0.000000000000D+00  7 1 -2 -24 -11 11 23 21 2 0.11006587D-01 0.18403580D+00 0.72766522D+05 0.72766522D+05 0.72766522D+05 0.11332314D+01  1  2  3  2  7  2       -2 -.455601265980D-04 0.100000000000D+01
0.382434734101D-05 0.000000000000D+00 0.000000000000D+00 0.701685263846D-07 0.000000000000D+00  7 1 -2 -24 -11 11 23 21 2 0.11006587D-01 0.18403580D+00 0.72766522D+05 0.72766522D+05 0.72766522D+05 0.11332314D+01  1  2 15  2  7  2       -2 0.536042711934D-04 0.100000000000D+01
0.237453779901D-03 0.000000000000D+00 0.000000000000D+00 0.701685263846D-07 0.000000000000D+00  7 1 -2 -24 -11 11 23 21 2 0.11006587D-01 0.24828077D+00 0.84355799D+05 0.84355799D+05 0.84355799D+05 0.11278361D+01  1  2 12  2  7  2       -2 0.124225765723D-02 0.100000000000D+01
-.233275373049D-03 0.000000000000D+00 0.000000000000D+00 0.701685263846D-07 0.000000000000D+00  7 1 -2 -24 -11 11 23 21 2 0.11006587D-01 0.18403580D+00 0.72766522D+05 0.72766522D+05 0.72766522D+05 0.11332314D+01  1  2  4  2  7  2       -2 -.326972297353D-02 0.100000000000D+01
-.271951700520D-03 0.000000000000D+00 -.254876513782D-04 0.701685263846D-07 0.000000000000D+00  7 1 -2 -24 -11 11 23 21 2 0.11006587D-01 0.24859142D+00 0.72766522D+05 0.72766522D+05 0.72766522D+05 0.11332314D+01  1  2  5  2  7  2       -2 -.143605440141D-02 0.100000000000D+01
0.268496690877D-03 0.000000000000D+00 0.243773613091D-04 0.701685263846D-07 0.000000000000D+00  7 1 -2 -24 -11 11 23 21 2 0.11006587D-01 0.18403580D+00 0.72766522D+05 0.72766522D+05 0.72766522D+05 0.11332314D+01  1  2  6  2  7  2       -2 0.376340539940D-02 0.100000000000D+01
0.916623057339D-05 0.000000000000D+00 0.000000000000D+00 0.701685263846D-07 0.000000000000D+00  7 1 21 -24 -11 11 23 2 2 0.11006587D-01 0.24828077D+00 0.84355799D+05 0.84355799D+05 0.84355799D+05 0.11278361D+01  1  2 12  4  7  2       -2 0.376365253592D-03 0.100000000000D+01
-.995609902937D-05 0.000000000000D+00 -.986845598927D-06 0.701685263846D-07 0.000000000000D+00  7 1 21 -24 -11 11 23 2 2 0.11006587D-01 0.24859142D+00 0.72766522D+05 0.72766522D+05 0.72766522D+05 0.11332314D+01  1  2  5  4  7  2       -2 -.415029176027D-03 0.100000000000D+01
  </mgrwgt>
  </event>
  <event>
  8     66 0.29493621E-05 0.23519329E+03 0.75467711E-02 0.93166167E-01
        1 -1    0    0  501    0 0.00000000E+00 0.00000000E+00 0.22747712E+04 0.22747712E+04 0.32000000E+00 0.0000E+00 0.9000E+01
       -2 -1    0    0    0  501 0.00000000E+00 0.00000000E+00 -.10894499E+03 0.10894546E+03 0.32000000E+00 0.0000E+00 0.9000E+01
       25  2    1    2    0    0 -.31904705E+03 0.27143863E+03 0.78932921E+03 0.94264724E+03 0.30012209E+03 0.0000E+00 0.0000E+00
       23  2    3    3    0    0 -.12868908E+02 0.40709324E+02 0.28835746E+03 0.30525488E+03 0.90596151E+02 0.0000E+00 0.0000E+00
      -24  1    1    2    0    0 0.31904705E+03 -.27143863E+03 0.13764970E+04 0.14410694E+04 0.80419002E+02 0.0000E+00 0.9000E+01
      -11  1    4    4    0    0 -.48215014E+02 0.42763629E+02 0.17456871E+03 0.18608506E+03 0.51099893E-03 0.0000E+00 0.9000E+01
       11  1    4    4    0    0 0.35346105E+02 -.20543058E+01 0.11378875E+03 0.11916983E+03 0.51099893E-03 0.0000E+00 0.9000E+01
       23  1    3    3    0    0 -.30617814E+03 0.23072931E+03 0.50097176E+03 0.63739236E+03 0.91188000E+02 0.0000E+00 0.9000E+01
#aMCatNLO 1  0  0  1  2 0.19774631D+03 0.00000000D+00  -5  7  0 0.00000000D+00 0.00000000D+00 0.00000000D+00 0.00000000D+00 0.00000000D+00
  <mgrwgt>
 0.1562926939D-02    9    2    0
 0.497820772559479D+03 0.000000000000000D+00 0.000000000000000D+00 0.497820772559479D+03
 0.497820772559479D+03 0.000000000000000D+00 0.000000000000000D+00 -.497820772559479D+03
 0.455834753399055D+03 0.319047052245308D+03 -.271438633468878D+03 0.160773608425432D+03
 0.657752572630707D+02 -.482150137979156D+02 0.427636294129694D+02 0.131517645933981D+02
 0.377851263489290D+02 0.353461053121232D+02 -.205430579765473D+01 0.131965313684525D+02
 0.436246408107904D+03 -.306178143759515D+03 0.230729309853564D+03 -.187121904387283D+03
 0.000000000000000D+00 0.000000000000000D+00 0.000000000000000D+00 0.000000000000000D+00
 0.655005604380487D+03 0.000000000000000D+00 0.000000000000000D+00 0.655005604380487D+03
 0.573839280875432D+03 0.000000000000000D+00 0.000000000000000D+00 -.573839280875432D+03
 0.426677692129501D+03 0.238796046046110D+03 -.304491267909602D+03 0.160773608425432D+03
 0.726799673086430D+02 -.608053983774342D+02 0.375780822318912D+02 0.131517645933981D+02
 0.321873934941312D+02 0.289831750756711D+02 -.467497832299658D+01 0.131965313684525D+02
 0.483543953112459D+03 -.389819006111376D+03 0.196280510037138D+03 -.187121904387283D+03
 0.213755879211185D+03 0.182845183367030D+03 0.753076539635693D+02 0.811663235050551D+02
0.176463525294D-03 0.000000000000D+00 0.000000000000D+00 0.102893558952D-04 0.000000000000D+00  7 1 -2 -24 -11 11 23 21 0 0.34996484D+00 0.16760806D-01 0.21181636D+06 0.21181636D+06 0.21181636D+06 0.10959159D+01  1  2  2  1  7  1        1 0.106594147461D-02 0.100000000000D+01
-.973007230258D-05 0.000000000000D+00 -.677666401042D-06 0.102893558952D-04 0.000000000000D+00  7 1 -2 -24 -11 11 23 21 2 0.34996484D+00 0.16760806D-01 0.21181636D+06 0.21181636D+06 0.21181636D+06 0.10959159D+01  1  2  3  1  7  1        1 -.705909283067D-04 0.100000000000D+01
0.111471294561D-04 0.000000000000D+00 0.000000000000D+00 0.102893558952D-04 0.000000000000D+00  7 1 -2 -24 -11 11 23 21 2 0.34996484D+00 0.16760806D-01 0.21181636D+06 0.21181636D+06 0.21181636D+06 0.10959159D+01  1  2 15  1  7  1        1 0.808715692741D-04 0.100000000000D+01
0.751451093838D-04 0.000000000000D+00 0.000000000000D+00 0.102893558952D-04 0.000000000000D+00  7 1 -2 -24 -11 11 23 21 2 0.48046390D+00 0.16760806D-01 0.32471934D+06 0.32471934D+06 0.32471934D+06 0.10820169D+01  1  2 12  1  7  1        1 0.129272336255D-03 0.100000000000D+01
-.949191315474D-04 0.000000000000D+00 0.000000000000D+00 0.102893558952D-04 0.000000000000D+00  7 1 -2 -24 -11 11 23 21 2 0.34996484D+00 0.16760806D-01 0.21181636D+06 0.21181636D+06 0.21181636D+06 0.10959159D+01  1  2  4  1  7  1        1 -.688631019548D-03 0.100000000000D+01
-.174184422018D-03 0.000000000000D+00 -.611886323816D-04 0.102893558952D-04 0.000000000000D+00  7 1 -2 -24 -11 11 23 21 2 0.48185532D+00 0.16760806D-01 0.21181636D+06 0.21181636D+06 0.21181636D+06 0.10959159D+01  1  2  5  1  7  1        1 -.310423416417D-03 0.100000000000D+01
0.187104104932D-03 0.000000000000D+00 0.581874971705D-04 0.102893558952D-04 0.000000000000D+00  7 1 -2 -24 -11 11 23 21 2 0.34996484D+00 0.16760806D-01 0.21181636D+06 0.21181636D+06 0.21181636D+06 0.10959159D+01  1  2  6  1  7  1        1 0.135742593132D-02 0.100000000000D+01
0.302204010352D-05 0.000000000000D+00 0.000000000000D+00 0.102893558952D-04 0.000000000000D+00  7 21 -2 -24 -11 11 23 -1 2 0.48046390D+00 0.16760806D-01 0.32471934D+06 0.32471934D+06 0.32471934D+06 0.10820169D+01  1  2 12  3  7  1        1 0.101754358556D-05 0.100000000000D+01
-.553773447324D-05 0.000000000000D+00 -.247692456293D-05 0.102893558952D-04 0.000000000000D+00  7 21 -2 -24 -11 11 23 -1 2 0.48185532D+00 0.16760806D-01 0.21181636D+06 0.21181636D+06 0.21181636D+06 0.10959159D+01  1  2  5  3  7  1        1 -.195655168077D-05 0.100000000000D+01
  </mgrwgt>
  </event>
  <event>
  8     66 0.29493621E-05 0.29259905E+03 0.75467711E-02 0.91098181E-01
        1 -1    0    0  501    0 0.00000000E+00 0.00000000E+00 0.10962833E+04 0.10962834E+04 0.32000000E+00 0.0000E+00 0.9000E+01
       -2 -1    0    0    0  501 0.00000000E+00 0.00000000E+00 -.17203603E+03 0.17203633E+03 0.32000000E+00 0.0000E+00 0.9000E+01
       25  2    1    2    0    0 -.23392834E+03 -.92184986E+01 0.94535961E+03 0.10198838E+04 0.30273875E+03 0.0000E+00 0.0000E+00
       23  2    3    3    0    0 -.22847884E+01 0.19135075E+02 0.50480426E+03 0.51306341E+03 0.89640072E+02 0.0000E+00 0.0000E+00
      -24  1    1    2    0    0 0.23392834E+03 0.92184986E+01 -.21112305E+02 0.24843590E+03 0.80419002E+02 0.0000E+00 0.9000E+01
      -11  1    4    4    0    0 0.13943275E+02 0.50176756E+02 0.37568160E+03 0.37927403E+03 0.51099893E-03 0.0000E+00 0.9000E+01
       11  1    4    4    0    0 -.16228064E+02 -.31041682E+02 0.12912266E+03 0.13378938E+03 0.51099893E-03 0.0000E+00 0.9000E+01
       23  1    3    3    0    0 -.23164355E+03 -.28353573E+02 0.44055534E+03 0.50682041E+03 0.91188000E+02 0.0000E+00 0.9000E+01
#aMCatNLO 1  0  0  1  2 0.61828730D+03 0.00000000D+00  -5  7  0 0.00000000D+00 0.00000000D+00 0.00000000D+00 0.00000000D+00 0.00000000D+00
  <mgrwgt>
 0.1849786805D-02    3    2    0
 0.434281536659831D+03 0.000000000000000D+00 0.000000000000000D+00 0.434281536659831D+03
 0.434281536659831D+03 0.000000000000000D+00 0.000000000000000D+00 -.434281536659831D+03
 0.385244489971748D+03 0.233928343144719D+03 0.921849855059520D+01 -.295192565382770D+03
 0.154068278459079D+03 0.139432752624829D+02 0.501767563904900D+02 0.144999698690820D+03
 0.579652023220034D+02 -.162280637055877D+02 -.310416816686515D+02 0.461847228830083D+02
 0.271285102566832D+03 -.231643554701614D+03 -.283535732724337D+02 0.104008143808942D+03
 0.000000000000000D+00 0.000000000000000D+00 -.000000000000000D+00 -.000000000000000D+00
 0.614076456554300D+03 0.000000000000000D+00 0.000000000000000D+00 0.614076456554300D+03
 0.171294670315434D+04 0.000000000000000D+00 0.000000000000000D+00 -.171294670315434D+04
 0.313451483606757D+03 0.179206782222914D+02 0.657633275899150D+02 -.295192565382770D+03
 0.188560565853897D+03 -.919832784802807D+02 0.779053968267443D+02 0.144999698690820D+03
 0.767312652883165D+02 -.578705957110129D+02 -.201408191744582D+02 0.461847228830083D+02
 0.487409112353070D+03 -.466200174393639D+03 0.330468588154243D+02 0.104008143808942D+03
 0.126087073260660D+04 0.598133370362641D+03 -.156574764057625D+03 -.109887024660004D+04
0.101236754301D-03 0.000000000000D+00 0.000000000000D+00 0.194696495752D-06 0.000000000000D+00  7 1 -2 -24 -11 11 23 21 0 0.16865900D+00 0.26467108D-01 0.85614202D+05 0.85614202D+05 0.85614202D+05 0.11272998D+01  1  2  2  1  7  1        1 0.181201390735D-02 0.100000000000D+01
-.455791595832D-05 0.000000000000D+00 -.388775792764D-06 0.194696495752D-06 0.000000000000D+00  7 1 -2 -24 -11 11 23 21 2 0.16865900D+00 0.26467108D-01 0.85614202D+05 0.85614202D+05 0.85614202D+05 0.11272998D+01  1  2  3  1  7  1        1 -.103673678657D-03 0.100000000000D+01
0.621856595386D-05 0.000000000000D+00 0.000000000000D+00 0.194696495752D-06 0.000000000000D+00  7 1 -2 -24 -11 11 23 21 2 0.16865900D+00 0.26467108D-01 0.85614202D+05 0.85614202D+05 0.85614202D+05 0.11272998D+01  1  2 15  1  7  1        1 0.141446576529D-03 0.100000000000D+01
  </mgrwgt>
  </event>
  <event>
  8     66 0.29493621E-05 0.19503707E+03 0.75467711E-02 0.95303657E-01
        1 -1    0    0  501    0 0.00000000E+00 0.00000000E+00 0.86301983E+03 0.86301988E+03 0.32000000E+00 0.0000E+00 0.9000E+01
       -2 -1    0    0    0  501 0.00000000E+00 0.00000000E+00 -.19795609E+03 0.19795635E+03 0.32000000E+00 0.0000E+00 0.9000E+01
       25  2    1    2    0    0 -.14244716E+03 0.32290194E+03 0.36710672E+03 0.59214529E+03 0.30217851E+03 0.0000E+00 0.0000E+00
       23  2    3    3    0    0 0.47627663E+02 0.16476106E+03 0.20580441E+03 0.28316202E+03 0.91709729E+02 0.0000E+00 0.0000E+00
      -24  1    1    2    0    0 0.14244716E+03 -.32290194E+03 0.29795701E+03 0.46883094E+03 0.80419002E+02 0.0000E+00 0.9000E+01
      -11  1    4    4    0    0 0.68044217E+02 0.91431522E+02 0.15183724E+03 0.18985333E+03 0.51099893E-03 0.0000E+00 0.9000E+01
       11  1    4    4    0    0 -.20416553E+02 0.73329540E+02 0.53967169E+02 0.93308694E+02 0.51099893E-03 0.0000E+00 0.9000E+01
       23  1    3    3    0    0 -.19007482E+03 0.15814088E+03 0.16130230E+03 0.30898327E+03 0.91188000E+02 0.0000E+00 0.9000E+01
#aMCatNLO 1  0  0  1  2 0.11802066D+03 0.00000000D+00  -5  7  0 0.00000000D+00 0.00000000D+00 0.00000000D+00 0.00000000D+00 0.00000000D+00
  <mgrwgt>
 0.9989160130D-03    7    2    0
 0.413328201936613D+03 0.000000000000000D+00 0.000000000000000D+00 0.413328201936613D+03
 0.413328201936613D+03 0.000000000000000D+00 0.000000000000000D+00 -.413328201936613D+03
 0.362010245336842D+03 0.142447158911511D+03 -.322901940003866D+03 0.522932445431251D+01
 0.121511704525674D+03 0.680442169055068D+02 0.914315217910691D+02 0.421349701010971D+02
 0.763396985332935D+02 -.204165534468209D+02 0.733295401199129D+02 -.580452093710804D+01
 0.266794755477417D+03 -.190074822370197D+03 0.158140878092884D+03 -.415597736183016D+02
 0.000000000000000D+00 0.000000000000000D+00 -.000000000000000D+00 0.000000000000000D+00
 0.105583255150509D+04 0.000000000000000D+00 0.000000000000000D+00 0.105583255150509D+04
 0.422974712694330D+03 0.000000000000000D+00 0.000000000000000D+00 -.422974712694330D+03
 0.325279834963077D+03 0.999613190076221D+02 -.298864758623769D+03 0.522932445431251D+01
 0.120716531276377D+03 0.530705248044998D+02 0.999031762005346D+02 0.421349701010971D+02
 0.848059801141510D+02 -.303780088794836D+02 0.789654251956542D+02 -.580452093710804D+01
 0.304236387347231D+03 -.225373946291200D+03 0.178112036628695D+03 -.415597736183016D+02
 0.643768530498584D+03 0.102720111358561D+03 -.581158794011144D+02 0.632857838810761D+03
0.490533338676D-04 0.000000000000D+00 0.000000000000D+00 0.407781215750D-06 0.000000000000D+00  7 1 -2 -24 -11 11 23 21 0 0.13277231D+00 0.30454808D-01 0.16630150D+06 0.16630150D+06 0.16630150D+06 0.11040334D+01  1  2  2  1  7  1        1 0.102125249725D-02 0.100000000000D+01
-.272458463793D-05 0.000000000000D+00 -.188377718091D-06 0.407781215750D-06 0.000000000000D+00  7 1 -2 -24 -11 11 23 21 2 0.13277231D+00 0.30454808D-01 0.16630150D+06 0.16630150D+06 0.16630150D+06 0.11040334D+01  1  2  3  1  7  1        1 -.691399953594D-04 0.100000000000D+01
0.314184575036D-05 0.000000000000D+00 0.000000000000D+00 0.407781215750D-06 0.000000000000D+00  7 1 -2 -24 -11 11 23 21 2 0.13277231D+00 0.30454808D-01 0.16630150D+06 0.16630150D+06 0.16630150D+06 0.11040334D+01  1  2 15  1  7  1        1 0.797285566305D-04 0.100000000000D+01
0.318912904104D-03 0.000000000000D+00 0.000000000000D+00 0.407781215750D-06 0.000000000000D+00  7 1 -2 -24 -11 11 23 21 2 0.33798116D+00 0.30454808D-01 0.22201736D+06 0.22201736D+06 0.22201736D+06 0.10943588D+01  1  2 12  1  7  1        1 0.941746863975D-03 0.100000000000D+01
-.328096989807D-03 0.000000000000D+00 -.143035038913D-04 0.407781215750D-06 0.000000000000D+00  7 1 -2 -24 -11 11 23 21 2 0.34076687D+00 0.30454808D-01 0.16630150D+06 0.16630150D+06 0.16630150D+06 0.11040334D+01  1  2  5  1  7  1        1 -.973877699563D-03 0.100000000000D+01
0.328968123312D-04 0.000000000000D+00 0.000000000000D+00 0.407781215750D-06 0.000000000000D+00  7 21 -2 -24 -11 11 23 -1 2 0.33798116D+00 0.30454808D-01 0.22201736D+06 0.22201736D+06 0.22201736D+06 0.10943588D+01  1  2 12  3  7  1        1 0.425208169910D-04 0.100000000000D+01
-.333186431788D-04 0.000000000000D+00 -.149046003301D-05 0.407781215750D-06 0.000000000000D+00  7 21 -2 -24 -11 11 23 -1 2 0.34076687D+00 0.30454808D-01 0.16630150D+06 0.16630150D+06 0.16630150D+06 0.11040334D+01  1  2  5  3  7  1        1 -.433150268844D-04 0.100000000000D+01
  </mgrwgt>
  </event>
  <event>
  8     66 0.29493621E-05 0.11943159E+03 0.75467711E-02 0.10218521E+00
        1 -1    0    0  501    0 0.00000000E+00 0.00000000E+00 0.45269473E+03 0.45269484E+03 0.32000000E+00 0.0000E+00 0.9000E+01
       -2 -1    0    0    0  501 0.00000000E+00 0.00000000E+00 -.18770817E+03 0.18770844E+03 0.32000000E+00 0.0000E+00 0.9000E+01
       25  2    1    2    0    0 -.19891203E+03 0.48210263E+02 0.17867302E+03 0.40416724E+03 0.29922715E+03 0.0000E+00 0.0000E+00
       23  2    3    3    0    0 -.50058289E+02 0.11139050E+03 0.93075843E+01 0.15287243E+03 0.91485915E+02 0.0000E+00 0.0000E+00
      -24  1    1    2    0    0 0.19891203E+03 -.48210263E+02 0.86313538E+02 0.23623604E+03 0.80419002E+02 0.0000E+00 0.9000E+01
      -13  1    4    4    0    0 0.24721660E+01 0.38681658E+02 0.42230189E+02 0.57321743E+02 0.10565837E+00 0.0000E+00 0.9000E+01
       13  1    4    4    0    0 -.52530455E+02 0.72708847E+02 -.32922604E+02 0.95550689E+02 0.10565837E+00 0.0000E+00 0.9000E+01
       23  1    3    3    0    0 -.14885374E+03 -.63180242E+02 0.16936544E+03 0.25129481E+03 0.91188000E+02 0.0000E+00 0.9000E+01
#aMCatNLO 1  0  0  1  2 0.58485554D+01 0.00000000D+00  -5  7  0 0.00000000D+00 0.00000000D+00 0.00000000D+00 0.00000000D+00 0.00000000D+00
  <mgrwgt>
 0.5932600295D-03    8    2    0
 0.291504067509805D+03 0.000000000000000D+00 0.000000000000000D+00 0.291504067509805D+03
 0.291504067509805D+03 0.000000000000000D+00 0.000000000000000D+00 -.291504067509805D+03
 0.220261776677722D+03 0.198912026686987D+03 -.482102627761296D+02 -.125622654480881D+02
 0.437704709161219D+02 0.247223920912245D+01 0.386816123604228D+02 0.203340852439923D+02
 0.119921279711652D+03 -.525305284911346D+02 0.727088923523480D+02 -.795931773270606D+02
 0.199054607714114D+03 -.148853737404975D+03 -.631802419366412D+02 0.718213575311564D+02
 0.000000000000000D+00 0.000000000000000D+00 0.000000000000000D+00 -.000000000000000D+00
 0.294353440634321D+03 0.000000000000000D+00 0.000000000000000D+00 0.294353440634321D+03
 0.294535414836278D+03 0.000000000000000D+00 0.000000000000000D+00 -.294535414836278D+03
 0.219341888414792D+03 0.197477475583629D+03 -.498847089089005D+02 -.125622654480881D+02
 0.434618544459795D+02 0.218757545735324D+01 0.383493452720116D+02 0.203340852439923D+02
 0.119716257376978D+03 -.533125335573669D+02 0.717961152781160D+02 -.795931773270606D+02
 0.200517469484064D+03 -.150157654113893D+03 -.647022081360970D+02 0.718213575311564D+02
 0.585138574878516D+01 0.380513663027832D+01 0.444145649486992D+01 -.181974201957207D+00
0.856914695994D-05 0.000000000000D+00 0.000000000000D+00 0.822665621016D-06 0.000000000000D+00  7 1 -2 -24 -13 13 23 21 0 0.69645373D-01 0.28878209D-01 0.71291532D+05 0.71291532D+05 0.71291532D+05 0.11339853D+01  1  2  2  1  7  1        1 0.510415380066D-03 0.100000000000D+01
-.471602923956D-06 0.000000000000D+00 -.329077806344D-07 0.822665621016D-06 0.000000000000D+00  7 1 -2 -24 -13 13 23 21 2 0.69645373D-01 0.28878209D-01 0.71291532D+05 0.71291532D+05 0.71291532D+05 0.11339853D+01  1  2  3  1  7  1        1 -.361224729486D-04 0.100000000000D+01
0.555098977202D-06 0.000000000000D+00 0.000000000000D+00 0.822665621016D-06 0.000000000000D+00  7 1 -2 -24 -13 13 23 21 2 0.69645373D-01 0.28878209D-01 0.71291532D+05 0.71291532D+05 0.71291532D+05 0.11339853D+01  1  2 15  1  7  1        1 0.425178614661D-04 0.100000000000D+01
0.328890895027D-05 0.000000000000D+00 0.000000000000D+00 0.822665621016D-06 0.000000000000D+00  7 1 -2 -24 -13 13 23 21 2 0.70684626D-01 0.28878209D-01 0.72867922D+05 0.72867922D+05 0.72867922D+05 0.11331802D+01  1  2 12  1  7  1        1 0.246529425959D-03 0.100000000000D+01
-.175717434891D-04 0.000000000000D+00 0.000000000000D+00 0.822665621016D-06 0.000000000000D+00  7 1 -2 -24 -13 13 23 21 2 0.69645373D-01 0.28878209D-01 0.71291532D+05 0.71291532D+05 0.71291532D+05 0.11339853D+01  1  2  4  1  7  1        1 -.134590944331D-02 0.100000000000D+01
0.151544236790D-04 0.000000000000D+00 0.000000000000D+00 0.822665621016D-06 0.164730347743D-06  7 1 -2 -24 -13 13 23 21 2 0.70326137D-01 0.29178513D-01 0.72867922D+05 0.72867922D+05 0.72867922D+05 0.11331802D+01  1  2 11  1  7  1        1 0.112339096291D-02 0.100000000000D+01
0.154188153487D-06 0.000000000000D+00 0.000000000000D+00 0.822665621016D-06 0.000000000000D+00  7 21 -2 -24 -13 13 23 -1 2 0.70684626D-01 0.28878209D-01 0.72867922D+05 0.72867922D+05 0.72867922D+05 0.11331802D+01  1  2 12  3  7  1        1 0.382660023282D-04 0.100000000000D+01
0.574643923477D-07 0.000000000000D+00 0.000000000000D+00 0.822665621016D-06 0.297903115016D-09  7 21 -2 -24 -13 13 23 -1 2 0.70326137D-01 0.29178513D-01 0.72867922D+05 0.72867922D+05 0.72867922D+05 0.11331802D+01  1  2 11  3  7  1        1 0.141723130280D-04 0.100000000000D+01
  </mgrwgt>
  </event>
  <event>
  8     66 0.29493621E-05 0.37443648E+03 0.75467711E-02 0.89934230E-01
        1 -1    0    0  501    0 0.00000000E+00 0.00000000E+00 0.79089928E+03 0.79089934E+03 0.32000000E+00 0.0000E+00 0.9000E+01
       -2 -1    0    0    0  501 0.00000000E+00 0.00000000E+00 -.35892868E+03 0.35892882E+03 0.32000000E+00 0.0000E+00 0.9000E+01
       25  2    1    2    0    0 0.10611688E+03 0.31118336E+03 -.15674800E+03 0.47074592E+03 0.29822125E+03 0.0000E+00 0.0000E+00
       23  2    3    3    0    0 -.69386407E+02 0.74830919E+02 -.22779953E+02 0.13470044E+03 0.84918439E+02 0.0000E+00 0.0000E+00
      -24  1    1    2    0    0 -.10611688E+03 -.31118336E+03 0.58871860E+03 0.67908224E+03 0.80419002E+02 0.0000E+00 0.9000E+01
      -11  1    4    4    0    0 -.50168187E+02 0.50175164E+02 -.55025064E+02 0.89789486E+02 0.51099893E-03 0.0000E+00 0.9000E+01
       11  1    4    4    0    0 -.19218220E+02 0.24655754E+02 0.32245111E+02 0.44910950E+02 0.51099893E-03 0.0000E+00 0.9000E+01
       23  1    3    3    0    0 0.17550329E+03 0.23635244E+03 -.13396804E+03 0.33604549E+03 0.91188000E+02 0.0000E+00 0.9000E+01
#aMCatNLO 1  0  0  1  2 0.60644340D+03 0.00000000D+00  -5  7  0 0.00000000D+00 0.00000000D+00 0.00000000D+00 0.00000000D+00 0.00000000D+00
  <mgrwgt>
 0.2259505935D-02    3    2    0
 0.532800665656031D+03 0.000000000000000D+00 0.000000000000000D+00 0.532800665656031D+03
 0.532800665656031D+03 0.000000000000000D+00 0.000000000000000D+00 -.532800665656031D+03
 0.494104816048762D+03 -.106116884173451D+03 -.311183360979640D+03 0.359967326338021D+03
 0.119192502630789D+03 -.501681870469436D+02 0.501751643336552D+02 -.957729532587581D+02
 0.353893463233018D+02 -.192182201401779D+02 0.246557541866647D+02 0.165879363792189D+02
 0.416914666309209D+03 0.175503291360573D+03 0.236352442459320D+03 -.280782309458482D+03
 0.000000000000000D+00 -.000000000000000D+00 0.000000000000000D+00 -.000000000000000D+00
 0.686762386628414D+03 0.000000000000000D+00 0.000000000000000D+00 0.686762386628414D+03
 0.186022501068250D+04 0.000000000000000D+00 0.000000000000000D+00 -.186022501068250D+04
 0.591219340020363D+03 0.152464150190452D+03 -.436178058750670D+03 0.359967326338021D+03
 0.990102444878887D+02 0.181913096811690D+01 0.250451731910177D+02 -.957729532587581D+02
 0.247651538264290D+02 -.488626891309200D+01 0.177278759820410D+02 0.165879363792189D+02
 0.511088373795526D+03 0.396602199609552D+03 0.129476115345580D+03 -.280782309458482D+03
 0.132090428518070D+04 -.545999211855028D+03 0.263928894232032D+03 -.117346262405408D+04
0.282663889356D-03 0.000000000000D+00 0.000000000000D+00 0.463755478294D-07 0.000000000000D+00  7 1 -2 -24 -11 11 23 21 0 0.12167683D+00 0.55219812D-01 0.14020267D+06 0.14020267D+06 0.14020267D+06 0.11098743D+01  1  2  2  1  7  1        1 0.221602873612D-02 0.100000000000D+01
-.133280643147D-04 0.000000000000D+00 -.108550376224D-05 0.463755478294D-07 0.000000000000D+00  7 1 -2 -24 -11 11 23 21 2 0.12167683D+00 0.55219812D-01 0.14020267D+06 0.14020267D+06 0.14020267D+06 0.11098743D+01  1  2  3  1  7  1        1 -.128712205683D-03 0.100000000000D+01
0.178300996850D-04 0.000000000000D+00 0.000000000000D+00 0.463755478294D-07 0.000000000000D+00  7 1 -2 -24 -11 11 23 21 2 0.12167683D+00 0.55219812D-01 0.14020267D+06 0.14020267D+06 0.14020267D+06 0.11098743D+01  1  2 15  1  7  1        1 0.172189404539D-03 0.100000000000D+01
  </mgrwgt>
  </event>
  <event>
  8     66 0.29493621E-05 0.28124936E+03 0.75467711E-02 0.92888704E-01
        1 -1    0    0  501    0 0.00000000E+00 0.00000000E+00 0.12610776E+04 0.12610777E+04 0.32000000E+00 0.0000E+00 0.9000E+01
       -2 -1    0    0    0  501 0.00000000E+00 0.00000000E+00 -.24548729E+03 0.24548750E+03 0.32000000E+00 0.0000E+00 0.9000E+01
       25  2    1    2    0    0 0.27352707E+03 -.41812271E+03 0.69618588E+03 0.90812546E+03 0.30062173E+03 0.0000E+00 0.0000E+00
       23  2    3    3    0    0 0.24808216E+03 -.22459891E+03 0.54002956E+03 0.64204474E+03 0.92736690E+02 0.0000E+00 0.0000E+00
      -24  1    1    2    0    0 -.27352707E+03 0.41812271E+03 0.31940446E+03 0.59843971E+03 0.80419002E+02 0.0000E+00 0.9000E+01
      -13  1    4    4    0    0 0.24882408E+03 -.22990352E+03 0.53894715E+03 0.63657921E+03 0.10565837E+00 0.0000E+00 0.9000E+01
       13  1    4    4    0    0 -.74192256E+00 0.53046047E+01 0.10824172E+01 0.54655348E+01 0.10565837E+00 0.0000E+00 0.9000E+01
       23  1    3    3    0    0 0.25444909E+02 -.19352380E+03 0.15615632E+03 0.26608072E+03 0.91188000E+02 0.0000E+00 0.9000E+01
#aMCatNLO 1  0  0  1  2 0.97835817D+02 0.00000000D+00  -5  7  0 0.00000000D+00 0.00000000D+00 0.00000000D+00 0.00000000D+00 0.00000000D+00
  <mgrwgt>
 0.1637035342D-02    9    2    0
 0.556397986045309D+03 0.000000000000000D+00 0.000000000000000D+00 0.556397986045309D+03
 0.556397986045309D+03 0.000000000000000D+00 0.000000000000000D+00 -.556397986045309D+03
 0.518697361420728D+03 -.273527070406222D+03 0.418122708228450D+03 -.113736886756895D+03
 0.369968156274125D+03 0.248824407826373D+03 -.229903821205663D+03 0.148684510698879D+03
 0.641120830474996D+01 -.742246500793772D+00 0.530491002863823D+01 -.352286696413701D+01
 0.217719246091016D+03 0.254449090806428D+02 -.193523797051425D+03 -.314247569778475D+02
 0.000000000000000D+00 -.000000000000000D+00 0.000000000000000D+00 0.000000000000000D+00
 0.640881872866300D+03 0.000000000000000D+00 0.000000000000000D+00 0.640881872866300D+03
 0.587607050598458D+03 0.000000000000000D+00 0.000000000000000D+00 -.587607050598458D+03
 0.481175417088213D+03 -.267943360585624D+03 0.374610253683180D+03 -.113736886756895D+03
 0.394228220250895D+03 0.253092001568481D+03 -.263160112217797D+03 0.148684510698879D+03
 0.596502448254709D+01 -.673132415440341D+00 0.476632124197078D+01 -.352286696413701D+01
 0.235719840754401D+03 0.279771035124559D+02 -.213256555137742D+03 -.314247569778475D+02
 0.111400420888703D+03 -.124526120798721D+02 0.970400924303876D+02 0.532748222678420D+02
0.132233933876D-03 0.000000000000D+00 0.000000000000D+00 0.317767967798D-05 0.000000000000D+00  7 1 -2 -24 -13 13 23 21 0 0.19401196D+00 0.37767295D-01 0.28390049D+06 0.28390049D+06 0.28390049D+06 0.10863286D+01  1  2  2  1  7  1        1 0.924119447801D-03 0.100000000000D+01
-.732958742615D-05 0.000000000000D+00 -.507813124079D-06 0.317767967798D-05 0.000000000000D+00  7 1 -2 -24 -13 13 23 21 2 0.19401196D+00 0.37767295D-01 0.28390049D+06 0.28390049D+06 0.28390049D+06 0.10863286D+01  1  2  3  1  7  1        1 -.604487288665D-04 0.100000000000D+01
0.846709893077D-05 0.000000000000D+00 0.000000000000D+00 0.317767967798D-05 0.000000000000D+00  7 1 -2 -24 -13 13 23 21 2 0.19401196D+00 0.37767295D-01 0.28390049D+06 0.28390049D+06 0.28390049D+06 0.10863286D+01  1  2 15  1  7  1        1 0.698300378717D-04 0.100000000000D+01
0.192351544704D-03 0.000000000000D+00 0.000000000000D+00 0.317767967798D-05 0.000000000000D+00  7 1 -2 -24 -13 13 23 21 2 0.22830306D+00 0.37767295D-01 0.34159352D+06 0.34159352D+06 0.34159352D+06 0.10804045D+01  1  2 12  1  7  1        1 0.109534972357D-02 0.100000000000D+01
-.190275894603D-03 0.000000000000D+00 0.000000000000D+00 0.317767967798D-05 0.000000000000D+00  7 1 -2 -24 -13 13 23 21 2 0.19401196D+00 0.37767295D-01 0.28390049D+06 0.28390049D+06 0.28390049D+06 0.10863286D+01  1  2  4  1  7  1        1 -.156924739333D-02 0.100000000000D+01
-.436325503111D-03 0.000000000000D+00 -.959919137403D-04 0.317767967798D-05 0.000000000000D+00  7 1 -2 -24 -13 13 23 21 2 0.22997957D+00 0.37767295D-01 0.28390049D+06 0.28390049D+06 0.28390049D+06 0.10863286D+01  1  2  5  1  7  1        1 -.248906819838D-02 0.100000000000D+01
0.447534742053D-03 0.000000000000D+00 0.946202134362D-04 0.317767967798D-05 0.000000000000D+00  7 1 -2 -24 -13 13 23 21 2 0.19401196D+00 0.37767295D-01 0.28390049D+06 0.28390049D+06 0.28390049D+06 0.10863286D+01  1  2  6  1  7  1        1 0.369091801595D-02 0.100000000000D+01
0.468507131319D-05 0.000000000000D+00 0.000000000000D+00 0.317767967798D-05 0.000000000000D+00  7 21 -2 -24 -13 13 23 -1 2 0.22830306D+00 0.37767295D-01 0.34159352D+06 0.34159352D+06 0.34159352D+06 0.10804045D+01  1  2 12  3  7  1        1 0.208740555382D-04 0.100000000000D+01
-.101719227416D-04 0.000000000000D+00 -.242115279218D-05 0.317767967798D-05 0.000000000000D+00  7 21 -2 -24 -13 13 23 -1 2 0.22997957D+00 0.37767295D-01 0.28390049D+06 0.28390049D+06 0.28390049D+06 0.10863286D+01  1  2  5  3  7  1        1 -.452916182412D-04 0.100000000000D+01
  </mgrwgt>
  </event>
  <event>
  8     66 0.29493621E-05 0.42842468E+03 0.75467711E-02 0.89942687E-01
        1 -1    0    0  501    0 0.00000000E+00 0.00000000E+00 0.74537696E+03 0.74537702E+03 0.32000000E+00 0.0000E+00 0.9000E+01
       -2 -1    0    0    0  501 0.00000000E+00 0.00000000E+00 -.43331082E+03 0.43331094E+03 0.32000000E+00 0.0000E+00 0.9000E+01
       25  2    1    2    0    0 0.18365088E+02 -.38469797E+03 0.53825724E+03 0.72486043E+03 0.29558752E+03 0.0000E+00 0.0000E+00
       23  2    3    3    0    0 0.83802850E+02 -.84218576E+02 0.92133628E+02 0.17539569E+03 0.90329162E+02 0.0000E+00 0.0000E+00
      -24  1    1    2    0    0 -.18365088E+02 0.38469797E+03 -.22619110E+03 0.45382754E+03 0.80419002E+02 0.0000E+00 0.9000E+01
      -11  1    4    4    0    0 0.90254811E+02 -.94395165E+02 0.65374199E+02 0.14604850E+03 0.51099893E-03 0.0000E+00 0.9000E+01
       11  1    4    4    0    0 -.64519607E+01 0.10176589E+02 0.26759430E+02 0.29347195E+02 0.51099893E-03 0.0000E+00 0.9000E+01
       23  1    3    3    0    0 -.65437762E+02 -.30047939E+03 0.44612361E+03 0.54946473E+03 0.91188000E+02 0.0000E+00 0.9000E+01
#aMCatNLO 1  0  0  1  2 0.52832134D+03 0.00000000D+00  -5  7  0 0.00000000D+00 0.00000000D+00 0.00000000D+00 0.00000000D+00 0.00000000D+00
  <mgrwgt>
 0.4711857235D-02    3    2    0
 0.568313304174536D+03 0.000000000000000D+00 0.000000000000000D+00 0.568313304174536D+03
 0.568313304174536D+03 0.000000000000000D+00 0.000000000000000D+00 -.568313304174536D+03
 0.532723444455647D+03 -.183650883940943D+02 0.384697970451698D+03 -.359161867932747D+03
 0.133504294834103D+03 0.902548108128104D+02 -.943951648213337D+02 0.276951028640106D+02
 0.230862740450522D+02 -.645196073125068D+01 0.101765889689105D+02 0.196922646986958D+02
 0.447312595014270D+03 -.654377616874654D+02 -.300479394599274D+03 0.311774500370041D+03
 0.000000000000000D+00 0.000000000000000D+00 -.000000000000000D+00 -.000000000000000D+00
 0.686670756974694D+03 0.000000000000000D+00 0.000000000000000D+00 0.686670756974694D+03
 0.179041140252559D+04 0.000000000000000D+00 0.000000000000000D+00 -.179041140252559D+04
 0.670647196242747D+03 -.259533304235809D+03 0.496936276085163D+03 -.359161867932747D+03
 0.906739692577721D+02 0.453271134325976D+02 -.734860719196481D+02 0.276951028640106D+02
 0.301731477558838D+02 -.171257126893661D+02 0.151440919640690D+02 0.196922646986958D+02
 0.461918423835308D+03 -.247657283410745D+03 -.215675473401862D+03 0.311774500370041D+03
 0.122366942240857D+04 0.478989186903322D+03 -.222918822727722D+03 -.110374064555089D+04
0.803390522655D-03 0.000000000000D+00 0.000000000000D+00 0.206305860629D-06 0.000000000000D+00  7 1 -2 -24 -11 11 23 21 0 0.11467339D+00 0.66663218D-01 0.18354771D+06 0.18354771D+06 0.18354771D+06 0.11007002D+01  1  2  2  1  7  1        1 0.463648392420D-02 0.100000000000D+01
-.403001865635D-04 0.000000000000D+00 -.308523114458D-05 0.206305860629D-06 0.000000000000D+00  7 1 -2 -24 -11 11 23 21 2 0.11467339D+00 0.66663218D-01 0.18354771D+06 0.18354771D+06 0.18354771D+06 0.11007002D+01  1  2  3  1  7  1        1 -.281778073559D-03 0.100000000000D+01
0.510801540879D-04 0.000000000000D+00 0.000000000000D+00 0.206305860629D-06 0.000000000000D+00  7 1 -2 -24 -11 11 23 21 2 0.11467339D+00 0.66663218D-01 0.18354771D+06 0.18354771D+06 0.18354771D+06 0.11007002D+01  1  2 15  1  7  1        1 0.357151384232D-03 0.100000000000D+01
  </mgrwgt>
  </event>
  <event>
  8     66 0.29493621E-05 0.11033327E+03 0.75467711E-02 0.10379527E+00
        1 -1    0    0  501    0 0.00000000E+00 0.00000000E+00 0.13947007E+04 0.13947008E+04 0.32000000E+00 0.0000E+00 0.9000E+01
       -2 -1    0    0    0  501 0.00000000E+00 0.00000000E+00 -.55398844E+02 0.55399768E+02 0.32000000E+00 0.0000E+00 0.9000E+01
       25  2    1    2    0    0 -.10162674E+02 0.44831618E+02 0.38002311E+03 0.48635984E+03 0.30002528E+03 0.0000E+00 0.0000E+00
       23  2    3    3    0    0 -.61973932E+02 0.11627890E+03 0.12800498E+03 0.20419408E+03 0.89153794E+02 0.0000E+00 0.0000E+00
      -24  1    1    2    0    0 0.10162674E+02 -.44831618E+02 0.95927876E+03 0.96374068E+03 0.80419002E+02 0.0000E+00 0.9000E+01
      -13  1    4    4    0    0 -.78938746E+02 0.58565364E+02 0.70372740E+02 0.12088656E+03 0.10565837E+00 0.0000E+00 0.9000E+01
       13  1    4    4    0    0 0.16964814E+02 0.57713534E+02 0.57632238E+02 0.83307521E+02 0.10565837E+00 0.0000E+00 0.9000E+01
       23  1    3    3    0    0 0.51811258E+02 -.71447279E+02 0.25201814E+03 0.28216575E+03 0.91188000E+02 0.0000E+00 0.9000E+01
#aMCatNLO 1  0  0  1  2 0.88078957D+02 0.00000000D+00  -5  7  0 0.00000000D+00 0.00000000D+00 0.00000000D+00 0.00000000D+00 0.00000000D+00
  <mgrwgt>
 0.8372315333D-03    9    2    0
 0.277966731019755D+03 0.000000000000000D+00 0.000000000000000D+00 0.277966731019755D+03
 0.277966731019755D+03 0.000000000000000D+00 0.000000000000000D+00 -.277966731019755D+03
 0.202824687359570D+03 0.101626737923745D+02 -.448316185883192D+02 0.180436924946858D+03
 0.145786112045428D+03 -.789388797284306D+02 0.585653653971736D+02 -.107667737546761D+03
 0.784577008418483D+02 0.169649482395773D+02 0.577135322986156D+02 -.503681401506356D+02
 0.128864961792662D+03 0.518112576964788D+02 -.714472791074700D+02 -.224010472494621D+02
 0.000000000000000D+00 0.000000000000000D+00 -.000000000000000D+00 0.000000000000000D+00
 0.397999319242463D+03 0.000000000000000D+00 0.000000000000000D+00 0.397999319242463D+03
 0.298072293127107D+03 0.000000000000000D+00 0.000000000000000D+00 -.298072293127107D+03
 0.203078632094505D+03 -.216487874384167D+02 -.418038392635521D+02 0.180436924946858D+03
 0.160934025266512D+03 -.102977155074207D+03 0.608533015773749D+02 -.107667737546761D+03
 0.776269423181122D+02 0.473228017151845D+01 0.588778239730690D+02 -.503681401506356D+02
 0.121227984121796D+03 0.322109694708185D+02 -.695817455810915D+02 -.224010472494621D+02
 0.133204028568645D+03 0.876826928702869D+02 -.834554070580028D+01 0.999270261153561D+02
0.119723213755D-04 0.000000000000D+00 0.000000000000D+00 0.990692060089D-06 0.000000000000D+00  7 1 -2 -24 -13 13 23 21 0 0.21456941D+00 0.85229729D-02 0.35717267D+05 0.35717267D+05 0.35717267D+05 0.11603716D+01  1  2  2  1  7  1        1 0.827737254695D-03 0.100000000000D+01
-.544756588145D-06 0.000000000000D+00 -.459768664667D-07 0.990692060089D-06 0.000000000000D+00  7 1 -2 -24 -13 13 23 21 2 0.21456941D+00 0.85229729D-02 0.35717267D+05 0.35717267D+05 0.35717267D+05 0.11603716D+01  1  2  3  1  7  1        1 -.507120122106D-04 0.100000000000D+01
0.742925841317D-06 0.000000000000D+00 0.000000000000D+00 0.990692060089D-06 0.000000000000D+00  7 1 -2 -24 -13 13 23 21 2 0.21456941D+00 0.85229729D-02 0.35717267D+05 0.35717267D+05 0.35717267D+05 0.11603716D+01  1  2 15  1  7  1        1 0.691598140459D-04 0.100000000000D+01
0.979182466125D-05 0.000000000000D+00 0.000000000000D+00 0.990692060089D-06 0.000000000000D+00  7 1 -2 -24 -13 13 23 21 2 0.31237277D+00 0.85229729D-02 0.57380757D+05 0.57380757D+05 0.57380757D+05 0.11420726D+01  1  2 12  1  7  1        1 0.338733860040D-03 0.100000000000D+01
-.140399795894D-04 0.000000000000D+00 0.000000000000D+00 0.990692060089D-06 0.000000000000D+00  7 1 -2 -24 -13 13 23 21 2 0.21456941D+00 0.85229729D-02 0.35717267D+05 0.35717267D+05 0.35717267D+05 0.11603716D+01  1  2  4  1  7  1        1 -.130699771580D-02 0.100000000000D+01
-.153324839684D-04 0.000000000000D+00 -.439580732131D-05 0.990692060089D-06 0.000000000000D+00  7 1 -2 -24 -13 13 23 21 2 0.31519677D+00 0.85229729D-02 0.35717267D+05 0.35717267D+05 0.35717267D+05 0.11603716D+01  1  2  5  1  7  1        1 -.538965156408D-03 0.100000000000D+01
0.161221910108D-04 0.000000000000D+00 0.408965389537D-05 0.990692060089D-06 0.000000000000D+00  7 1 -2 -24 -13 13 23 21 2 0.21456941D+00 0.85229729D-02 0.35717267D+05 0.35717267D+05 0.35717267D+05 0.11603716D+01  1  2  6  1  7  1        1 0.150083315226D-02 0.100000000000D+01
0.445131435288D-06 0.000000000000D+00 0.000000000000D+00 0.990692060089D-06 0.000000000000D+00  7 21 -2 -24 -13 13 23 -1 2 0.31237277D+00 0.85229729D-02 0.57380757D+05 0.57380757D+05 0.57380757D+05 0.11420726D+01  1  2 12  3  7  1        1 0.824923056409D-05 0.100000000000D+01
-.566968579668D-06 0.000000000000D+00 -.203303694967D-06 0.990692060089D-06 0.000000000000D+00  7 21 -2 -24 -13 13 23 -1 2 0.31519677D+00 0.85229729D-02 0.35717267D+05 0.35717267D+05 0.35717267D+05 0.11603716D+01  1  2  5  3  7  1        1 -.108068938758D-04 0.100000000000D+01
  </mgrwgt>
  </event>
  <event>
  9     66 0.29493621E-05 0.26001310E+03 0.75467711E-02 0.10205525E+00
        1 -1    0    0  502    0 0.00000000E+00 0.00000000E+00 0.26712448E+04 0.26712449E+04 0.32000000E+00 0.0000E+00 0.9000E+01
       -2 -1    0    0    0  501 0.00000000E+00 0.00000000E+00 -.59433292E+02 0.59434154E+02 0.32000000E+00 0.0000E+00 0.9000E+01
       25  2    1    2    0    0 0.18090501E+03 -.47355759E+02 0.61194986E+03 0.70660547E+03 0.29973233E+03 0.0000E+00 0.0000E+00
       23  2    3    3    0    0 0.21510335E+03 -.58370097E+02 0.50312378E+03 0.56014998E+03 0.10468023E+03 0.0000E+00 0.0000E+00
      -24  1    1    2    0    0 -.15540235E+03 0.56577598E+02 0.19842896E+04 0.19927929E+04 0.80419002E+02 0.0000E+00 0.9000E+01
      -11  1    4    4    0    0 0.13187630E+02 -.29363729E+02 0.13999598E+03 0.14364893E+03 0.51099893E-03 0.0000E+00 0.9000E+01
       11  1    4    4    0    0 0.20191572E+03 -.29006368E+02 0.36312780E+03 0.41650105E+03 0.51099893E-03 0.0000E+00 0.9000E+01
       23  1    3    3    0    0 -.34198339E+02 0.11014338E+02 0.10882608E+03 0.14645549E+03 0.91188000E+02 0.0000E+00 0.9000E+01
       21  1    1    2  502  501 -.25502664E+02 -.92218391E+01 0.15572062E+02 0.31280662E+02 0.75000000E+00 0.0000E+00 0.9000E+01
#aMCatNLO 2  0  0  1  2 0.27118780D+02 0.00000000D+00  -5  7  0 0.00000000D+00 0.00000000D+00 0.00000000D+00 0.00000000D+00 0.00000000D+00
  <mgrwgt>
 0.1404641490D-03    1    2    0
 0.369309003569414D+03 0.000000000000000D+00 0.000000000000000D+00 0.369309003569414D+03
 0.369309003569414D+03 0.000000000000000D+00 0.000000000000000D+00 -.369309003569414D+03
 0.312870997144990D+03 -.166117387218110D+03 0.527030090100856D+02 0.247079848237854D+03
 0.328140866566739D+02 0.120538727454353D+02 -.297736987771996D+02 0.670785331332916D+01
 0.239167779821687D+03 0.193549418260993D+03 -.320316486046686D+02 -.136798476173286D+03
 0.153765143515477D+03 -.394859037883186D+02 0.910233837178270D+01 -.116989225377897D+03
 0.000000000000000D+00 -.000000000000000D+00 -.000000000000000D+00 -.000000000000000D+00
 0.372825129396117D+03 0.000000000000000D+00 0.000000000000000D+00 0.372825129396117D+03
 0.425829885026421D+03 0.000000000000000D+00 0.000000000000000D+00 -.425829885026421D+03
 0.308004192112878D+03 -.155402349951461D+03 0.565775982970185D+02 0.247079848237854D+03
 0.328806546192693D+02 0.131876297600070D+02 -.293637288747787D+02 0.670785331332916D+01
 0.245611790716036D+03 0.201915723203265D+03 -.290063678992590D+02 -.136798476173286D+03
 0.152619042722054D+03 -.341983387023772D+02 0.110143376048340D+02 -.116989225377897D+03
 0.595393342523015D+02 -.255026643094339D+02 -.922183912781468D+01 -.530047556303046D+02
0.124605984971D-04 0.000000000000D+00 0.000000000000D+00 0.640852292433D-07 0.600676979902D-09  7 1 -2 -24 -11 11 23 21 2 0.41095823D+00 0.91435937D-02 0.74311915D+05 0.74311915D+05 0.74311915D+05 0.11324593D+01  1  2  1  1  7  1        1 0.140464148982D-03 0.100000000000D+01
  </mgrwgt>
  </event>
  <event>
  8     66 0.29493621E-05 0.16518161E+03 0.75467711E-02 0.10274519E+00
        1 -1    0    0  501    0 0.00000000E+00 0.00000000E+00 0.32861346E+03 0.32861361E+03 0.32000000E+00 0.0000E+00 0.9000E+01
       -2 -1    0    0    0  501 0.00000000E+00 0.00000000E+00 -.25363120E+03 0.25363141E+03 0.32000000E+00 0.0000E+00 0.9000E+01
       25  2    1    2    0    0 -.80314521E+02 0.15916198E+02 0.22978238E+03 0.38954307E+03 0.30371058E+03 0.0000E+00 0.0000E+00
       23  2    3    3    0    0 -.12784115E+03 -.73054323E+02 0.93012678E+02 0.19668111E+03 0.91388234E+02 0.0000E+00 0.0000E+00
      -24  1    1    2    0    0 0.80314521E+02 -.15916198E+02 -.15480012E+03 0.19270195E+03 0.80419002E+02 0.0000E+00 0.9000E+01
      -11  1    4    4    0    0 -.10711971E+03 -.94528934E+02 0.82885575E+02 0.16516770E+03 0.51099893E-03 0.0000E+00 0.9000E+01
       11  1    4    4    0    0 -.20721440E+02 0.21474611E+02 0.10127104E+02 0.31513413E+02 0.51099893E-03 0.0000E+00 0.9000E+01
       23  1    3    3    0    0 0.47526625E+02 0.88970522E+02 0.13676970E+03 0.19286196E+03 0.91188000E+02 0.0000E+00 0.9000E+01
#aMCatNLO 1  0  0  1  2 0.88664775D+02 0.00000000D+00  -5  7  0 0.00000000D+00 0.00000000D+00 0.00000000D+00 0.00000000D+00 0.00000000D+00
  <mgrwgt>
 0.1239463263D-02    9    2    0
 0.288698340300076D+03 0.000000000000000D+00 0.000000000000000D+00 0.288698340300076D+03
 0.288698340300076D+03 0.000000000000000D+00 0.000000000000000D+00 -.288698340300076D+03
 0.214422799223598D+03 0.803145213552530D+02 -.159161983350808D+02 -.181124744754956D+03
 0.155790857849263D+03 -.107119706491268D+03 -.945289338305939D+02 0.621324435338355D+02
 0.304628957713203D+02 -.207214400976066D+02 0.214746106286602D+02 0.611972527186151D+01
 0.176720127755971D+03 0.475266252336212D+02 0.889705215370145D+02 0.112872575949259D+03
 0.000000000000000D+00 0.000000000000000D+00 -.000000000000000D+00 0.000000000000000D+00
 0.396247045565178D+03 0.000000000000000D+00 0.000000000000000D+00 0.396247045565178D+03
 0.310950154402218D+03 0.000000000000000D+00 0.000000000000000D+00 -.310950154402218D+03
 0.210037390852240D+03 0.681412015405062D+02 0.141100351422042D+02 -.181124744754956D+03
 0.150344968441985D+03 -.115899538869728D+03 -.728729434435089D+02 0.621324435338355D+02
 0.350715232110553D+02 -.226009365964503D+02 0.261105030189723D+02 0.611972527186151D+01
 0.188710793773009D+03 0.370462372444082D+02 0.114821035734089D+03 0.112872575949259D+03
 0.123032523689106D+03 0.333130366812635D+02 -.821686304517570D+02 0.852968911629605D+02
0.228788799552D-04 0.000000000000D+00 0.000000000000D+00 0.111119421543D-06 0.000000000000D+00  7 1 -2 -24 -11 11 23 21 0 0.50555944D-01 0.39020213D-01 0.44827186D+05 0.44827186D+05 0.44827186D+05 0.11514907D+01  1  2  2  1  7  1        1 0.122149029445D-02 0.100000000000D+01
-.112244172833D-05 0.000000000000D+00 -.878609231753D-07 0.111119421543D-06 0.000000000000D+00  7 1 -2 -24 -11 11 23 21 2 0.50555944D-01 0.39020213D-01 0.44827186D+05 0.44827186D+05 0.44827186D+05 0.11514907D+01  1  2  3  1  7  1        1 -.794584204105D-04 0.100000000000D+01
0.143121585207D-05 0.000000000000D+00 0.000000000000D+00 0.111119421543D-06 0.000000000000D+00  7 1 -2 -24 -11 11 23 21 2 0.50555944D-01 0.39020213D-01 0.44827186D+05 0.44827186D+05 0.44827186D+05 0.11514907D+01  1  2 15  1  7  1        1 0.101316752577D-03 0.100000000000D+01
0.223969007998D-04 0.000000000000D+00 0.000000000000D+00 0.111119421543D-06 0.000000000000D+00  7 1 -2 -24 -11 11 23 21 2 0.70782691D-01 0.39020213D-01 0.66999088D+05 0.66999088D+05 0.66999088D+05 0.11362808D+01  1  2 12  1  7  1        1 0.984881215319D-03 0.100000000000D+01
-.286943853813D-04 0.000000000000D+00 0.000000000000D+00 0.111119421543D-06 0.000000000000D+00  7 1 -2 -24 -11 11 23 21 2 0.50555944D-01 0.39020213D-01 0.44827186D+05 0.44827186D+05 0.44827186D+05 0.11514907D+01  1  2  4  1  7  1        1 -.203129523742D-02 0.100000000000D+01
-.338275676383D-04 0.000000000000D+00 -.103928197118D-04 0.111119421543D-06 0.000000000000D+00  7 1 -2 -24 -11 11 23 21 2 0.73321925D-01 0.39020213D-01 0.44827186D+05 0.44827186D+05 0.44827186D+05 0.11514907D+01  1  2  5  1  7  1        1 -.146366063545D-02 0.100000000000D+01
0.358632967099D-04 0.000000000000D+00 0.971373652856D-05 0.111119421543D-06 0.000000000000D+00  7 1 -2 -24 -11 11 23 21 2 0.50555944D-01 0.39020213D-01 0.44827186D+05 0.44827186D+05 0.44827186D+05 0.11514907D+01  1  2  6  1  7  1        1 0.253878739123D-02 0.100000000000D+01
0.940534693293D-06 0.000000000000D+00 0.000000000000D+00 0.111119421543D-06 0.000000000000D+00  7 21 -2 -24 -11 11 23 -1 2 0.70782691D-01 0.39020213D-01 0.66999088D+05 0.66999088D+05 0.66999088D+05 0.11362808D+01  1  2 12  3  7  1        1 0.137167966665D-03 0.100000000000D+01
-.120599072915D-05 0.000000000000D+00 -.468991745550D-06 0.111119421543D-06 0.000000000000D+00  7 21 -2 -24 -11 11 23 -1 2 0.73321925D-01 0.39020213D-01 0.44827186D+05 0.44827186D+05 0.44827186D+05 0.11514907D+01  1  2  5  3  7  1        1 -.169766064157D-03 0.100000000000D+01
  </mgrwgt>
  </event>
  <event>
  8     66 0.29493621E-05 0.20385598E+03 0.75467711E-02 0.10122022E+00
        1 -1    0    0  501    0 0.00000000E+00 0.00000000E+00 0.67345605E+03 0.67345613E+03 0.32000000E+00 0.0000E+00 0.9000E+01
       -2 -1    0    0    0  501 0.00000000E+00 0.00000000E+00 -.17711721E+03 0.17711750E+03 0.32000000E+00 0.0000E+00 0.9000E+01
       25  2    1    2    0    0 -.29337503E+02 0.84480197E+02 0.60977999E+03 0.68524455E+03 0.29955111E+03 0.0000E+00 0.0000E+00
       23  2    3    3    0    0 0.72039635E+02 0.11351792E+03 0.23452453E+03 0.28492915E+03 0.90037977E+02 0.0000E+00 0.0000E+00
      -24  1    1    2    0    0 0.29337503E+02 -.84480197E+02 -.11344115E+03 0.16532908E+03 0.80419002E+02 0.0000E+00 0.9000E+01
      -11  1    4    4    0    0 -.21685936E+01 0.50862307E+02 0.14176061E+03 0.15062453E+03 0.51099893E-03 0.0000E+00 0.9000E+01
       11  1    4    4    0    0 0.74208228E+02 0.62655608E+02 0.92763922E+02 0.13430462E+03 0.51099893E-03 0.0000E+00 0.9000E+01
       23  1    3    3    0    0 -.10137714E+03 -.29037718E+02 0.37525546E+03 0.40031540E+03 0.91188000E+02 0.0000E+00 0.9000E+01
#aMCatNLO 1  0  0  2  2 0.16163014D+03 0.00000000D+00  -5  7  0 0.00000000D+00 0.00000000D+00 0.00000000D+00 0.00000000D+00 0.00000000D+00
  <mgrwgt>
 0.1283670210D-02    4    2    0
 0.345370546469121D+03 0.000000000000000D+00 0.000000000000000D+00 0.345370546469121D+03
 0.345370546469121D+03 0.000000000000000D+00 0.000000000000000D+00 -.345370546469121D+03
 0.285099300764111D+03 0.293375031686374D+02 -.844801969932936D+02 -.258489463161691D+03
 0.836144742144322D+02 -.216859355738261D+01 0.508623070283386D+02 0.663302587353151D+02
 0.987253164327628D+02 0.742082283862985D+02 0.626556083401102D+02 0.177229142086398D+02
 0.223302001526937D+03 -.101377137997553D+03 -.290377183751552D+02 0.174436290217736D+03
 0.000000000000000D+00 -.000000000000000D+00 -.000000000000000D+00 0.000000000000000D+00
 0.582108129137666D+03 0.000000000000000D+00 0.000000000000000D+00 0.582108129137666D+03
 0.383419305840133D+03 0.000000000000000D+00 0.000000000000000D+00 -.383419305840133D+03
 0.284288473174542D+03 0.772895103776233D+02 -.395252962735273D+02 -.258489463161691D+03
 0.936428183413520D+02 0.127594455743394D+02 0.648573107032128D+02 0.663302587353151D+02
 0.124087389131929D+03 0.929727978985391D+02 0.802473507628101D+02 0.177229142086398D+02
 0.207380755887331D+03 -.651064212144073D+02 0.496599840180456D+01 0.174436290217736D+03
 0.256127998442644D+03 -.117915332636095D+03 -.110545363594300D+03 0.198688823297532D+03
0.363143264320D-04 0.000000000000D+00 0.000000000000D+00 0.247866571150D-05 0.000000000000D+00  7 1 -2 -24 -11 11 23 21 0 0.10360865D+00 0.27248830D-01 0.41557261D+05 0.41557261D+05 0.41557261D+05 0.11544283D+01  1  2  2  2  7  2       -2 0.137735756842D-02 0.100000000000D+01
-.133568208849D-05 0.000000000000D+00 -.139456575281D-06 0.247866571150D-05 0.000000000000D+00  7 1 -2 -24 -11 11 23 21 2 0.10360865D+00 0.27248830D-01 0.41557261D+05 0.41557261D+05 0.41557261D+05 0.11544283D+01  1  2  3  2  7  2       -2 -.675158505390D-04 0.100000000000D+01
0.229119787481D-05 0.000000000000D+00 0.000000000000D+00 0.247866571150D-05 0.000000000000D+00  7 1 -2 -24 -11 11 23 21 2 0.10360865D+00 0.27248830D-01 0.41557261D+05 0.41557261D+05 0.41557261D+05 0.11544283D+01  1  2 15  2  7  2       -2 0.115815113943D-03 0.100000000000D+01
-.280895502564D-05 0.000000000000D+00 0.000000000000D+00 0.247866571150D-05 0.000000000000D+00  7 1 -2 -24 -11 11 23 21 2 0.10360865D+00 0.27248830D-01 0.41557261D+05 0.41557261D+05 0.41557261D+05 0.11544283D+01  1  2  4  2  7  2       -2 -.141986621903D-03 0.100000000000D+01
  </mgrwgt>
  </event>
  <event>
  8     66 0.29493621E-05 0.36123683E+03 0.75467711E-02 0.89487372E-01
        1 -1    0    0  501    0 0.00000000E+00 0.00000000E+00 0.32952297E+04 0.32952297E+04 0.32000000E+00 0.0000E+00 0.9000E+01
       -2 -1    0    0    0  501 0.00000000E+00 0.00000000E+00 -.53805425E+02 0.53806377E+02 0.32000000E+00 0.0000E+00 0.9000E+01
       25  2    1    2    0    0 -.25194670E+03 0.15743619E+03 0.26384880E+04 0.26720851E+04 0.30026071E+03 0.0000E+00 0.0000E+00
       23  2    3    3    0    0 -.16934493E+01 0.11817578E+03 0.11318270E+04 0.11415589E+04 0.90309318E+02 0.0000E+00 0.0000E+00
      -24  1    1    2    0    0 0.25194670E+03 -.15743619E+03 0.60293626E+03 0.67695099E+03 0.80419002E+02 0.0000E+00 0.9000E+01
      -11  1    4    4    0    0 -.29205374E+02 0.58090969E+01 0.34356027E+03 0.34484831E+03 0.51099893E-03 0.0000E+00 0.9000E+01
       11  1    4    4    0    0 0.27511925E+02 0.11236668E+03 0.78826678E+03 0.79671055E+03 0.51099893E-03 0.0000E+00 0.9000E+01
       23  1    3    3    0    0 -.25025325E+03 0.39260419E+02 0.15066610E+04 0.15305262E+04 0.91188000E+02 0.0000E+00 0.9000E+01
#aMCatNLO 1  0  0  1  2 0.65493373D+03 0.00000000D+00  -5  7  0 0.00000000D+00 0.00000000D+00 0.00000000D+00 0.00000000D+00 0.00000000D+00
  <mgrwgt>
 0.2729633803D-02    3    2    0
 0.421073453719676D+03 0.000000000000000D+00 0.000000000000000D+00 0.421073453719676D+03
 0.421073453719676D+03 0.000000000000000D+00 0.000000000000000D+00 -.421073453719676D+03
 0.371385403254842D+03 0.251946697343277D+03 -.157436194640202D+03 -.207837937132320D+03
 0.490233296107501D+02 -.292053742087644D+02 0.580909690738636D+01 0.389433865575515D+02
 0.134305896707514D+03 0.275119248647470D+02 0.112366679035262D+03 0.682268079513642D+02
 0.287432277866245D+03 -.250253247999260D+03 0.392604186975529D+02 0.100667742623405D+03
 0.000000000000000D+00 0.000000000000000D+00 0.000000000000000D+00 -.000000000000000D+00
 0.737698384134789D+03 0.000000000000000D+00 0.000000000000000D+00 0.737698384134789D+03
 0.105836489607583D+04 0.000000000000000D+00 0.000000000000000D+00 -.105836489607583D+04
 0.427179293610935D+03 0.657964474232163D+02 -.358453835703613D+03 -.207837937132320D+03
 0.742208969530593D+02 -.579343471599865D+02 -.252143928559053D+02 0.389433865575515D+02
 0.914851322319694D+02 -.251213265571566D+02 0.555297312102020D+02 0.682268079513642D+02
 0.473955626121149D+03 -.427737363149404D+03 -.152398943398548D+03 0.100667742623405D+03
 0.729222331293506D+03 0.444996589443330D+03 0.480537440747864D+03 -.320666511941041D+03
0.774974096407D-03 0.000000000000D+00 0.000000000000D+00 0.651346139284D-05 0.000000000000D+00  7 1 -2 -24 -11 11 23 21 0 0.50695849D+00 0.82778321D-02 0.13049205D+06 0.13049205D+06 0.13049205D+06 0.11123587D+01  1  2  2  1  7  1        1 0.268977428393D-02 0.100000000000D+01
-.418243281292D-04 0.000000000000D+00 -.297610458557D-05 0.651346139284D-05 0.000000000000D+00  7 1 -2 -24 -11 11 23 21 2 0.50695849D+00 0.82778321D-02 0.13049205D+06 0.13049205D+06 0.13049205D+06 0.11123587D+01  1  2  3  1  7  1        1 -.179616945273D-03 0.100000000000D+01
0.511057330731D-04 0.000000000000D+00 0.000000000000D+00 0.651346139284D-05 0.000000000000D+00  7 1 -2 -24 -11 11 23 21 2 0.50695849D+00 0.82778321D-02 0.13049205D+06 0.13049205D+06 0.13049205D+06 0.11123587D+01  1  2 15  1  7  1        1 0.219476464324D-03 0.100000000000D+01
  </mgrwgt>
  </event>
  <event>
  8     66 0.29493621E-05 0.25759010E+03 0.75467711E-02 0.10155147E+00
        1 -1    0    0  501    0 0.00000000E+00 0.00000000E+00 0.43175319E+03 0.43175331E+03 0.32000000E+00 0.0000E+00 0.9000E+01
       -2 -1    0    0    0  501 0.00000000E+00 0.00000000E+00 -.69391219E+03 0.69391226E+03 0.32000000E+00 0.0000E+00 0.9000E+01
       25  2    1    2    0    0 -.14078739E+03 -.15366203E+03 0.33039150E+03 0.49240700E+03 0.29978827E+03 0.0000E+00 0.0000E+00
       23  2    3    3    0    0 -.90884858E+02 -.15601208E+03 0.76225500E+02 0.21779566E+03 0.94998917E+02 0.0000E+00 0.0000E+00
      -24  1    1    2    0    0 0.14078739E+03 0.15366203E+03 -.59255050E+03 0.63325857E+03 0.80419002E+02 0.0000E+00 0.9000E+01
      -11  1    4    4    0    0 -.84928893E+02 -.98743581E+02 0.10870819E+02 0.13069578E+03 0.51099893E-03 0.0000E+00 0.9000E+01
       11  1    4    4    0    0 -.59559658E+01 -.57268501E+02 0.65354681E+02 0.87099880E+02 0.51099893E-03 0.0000E+00 0.9000E+01
       23  1    3    3    0    0 -.49902528E+02 0.23500548E+01 0.25416600E+03 0.27461135E+03 0.91188000E+02 0.0000E+00 0.9000E+01
#aMCatNLO 1  0  0  1  1 0.45004937D+02 0.00000000D+00  -5  7  0 0.00000000D+00 0.00000000D+00 0.00000000D+00 0.00000000D+00 0.00000000D+00
  <mgrwgt>
 0.1182586578D-02    4    2    0
 0.547356291788394D+03 0.000000000000000D+00 0.000000000000000D+00 0.547356291788394D+03
 0.547356291788394D+03 0.000000000000000D+00 0.000000000000000D+00 -.547356291788394D+03
 0.509261456086560D+03 0.140787386157818D+03 0.153662026614849D+03 -.457653698965167D+03
 0.136994515389263D+03 -.849288925546950D+02 -.987435805692533D+02 0.424768849203359D+02
 0.105213601231558D+03 -.595596580321981D+01 -.572685008153938D+02 0.880610422935221D+02
 0.343243010869407D+03 -.499025277999037D+02 0.235005476979808D+01 0.327115771751309D+03
 0.000000000000000D+00 0.000000000000000D+00 -.000000000000000D+00 -.000000000000000D+00
 0.551666151315727D+03 0.000000000000000D+00 0.000000000000000D+00 0.551666151315727D+03
 0.679426357766602D+03 0.000000000000000D+00 0.000000000000000D+00 -.679426357766602D+03
 0.512514004209244D+03 0.130843786363405D+03 0.172152211573976D+03 -.457653698965167D+03
 0.135188673480846D+03 -.875776943766805D+02 -.938181172942630D+02 0.424768849203359D+02
 0.103344895926988D+03 -.798559198828054D+01 -.534943984444652D+02 0.880610422935221D+02
 0.344589722648532D+03 -.565963012299483D+02 0.147971676217808D+02 0.327115771751309D+03
 0.135455212816719D+03 0.213158012315039D+02 -.396368634570283D+02 -.127760206450876D+03
0.271152504349D-03 0.000000000000D+00 0.000000000000D+00 0.214178386123D-05 0.000000000000D+00  7 1 -2 -24 -11 11 23 21 0 0.66423583D-01 0.10675574D+00 0.66352662D+05 0.66352662D+05 0.66352662D+05 0.11366405D+01  1  2  2  1  7  1        1 0.121297575414D-02 0.100000000000D+01
-.465872717149D-05 0.000000000000D+00 -.104129701279D-05 0.214178386123D-05 0.000000000000D+00  7 1 -2 -24 -11 11 23 21 2 0.66423583D-01 0.10675574D+00 0.66352662D+05 0.66352662D+05 0.66352662D+05 0.11366405D+01  1  2  3  1  7  1        1 -.269247734994D-04 0.100000000000D+01
0.166589985667D-04 0.000000000000D+00 0.000000000000D+00 0.214178386123D-05 0.000000000000D+00  7 1 -2 -24 -11 11 23 21 2 0.66423583D-01 0.10675574D+00 0.66352662D+05 0.66352662D+05 0.66352662D+05 0.11366405D+01  1  2 15  1  7  1        1 0.962794657476D-04 0.100000000000D+01
-.172584355996D-04 0.000000000000D+00 0.000000000000D+00 0.214178386123D-05 0.000000000000D+00  7 1 -2 -24 -11 11 23 21 2 0.66423583D-01 0.10675574D+00 0.66352662D+05 0.66352662D+05 0.66352662D+05 0.11366405D+01  1  2  4  1  7  1        1 -.997438683073D-04 0.100000000000D+01
  </mgrwgt>
  </event>
  <event>
  8     66 0.29493621E-05 0.25103667E+03 0.75467711E-02 0.93744465E-01
        1 -1    0    0  501    0 0.00000000E+00 0.00000000E+00 0.82871608E+03 0.82871614E+03 0.32000000E+00 0.0000E+00 0.9000E+01
       -2 -1    0    0    0  501 0.00000000E+00 0.00000000E+00 -.15472561E+03 0.15472594E+03 0.32000000E+00 0.0000E+00 0.9000E+01
       25  2    1    2    0    0 0.45794323E+02 0.16258775E+03 0.71375128E+03 0.79218301E+03 0.29930108E+03 0.0000E+00 0.0000E+00
       23  2    3    3    0    0 0.81924592E+02 0.19339347E+03 0.38731304E+03 0.44993812E+03 0.91215388E+02 0.0000E+00 0.0000E+00
      -24  1    1    2    0    0 -.45794323E+02 -.16258775E+03 -.39760807E+02 0.19125907E+03 0.80419002E+02 0.0000E+00 0.9000E+01
      -11  1    4    4    0    0 0.77139346E+02 0.15140070E+03 0.36391255E+03 0.40162793E+03 0.51099893E-03 0.0000E+00 0.9000E+01
       11  1    4    4    0    0 0.47852461E+01 0.41992770E+02 0.23400488E+02 0.48310187E+02 0.51099893E-03 0.0000E+00 0.9000E+01
       23  1    3    3    0    0 -.36130268E+02 -.30805725E+02 0.32643824E+03 0.34224489E+03 0.91188000E+02 0.0000E+00 0.9000E+01
#aMCatNLO 1  0  0  2  1 0.43212046D+03 0.00000000D+00  -5  7  0 0.00000000D+00 0.00000000D+00 0.00000000D+00 0.00000000D+00 0.00000000D+00
  <mgrwgt>
 0.1056650993D-02    5    2    0
 0.358083500841726D+03 0.000000000000000D+00 0.000000000000000D+00 0.358083500841726D+03
 0.358083500841726D+03 0.000000000000000D+00 0.000000000000000D+00 -.358083500841726D+03
 0.300056588244385D+03 -.457943232156038D+02 -.162587747965949D+03 -.234595064669049D+03
 0.209035348381514D+03 0.771393455329478D+02 0.151400702627310D+03 0.121750258676055D+03
 0.443172676491965D+02 0.478524611680622D+01 0.419927699397405D+02 -.133315004511923D+02
 0.162757797408357D+03 -.361302684341502D+02 -.308057246011007D+02 0.126176306444186D+03
 0.000000000000000D+00 0.000000000000000D+00 -.000000000000000D+00 -.000000000000000D+00
 0.599463028092626D+03 0.000000000000000D+00 0.000000000000000D+00 0.599463028092626D+03
 0.675779666542441D+03 0.000000000000000D+00 0.000000000000000D+00 -.675779666542441D+03
 0.305167115420585D+03 -.170764413009804D+03 -.496429578298067D+02 -.234595064669049D+03
 0.270860518965848D+03 -.219523279608317D+02 0.240957237998492D+03 0.121750258676055D+03
 0.666065918685700D+02 -.181189537688084D+02 0.626930035202486D+02 -.133315004511923D+02
 0.193800628142096D+03 -.109754513796795D+03 0.357339966642816D+02 0.126176306444186D+03
 0.438807840237968D+03 0.320590208536239D+03 -.289741280353216D+03 -.763166384498151D+02
0.262386928511D-04 0.000000000000D+00 0.000000000000D+00 0.271956065279D-05 0.000000000000D+00  7 1 -2 -24 -11 11 23 21 0 0.12749481D+00 0.23803970D-01 0.63019408D+05 0.63019408D+05 0.63019408D+05 0.11385586D+01  1  2  2  2  7  2       -2 0.908166966726D-03 0.100000000000D+01
-.123413344019D-05 0.000000000000D+00 -.100763489355D-06 0.271956065279D-05 0.000000000000D+00  7 1 -2 -24 -11 11 23 21 2 0.12749481D+00 0.23803970D-01 0.63019408D+05 0.63019408D+05 0.63019408D+05 0.11385586D+01  1  2  3  2  7  2       -2 -.553727914451D-04 0.100000000000D+01
0.163138230033D-05 0.000000000000D+00 0.000000000000D+00 0.271956065279D-05 0.000000000000D+00  7 1 -2 -24 -11 11 23 21 2 0.12749481D+00 0.23803970D-01 0.63019408D+05 0.63019408D+05 0.63019408D+05 0.11385586D+01  1  2 15  2  7  2       -2 0.731964542419D-04 0.100000000000D+01
0.875795778540D-05 0.000000000000D+00 -.849888007004D-05 0.271956065279D-05 0.000000000000D+00  7 1 -2 -24 -11 11 23 21 2 0.12749481D+00 0.73464371D-01 0.63019408D+05 0.63019408D+05 0.63019408D+05 0.11385586D+01  1  2  5  2  7  2       -2 0.469093890175D-04 0.100000000000D+01
0.153003090045D-05 0.000000000000D+00 -.109561089095D-05 0.271956065279D-05 0.000000000000D+00  7 1 21 -24 -11 11 23 2 2 0.12749481D+00 0.73464371D-01 0.63019408D+05 0.63019408D+05 0.63019408D+05 0.11385586D+01  1  2  5  4  7  2       -2 0.837509740243D-04 0.100000000000D+01
  </mgrwgt>
  </event>
  <event>
  8     66 0.29493621E-05 0.18548576E+03 0.75467711E-02 0.99465009E-01
        1 -1    0    0  501    0 0.00000000E+00 0.00000000E+00 0.19627433E+04 0.19627433E+04 0.32000000E+00 0.0000E+00 0.9000E+01
       -2 -1    0    0    0  501 0.00000000E+00 0.00000000E+00 -.26152175E+02 0.26154133E+02 0.32000000E+00 0.0000E+00 0.9000E+01
       25  2    1    2    0    0 -.76462937E+02 0.57899353E+02 0.15801296E+04 0.16111000E+04 0.29939040E+03 0.0000E+00 0.0000E+00
       23  2    3    3    0    0 -.42463250E+02 -.62760944E+02 0.32936176E+03 0.35076257E+03 0.93878377E+02 0.0000E+00 0.0000E+00
      -24  1    1    2    0    0 0.76462937E+02 -.57899353E+02 0.35646150E+03 0.37779748E+03 0.80419002E+02 0.0000E+00 0.9000E+01
      -13  1    4    4    0    0 -.17408386E+02 0.53544240E+01 0.57315044E+01 0.19094059E+02 0.10565837E+00 0.0000E+00 0.9000E+01
       13  1    4    4    0    0 -.25054864E+02 -.68115368E+02 0.32363025E+03 0.33166851E+03 0.10565837E+00 0.0000E+00 0.9000E+01
       23  1    3    3    0    0 -.33999687E+02 0.12066030E+03 0.12507678E+04 0.12603374E+04 0.91188000E+02 0.0000E+00 0.9000E+01
#aMCatNLO 1  0  0  1  1 0.22278129D+03 0.00000000D+00  -5  7  0 0.00000000D+00 0.00000000D+00 0.00000000D+00 0.00000000D+00 0.00000000D+00
  <mgrwgt>
 0.8383098396D-03    5    2    0
 0.226565618134309D+03 0.000000000000000D+00 0.000000000000000D+00 0.226565618134309D+03
 0.226565618134309D+03 0.000000000000000D+00 0.000000000000000D+00 -.226565618134309D+03
 0.134795968872796D+03 0.764629406562705D+02 -.578993560330726D+02 -.500381908859274D+02
 0.593129107398039D+02 -.174083768094905D+02 0.535450181751272D+01 -.564473126691873D+02
 0.726394143918604D+02 -.250548723564453D+02 -.681154536089339D+02 0.300380992138567D+01
 0.186382942264158D+03 -.339996914903347D+02 0.120660307824494D+03 0.103481693633729D+03
 0.000000000000000D+00 0.000000000000000D+00 -.000000000000000D+00 0.000000000000000D+00
 0.412624197515407D+03 0.000000000000000D+00 0.000000000000000D+00 0.412624197515407D+03
 0.329940894330787D+03 0.000000000000000D+00 0.000000000000000D+00 -.329940894330787D+03
 0.120776890590639D+03 0.749249071783048D+02 0.150966339245421D+01 -.500381908859274D+02
 0.689469613883352D+02 -.181802427174231D+02 0.351690652683175D+02 -.564473126691873D+02
 0.477850060191667D+02 -.257795846382800D+02 -.401222748867227D+02 0.300380992138567D+01
 0.267426205957625D+03 -.367307078589646D+02 0.226150212185981D+03 0.103481693633729D+03
 0.237630027890429D+03 0.576562803636276D+01 -.222706665960030D+03 0.826833031846204D+02
0.922718293076D-05 0.000000000000D+00 0.000000000000D+00 0.896224579692D-07 0.000000000000D+00  7 1 -2 -24 -13 13 23 21 0 0.30196066D+00 0.40235642D-02 0.34404969D+05 0.34404969D+05 0.34404969D+05 0.11618553D+01  1  2  2  1  7  1        1 0.832808856777D-03 0.100000000000D+01
-.487676283648D-06 0.000000000000D+00 -.354348120272D-07 0.896224579692D-07 0.000000000000D+00  7 1 -2 -24 -13 13 23 21 2 0.30196066D+00 0.40235642D-02 0.34404969D+05 0.34404969D+05 0.34404969D+05 0.11618553D+01  1  2  3  1  7  1        1 -.594171699994D-04 0.100000000000D+01
0.588822209272D-06 0.000000000000D+00 0.000000000000D+00 0.896224579692D-07 0.000000000000D+00  7 1 -2 -24 -13 13 23 21 2 0.30196066D+00 0.40235642D-02 0.34404969D+05 0.34404969D+05 0.34404969D+05 0.11618553D+01  1  2 15  1  7  1        1 0.717405182103D-04 0.100000000000D+01
-.159354807386D-05 0.000000000000D+00 -.223254691890D-05 0.896224579692D-07 0.000000000000D+00  7 1 -2 -24 -13 13 23 21 2 0.60611778D+00 0.40235642D-02 0.34404969D+05 0.34404969D+05 0.34404969D+05 0.11618553D+01  1  2  5  1  7  1        1 -.682813564005D-05 0.100000000000D+01
0.142122763572D-07 0.000000000000D+00 -.168293508560D-06 0.896224579692D-07 0.000000000000D+00  7 21 -2 -24 -13 13 23 -1 2 0.60611778D+00 0.40235642D-02 0.34404969D+05 0.34404969D+05 0.34404969D+05 0.11618553D+01  1  2  5  3  7  1        1 0.577024690001D-08 0.100000000000D+01
  </mgrwgt>
  </event>
  <event>
  8     66 0.29493621E-05 0.12105569E+03 0.75467711E-02 0.10258038E+00
        1 -1    0    0  501    0 0.00000000E+00 0.00000000E+00 0.89419021E+03 0.89419027E+03 0.32000000E+00 0.0000E+00 0.9000E+01
       -2 -1    0    0    0  501 0.00000000E+00 0.00000000E+00 -.78330230E+02 0.78330884E+02 0.32000000E+00 0.0000E+00 0.9000E+01
       25  2    1    2    0    0 -.16209613E+03 -.35292220E+02 0.55035173E+03 0.64928356E+03 0.30192949E+03 0.0000E+00 0.0000E+00
       23  2    3    3    0    0 -.15809097E+03 -.86761253E+02 0.21362702E+03 0.29663092E+03 0.99162125E+02 0.0000E+00 0.0000E+00
      -24  1    1    2    0    0 0.16209613E+03 0.35292220E+02 0.26550825E+03 0.32323759E+03 0.80419002E+02 0.0000E+00 0.9000E+01
      -11  1    4    4    0    0 0.12561110E+01 -.63552928E+01 0.62282704E+02 0.62618710E+02 0.51099893E-03 0.0000E+00 0.9000E+01
       11  1    4    4    0    0 -.15934708E+03 -.80405960E+02 0.15134431E+03 0.23401221E+03 0.51099893E-03 0.0000E+00 0.9000E+01
       23  1    3    3    0    0 -.40051532E+01 0.51469033E+02 0.33672471E+03 0.35265264E+03 0.91188000E+02 0.0000E+00 0.9000E+01
#aMCatNLO 1  0  0  2  1 0.46508141D+02 0.00000000D+00  -5  7  0 0.00000000D+00 0.00000000D+00 0.00000000D+00 0.00000000D+00 0.00000000D+00
  <mgrwgt>
 0.9789498990D-03    9    2    0
 0.264655381279055D+03 0.000000000000000D+00 0.000000000000000D+00 0.264655381279055D+03
 0.264655381279055D+03 0.000000000000000D+00 0.000000000000000D+00 -.264655381279055D+03
 0.184651149944221D+03 0.162096126366641D+03 0.352922199407610D+02 -.103988581072932D+02
 0.190512917285679D+02 0.125611094870084D+01 -.635529276621666D+01 0.179160306895034D+02
 0.196682288571377D+03 -.159347084107903D+03 -.804059603730623D+02 -.826275435945469D+02
 0.128926032313944D+03 -.400515320743823D+01 0.514690331985179D+02 0.751103710123367D+02
 0.000000000000000D+00 0.000000000000000D+00 0.000000000000000D+00 -.000000000000000D+00
 0.268355324559638D+03 0.000000000000000D+00 0.000000000000000D+00 0.268355324559638D+03
 0.467426061934876D+03 0.000000000000000D+00 0.000000000000000D+00 -.467426061934876D+03
 0.174618598617609D+03 0.153015251197453D+03 0.224195379045100D+02 -.103988581072932D+02
 0.195173697702956D+02 0.281252358697500D+00 -.773721294743454D+01 0.179160306895034D+02
 0.211283875119544D+03 -.169658806206855D+03 -.950234413264817D+02 -.826275435945469D+02
 0.125930220482208D+03 -.104468807032631D+02 0.423375003591182D+02 0.751103710123367D+02
 0.204431322504857D+03 0.268091833539675D+02 0.380036160102881D+02 -.199070737375238D+03
0.980420933444D-05 0.000000000000D+00 0.000000000000D+00 0.487268518383D-08 0.000000000000D+00  7 1 -2 -24 -11 11 23 21 0 0.13756778D+00 0.12050859D-01 0.56194536D+05 0.56194536D+05 0.56194536D+05 0.11428603D+01  1  2  2  2  7  2       -2 0.901471211238D-03 0.100000000000D+01
-.536644503175D-06 0.000000000000D+00 -.376507453518D-07 0.487268518383D-08 0.000000000000D+00  7 1 -2 -24 -11 11 23 21 2 0.13756778D+00 0.12050859D-01 0.56194536D+05 0.56194536D+05 0.56194536D+05 0.11428603D+01  1  2  3  2  7  2       -2 -.644484153615D-04 0.100000000000D+01
0.616764052405D-06 0.000000000000D+00 0.000000000000D+00 0.487268518383D-08 0.000000000000D+00  7 1 -2 -24 -11 11 23 21 2 0.13756778D+00 0.12050859D-01 0.56194536D+05 0.56194536D+05 0.56194536D+05 0.11428603D+01  1  2 15  2  7  2       -2 0.740703866233D-04 0.100000000000D+01
0.743515312986D-04 0.000000000000D+00 0.000000000000D+00 0.487268518383D-08 0.000000000000D+00  7 1 -2 -24 -11 11 23 21 2 0.13756778D+00 0.21309398D-01 0.68668814D+05 0.68668814D+05 0.68668814D+05 0.11353692D+01  1  2 12  2  7  2       -2 0.352780098310D-02 0.100000000000D+01
-.654852844779D-04 0.000000000000D+00 0.000000000000D+00 0.487268518383D-08 0.000000000000D+00  7 1 -2 -24 -11 11 23 21 2 0.13756778D+00 0.12050859D-01 0.56194536D+05 0.56194536D+05 0.56194536D+05 0.11428603D+01  1  2  4  2  7  2       -2 -.786446667977D-02 0.100000000000D+01
-.752697500046D-04 0.000000000000D+00 -.340293614019D-05 0.487268518383D-08 0.000000000000D+00  7 1 -2 -24 -11 11 23 21 2 0.13756778D+00 0.21463428D-01 0.56194536D+05 0.56194536D+05 0.56194536D+05 0.11428603D+01  1  2  5  2  7  2       -2 -.358590125547D-02 0.100000000000D+01
0.663654625915D-04 0.000000000000D+00 0.290535056883D-05 0.487268518383D-08 0.000000000000D+00  7 1 -2 -24 -11 11 23 21 2 0.13756778D+00 0.12050859D-01 0.56194536D+05 0.56194536D+05 0.56194536D+05 0.11428603D+01  1  2  6  2  7  2       -2 0.797017182409D-02 0.100000000000D+01
0.466814662628D-05 0.000000000000D+00 0.000000000000D+00 0.487268518383D-08 0.000000000000D+00  7 1 21 -24 -11 11 23 2 2 0.13756778D+00 0.21309398D-01 0.68668814D+05 0.68668814D+05 0.68668814D+05 0.11353692D+01  1  2 12  4  7  2       -2 0.283436174375D-02 0.100000000000D+01
-.459887409176D-05 0.000000000000D+00 -.215959751219D-06 0.487268518383D-08 0.000000000000D+00  7 1 21 -24 -11 11 23 2 2 0.13756778D+00 0.21463428D-01 0.56194536D+05 0.56194536D+05 0.56194536D+05 0.11428603D+01  1  2  5  4  7  2       -2 -.281410989921D-02 0.100000000000D+01
  </mgrwgt>
  </event>
  <event>
  8     66 0.29493621E-05 0.17982212E+03 0.75467711E-02 0.91396073E-01
        1 -1    0    0  501    0 0.00000000E+00 0.00000000E+00 0.94402092E+03 0.94402097E+03 0.32000000E+00 0.0000E+00 0.9000E+01
       -2 -1    0    0    0  501 0.00000000E+00 0.00000000E+00 -.59602246E+02 0.59603105E+02 0.32000000E+00 0.0000E+00 0.9000E+01
       25  2    1    2    0    0 0.37183466E+02 0.69846904E+02 0.81320400E+03 0.87020764E+03 0.29949857E+03 0.0000E+00 0.0000E+00
       23  2    3    3    0    0 0.15368327E+02 -.59917414E+02 0.99728497E+02 0.13899138E+03 0.74475148E+02 0.0000E+00 0.0000E+00
      -24  1    1    2    0    0 -.37183466E+02 -.69846904E+02 0.71214671E+02 0.13341644E+03 0.80419002E+02 0.0000E+00 0.9000E+01
      -13  1    4    4    0    0 -.19063946E+02 -.45628406E+02 0.24844840E+02 0.55341329E+02 0.10565837E+00 0.0000E+00 0.9000E+01
       13  1    4    4    0    0 0.34432273E+02 -.14289008E+02 0.74883657E+02 0.83650048E+02 0.10565837E+00 0.0000E+00 0.9000E+01
       23  1    3    3    0    0 0.21815138E+02 0.12976432E+03 0.71347551E+03 0.73121627E+03 0.91188000E+02 0.0000E+00 0.9000E+01
#aMCatNLO 1  0  0  2  1 0.62256757D+03 0.00000000D+00  -5  7  0 0.00000000D+00 0.00000000D+00 0.00000000D+00 0.00000000D+00 0.00000000D+00
  <mgrwgt>
 0.3707372666D-02    5    2    0
 0.237205027782567D+03 0.000000000000000D+00 0.000000000000000D+00 0.237205027782567D+03
 0.237205027782567D+03 0.000000000000000D+00 0.000000000000000D+00 -.237205027782567D+03
 0.149483265059654D+03 -.371834666558452D+02 -.698469053168013D+02 -.980654383748096D+02
 0.707587885802764D+02 -.190640481572844D+02 -.456284694923290D+02 -.506103843197480D+02
 0.373614825949210D+02 0.344323753084416D+02 -.142889466296625D+02 0.247344224186950D+01
 0.216806519330282D+03 0.218151395046880D+02 0.129764321438793D+03 0.146202380452688D+03
 0.000000000000000D+00 0.000000000000000D+00 0.000000000000000D+00 -.000000000000000D+00
 0.502777590998360D+03 0.000000000000000D+00 0.000000000000000D+00 0.502777590998360D+03
 0.126105265816514D+04 0.000000000000000D+00 0.000000000000000D+00 -.126105265816514D+04
 0.307002965366821D+03 -.261303722931284D+03 -.994340935909721D+02 -.980654383748096D+02
 0.149383341391181D+03 -.127146849559924D+03 -.598969976809172D+02 -.506103843197480D+02
 0.192995088125715D+02 0.661362620136851D+01 -.179614329147547D+02 0.247344224186950D+01
 0.307037173931448D+03 -.235375493983656D+03 0.958113543048406D+02 0.146202380452688D+03
 0.981107259661479D+03 0.617212440273495D+03 0.814811698818034D+02 -.758275067166781D+03
0.261047362339D-04 0.000000000000D+00 0.000000000000D+00 0.489841482876D-08 0.000000000000D+00  7 1 -2 -24 -13 13 23 21 0 0.14523406D+00 0.91696465D-02 0.32335996D+05 0.32335996D+05 0.32335996D+05 0.11643265D+01  1  2  2  2  7  2       -2 0.333803682791D-02 0.100000000000D+01
-.131500851010D-05 0.000000000000D+00 -.100249060673D-06 0.489841482876D-08 0.000000000000D+00  7 1 -2 -24 -13 13 23 21 2 0.14523406D+00 0.91696465D-02 0.32335996D+05 0.32335996D+05 0.32335996D+05 0.11643265D+01  1  2  3  2  7  2       -2 -.227955427148D-03 0.100000000000D+01
0.161706002405D-05 0.000000000000D+00 0.000000000000D+00 0.489841482876D-08 0.000000000000D+00  7 1 -2 -24 -13 13 23 21 2 0.14523406D+00 0.91696465D-02 0.32335996D+05 0.32335996D+05 0.32335996D+05 0.11643265D+01  1  2 15  2  7  2       -2 0.280315758928D-03 0.100000000000D+01
0.461003333303D-04 0.000000000000D+00 -.207724891018D-04 0.489841482876D-08 0.000000000000D+00  7 1 -2 -24 -13 13 23 21 2 0.14523406D+00 0.10096594D+00 0.32335996D+05 0.32335996D+05 0.32335996D+05 0.11643265D+01  1  2  5  2  7  2       -2 0.105061648396D-03 0.100000000000D+01
0.936678245718D-05 0.000000000000D+00 -.586428632033D-05 0.489841482876D-08 0.000000000000D+00  7 1 21 -24 -13 13 23 2 2 0.14523406D+00 0.10096594D+00 0.32335996D+05 0.32335996D+05 0.32335996D+05 0.11643265D+01  1  2  5  4  7  2       -2 0.211913858208D-03 0.100000000000D+01
  </mgrwgt>
  </event>
  <event>
  8     66 0.29493621E-05 0.38240721E+03 0.75467711E-02 0.94525718E-01
        1 -1    0    0  501    0 0.00000000E+00 0.00000000E+00 0.10241488E+04 0.10241488E+04 0.32000000E+00 0.0000E+00 0.9000E+01
       -2 -1    0    0    0  501 0.00000000E+00 0.00000000E+00 -.18048127E+03 0.18048156E+03 0.32000000E+00 0.0000E+00 0.9000E+01
       25  2    1    2    0    0 -.44575568E+02 0.34465914E+03 0.65821349E+03 0.80258894E+03 0.30021177E+03 0.0000E+00 0.0000E+00
       23  2    3    3    0    0 0.50871163E+02 0.21105276E+02 0.94263558E+02 0.13914945E+03 0.86276551E+02 0.0000E+00 0.0000E+00
      -24  1    1    2    0    0 0.44575568E+02 -.34465914E+03 0.18545400E+03 0.40204142E+03 0.80419002E+02 0.0000E+00 0.9000E+01
      -13  1    4    4    0    0 0.15591704E+02 -.30656297E+01 0.95057579E+02 0.96376625E+02 0.10565837E+00 0.0000E+00 0.9000E+01
       13  1    4    4    0    0 0.35279459E+02 0.24170906E+02 -.79402106E+00 0.42772825E+02 0.10565837E+00 0.0000E+00 0.9000E+01
       23  1    3    3    0    0 -.95446731E+02 0.32355387E+03 0.56394993E+03 0.66343949E+03 0.91188000E+02 0.0000E+00 0.9000E+01
#aMCatNLO 1  0  0  2  1 0.22372672D+03 0.00000000D+00  -5  7  0 0.00000000D+00 0.00000000D+00 0.00000000D+00 0.00000000D+00 0.00000000D+00
  <mgrwgt>
 0.1470408594D-02    4    2    0
 0.429930079445264D+03 0.000000000000000D+00 0.000000000000000D+00 0.429930079445264D+03
 0.429930079445264D+03 0.000000000000000D+00 0.000000000000000D+00 -.429930079445264D+03
 0.381282697927355D+03 0.445755683314931D+02 -.344659142773782D+03 -.134656502979835D+03
 0.417523655648387D+02 0.155916741591010D+02 -.306567063288484D+01 0.386103793136899D+02
 0.607021472518610D+02 0.352794890048971D+02 0.241709462239311D+02 -.430798525436172D+02
 0.376122948146474D+03 -.954467314954912D+02 0.323553867182736D+03 0.139125976209762D+03
 0.000000000000000D+00 0.000000000000000D+00 0.000000000000000D+00 0.000000000000000D+00
 0.677930472295550D+03 0.000000000000000D+00 0.000000000000000D+00 0.677930472295550D+03
 0.497792627639098D+03 0.000000000000000D+00 0.000000000000000D+00 -.497792627639098D+03
 0.382710154804279D+03 -.531877573677159D+02 -.345019615829853D+03 -.134656502979835D+03
 0.390886889376502D+02 0.524695651817502D+01 -.310381368863248D+01 0.386103793136899D+02
 0.535207437175565D+02 0.206631092151886D+02 0.241170526901973D+02 -.430798525436172D+02
 0.413169656991797D+03 -.196447506243858D+03 0.323181457000505D+03 0.139125976209762D+03
 0.287233855483365D+03 0.223725197878210D+03 0.824919827783472D+00 0.180137844656451D+03
0.913677234358D-04 0.000000000000D+00 0.000000000000D+00 0.382953537181D-06 0.000000000000D+00  7 1 -2 -24 -13 13 23 21 0 0.15756137D+00 0.27766375D-01 0.14623527D+06 0.14623527D+06 0.14623527D+06 0.11084241D+01  1  2  2  2  7  2       -2 0.167853826103D-02 0.100000000000D+01
-.499130348698D-05 0.000000000000D+00 -.350876115667D-06 0.382953537181D-06 0.000000000000D+00  7 1 -2 -24 -13 13 23 21 2 0.15756137D+00 0.27766375D-01 0.14623527D+06 0.14623527D+06 0.14623527D+06 0.11084241D+01  1  2  3  2  7  2       -2 -.112658595896D-03 0.100000000000D+01
0.592339636869D-05 0.000000000000D+00 0.000000000000D+00 0.382953537181D-06 0.000000000000D+00  7 1 -2 -24 -13 13 23 21 2 0.15756137D+00 0.27766375D-01 0.14623527D+06 0.14623527D+06 0.14623527D+06 0.11084241D+01  1  2 15  2  7  2       -2 0.133696842833D-03 0.100000000000D+01
-.101532120088D-04 0.000000000000D+00 0.000000000000D+00 0.382953537181D-06 0.000000000000D+00  7 1 -2 -24 -13 13 23 21 2 0.15756137D+00 0.27766375D-01 0.14623527D+06 0.14623527D+06 0.14623527D+06 0.11084241D+01  1  2  4  2  7  2       -2 -.229167914099D-03 0.100000000000D+01
  </mgrwgt>
  </event>
  <event>
  8     66 0.29493621E-05 0.24343115E+03 0.75467711E-02 0.99892366E-01
        1 -1    0    0  501    0 0.00000000E+00 0.00000000E+00 0.27231421E+04 0.27231421E+04 0.32000000E+00 0.0000E+00 0.9000E+01
       -2 -1    0    0    0  501 0.00000000E+00 0.00000000E+00 -.23491302E+02 0.23493482E+02 0.32000000E+00 0.0000E+00 0.9000E+01
       25  2    1    2    0    0 0.12968565E+03 -.75624261E+02 0.17593437E+04 0.17910300E+04 0.29993472E+03 0.0000E+00 0.0000E+00
       23  2    3    3    0    0 0.11878596E+03 -.14241482E+03 0.85082603E+03 0.87544309E+03 0.90019980E+02 0.0000E+00 0.0000E+00
      -24  1    1    2    0    0 -.12968565E+03 0.75624261E+02 0.94030710E+03 0.95560559E+03 0.80419002E+02 0.0000E+00 0.9000E+01
      -11  1    4    4    0    0 0.91411049E+02 -.14903425E+03 0.66993941E+03 0.69237706E+03 0.51099893E-03 0.0000E+00 0.9000E+01
       11  1    4    4    0    0 0.27374914E+02 0.66194292E+01 0.18088662E+03 0.18306603E+03 0.51099893E-03 0.0000E+00 0.9000E+01
       23  1    3    3    0    0 0.10899687E+02 0.66790558E+02 0.90851765E+03 0.91558689E+03 0.91188000E+02 0.0000E+00 0.9000E+01
#aMCatNLO 1  0  0  2  1 0.13732069D+03 0.00000000D+00  -5  7  0 0.00000000D+00 0.00000000D+00 0.00000000D+00 0.00000000D+00 0.00000000D+00
  <mgrwgt>
 0.1192023947D-02    7    2    0
 0.252929185984386D+03 0.000000000000000D+00 0.000000000000000D+00 0.252929185984386D+03
 0.252929185984386D+03 0.000000000000000D+00 0.000000000000000D+00 -.252929185984386D+03
 0.170402511919011D+03 -.129685649987162D+03 0.756242613359357D+02 0.569239832929783D+01
 0.184053557630556D+03 0.914110492579325D+02 -.149034248361194D+03 -.575197789064084D+02
 0.286344425476794D+02 0.273749137487879D+02 0.661942915255468D+01 0.516996663017080D+01
 0.122767859871526D+03 0.108996869804421D+02 0.667905578727034D+02 0.466574139469398D+02
 0.000000000000000D+00 -.000000000000000D+00 -.000000000000000D+00 -.000000000000000D+00
 0.320113248548128D+03 0.000000000000000D+00 0.000000000000000D+00 0.320113248548128D+03
 0.343320308840461D+03 0.000000000000000D+00 0.000000000000000D+00 -.343320308840461D+03
 0.149585359293319D+03 -.891804230520125D+02 0.890113054957941D+02 0.569239832929783D+01
 0.201579944376847D+03 0.140225938564289D+03 -.132900847112781D+03 -.575197789064084D+02
 0.372904646239279D+02 0.357199279380687D+02 0.937747007515971D+01 0.516996663017080D+01
 0.135709916548852D+03 0.436187427119424D+02 0.776042596363728D+02 0.466574139469398D+02
 0.139267872545644D+03 -.130384186162287D+03 -.430921880945456D+02 -.232070602923322D+02
0.351506186566D-04 0.000000000000D+00 0.000000000000D+00 0.118890168586D-05 0.000000000000D+00  7 1 -2 -24 -11 11 23 21 0 0.41894510D+00 0.36142156D-02 0.59258726D+05 0.59258726D+05 0.59258726D+05 0.11408615D+01  1  2  2  2  7  2       -2 0.114530148698D-02 0.100000000000D+01
-.194933373324D-05 0.000000000000D+00 -.134987631012D-06 0.118890168586D-05 0.000000000000D+00  7 1 -2 -24 -11 11 23 21 2 0.41894510D+00 0.36142156D-02 0.59258726D+05 0.59258726D+05 0.59258726D+05 0.11408615D+01  1  2  3  2  7  2       -2 -.826682842294D-04 0.100000000000D+01
0.230344764484D-05 0.000000000000D+00 0.000000000000D+00 0.118890168586D-05 0.000000000000D+00  7 1 -2 -24 -11 11 23 21 2 0.41894510D+00 0.36142156D-02 0.59258726D+05 0.59258726D+05 0.59258726D+05 0.11408615D+01  1  2 15  2  7  2       -2 0.976857176196D-04 0.100000000000D+01
-.115428219529D-04 0.000000000000D+00 0.000000000000D+00 0.118890168586D-05 0.000000000000D+00  7 1 -2 -24 -11 11 23 21 2 0.41894510D+00 0.36142156D-02 0.59258726D+05 0.59258726D+05 0.59258726D+05 0.11408615D+01  1  2  4  2  7  2       -2 -.489513555193D-03 0.100000000000D+01
-.113174231745D-04 0.000000000000D+00 -.116536288071D-04 0.118890168586D-05 0.000000000000D+00  7 1 -2 -24 -11 11 23 21 2 0.41894510D+00 0.70364896D-02 0.59258726D+05 0.59258726D+05 0.59258726D+05 0.11408615D+01  1  2  5  2  7  2       -2 -.178560397417D-03 0.100000000000D+01
0.172829759178D-04 0.000000000000D+00 0.947244794513D-05 0.118890168586D-05 0.000000000000D+00  7 1 -2 -24 -11 11 23 21 2 0.41894510D+00 0.36142156D-02 0.59258726D+05 0.59258726D+05 0.59258726D+05 0.11408615D+01  1  2  6  2  7  2       -2 0.732944770380D-03 0.100000000000D+01
-.134476655928D-06 0.000000000000D+00 -.841506080170D-06 0.118890168586D-05 0.000000000000D+00  7 1 21 -24 -11 11 23 2 2 0.41894510D+00 0.70364896D-02 0.59258726D+05 0.59258726D+05 0.59258726D+05 0.11408615D+01  1  2  5  4  7  2       -2 -.331657907200D-04 0.100000000000D+01
  </mgrwgt>
  </event>
  <event>
  8     66 0.29493621E-05 0.19100244E+03 0.75467711E-02 0.91880575E-01
        1 -1    0    0  501    0 0.00000000E+00 0.00000000E+00 0.46471498E+03 0.46471509E+03 0.32000000E+00 0.0000E+00 0.9000E+01
       -2 -1    0    0    0  501 0.00000000E+00 0.00000000E+00 -.16296797E+03 0.16296829E+03 0.32000000E+00 0.0000E+00 0.9000E+01
       25  2    1    2    0    0 0.20084404E+02 -.12231156E+03 0.34381080E+03 0.47406020E+03 0.30193327E+03 0.0000E+00 0.0000E+00
       23  2    3    3    0    0 0.55916599E+02 -.61230047E+02 0.33560763E+03 0.35831288E+03 0.94232969E+02 0.0000E+00 0.0000E+00
      -24  1    1    2    0    0 -.20084404E+02 0.12231156E+03 -.42063794E+02 0.15362318E+03 0.80419002E+02 0.0000E+00 0.9000E+01
      -11  1    4    4    0    0 -.19625685E+02 0.27291073E+01 0.22742400E+02 0.30163427E+02 0.51099893E-03 0.0000E+00 0.9000E+01
       11  1    4    4    0    0 0.75542285E+02 -.63959154E+02 0.31286523E+03 0.32814945E+03 0.51099893E-03 0.0000E+00 0.9000E+01
       23  1    3    3    0    0 -.35832195E+02 -.61081516E+02 0.82031667E+01 0.11574732E+03 0.91188000E+02 0.0000E+00 0.9000E+01
#aMCatNLO 1  0  0  1  1 0.59773323D+03 0.00000000D+00  -5  7  0 0.00000000D+00 0.00000000D+00 0.00000000D+00 0.00000000D+00 0.00000000D+00
  <mgrwgt>
 0.1413649621D-02    3    2    0
 0.275197729265487D+03 0.000000000000000D+00 0.000000000000000D+00 0.275197729265487D+03
 0.275197729265487D+03 0.000000000000000D+00 0.000000000000000D+00 -.275197729265487D+03
 0.198256245992537D+03 -.200844042810674D+02 0.122311562371987D+03 -.132192365647495D+03
 0.219308319964532D+02 -.196256852925279D+02 0.272910728509156D+01 0.939924689971342D+01
 0.202704813348509D+03 0.755422847202184D+02 -.639591540562938D+02 0.176894972190581D+03
 0.127503567193474D+03 -.358321951466231D+02 -.610815156007851D+02 -.541018534428001D+02
 0.000000000000000D+00 0.000000000000000D+00 0.000000000000000D+00 -.000000000000000D+00
 0.632706948462091D+03 0.000000000000000D+00 0.000000000000000D+00 0.632706948462091D+03
 0.800733229367164D+03 0.000000000000000D+00 0.000000000000000D+00 -.800733229367164D+03
 0.312152529651761D+03 -.243896298007955D+03 0.118371280706751D+03 -.132192365647495D+03
 0.536342648630184D+02 -.527606317017570D+02 0.214575570515186D+01 0.939924689971342D+01
 0.218445577271399D+03 -.109130218900974D+03 -.672103739444551D+02 0.176894972190581D+03
 0.228306968585712D+03 -.191853473817223D+03 -.638283212932595D+02 -.541018534428001D+02
 0.620900837457364D+03 0.597640622427909D+03 0.105216588258117D+02 -.168026280905073D+03
0.188177623997D-04 0.000000000000D+00 0.000000000000D+00 0.425181591047D-07 0.000000000000D+00  7 1 -2 -24 -11 11 23 21 0 0.71494644D-01 0.25072028D-01 0.36481932D+05 0.36481932D+05 0.36481932D+05 0.11595346D+01  1  2  2  1  7  1        1 0.138105607501D-02 0.100000000000D+01
-.875900991153D-06 0.000000000000D+00 -.722651624454D-07 0.425181591047D-07 0.000000000000D+00  7 1 -2 -24 -11 11 23 21 2 0.71494644D-01 0.25072028D-01 0.36481932D+05 0.36481932D+05 0.36481932D+05 0.11595346D+01  1  2  3  1  7  1        1 -.864302548105D-04 0.100000000000D+01
0.120621032054D-05 0.000000000000D+00 0.000000000000D+00 0.425181591047D-07 0.000000000000D+00  7 1 -2 -24 -11 11 23 21 2 0.71494644D-01 0.25072028D-01 0.36481932D+05 0.36481932D+05 0.36481932D+05 0.11595346D+01  1  2 15  1  7  1        1 0.119023801106D-03 0.100000000000D+01
  </mgrwgt>
  </event>
  <event>
  8     66 0.29493621E-05 0.23125812E+03 0.75467711E-02 0.10311926E+00
        3 -1    0    0  501    0 0.00000000E+00 0.00000000E+00 0.17480056E+03 0.17480128E+03 0.50000000E+00 0.0000E+00 0.9000E+01
       -4 -1    0    0    0  501 0.00000000E+00 0.00000000E+00 -.35206317E+03 0.35206659E+03 0.15500000E+01 0.0000E+00 0.9000E+01
       25  2    1    2    0    0 0.91963449E+02 -.10109835E+03 -.73739428E+02 0.33749411E+03 0.29964416E+03 0.0000E+00 0.0000E+00
       23  2    3    3    0    0 0.14057051E+03 0.14674503E+02 -.70777962E+02 0.18228450E+03 0.90789371E+02 0.0000E+00 0.0000E+00
      -24  1    1    2    0    0 -.91963449E+02 0.10109835E+03 -.10352318E+03 0.18937375E+03 0.80419002E+02 0.0000E+00 0.9000E+01
      -11  1    4    4    0    0 0.99817808E+02 -.11269235E+02 -.85360144E+02 0.13182164E+03 0.51099893E-03 0.0000E+00 0.9000E+01
       11  1    4    4    0    0 0.40752707E+02 0.25943738E+02 0.14582182E+02 0.50462865E+02 0.51099893E-03 0.0000E+00 0.9000E+01
       23  1    3    3    0    0 -.48607066E+02 -.11577286E+03 -.29614660E+01 0.15520961E+03 0.91188000E+02 0.0000E+00 0.9000E+01
#aMCatNLO 1  0  0  2  1 0.40342496D+02 0.00000000D+00  -5  7  0 0.00000000D+00 0.00000000D+00 0.00000000D+00 0.00000000D+00 0.00000000D+00
  <mgrwgt>
 0.1035405784D-03    4    2    0
 0.248076457518511D+03 0.000000000000000D+00 0.000000000000000D+00 0.248076457518511D+03
 0.248076457518511D+03 0.000000000000000D+00 0.000000000000000D+00 -.248076457518511D+03
 0.164111008827801D+03 -.919634489078435D+02 0.101098353498394D+03 -.422735644226517D+02
 0.109485245632685D+03 0.998178075478822D+02 -.112692346076653D+02 -.435480040752825D+02
 0.587966665261220D+02 0.407527071022472D+02 0.259437379379562D+02 0.335139869342502D+02
 0.163759994050414D+03 -.486070657422860D+02 -.115772856828685D+03 0.523075815636840D+02
 0.000000000000000D+00 0.000000000000000D+00 0.000000000000000D+00 0.000000000000000D+00
 0.292566545051846D+03 0.000000000000000D+00 0.000000000000000D+00 0.292566545051846D+03
 0.258212016648853D+03 0.000000000000000D+00 0.000000000000000D+00 -.258212016648853D+03
 0.170582609199145D+03 -.105340072123559D+03 0.987300641285376D+02 -.422735644226517D+02
 0.102014363822424D+03 0.913648510719562D+02 -.127658041561204D+02 -.435480040752825D+02
 0.553600661522883D+02 0.361902310993337D+02 0.251359658086469D+02 0.335139869342502D+02
 0.169833310375923D+03 -.619397129762028D+02 -.118133360388286D+03 0.523075815636840D+02
 0.529882121509181D+02 0.397247029284719D+02 0.703313460722171D+01 0.343545284029932D+02
0.111048663933D-04 0.000000000000D+00 0.000000000000D+00 0.100354799876D-05 0.000000000000D+00  7 3 -4 -24 -11 11 23 21 0 0.26892712D-01 0.54163883D-01 0.53480319D+05 0.53480319D+05 0.53480319D+05 0.11447337D+01  1  2  2  2  7  2       -4 0.147883086425D-03 0.100000000000D+01
-.613240209413D-06 0.000000000000D+00 -.426456109288D-07 0.100354799876D-05 0.000000000000D+00  7 3 -4 -24 -11 11 23 21 2 0.26892712D-01 0.54163883D-01 0.53480319D+05 0.53480319D+05 0.53480319D+05 0.11447337D+01  1  2  3  2  7  2       -4 -.107015017530D-04 0.100000000000D+01
0.734185328600D-06 0.000000000000D+00 0.000000000000D+00 0.100354799876D-05 0.000000000000D+00  7 3 -4 -24 -11 11 23 21 2 0.26892712D-01 0.54163883D-01 0.53480319D+05 0.53480319D+05 0.53480319D+05 0.11447337D+01  1  2 15  2  7  2       -4 0.128120848249D-04 0.100000000000D+01
-.266195380320D-05 0.000000000000D+00 0.000000000000D+00 0.100354799876D-05 0.000000000000D+00  7 3 -4 -24 -11 11 23 21 2 0.26892712D-01 0.54163883D-01 0.53480319D+05 0.53480319D+05 0.53480319D+05 0.11447337D+01  1  2  4  2  7  2       -4 -.464530910631D-04 0.100000000000D+01
  </mgrwgt>
  </event>
  <event>
  8     66 0.29493621E-05 0.25360122E+03 0.75467711E-02 0.10170679E+00
        1 -1    0    0  501    0 0.00000000E+00 0.00000000E+00 0.12919323E+04 0.12919323E+04 0.32000000E+00 0.0000E+00 0.9000E+01
       -2 -1    0    0    0  501 0.00000000E+00 0.00000000E+00 -.78019312E+02 0.78019968E+02 0.32000000E+00 0.0000E+00 0.9000E+01
       25  2    1    2    0    0 -.19773981E+03 0.63654242E+02 0.98486385E+03 0.10504470E+04 0.30054829E+03 0.0000E+00 0.0000E+00
       23  2    3    3    0    0 0.55902923E+01 0.29128822E+02 0.57243842E+03 0.58039903E+03 0.91090934E+02 0.0000E+00 0.0000E+00
      -24  1    1    2    0    0 0.19773981E+03 -.63654242E+02 0.22904913E+03 0.31950527E+03 0.80419002E+02 0.0000E+00 0.9000E+01
      -11  1    4    4    0    0 -.19131315E+02 0.28364074E+02 0.53128180E+03 0.53238227E+03 0.51099893E-03 0.0000E+00 0.9000E+01
       11  1    4    4    0    0 0.24721607E+02 0.76474808E+00 0.41156612E+02 0.48016762E+02 0.51099893E-03 0.0000E+00 0.9000E+01
       23  1    3    3    0    0 -.20333010E+03 0.34525421E+02 0.41242543E+03 0.47004800E+03 0.91188000E+02 0.0000E+00 0.9000E+01
#aMCatNLO 1  0  0  1  1 0.50919511D+02 0.00000000D+00  -5  7  0 0.00000000D+00 0.00000000D+00 0.00000000D+00 0.00000000D+00 0.00000000D+00
  <mgrwgt>
 0.7025722622D-03    4    2    0
 0.317484086899337D+03 0.000000000000000D+00 0.000000000000000D+00 0.317484086899337D+03
 0.317484086899337D+03 0.000000000000000D+00 0.000000000000000D+00 -.317484086899337D+03
 0.251447658037674D+03 0.197739808597564D+03 -.636542424260934D+02 -.116643963818189D+03
 0.132933338869660D+03 -.191313147253254D+02 0.283640737612904D+02 0.128455224493130D+03
 0.249148355574037D+02 0.247216070174732D+02 0.764748078973729D+00 -.300105609774168D+01
 0.225672341333937D+03 -.203330100889712D+03 0.345254205858293D+02 -.881020457719907D+01
 0.000000000000000D+00 -.000000000000000D+00 -.000000000000000D+00 -.000000000000000D+00
 0.330994695412616D+03 0.000000000000000D+00 0.000000000000000D+00 0.330994695412616D+03
 0.370394891880391D+03 0.000000000000000D+00 0.000000000000000D+00 -.370394891880391D+03
 0.267116136003884D+03 0.218242366000740D+03 -.604009068347060D+02 -.116643963818189D+03
 0.132201331086640D+03 -.864863380388156D+01 0.300274603459127D+02 0.128455224493130D+03
 0.269624130367660D+02 0.267726878670081D+02 0.109021256603188D+01 -.300105609774168D+01
 0.210726696251555D+03 -.186076107414668D+03 0.372632756720066D+02 -.881020457719907D+01
 0.643830109141615D+02 -.502903126491978D+02 -.798004174924527D+01 -.394001964677750D+02
0.226773886850D-04 0.000000000000D+00 0.000000000000D+00 0.198012808750D-05 0.000000000000D+00  7 1 -2 -24 -11 11 23 21 0 0.19875887D+00 0.12003025D-01 0.64313577D+05 0.64313577D+05 0.64313577D+05 0.11378009D+01  1  2  2  1  7  1        1 0.108014891049D-02 0.100000000000D+01
-.118253852349D-05 0.000000000000D+00 -.870871436438D-07 0.198012808750D-05 0.000000000000D+00  7 1 -2 -24 -11 11 23 21 2 0.19875887D+00 0.12003025D-01 0.64313577D+05 0.64313577D+05 0.64313577D+05 0.11378009D+01  1  2  3  1  7  1        1 -.729186225417D-04 0.100000000000D+01
0.148289616950D-05 0.000000000000D+00 0.000000000000D+00 0.198012808750D-05 0.000000000000D+00  7 1 -2 -24 -11 11 23 21 2 0.19875887D+00 0.12003025D-01 0.64313577D+05 0.64313577D+05 0.64313577D+05 0.11378009D+01  1  2 15  1  7  1        1 0.914395124589D-04 0.100000000000D+01
-.642360732714D-05 0.000000000000D+00 0.000000000000D+00 0.198012808750D-05 0.000000000000D+00  7 1 -2 -24 -11 11 23 21 2 0.19875887D+00 0.12003025D-01 0.64313577D+05 0.64313577D+05 0.64313577D+05 0.11378009D+01  1  2  4  1  7  1        1 -.396097538252D-03 0.100000000000D+01
  </mgrwgt>
  </event>
  <event>
  9     66 0.29493621E-05 0.19640405E+03 0.75467711E-02 0.10334723E+00
        1 -1    0    0  502    0 0.00000000E+00 0.00000000E+00 0.23626377E+03 0.23626399E+03 0.32000000E+00 0.0000E+00 0.9000E+01
       -2 -1    0    0    0  501 0.00000000E+00 0.00000000E+00 -.35364032E+03 0.35364047E+03 0.32000000E+00 0.0000E+00 0.9000E+01
       25  2    1    2    0    0 0.23996318E+02 -.80909758E+02 -.12741147E+03 0.33685374E+03 0.30019085E+03 0.0000E+00 0.0000E+00
       23  2    3    3    0    0 -.10332291E+03 -.26011005E+02 -.89596527E+02 0.16665010E+03 0.91610716E+02 0.0000E+00 0.0000E+00
      -24  1    1    2    0    0 -.58799416E+02 -.35031497E+01 -.77725498E+02 0.12640456E+03 0.80419002E+02 0.0000E+00 0.9000E+01
      -11  1    4    4    0    0 -.31491660E+02 -.52808567E+02 -.55168461E+02 0.82607678E+02 0.51099893E-03 0.0000E+00 0.9000E+01
       11  1    4    4    0    0 -.71831245E+02 0.26797562E+02 -.34428067E+02 0.84042423E+02 0.51099893E-03 0.0000E+00 0.9000E+01
       23  1    3    3    0    0 0.12731922E+03 -.54898753E+02 -.37814945E+02 0.17020364E+03 0.91188000E+02 0.0000E+00 0.9000E+01
       21  1    1    2  502  501 0.34803098E+02 0.84412908E+02 0.87760425E+02 0.12664616E+03 0.75000000E+00 0.0000E+00 0.9000E+01
#aMCatNLO 2  0  0  1  2 0.91306049D+02 0.00000000D+00  -5  7  0 0.00000000D+00 0.00000000D+00 0.00000000D+00 0.00000000D+00 0.00000000D+00
  <mgrwgt>
 0.3826214244D-03    2    2    0
 0.202601999063558D+03 0.000000000000000D+00 0.000000000000000D+00 0.202601999063558D+03
 0.202601999063558D+03 0.000000000000000D+00 0.000000000000000D+00 -.202601999063558D+03
 0.993856793810196D+02 -.502327892554764D+02 0.172747101339031D+02 -.242600203021517D+02
 0.528076461828615D+02 -.264998369952287D+02 -.407011876743761D+02 -.207320876058301D+02
 0.780668277184297D+02 -.652657777383886D+02 0.427217232994992D+02 0.310840868343820D+01
 0.174943844844805D+03 0.141998403989094D+03 -.192952457590262D+02 0.418836992245436D+02
 0.000000000000000D+00 0.000000000000000D+00 0.000000000000000D+00 0.000000000000000D+00
 0.380190072432782D+03 0.000000000000000D+00 0.000000000000000D+00 0.380190072432782D+03
 0.219763631188994D+03 0.000000000000000D+00 0.000000000000000D+00 -.219763631188994D+03
 0.102593410799922D+03 -.587994161796316D+02 -.350314959211763D+01 -.242600203021517D+02
 0.648867385238865D+02 -.314916600792294D+02 -.528085667787497D+02 -.207320876058301D+02
 0.767300412560738D+02 -.718312446109442D+02 0.267975619088419D+02 0.310840868343820D+01
 0.171153595432963D+03 0.127319222854014D+03 -.548987533259933D+02 0.418836992245436D+02
 0.184589917608931D+03 0.348030980157915D+02 0.844129077880187D+02 0.160426441243788D+03
-.179405754719D-04 0.000000000000D+00 0.000000000000D+00 0.623542987591D-06 0.000000000000D+00  7 1 -2 -24 -11 11 23 21 2 0.36511636D-01 0.50157411D-01 0.61279057D+05 0.61279057D+05 0.61279057D+05 0.11396050D+01  1  2 13  1  7  1        1 -.117819546340D-02 0.100000000000D+01
0.277345425929D-04 0.000000000000D+00 0.000000000000D+00 0.623542987591D-06 0.627740785912D-09  7 1 -2 -24 -11 11 23 21 2 0.36348181D-01 0.54406051D-01 0.61279057D+05 0.61279057D+05 0.61279057D+05 0.11396050D+01  1  2  1  1  7  1        1 0.156081688780D-02 0.100000000000D+01
  </mgrwgt>
  </event>
  <event>
  8     66 0.29493621E-05 0.28953800E+03 0.75467711E-02 0.10006001E+00
        1 -1    0    0  501    0 0.00000000E+00 0.00000000E+00 0.15750159E+04 0.15750159E+04 0.32000000E+00 0.0000E+00 0.9000E+01
       -2 -1    0    0    0  501 0.00000000E+00 0.00000000E+00 -.64706830E+02 0.64707621E+02 0.32000000E+00 0.0000E+00 0.9000E+01
       25  2    1    2    0    0 -.22192086E+03 0.45204242E+01 0.11487257E+04 0.12078913E+04 0.30026902E+03 0.0000E+00 0.0000E+00
       23  2    3    3    0    0 -.13799384E+00 0.25602534E+02 0.57623148E+03 0.58684629E+03 0.10812184E+03 0.0000E+00 0.0000E+00
      -24  1    1    2    0    0 0.22192086E+03 -.45204242E+01 0.36158338E+03 0.43183221E+03 0.80419002E+02 0.0000E+00 0.9000E+01
      -13  1    4    4    0    0 0.48582224E+02 0.22241585E+02 0.41370508E+03 0.41714125E+03 0.10565837E+00 0.0000E+00 0.9000E+01
       13  1    4    4    0    0 -.48720218E+02 0.33609494E+01 0.16252641E+03 0.16970504E+03 0.10565837E+00 0.0000E+00 0.9000E+01
       23  1    3    3    0    0 -.22178286E+03 -.21082110E+02 0.57249419E+03 0.62104505E+03 0.91188000E+02 0.0000E+00 0.9000E+01
#aMCatNLO 1  0  0  1  2 0.57973350D+02 0.00000000D+00  -5  7  0 0.00000000D+00 0.00000000D+00 0.00000000D+00 0.00000000D+00 0.00000000D+00
  <mgrwgt>
 0.1733560008D-02    4    2    0
 0.319241226010014D+03 0.000000000000000D+00 0.000000000000000D+00 0.319241226010014D+03
 0.319241226010014D+03 0.000000000000000D+00 0.000000000000000D+00 -.319241226010014D+03
 0.253699668594759D+03 0.221920856602758D+03 -.452042423845010D+01 -.928816723585605D+02
 0.926788648327578D+02 0.485823121279821D+02 0.222416109551659D+02 0.757260964074271D+02
 0.513782504204889D+02 -.487201340290750D+02 0.336094439005409D+01 0.159617420498640D+02
 0.240725668172022D+03 -.221783034701665D+03 -.210821311067699D+02 0.119383390126934D+01
 0.000000000000000D+00 0.000000000000000D+00 -.000000000000000D+00 -.000000000000000D+00
 0.324619744698241D+03 0.000000000000000D+00 0.000000000000000D+00 0.324619744698241D+03
 0.527240071717637D+03 0.000000000000000D+00 0.000000000000000D+00 -.527240071717637D+03
 0.235543819202400D+03 0.200946879377434D+03 0.264979592238484D+01 -.928816723585605D+02
 0.895393594050354D+02 0.407705762939289D+02 0.249121519387243D+02 0.757260964074271D+02
 0.558742019439216D+02 -.533180705358637D+02 0.493280730785162D+01 0.159617420498640D+02
 0.260151620243973D+03 -.243255755549150D+03 -.137414091123390D+02 0.119383390126934D+01
 0.210750815620548D+03 0.548563704136506D+02 -.187533460566218D+02 -.202620327019396D+03
0.434339861341D-04 0.000000000000D+00 0.000000000000D+00 0.246068189878D-07 0.000000000000D+00  7 1 -2 -24 -13 13 23 21 0 0.24231020D+00 0.99549603D-02 0.83832255D+05 0.83832255D+05 0.83832255D+05 0.11280618D+01  1  2  2  1  7  1        1 0.178412230160D-02 0.100000000000D+01
-.238501739594D-05 0.000000000000D+00 -.166797943186D-06 0.246068189878D-07 0.000000000000D+00  7 1 -2 -24 -13 13 23 21 2 0.24231020D+00 0.99549603D-02 0.83832255D+05 0.83832255D+05 0.83832255D+05 0.11280618D+01  1  2  3  1  7  1        1 -.124667208996D-03 0.100000000000D+01
0.282434626432D-05 0.000000000000D+00 0.000000000000D+00 0.246068189878D-07 0.000000000000D+00  7 1 -2 -24 -13 13 23 21 2 0.24231020D+00 0.99549603D-02 0.83832255D+05 0.83832255D+05 0.83832255D+05 0.11280618D+01  1  2 15  1  7  1        1 0.147631361771D-03 0.100000000000D+01
-.140663976904D-05 0.000000000000D+00 0.000000000000D+00 0.246068189878D-07 0.000000000000D+00  7 1 -2 -24 -13 13 23 21 2 0.24231020D+00 0.99549603D-02 0.83832255D+05 0.83832255D+05 0.83832255D+05 0.11280618D+01  1  2  4  1  7  1        1 -.735264465437D-04 0.100000000000D+01
  </mgrwgt>
  </event>
  <event>
  8     66 0.29493621E-05 0.13764390E+04 0.75467711E-02 0.79046115E-01
        1 -1    0    0  501    0 0.00000000E+00 0.00000000E+00 0.13438937E+04 0.13438937E+04 0.32000000E+00 0.0000E+00 0.9000E+01
       -2 -1    0    0    0  501 0.00000000E+00 0.00000000E+00 -.17866967E+04 0.17866968E+04 0.32000000E+00 0.0000E+00 0.9000E+01
       25  2    1    2    0    0 0.10310366E+04 0.89924846E+03 0.47724119E+03 0.14799443E+04 0.30131703E+03 0.0000E+00 0.0000E+00
       23  2    3    3    0    0 0.66997906E+03 0.49869339E+03 0.38908268E+03 0.92596416E+03 0.91963339E+02 0.0000E+00 0.0000E+00
      -24  1    1    2    0    0 -.10310366E+04 -.89924846E+03 -.92004422E+03 0.16506462E+04 0.80419002E+02 0.0000E+00 0.9000E+01
      -11  1    4    4    0    0 0.17786177E+03 0.12027648E+03 0.58010195E+02 0.22241048E+03 0.51099893E-03 0.0000E+00 0.9000E+01
       11  1    4    4    0    0 0.49211729E+03 0.37841691E+03 0.33107248E+03 0.70355368E+03 0.51099893E-03 0.0000E+00 0.9000E+01
       23  1    3    3    0    0 0.36105749E+03 0.40055506E+03 0.88158515E+02 0.55398019E+03 0.91188000E+02 0.0000E+00 0.9000E+01
#aMCatNLO 1  0  0  2  2 0.19097802D+04 0.00000000D+00  -5  7  0 0.00000000D+00 0.00000000D+00 0.00000000D+00 0.00000000D+00 0.00000000D+00
  <mgrwgt>
 0.1188467567D-02    3    2    0
 0.154955819641862D+04 0.000000000000000D+00 0.000000000000000D+00 0.154955819641862D+04
 0.154955819641862D+04 0.000000000000000D+00 0.000000000000000D+00 -.154955819641862D+04
 0.153595355417461D+04 -.103103655338251D+04 -.899248458255301D+03 -.693543034383471D+03
 0.232957767827508D+03 0.177861767209959D+03 0.120276481008341D+03 0.903774389567216D+02
 0.758002627671115D+03 0.492117294912756D+03 0.378416912611443D+03 0.434958839263774D+03
 0.572202443163999D+03 0.361057491259793D+03 0.400555064635517D+03 0.168206756162976D+03
 0.000000000000000D+00 -.000000000000000D+00 -.000000000000000D+00 0.000000000000000D+00
 0.601318863609843D+04 0.000000000000000D+00 0.000000000000000D+00 0.601318863609843D+04
 0.203760917319583D+04 0.000000000000000D+00 0.000000000000000D+00 -.203760917319583D+04
 0.113494688731575D+04 -.275694335096348D+03 -.851250793906989D+03 -.693543034383471D+03
 0.387722168311725D+03 0.353392742654148D+03 0.131430467424217D+03 0.903774389567216D+02
 0.120780604762316D+04 0.104805650644488D+04 0.413743659915107D+03 0.434958839263774D+03
 0.909824722002026D+03 0.780181195426096D+03 0.427187971397487D+03 0.168206756162976D+03
 0.441049798404160D+04 -.190593610942878D+04 -.121111304829823D+03 0.397557946290260D+04
0.359045226646D-01 0.000000000000D+00 0.000000000000D+00 0.168178610372D-04 0.000000000000D+00  7 1 -2 -24 -11 11 23 21 0 0.20675288D+00 0.27487643D+00 0.18945844D+07 0.18945844D+07 0.18945844D+07 0.10298756D+01  1  2  2  2  7  2       -2 0.117771491112D-02 0.100000000000D+01
-.196065678820D-02 0.000000000000D+00 -.137882820910D-03 0.168178610372D-04 0.000000000000D+00  7 1 -2 -24 -11 11 23 21 2 0.20675288D+00 0.27487643D+00 0.18945844D+07 0.18945844D+07 0.18945844D+07 0.10298756D+01  1  2  3  2  7  2       -2 -.682122124181D-04 0.100000000000D+01
0.226972561300D-02 0.000000000000D+00 0.000000000000D+00 0.168178610372D-04 0.000000000000D+00  7 1 -2 -24 -11 11 23 21 2 0.20675288D+00 0.27487643D+00 0.18945844D+07 0.18945844D+07 0.18945844D+07 0.10298756D+01  1  2 15  2  7  2       -2 0.789648685972D-04 0.100000000000D+01
  </mgrwgt>
  </event>
  <event>
  8     66 0.29493621E-05 0.12979863E+03 0.75467711E-02 0.10074369E+00
        1 -1    0    0  501    0 0.00000000E+00 0.00000000E+00 0.52461918E+03 0.52461928E+03 0.32000000E+00 0.0000E+00 0.9000E+01
       -2 -1    0    0    0  501 0.00000000E+00 0.00000000E+00 -.19577265E+03 0.19577291E+03 0.32000000E+00 0.0000E+00 0.9000E+01
       25  2    1    2    0    0 -.16050332E+03 -.15890121E+03 0.99617543E+02 0.38869346E+03 0.30024663E+03 0.0000E+00 0.0000E+00
       23  2    3    3    0    0 -.15469456E+03 -.16097695E+03 -.15220662E+02 0.24192454E+03 0.91933836E+02 0.0000E+00 0.0000E+00
      -24  1    1    2    0    0 0.16050332E+03 0.15890121E+03 0.22922899E+03 0.33169874E+03 0.80419002E+02 0.0000E+00 0.9000E+01
      -11  1    4    4    0    0 -.93090436E+02 -.46376950E+02 -.36225394E+02 0.11013142E+03 0.51099893E-03 0.0000E+00 0.9000E+01
       11  1    4    4    0    0 -.61604123E+02 -.11460000E+03 0.21004732E+02 0.13179312E+03 0.51099893E-03 0.0000E+00 0.9000E+01
       23  1    3    3    0    0 -.58087605E+01 0.20757392E+01 0.11483820E+03 0.14676892E+03 0.91188000E+02 0.0000E+00 0.9000E+01
#aMCatNLO 1  0  0  2  1 0.34972419D+02 0.00000000D+00  -5  7  0 0.00000000D+00 0.00000000D+00 0.00000000D+00 0.00000000D+00 0.00000000D+00
  <mgrwgt>
 0.8569158181D-03    6    2    0
 0.320478108817025D+03 0.000000000000000D+00 0.000000000000000D+00 0.320478108817025D+03
 0.320478108817025D+03 0.000000000000000D+00 0.000000000000000D+00 -.320478108817025D+03
 0.255199997687478D+03 0.160503319740764D+03 0.158901206067271D+03 0.874580695412322D+02
 0.142366060394766D+03 -.930904364710286D+02 -.463769502074371D+02 -.972185387640464D+02
 0.137350097649680D+03 -.616041227677607D+02 -.114599995101264D+03 -.440093456572742D+02
 0.106040061902126D+03 -.580876050197522D+01 0.207573924143060D+01 0.537698148800883D+02
 0.000000000000000D+00 0.000000000000000D+00 0.000000000000000D+00 0.000000000000000D+00
 0.340468531253906D+03 0.000000000000000D+00 0.000000000000000D+00 0.340468531253906D+03
 0.336624157624741D+03 0.000000000000000D+00 0.000000000000000D+00 -.336624157624741D+03
 0.244984333402080D+03 0.147272948667704D+03 0.155601646266778D+03 0.874580695412322D+02
 0.148118477177685D+03 -.100774040263051D+03 -.482931859694629D+02 -.972185387640464D+02
 0.142328887913468D+03 -.690019090044410D+02 -.116444950011780D+03 -.440093456572742D+02
 0.106477908068667D+03 -.114300713420855D+02 0.673824573151240D+00 0.537698148800883D+02
 0.351830823167464D+02 0.339330719418729D+02 0.846266514131374D+01 0.384437362916519D+01
0.121380003034D-04 0.000000000000D+00 0.000000000000D+00 0.210961783390D-05 0.000000000000D+00  7 1 -2 -24 -11 11 23 21 0 0.80710671D-01 0.30118897D-01 0.79878023D+05 0.79878023D+05 0.79878023D+05 0.11298181D+01  1  2  2  2  7  2       -2 0.548429866011D-03 0.100000000000D+01
-.661381565424D-06 0.000000000000D+00 -.466131171739D-07 0.210961783390D-05 0.000000000000D+00  7 1 -2 -24 -11 11 23 21 2 0.80710671D-01 0.30118897D-01 0.79878023D+05 0.79878023D+05 0.79878023D+05 0.11298181D+01  1  2  3  2  7  2       -2 -.381454776112D-04 0.100000000000D+01
0.770732021169D-06 0.000000000000D+00 0.000000000000D+00 0.210961783390D-05 0.000000000000D+00  7 1 -2 -24 -11 11 23 21 2 0.80710671D-01 0.30118897D-01 0.79878023D+05 0.79878023D+05 0.79878023D+05 0.11298181D+01  1  2 15  2  7  2       -2 0.444523140570D-04 0.100000000000D+01
0.183569582756D-04 0.000000000000D+00 0.000000000000D+00 0.210961783390D-05 0.000000000000D+00  7 1 -2 -24 -11 11 23 21 2 0.80710671D-01 0.32524791D-01 0.90847974D+05 0.90847974D+05 0.90847974D+05 0.11251589D+01  1  2 12  2  7  2       -2 0.915471956464D-03 0.100000000000D+01
-.130292335091D-04 0.000000000000D+00 0.000000000000D+00 0.210961783390D-05 0.000000000000D+00  7 1 -2 -24 -11 11 23 21 2 0.80710671D-01 0.30118897D-01 0.79878023D+05 0.79878023D+05 0.79878023D+05 0.11298181D+01  1  2  4  2  7  2       -2 -.751466870406D-03 0.100000000000D+01
0.236575404257D-06 0.000000000000D+00 0.000000000000D+00 0.210961783390D-05 0.000000000000D+00  7 1 21 -24 -11 11 23 2 2 0.80710671D-01 0.32524791D-01 0.90847974D+05 0.90847974D+05 0.90847974D+05 0.11251589D+01  1  2 12  4  7  2       -2 0.138174029601D-03 0.100000000000D+01
  </mgrwgt>
  </event>
  <event>
  8     66 0.29493621E-05 0.74033008E+03 0.75467711E-02 0.83165488E-01
        1 -1    0    0  501    0 0.00000000E+00 0.00000000E+00 0.62818606E+03 0.62818614E+03 0.32000000E+00 0.0000E+00 0.9000E+01
       -2 -1    0    0    0  501 0.00000000E+00 0.00000000E+00 -.10539898E+04 0.10539898E+04 0.32000000E+00 0.0000E+00 0.9000E+01
       25  2    1    2    0    0 -.68331871E+03 0.21190201E+03 -.55086639E+03 0.95146751E+03 0.30001618E+03 0.0000E+00 0.0000E+00
       23  2    3    3    0    0 -.29667476E+03 -.15237520E+02 -.16067281E+03 0.35009225E+03 0.92199456E+02 0.0000E+00 0.0000E+00
      -24  1    1    2    0    0 0.68331871E+03 -.21190201E+03 0.12506270E+03 0.73070843E+03 0.80419002E+02 0.0000E+00 0.9000E+01
      -13  1    4    4    0    0 -.26443246E+03 -.32726286E+02 -.11172435E+03 0.28892538E+03 0.10565837E+00 0.0000E+00 0.9000E+01
       13  1    4    4    0    0 -.32242297E+02 0.17488767E+02 -.48948464E+02 0.61166870E+02 0.10565837E+00 0.0000E+00 0.9000E+01
       23  1    3    3    0    0 -.38664395E+03 0.22713953E+03 -.39019358E+03 0.60137525E+03 0.91188000E+02 0.0000E+00 0.9000E+01
#aMCatNLO 1  0  0  2  1 0.12383084D+04 0.00000000D+00  -5  7  0 0.00000000D+00 0.00000000D+00 0.00000000D+00 0.00000000D+00 0.00000000D+00
  <mgrwgt>
 0.2486792889D-02    3    2    0
 0.813696366986220D+03 0.000000000000000D+00 0.000000000000000D+00 0.813696366986220D+03
 0.813696366986220D+03 0.000000000000000D+00 0.000000000000000D+00 -.813696366986220D+03
 0.788028778259702D+03 0.683318709815570D+03 -.211902010488069D+03 0.320460946416574D+03
 0.269419388829343D+03 -.264432765286898D+03 -.327263523919794D+02 -.398886647936126D+02
 0.504183968864613D+02 -.322419922825664D+02 0.174888327809316D+02 -.345920425273251D+02
 0.519526169996934D+03 -.386643952246106D+03 0.227139530099117D+03 -.245980239095637D+03
 0.000000000000000D+00 0.000000000000000D+00 -.000000000000000D+00 0.000000000000000D+00
 0.385752464185995D+04 0.000000000000000D+00 0.000000000000000D+00 0.385752464185995D+04
 0.115769304760450D+04 0.000000000000000D+00 0.000000000000000D+00 -.115769304760450D+04
 0.754369891316203D+03 0.606937339582273D+03 0.302553407868157D+03 0.320460946416574D+03
 0.343464891556636D+03 -.294783505373571D+03 0.171696566979844D+03 -.398886647936126D+02
 0.801209585507446D+02 -.387064524992020D+02 0.610292481340290D+02 -.345920425273251D+02
 0.866992874570978D+03 -.455305982736432D+03 0.689602477715759D+03 -.245980239095637D+03
 0.297026907346989D+04 0.181858601026931D+03 -.122488170069779D+04 0.269983159425545D+04
0.307108341875D-02 0.000000000000D+00 0.000000000000D+00 0.305839125425D-04 0.000000000000D+00  7 1 -2 -24 -13 13 23 21 0 0.96644019D-01 0.16215228D+00 0.54808862D+06 0.54808862D+06 0.54808862D+06 0.10657032D+01  1  2  2  2  7  2       -2 0.246346543991D-02 0.100000000000D+01
-.168763566923D-03 0.000000000000D+00 -.117937689628D-04 0.305839125425D-04 0.000000000000D+00  7 1 -2 -24 -13 13 23 21 2 0.96644019D-01 0.16215228D+00 0.54808862D+06 0.54808862D+06 0.54808862D+06 0.10657032D+01  1  2  3  2  7  2       -2 -.153746804173D-03 0.100000000000D+01
0.194369455659D-03 0.000000000000D+00 0.000000000000D+00 0.305839125425D-04 0.000000000000D+00  7 1 -2 -24 -13 13 23 21 2 0.96644019D-01 0.16215228D+00 0.54808862D+06 0.54808862D+06 0.54808862D+06 0.10657032D+01  1  2 15  2  7  2       -2 0.177074253533D-03 0.100000000000D+01
  </mgrwgt>
  </event>
  <event>
  8     66 0.29493621E-05 0.58199255E+03 0.75467711E-02 0.86581215E-01
        1 -1    0    0  501    0 0.00000000E+00 0.00000000E+00 0.15813431E+04 0.15813431E+04 0.32000000E+00 0.0000E+00 0.9000E+01
       -2 -1    0    0    0  501 0.00000000E+00 0.00000000E+00 -.23569856E+03 0.23569878E+03 0.32000000E+00 0.0000E+00 0.9000E+01
       25  2    1    2    0    0 -.44105181E+03 0.32143457E+03 0.94538553E+03 0.11354838E+04 0.31260660E+03 0.0000E+00 0.0000E+00
       23  2    3    3    0    0 -.33055986E+03 0.33201680E+03 0.79656326E+03 0.92864146E+03 0.91416382E+02 0.0000E+00 0.0000E+00
      -24  1    1    2    0    0 0.44105181E+03 -.32143457E+03 0.40025898E+03 0.68155803E+03 0.80419002E+02 0.0000E+00 0.9000E+01
      -13  1    4    4    0    0 -.31660318E+03 0.32141952E+03 0.71672002E+03 0.84689768E+03 0.10565837E+00 0.0000E+00 0.9000E+01
       13  1    4    4    0    0 -.13956677E+02 0.10597279E+02 0.79843234E+02 0.81743772E+02 0.10565837E+00 0.0000E+00 0.9000E+01
       23  1    3    3    0    0 -.11049195E+03 -.10582228E+02 0.14882227E+03 0.20684239E+03 0.91188000E+02 0.0000E+00 0.9000E+01
#aMCatNLO 1  0  0  1  1 0.77781338D+03 0.00000000D+00  -5  7  0 0.00000000D+00 0.00000000D+00 0.00000000D+00 0.00000000D+00 0.00000000D+00
  <mgrwgt>
 0.1825248999D-02    3    2    0
 0.610508403084007D+03 0.000000000000000D+00 0.000000000000000D+00 0.610508403084007D+03
 0.610508403084007D+03 0.000000000000000D+00 0.000000000000000D+00 -.610508403084007D+03
 0.573139691488220D+03 0.441051818469156D+03 -.321434572517553D+03 -.155483114904318D+03
 0.470426688917598D+03 -.316603588689044D+03 0.321419920081071D+03 0.133239154343875D+03
 0.336527182236541D+02 -.139562725078234D+02 0.105968621712690D+02 0.287303744084751D+02
 0.143797707538542D+03 -.110491957272288D+03 -.105822097347871D+02 -.648641384803155D+01
 0.000000000000000D+00 0.000000000000000D+00 -.000000000000000D+00 -.000000000000000D+00
 0.109496758843051D+04 0.000000000000000D+00 0.000000000000000D+00 0.109496758843051D+04
 0.113141313460535D+04 0.000000000000000D+00 0.000000000000000D+00 -.113141313460535D+04
 0.402863092100874D+03 0.359534127068217D+03 -.489046774414486D+02 -.155483114904318D+03
 0.811727454670999D+03 -.423691649873810D+03 0.679436659478716D+03 0.133239154343875D+03
 0.489158064119647D+02 -.208525597150440D+02 0.336525252635247D+02 0.287303744084751D+02
 0.184207602546140D+03 -.137887612382028D+03 0.810069273505208D+02 -.648641384803155D+01
 0.778666767305878D+03 0.222897694902664D+03 -.745191434651313D+03 -.364455461748387D+02
0.399767234519D-03 0.000000000000D+00 0.000000000000D+00 0.453957658828D-07 0.000000000000D+00  7 1 -2 -24 -13 13 23 21 0 0.24328357D+00 0.36261336D-01 0.33871533D+06 0.33871533D+06 0.33871533D+06 0.10806733D+01  1  2  2  1  7  1        1 0.180910519282D-02 0.100000000000D+01
-.221475038326D-04 0.000000000000D+00 -.153521144168D-05 0.453957658828D-07 0.000000000000D+00  7 1 -2 -24 -13 13 23 21 2 0.24328357D+00 0.36261336D-01 0.33871533D+06 0.33871533D+06 0.33871533D+06 0.10806733D+01  1  2  3  1  7  1        1 -.117049684994D-03 0.100000000000D+01
0.252021468214D-04 0.000000000000D+00 0.000000000000D+00 0.453957658828D-07 0.000000000000D+00  7 1 -2 -24 -13 13 23 21 2 0.24328357D+00 0.36261336D-01 0.33871533D+06 0.33871533D+06 0.33871533D+06 0.10806733D+01  1  2 15  1  7  1        1 0.133193490739D-03 0.100000000000D+01
  </mgrwgt>
  </event>
  <event>
  8     66 0.29493621E-05 0.57353209E+03 0.75467711E-02 0.90069625E-01
        1 -1    0    0  501    0 0.00000000E+00 0.00000000E+00 0.18972581E+04 0.18972581E+04 0.32000000E+00 0.0000E+00 0.9000E+01
       -2 -1    0    0    0  501 0.00000000E+00 0.00000000E+00 -.29561996E+03 0.29562014E+03 0.32000000E+00 0.0000E+00 0.9000E+01
       25  2    1    2    0    0 0.18517842E+03 -.52718688E+03 0.17444153E+03 0.65809019E+03 0.30072545E+03 0.0000E+00 0.0000E+00
       23  2    3    3    0    0 0.13189524E+03 -.20812349E+03 0.18588543E+03 0.32180645E+03 0.91072789E+02 0.0000E+00 0.0000E+00
      -24  1    1    2    0    0 -.18517842E+03 0.52718688E+03 0.14271966E+04 0.15347881E+04 0.80419002E+02 0.0000E+00 0.9000E+01
      -13  1    4    4    0    0 0.84679764E+02 -.13829240E+03 0.17197668E+03 0.23637140E+03 0.10565837E+00 0.0000E+00 0.9000E+01
       13  1    4    4    0    0 0.47215472E+02 -.69831096E+02 0.13908757E+02 0.85435048E+02 0.10565837E+00 0.0000E+00 0.9000E+01
       23  1    3    3    0    0 0.53283189E+02 -.31906339E+03 -.11443903E+02 0.33628375E+03 0.91188000E+02 0.0000E+00 0.9000E+01
#aMCatNLO 1  0  0  2  1 0.33631112D+03 0.00000000D+00  -5  7  0 0.00000000D+00 0.00000000D+00 0.00000000D+00 0.00000000D+00 0.00000000D+00
  <mgrwgt>
 0.1964430109D-02    3    2    0
 0.748910934630389D+03 0.000000000000000D+00 0.000000000000000D+00 0.748910934630389D+03
 0.748910934630389D+03 0.000000000000000D+00 0.000000000000000D+00 -.748910934630389D+03
 0.720880705092712D+03 -.185178424699091D+03 0.527186881954333D+03 0.448313191353797D+03
 0.162161742176457D+03 0.846798147483069D+02 -.138292490254697D+03 -.973005164789612D+00
 0.110207869916148D+03 0.472154212177941D+02 -.698310035280618D+02 -.709937288564605D+02
 0.504571552075460D+03 0.532831887329898D+02 -.319063388171575D+03 -.376346457332547D+03
 0.000000000000000D+00 0.000000000000000D+00 0.000000000000000D+00 0.000000000000000D+00
 0.215436360385586D+04 0.000000000000000D+00 0.000000000000000D+00 0.215436360385586D+04
 0.787946587094114D+03 0.000000000000000D+00 0.000000000000000D+00 -.787946587094114D+03
 0.631832337590347D+03 -.216685512226638D+03 0.380535882828104D+03 0.448313191353797D+03
 0.192563952092648D+03 0.764176237699167D+02 -.176749188637030D+03 -.973005164789612D+00
 0.126054544779891D+03 0.417124502665176D+02 -.954448019301429D+02 -.709937288564605D+02
 0.584663338049159D+03 0.279129749933891D+02 -.437150062787420D+03 -.376346457332547D+03
 0.140719601843793D+04 0.706424631968147D+02 0.328808170526489D+03 0.136641701676175D+04
0.106433113785D-02 0.000000000000D+00 0.000000000000D+00 0.156306164778D-04 0.000000000000D+00  7 1 -2 -24 -13 13 23 21 0 0.29188587D+00 0.45480010D-01 0.32893906D+06 0.32893906D+06 0.32893906D+06 0.10816053D+01  1  2  2  2  7  2       -2 0.193570232847D-02 0.100000000000D+01
-.540117758551D-04 0.000000000000D+00 -.408731181417D-05 0.156306164778D-04 0.000000000000D+00  7 1 -2 -24 -13 13 23 21 2 0.29188587D+00 0.45480010D-01 0.32893906D+06 0.32893906D+06 0.32893906D+06 0.10816053D+01  1  2  3  2  7  2       -2 -.114917943829D-03 0.100000000000D+01
0.675139183672D-04 0.000000000000D+00 0.000000000000D+00 0.156306164778D-04 0.000000000000D+00  7 1 -2 -24 -13 13 23 21 2 0.29188587D+00 0.45480010D-01 0.32893906D+06 0.32893906D+06 0.32893906D+06 0.10816053D+01  1  2 15  2  7  2       -2 0.143645724581D-03 0.100000000000D+01
  </mgrwgt>
  </event>
  <event>
  8     66 0.29493621E-05 0.17174857E+03 0.75467711E-02 0.91349087E-01
        1 -1    0    0  501    0 0.00000000E+00 0.00000000E+00 0.81635821E+03 0.81635827E+03 0.32000000E+00 0.0000E+00 0.9000E+01
       -2 -1    0    0    0  501 0.00000000E+00 0.00000000E+00 -.54725125E+03 0.54725134E+03 0.32000000E+00 0.0000E+00 0.9000E+01
       25  2    1    2    0    0 -.22481039E+03 0.45497244E+03 -.24367393E+03 0.63769564E+03 0.29956487E+03 0.0000E+00 0.0000E+00
       23  2    3    3    0    0 -.50761890E+02 0.30618504E+03 -.21741070E+03 0.38983362E+03 0.91524825E+02 0.0000E+00 0.0000E+00
      -24  1    1    2    0    0 0.22481039E+03 -.45497244E+03 0.51278089E+03 0.72591397E+03 0.80419002E+02 0.0000E+00 0.9000E+01
      -11  1    4    4    0    0 -.40117693E+02 0.40369241E+02 -.29268524E+02 0.63998057E+02 0.51099893E-03 0.0000E+00 0.9000E+01
       11  1    4    4    0    0 -.10644197E+02 0.26581580E+03 -.18814217E+03 0.32583556E+03 0.51099893E-03 0.0000E+00 0.9000E+01
       23  1    3    3    0    0 -.17404850E+03 0.14878741E+03 -.26263229E+02 0.24786202E+03 0.91188000E+02 0.0000E+00 0.9000E+01
#aMCatNLO 1  0  0  1  2 0.23878620D+03 0.00000000D+00  -5  7  0 0.00000000D+00 0.00000000D+00 0.00000000D+00 0.00000000D+00 0.00000000D+00
  <mgrwgt>
 0.1181400147D-02    9    2    0
 0.668395957702305D+03 0.000000000000000D+00 0.000000000000000D+00 0.668395957702305D+03
 0.668395957702305D+03 0.000000000000000D+00 0.000000000000000D+00 -.668395957702305D+03
 0.637249787528482D+03 0.224810393114692D+03 -.454972444178939D+03 0.376935588577393D+03
 0.711739270825749D+02 -.401176925952485D+02 0.403692405017563D+02 -.427390109677353D+02
 0.370246759344942D+03 -.106441973500243D+02 0.265815796440316D+03 -.257509856570590D+03
 0.258121441448610D+03 -.174048503169419D+03 0.148787407236866D+03 -.766867210390676D+02
 0.000000000000000D+00 -.000000000000000D+00 -.000000000000000D+00 0.000000000000000D+00
 0.126279144741119D+04 0.000000000000000D+00 0.000000000000000D+00 0.126279144741119D+04
 0.703392054479871D+03 0.000000000000000D+00 0.000000000000000D+00 -.703392054479871D+03
 0.598224693182601D+03 0.281032847091899D+03 -.361034165278416D+03 0.376935588577393D+03
 0.748078149468413D+02 -.334745349251382D+02 0.514688413524762D+02 -.427390109677353D+02
 0.415872820364028D+03 0.251295661560667D+02 0.325587747606284D+03 -.257509856570590D+03
 0.269045875514664D+03 -.150058820922646D+03 0.188870137573501D+03 -.766867210390676D+02
 0.608232297882929D+03 -.122629057400181D+03 -.204892561253846D+03 0.559399392931321D+03
0.475827075176D-03 0.000000000000D+00 0.000000000000D+00 0.207066298847D-04 0.000000000000D+00  7 1 -2 -24 -11 11 23 21 0 0.12559358D+00 0.84192512D-01 0.29334389D+06 0.29334389D+06 0.29334389D+06 0.10852735D+01  1  2  2  1  7  1        1 0.139685850533D-02 0.100000000000D+01
-.250129611278D-04 0.000000000000D+00 -.182730125682D-05 0.207066298847D-04 0.000000000000D+00  7 1 -2 -24 -11 11 23 21 2 0.12559358D+00 0.84192512D-01 0.29334389D+06 0.29334389D+06 0.29334389D+06 0.10852735D+01  1  2  3  1  7  1        1 -.864861946894D-04 0.100000000000D+01
0.302882304348D-04 0.000000000000D+00 0.000000000000D+00 0.207066298847D-04 0.000000000000D+00  7 1 -2 -24 -11 11 23 21 2 0.12559358D+00 0.84192512D-01 0.29334389D+06 0.29334389D+06 0.29334389D+06 0.10852735D+01  1  2 15  1  7  1        1 0.104726256951D-03 0.100000000000D+01
0.773411268312D-03 0.000000000000D+00 0.000000000000D+00 0.207066298847D-04 0.000000000000D+00  7 1 -2 -24 -11 11 23 21 2 0.23784137D+00 0.84192512D-01 0.45505756D+06 0.45505756D+06 0.45505756D+06 0.10714133D+01  1  2 12  1  7  1        1 0.744410464164D-03 0.100000000000D+01
-.908260605402D-03 0.000000000000D+00 0.000000000000D+00 0.207066298847D-04 0.000000000000D+00  7 1 -2 -24 -11 11 23 21 2 0.12559358D+00 0.84192512D-01 0.29334389D+06 0.29334389D+06 0.29334389D+06 0.10852735D+01  1  2  4  1  7  1        1 -.314045198992D-02 0.100000000000D+01
-.982420742719D-03 0.000000000000D+00 -.147061012447D-03 0.207066298847D-04 0.000000000000D+00  7 1 -2 -24 -11 11 23 21 2 0.24137951D+00 0.84192512D-01 0.29334389D+06 0.29334389D+06 0.29334389D+06 0.10852735D+01  1  2  5  1  7  1        1 -.961050084701D-03 0.100000000000D+01
0.905016847471D-03 0.000000000000D+00 0.120431972658D-03 0.207066298847D-04 0.000000000000D+00  7 1 -2 -24 -11 11 23 21 2 0.12559358D+00 0.84192512D-01 0.29334389D+06 0.29334389D+06 0.29334389D+06 0.10852735D+01  1  2  6  1  7  1        1 0.312923619350D-02 0.100000000000D+01
0.536846483234D-04 0.000000000000D+00 0.000000000000D+00 0.207066298847D-04 0.000000000000D+00  7 21 -2 -24 -11 11 23 -1 2 0.23784137D+00 0.84192512D-01 0.45505756D+06 0.45505756D+06 0.45505756D+06 0.10714133D+01  1  2 12  3  7  1        1 0.376908223632D-04 0.100000000000D+01
-.611457159805D-04 0.000000000000D+00 -.104260019842D-04 0.207066298847D-04 0.000000000000D+00  7 21 -2 -24 -11 11 23 -1 2 0.24137951D+00 0.84192512D-01 0.29334389D+06 0.29334389D+06 0.29334389D+06 0.10852735D+01  1  2  5  3  7  1        1 -.435338262901D-04 0.100000000000D+01
  </mgrwgt>
  </event>
  <event>
  8     66 0.29493621E-05 0.23394113E+03 0.75467711E-02 0.99986817E-01
        1 -1    0    0  501    0 0.00000000E+00 0.00000000E+00 0.18746575E+04 0.18746576E+04 0.32000000E+00 0.0000E+00 0.9000E+01
       -2 -1    0    0    0  501 0.00000000E+00 0.00000000E+00 -.35993216E+02 0.35994639E+02 0.32000000E+00 0.0000E+00 0.9000E+01
       25  2    1    2    0    0 0.12846209E+03 -.79338627E+02 0.10013888E+04 0.10560795E+04 0.29954481E+03 0.0000E+00 0.0000E+00
       23  2    3    3    0    0 0.15327954E+03 -.96165379E+02 0.40554441E+03 0.45255243E+03 0.87149491E+02 0.0000E+00 0.0000E+00
      -24  1    1    2    0    0 -.12846209E+03 0.79338627E+02 0.83727549E+03 0.85457275E+03 0.80419002E+02 0.0000E+00 0.9000E+01
      -13  1    4    4    0    0 0.42471076E+02 -.77610771E+02 0.17558260E+03 0.19661252E+03 0.10565837E+00 0.0000E+00 0.9000E+01
       13  1    4    4    0    0 0.11080846E+03 -.18554608E+02 0.22996181E+03 0.25593991E+03 0.10565837E+00 0.0000E+00 0.9000E+01
       23  1    3    3    0    0 -.24817450E+02 0.16826751E+02 0.59584442E+03 0.60352702E+03 0.91188000E+02 0.0000E+00 0.9000E+01
#aMCatNLO 1  0  0  2  1 0.15159264D+03 0.00000000D+00  -5  7  0 0.00000000D+00 0.00000000D+00 0.00000000D+00 0.00000000D+00 0.00000000D+00
  <mgrwgt>
 0.1149147790D-02    4    2    0
 0.259762082281975D+03 0.000000000000000D+00 0.000000000000000D+00 0.259762082281975D+03
 0.259762082281975D+03 0.000000000000000D+00 0.000000000000000D+00 -.259762082281975D+03
 0.179631184043528D+03 -.128462087416161D+03 0.793386277826357D+02 0.547998226708840D+02
 0.101671248169717D+03 0.424709766365981D+02 -.776108561272983D+02 -.500980424678399D+02
 0.127404242788552D+03 0.110808560820587D+03 -.185545228367023D+02 -.600752329308591D+02
 0.110817489562153D+03 -.248174500410244D+02 0.168267511813650D+02 0.553734527278150D+02
 0.000000000000000D+00 0.000000000000000D+00 -.000000000000000D+00 0.000000000000000D+00
 0.374707059728232D+03 0.000000000000000D+00 0.000000000000000D+00 0.374707059728232D+03
 0.325776060969079D+03 0.000000000000000D+00 0.000000000000000D+00 -.325776060969079D+03
 0.214565664060530D+03 -.135161546469214D+03 0.135275807262999D+03 0.547998226708840D+02
 0.819519130899803D+02 0.393502620596850D+02 -.515544282853791D+02 -.500980424678399D+02
 0.123496606308928D+03 0.106544447667503D+03 0.170487192877414D+02 -.600752329308591D+02
 0.121174957938709D+03 -.287602108980045D+02 0.497468600974031D+02 0.553734527278150D+02
 0.159293979299164D+03 0.180270476400305D+02 -.150516958362765D+03 0.489309987591528D+02
0.229832141556D-04 0.000000000000D+00 0.000000000000D+00 0.853117419703D-07 0.000000000000D+00  7 1 -2 -24 -13 13 23 21 0 0.28840896D+00 0.55375294D-02 0.54728453D+05 0.54728453D+05 0.54728453D+05 0.11438595D+01  1  2  2  2  7  2       -2 0.146869394373D-02 0.100000000000D+01
-.125982814294D-05 0.000000000000D+00 -.882615939766D-07 0.853117419703D-07 0.000000000000D+00  7 1 -2 -24 -13 13 23 21 2 0.28840896D+00 0.55375294D-02 0.54728453D+05 0.54728453D+05 0.54728453D+05 0.11438595D+01  1  2  3  2  7  2       -2 -.105336093527D-03 0.100000000000D+01
0.150463969730D-05 0.000000000000D+00 0.000000000000D+00 0.853117419703D-07 0.000000000000D+00  7 1 -2 -24 -13 13 23 21 2 0.28840896D+00 0.55375294D-02 0.54728453D+05 0.54728453D+05 0.54728453D+05 0.11438595D+01  1  2 15  2  7  2       -2 0.125805149510D-03 0.100000000000D+01
-.406660923328D-05 0.000000000000D+00 0.000000000000D+00 0.853117419703D-07 0.000000000000D+00  7 1 -2 -24 -13 13 23 21 2 0.28840896D+00 0.55375294D-02 0.54728453D+05 0.54728453D+05 0.54728453D+05 0.11438595D+01  1  2  4  2  7  2       -2 -.340015209960D-03 0.100000000000D+01
  </mgrwgt>
  </event>
  <event>
  9     66 0.29493621E-05 0.31314740E+03 0.75467711E-02 0.94577558E-01
        1 -1    0    0  502    0 0.00000000E+00 0.00000000E+00 0.10398920E+04 0.10398920E+04 0.32000000E+00 0.0000E+00 0.9000E+01
       -2 -1    0    0    0  501 0.00000000E+00 0.00000000E+00 -.26038770E+03 0.26038789E+03 0.32000000E+00 0.0000E+00 0.9000E+01
       25  2    1    2    0    0 0.12859596E+03 -.14375222E+03 0.42803897E+03 0.55788873E+03 0.30136499E+03 0.0000E+00 0.0000E+00
       23  2    3    3    0    0 -.27094715E+02 0.37014293E+02 0.13920058E+03 0.17232553E+03 0.90637212E+02 0.0000E+00 0.0000E+00
      -24  1    1    2    0    0 -.32188033E+03 -.94226324E+02 0.15397100E+03 0.37770337E+03 0.80419002E+02 0.0000E+00 0.9000E+01
      -13  1    4    4    0    0 0.18212902E+02 -.18334010E+02 0.61530982E+02 0.66737685E+02 0.10565837E+00 0.0000E+00 0.9000E+01
       13  1    4    4    0    0 -.45307617E+02 0.55348303E+02 0.77669601E+02 0.10558784E+03 0.10565837E+00 0.0000E+00 0.9000E+01
       23  1    3    3    0    0 0.15569067E+03 -.18076652E+03 0.28883838E+03 0.38556320E+03 0.91188000E+02 0.0000E+00 0.9000E+01
       21  1    1    2  502  501 0.19328437E+03 0.23797855E+03 0.19749429E+03 0.36468781E+03 0.75000000E+00 0.0000E+00 0.9000E+01
#aMCatNLO 2  0  0  1  2 0.30658219D+03 0.00000000D+00  -5  7  0 0.00000000D+00 0.00000000D+00 0.00000000D+00 0.00000000D+00 0.00000000D+00
  <mgrwgt>
 0.9598197104D-04    1    2    0
 0.332642574764233D+03 0.000000000000000D+00 0.000000000000000D+00 0.332642574764233D+03
 0.332642574764233D+03 0.000000000000000D+00 0.000000000000000D+00 -.332642574764233D+03
 0.269245970828941D+03 -.234860419687312D+03 0.129156671700524D+02 -.103440541660901D+03
 0.387574122440305D+02 0.285985970041899D+02 -.554698241285978D+01 0.255634160345815D+02
 0.871764044318153D+02 -.231386839114549D+02 0.826436789680222D+02 0.153084657342166D+02
 0.270105362023679D+03 0.229400506594577D+03 -.900123637252148D+02 0.625686598921031D+02
 0.000000000000000D+00 0.000000000000000D+00 0.000000000000000D+00 -.000000000000000D+00
 0.501942637826960D+03 0.000000000000000D+00 0.000000000000000D+00 0.501942637826960D+03
 0.539453590939308D+03 0.000000000000000D+00 0.000000000000000D+00 -.539453590939308D+03
 0.360073202473480D+03 -.321880333690823D+03 -.942263249263224D+02 -.103440541660901D+03
 0.363502516482352D+02 0.182129886671485D+02 -.183341102686564D+02 0.255634160345815D+02
 0.731476758713494D+02 -.453077012758267D+02 0.553484016692872D+02 0.153084657342166D+02
 0.262956663811128D+03 0.155690672833655D+03 -.180766514848820D+03 0.625686598921031D+02
 0.308868434962075D+03 0.193284373465847D+03 0.237978548374512D+03 -.375109531123484D+02
0.889404057409D-05 0.000000000000D+00 0.000000000000D+00 0.674170038234D-06 0.556926981401D-10  7 1 -2 -24 -13 13 23 21 2 0.15998326D+00 0.40059630D-01 0.25213077D+06 0.25213077D+06 0.25213077D+06 0.10901819D+01  1  2  1  1  7  1        1 0.959819710377D-04 0.100000000000D+01
  </mgrwgt>
  </event>
  <event>
  8     66 0.29493621E-05 0.17563885E+03 0.75467711E-02 0.96872509E-01
        1 -1    0    0  501    0 0.00000000E+00 0.00000000E+00 0.62204119E+03 0.62204128E+03 0.32000000E+00 0.0000E+00 0.9000E+01
       -2 -1    0    0    0  501 0.00000000E+00 0.00000000E+00 -.26987329E+03 0.26987348E+03 0.32000000E+00 0.0000E+00 0.9000E+01
       25  2    1    2    0    0 0.24794530E+03 0.24672828E+03 0.18536317E+03 0.49613357E+03 0.29906069E+03 0.0000E+00 0.0000E+00
       23  2    3    3    0    0 0.23743933E+03 0.14286797E+03 0.37088636E+02 0.29316084E+03 0.88198752E+02 0.0000E+00 0.0000E+00
      -24  1    1    2    0    0 -.24794530E+03 -.24672828E+03 0.16680473E+03 0.39578119E+03 0.80419002E+02 0.0000E+00 0.9000E+01
      -13  1    4    4    0    0 0.21877009E+03 0.10743720E+03 0.54082572E+02 0.24965585E+03 0.10565837E+00 0.0000E+00 0.9000E+01
       13  1    4    4    0    0 0.18669240E+02 0.35430767E+02 -.16993936E+02 0.43504997E+02 0.10565837E+00 0.0000E+00 0.9000E+01
       23  1    3    3    0    0 0.10505970E+02 0.10386030E+03 0.14827453E+03 0.20297272E+03 0.91188000E+02 0.0000E+00 0.9000E+01
#aMCatNLO 1  0  0  2  1 0.40308318D+02 0.00000000D+00  -5  7  0 0.00000000D+00 0.00000000D+00 0.00000000D+00 0.00000000D+00 0.00000000D+00
  <mgrwgt>
 0.1730596496D-02    9    2    0
 0.409722376135125D+03 0.000000000000000D+00 0.000000000000000D+00 0.409722376135125D+03
 0.409722376135125D+03 0.000000000000000D+00 0.000000000000000D+00 -.409722376135125D+03
 0.359096582024708D+03 -.247945301710089D+03 -.246728275109330D+03 0.114640694748681D+02
 0.248492427499746D+03 0.218770379096309D+03 0.107437307278511D+03 -.484276032807395D+02
 0.546555941267778D+02 0.186689529030350D+02 0.354306635447524D+02 -.371937124744745D+02
 0.157200148619018D+03 0.105059697107452D+02 0.103860304286067D+03 0.741572462803458D+02
 0.000000000000000D+00 -.000000000000000D+00 -.000000000000000D+00 -.000000000000000D+00
 0.430265969712885D+03 0.000000000000000D+00 0.000000000000000D+00 0.430265969712885D+03
 0.430478440026811D+03 0.000000000000000D+00 0.000000000000000D+00 -.430478440026811D+03
 0.344429099292132D+03 -.243031952283846D+03 -.230148286469824D+03 0.114640694748681D+02
 0.256917473528690D+03 0.222300108732600D+03 0.119348301631496D+03 -.484276032807395D+02
 0.566535975101724D+02 0.194463246001724D+02 0.380538870912744D+02 -.371937124744745D+02
 0.162435361864260D+03 0.127382705261189D+02 0.111393153865454D+03 0.741572462803458D+02
 0.403088775444417D+02 -.114527515750448D+02 -.386470561184006D+02 -.212470313925666D+00
0.476901444275D-04 0.000000000000D+00 0.000000000000D+00 0.244320605908D-06 0.000000000000D+00  7 1 -2 -24 -13 13 23 21 0 0.95698666D-01 0.41518989D-01 0.15260707D+06 0.15260707D+06 0.15260707D+06 0.11069618D+01  1  2  2  2  7  2       -2 0.935100401255D-03 0.100000000000D+01
-.264213251078D-05 0.000000000000D+00 -.183142711705D-06 0.244320605908D-06 0.000000000000D+00  7 1 -2 -24 -13 13 23 21 2 0.95698666D-01 0.41518989D-01 0.15260707D+06 0.15260707D+06 0.15260707D+06 0.11069618D+01  1  2  3  2  7  2       -2 -.634818386832D-04 0.100000000000D+01
0.307727857143D-05 0.000000000000D+00 0.000000000000D+00 0.244320605908D-06 0.000000000000D+00  7 1 -2 -24 -13 13 23 21 2 0.95698666D-01 0.41518989D-01 0.15260707D+06 0.15260707D+06 0.15260707D+06 0.11069618D+01  1  2 15  2  7  2       -2 0.739369812293D-04 0.100000000000D+01
0.858286899465D-04 0.000000000000D+00 0.000000000000D+00 0.244320605908D-06 0.000000000000D+00  7 1 -2 -24 -13 13 23 21 2 0.95698666D-01 0.44611924D-01 0.16979058D+06 0.16979058D+06 0.16979058D+06 0.11033294D+01  1  2 12  2  7  2       -2 0.178288532264D-02 0.100000000000D+01
-.665676618579D-04 0.000000000000D+00 0.000000000000D+00 0.244320605908D-06 0.000000000000D+00  7 1 -2 -24 -13 13 23 21 2 0.95698666D-01 0.41518989D-01 0.15260707D+06 0.15260707D+06 0.15260707D+06 0.11069618D+01  1  2  4  2  7  2       -2 -.159940410042D-02 0.100000000000D+01
-.328008426166D-03 0.000000000000D+00 -.666702596950D-04 0.244320605908D-06 0.000000000000D+00  7 1 -2 -24 -13 13 23 21 2 0.95698666D-01 0.45655025D-01 0.15260707D+06 0.15260707D+06 0.15260707D+06 0.11069618D+01  1  2  5  2  7  2       -2 -.657642914294D-02 0.100000000000D+01
0.333135881242D-03 0.000000000000D+00 0.663707711773D-04 0.244320605908D-06 0.000000000000D+00  7 1 -2 -24 -13 13 23 21 2 0.95698666D-01 0.41518989D-01 0.15260707D+06 0.15260707D+06 0.15260707D+06 0.11069618D+01  1  2  6  2  7  2       -2 0.800417018688D-02 0.100000000000D+01
0.104620788832D-05 0.000000000000D+00 0.000000000000D+00 0.244320605908D-06 0.000000000000D+00  7 1 21 -24 -13 13 23 2 2 0.95698666D-01 0.44611924D-01 0.16979058D+06 0.16979058D+06 0.16979058D+06 0.11033294D+01  1  2 12  4  7  2       -2 0.235418599805D-03 0.100000000000D+01
-.489455430916D-05 0.000000000000D+00 -.103542975936D-05 0.244320605908D-06 0.000000000000D+00  7 1 21 -24 -13 13 23 2 2 0.95698666D-01 0.45655025D-01 0.15260707D+06 0.15260707D+06 0.15260707D+06 0.11069618D+01  1  2  5  4  7  2       -2 -.106159991352D-02 0.100000000000D+01
  </mgrwgt>
  </event>
  <event>
  7     66 0.29493621E-05 0.22854445E+03 0.75467711E-02 0.97037590E-01
        1 -1    0    0  501    0 0.00000000E+00 0.00000000E+00 0.19365958E+04 0.19365958E+04 0.32000000E+00 0.0000E+00 0.9000E+01
       -2 -1    0    0    0  501 0.00000000E+00 0.00000000E+00 -.10810740E+03 0.10810787E+03 0.32000000E+00 0.0000E+00 0.9000E+01
       23  2    1    2    0    0 -.12802137E+03 0.43061941E+02 0.26865710E+03 0.31460210E+03 0.92488082E+02 0.0000E+00 0.0000E+00
      -24  1    1    2    0    0 0.29834270E+03 -.34082535E+02 0.23106730E+03 0.38733616E+03 0.80419002E+02 0.0000E+00 0.9000E+01
      -11  1    3    3    0    0 -.10229079E+03 0.25651799E+01 0.23406276E+03 0.25545129E+03 0.51099893E-03 0.0000E+00 0.9000E+01
       11  1    3    3    0    0 -.25730578E+02 0.40496761E+02 0.34594334E+02 0.59150810E+02 0.51099893E-03 0.0000E+00 0.9000E+01
       23  1    1    2    0    0 -.17032134E+03 -.89794064E+01 0.13287640E+04 0.13427654E+04 0.91188000E+02 0.0000E+00 0.9000E+01
#aMCatNLO 1  0  0  1  2 0.13981541D+03 0.00000000D+00  -5  7  0 0.00000000D+00 0.00000000D+00 0.00000000D+00 0.00000000D+00 0.00000000D+00
  <mgrwgt>
 0.1189964692D-02    9    2    0
 0.457559655976776D+03 0.000000000000000D+00 0.000000000000000D+00 0.457559655976776D+03
 0.457559655976776D+03 0.000000000000000D+00 0.000000000000000D+00 -.457559655976776D+03
 0.403754774065091D+03 0.298342702707249D+03 -.340825347005229D+02 -.257644550098976D+03
 0.103091642250459D+03 -.102290788365717D+03 0.256517981648231D+01 0.125658732257650D+02
 0.630415486189559D+02 -.257305776608178D+02 0.404967610662933D+02 -.408923778797022D+02
 0.345231347019046D+03 -.170321336680715D+03 -.897940618225264D+01 0.285971054752913D+03
 0.000000000000000D+00 0.000000000000000D+00 0.000000000000000D+00 0.000000000000000D+00
 0.655478944846487D+03 0.000000000000000D+00 0.000000000000000D+00 0.655478944846487D+03
 0.488242237285085D+03 0.000000000000000D+00 0.000000000000000D+00 -.488242237285085D+03
 0.379741972213668D+03 0.256090232332912D+03 -.759857105930255D+02 -.257644550098976D+03
 0.115108657286138D+03 -.114057910227588D+03 -.910466511230021D+01 0.125658732257650D+02
 0.622075436333601D+02 -.324850199542141D+02 0.337981566777592D+02 -.408923778797022D+02
 0.368680291054517D+03 -.208821216202698D+03 -.471610132967481D+02 0.285971054752913D+03
 0.217982717943889D+03 0.992739140515874D+02 0.984532323243147D+02 0.167236707561402D+03
0.100044956985D-03 0.000000000000D+00 0.000000000000D+00 0.333618268441D-08 0.000000000000D+00  7 1 -2 -24 -11 11 23 21 0 0.29793785D+00 0.16631946D-01 0.10711620D+06 0.10711620D+06 0.10711620D+06 0.11192803D+01  1  2  2  1  7  1        1 0.105443398185D-02 0.100000000000D+01
-.479933264081D-05 0.000000000000D+00 -.384198977264D-06 0.333618268441D-08 0.000000000000D+00  7 1 -2 -24 -11 11 23 21 2 0.29793785D+00 0.16631946D-01 0.10711620D+06 0.10711620D+06 0.10711620D+06 0.11192803D+01  1  2  3  1  7  1        1 -.633698608779D-04 0.100000000000D+01
0.630432868944D-05 0.000000000000D+00 0.000000000000D+00 0.333618268441D-08 0.000000000000D+00  7 1 -2 -24 -11 11 23 21 2 0.29793785D+00 0.16631946D-01 0.10711620D+06 0.10711620D+06 0.10711620D+06 0.11192803D+01  1  2 15  1  7  1        1 0.832416633475D-04 0.100000000000D+01
0.873926911652D-04 0.000000000000D+00 0.000000000000D+00 0.333618268441D-08 0.000000000000D+00  7 1 -2 -24 -11 11 23 21 2 0.43343558D+00 0.16631946D-01 0.16515085D+06 0.16515085D+06 0.16515085D+06 0.11042691D+01  1  2 12  1  7  1        1 0.277285441472D-03 0.100000000000D+01
-.113008693825D-03 0.000000000000D+00 0.000000000000D+00 0.333618268441D-08 0.000000000000D+00  7 1 -2 -24 -11 11 23 21 2 0.29793785D+00 0.16631946D-01 0.10711620D+06 0.10711620D+06 0.10711620D+06 0.11192803D+01  1  2  4  1  7  1        1 -.149215437680D-02 0.100000000000D+01
-.127408857446D-03 0.000000000000D+00 -.332448915651D-04 0.333618268441D-08 0.000000000000D+00  7 1 -2 -24 -11 11 23 21 2 0.43463580D+00 0.16631946D-01 0.10711620D+06 0.10711620D+06 0.10711620D+06 0.11192803D+01  1  2  5  1  7  1        1 -.419798167620D-03 0.100000000000D+01
0.132630698466D-03 0.000000000000D+00 0.310076555684D-04 0.333618268441D-08 0.000000000000D+00  7 1 -2 -24 -11 11 23 21 2 0.29793785D+00 0.16631946D-01 0.10711620D+06 0.10711620D+06 0.10711620D+06 0.11192803D+01  1  2  6  1  7  1        1 0.175124117018D-02 0.100000000000D+01
0.396740555738D-05 0.000000000000D+00 0.000000000000D+00 0.333618268441D-08 0.000000000000D+00  7 21 -2 -24 -11 11 23 -1 2 0.43343558D+00 0.16631946D-01 0.16515085D+06 0.16515085D+06 0.16515085D+06 0.11042691D+01  1  2 12  3  7  1        1 0.338922944088D-05 0.100000000000D+01
-.476691231721D-05 0.000000000000D+00 -.151731333546D-05 0.333618268441D-08 0.000000000000D+00  7 21 -2 -24 -11 11 23 -1 2 0.43463580D+00 0.16631946D-01 0.10711620D+06 0.10711620D+06 0.10711620D+06 0.11192803D+01  1  2  5  3  7  1        1 -.430438871940D-05 0.100000000000D+01
  </mgrwgt>
  </event>
  <event>
  8     66 0.29493621E-05 0.37198814E+03 0.75467711E-02 0.93620781E-01
        1 -1    0    0  501    0 0.00000000E+00 0.00000000E+00 0.27324225E+04 0.27324225E+04 0.32000000E+00 0.0000E+00 0.9000E+01
       -2 -1    0    0    0  501 0.00000000E+00 0.00000000E+00 -.51181434E+03 0.51181444E+03 0.32000000E+00 0.0000E+00 0.9000E+01
       25  2    1    2    0    0 -.18416739E+03 0.25795355E+03 -.40666893E+03 0.59668909E+03 0.30033413E+03 0.0000E+00 0.0000E+00
       23  2    3    3    0    0 -.20111493E+03 0.81352609E+02 -.19341156E+03 0.30468041E+03 0.91414760E+02 0.0000E+00 0.0000E+00
      -24  1    1    2    0    0 0.18416739E+03 -.25795355E+03 0.26272771E+04 0.26475479E+04 0.80419002E+02 0.0000E+00 0.9000E+01
      -11  1    4    4    0    0 -.46140051E+01 -.49819743E+00 -.44871677E+02 0.45111026E+02 0.51099893E-03 0.0000E+00 0.9000E+01
       11  1    4    4    0    0 -.19650093E+03 0.81850806E+02 -.14853988E+03 0.25956938E+03 0.51099893E-03 0.0000E+00 0.9000E+01
       23  1    3    3    0    0 0.16947545E+02 0.17660094E+03 -.21325737E+03 0.29200868E+03 0.91188000E+02 0.0000E+00 0.9000E+01
#aMCatNLO 1  0  0  1  1 0.29414946D+03 0.00000000D+00  -5  7  0 0.00000000D+00 0.00000000D+00 0.00000000D+00 0.00000000D+00 0.00000000D+00
  <mgrwgt>
 0.1410865057D-02    4    2    0
 0.118257905910651D+04 0.000000000000000D+00 0.000000000000000D+00 0.118257905910651D+04
 0.118257905910651D+04 0.000000000000000D+00 0.000000000000000D+00 -.118257905910651D+04
 0.116487762638082D+04 0.184167386428000D+03 -.257953545852590D+03 0.111804070160554D+04
 0.104007114371753D+03 -.461400508212659D+01 -.498197435002673D+00 -.103903525427950D+03
 0.495507448039556D+03 -.196500926215164D+03 0.818508059527706D+02 -.447454425192263D+03
 0.600765929420879D+03 0.169475448692905D+02 0.176600937334822D+03 -.566682750985327D+03
 0.000000000000000D+00 0.000000000000000D+00 0.000000000000000D+00 -.000000000000000D+00
 0.127361591757343D+04 0.000000000000000D+00 0.000000000000000D+00 0.127361591757343D+04
 0.145571943299940D+04 0.000000000000000D+00 0.000000000000000D+00 -.145571943299940D+04
 0.118863322307580D+04 0.105939474439119D+03 -.380977086389912D+03 0.111804070160554D+04
 0.105168578985515D+03 -.115667572795272D+02 -.114323022839783D+02 -.103903525427950D+03
 0.503848040329575D+03 -.229718318524103D+03 0.296121470730120D+02 -.447454425192263D+03
 0.585729445715719D+03 -.224901555359701D+02 0.114580036979014D+03 -.566682750985327D+03
 0.345956062466226D+03 0.157835756900482D+03 0.248217204621865D+03 -.182103515425965D+03
0.101748019717D-01 0.000000000000D+00 0.000000000000D+00 0.114108931236D-03 0.000000000000D+00  7 1 -2 -24 -11 11 23 21 0 0.42037271D+00 0.78740677D-01 0.13837518D+06 0.13837518D+06 0.13837518D+06 0.11103272D+01  1  2  2  1  7  1        1 0.170351699706D-02 0.100000000000D+01
0.354112223977D-03 0.000000000000D+00 -.390739186581D-04 0.114108931236D-03 0.000000000000D+00  7 1 -2 -24 -11 11 23 21 2 0.42037271D+00 0.78740677D-01 0.13837518D+06 0.13837518D+06 0.13837518D+06 0.11103272D+01  1  2  3  1  7  1        1 0.730909067995D-04 0.100000000000D+01
0.630658642433D-03 0.000000000000D+00 0.000000000000D+00 0.114108931236D-03 0.000000000000D+00  7 1 -2 -24 -11 11 23 21 2 0.42037271D+00 0.78740677D-01 0.13837518D+06 0.13837518D+06 0.13837518D+06 0.11103272D+01  1  2 15  1  7  1        1 0.130171761761D-03 0.100000000000D+01
-.240261658591D-02 0.000000000000D+00 0.000000000000D+00 0.114108931236D-03 0.000000000000D+00  7 1 -2 -24 -11 11 23 21 2 0.42037271D+00 0.78740677D-01 0.13837518D+06 0.13837518D+06 0.13837518D+06 0.11103272D+01  1  2  4  1  7  1        1 -.495914608606D-03 0.100000000000D+01
  </mgrwgt>
  </event>
  <event>
  8     66 0.29493621E-05 0.18971654E+03 0.75467711E-02 0.10621763E+00
        1 -1    0    0  501    0 0.00000000E+00 0.00000000E+00 0.22730395E+04 0.22730396E+04 0.32000000E+00 0.0000E+00 0.9000E+01
       -2 -1    0    0    0  501 0.00000000E+00 0.00000000E+00 -.20933381E+02 0.20935827E+02 0.32000000E+00 0.0000E+00 0.9000E+01
       25  2    1    2    0    0 0.90494368E+02 -.22144739E+02 0.16006217E+04 0.16309680E+04 0.29897672E+03 0.0000E+00 0.0000E+00
       23  2    3    3    0    0 -.27998226E+02 0.35337318E+02 0.11144085E+04 0.11190469E+04 0.91252267E+02 0.0000E+00 0.0000E+00
      -24  1    1    2    0    0 -.90494368E+02 0.22144739E+02 0.65148443E+03 0.66300739E+03 0.80419002E+02 0.0000E+00 0.9000E+01
      -11  1    4    4    0    0 0.29067366E+02 0.28143940E-01 0.53033816E+03 0.53113414E+03 0.51099893E-03 0.0000E+00 0.9000E+01
       11  1    4    4    0    0 -.57065593E+02 0.35309174E+02 0.58407038E+03 0.58791278E+03 0.51099893E-03 0.0000E+00 0.9000E+01
       23  1    3    3    0    0 0.11849259E+03 -.57482057E+02 0.48621319E+03 0.51192109E+03 0.91188000E+02 0.0000E+00 0.9000E+01
#aMCatNLO 1  0  0  1  1 0.22049837D+02 0.00000000D+00  -5  7  0 0.00000000D+00 0.00000000D+00 0.00000000D+00 0.00000000D+00 0.00000000D+00
  <mgrwgt>
 0.1692405767D-02    4    2    0
 0.218140401096973D+03 0.000000000000000D+00 0.000000000000000D+00 0.218140401096973D+03
 0.218140401096973D+03 0.000000000000000D+00 0.000000000000000D+00 -.218140401096973D+03
 0.123110018665350D+03 -.904943680644993D+02 0.221447390546163D+02 0.303983917703662D+01
 0.550810698670776D+02 0.290673664106354D+02 0.281439367773313D-01 0.467868750353191D+02
 0.762557786511813D+02 -.570655927955988D+02 0.353091740356711D+02 0.362177321971371D+02
 0.181833935010338D+03 0.118492594449463D+03 -.574820570270648D+02 -.860444464094929D+02
 0.000000000000000D+00 -.000000000000000D+00 -.000000000000000D+00 -.000000000000000D+00
 0.220645219271260D+03 0.000000000000000D+00 0.000000000000000D+00 0.220645219271260D+03
 0.273013320438217D+03 0.000000000000000D+00 0.000000000000000D+00 -.273013320438217D+03
 0.121303652333855D+03 -.866606869676494D+02 0.269823058176088D+02 0.303983917703662D+01
 0.560649253983937D+02 0.308107152965543D+02 0.222800522251411D+01 0.467868750353191D+02
 0.759604017119293D+02 -.546780492064570D+02 0.383219185024757D+02 0.362177321971371D+02
 0.183508671966732D+03 0.124223071965372D+03 -.502509997568558D+02 -.860444464094929D+02
 0.568208882985674D+02 -.136950510878203D+02 -.172812297857428D+02 -.523681011669568D+02
0.237419687189D-04 0.000000000000D+00 0.000000000000D+00 0.220187802327D-06 0.000000000000D+00  7 1 -2 -24 -11 11 23 21 0 0.34969858D+00 0.32207101D-02 0.35992365D+05 0.35992365D+05 0.35992365D+05 0.11600683D+01  1  2  2  1  7  1        1 0.186574228784D-02 0.100000000000D+01
-.128774140268D-05 0.000000000000D+00 -.911754112844D-07 0.220187802327D-06 0.000000000000D+00  7 1 -2 -24 -11 11 23 21 2 0.34969858D+00 0.32207101D-02 0.35992365D+05 0.35992365D+05 0.35992365D+05 0.11600683D+01  1  2  3  1  7  1        1 -.136185437812D-03 0.100000000000D+01
0.155833668304D-05 0.000000000000D+00 0.000000000000D+00 0.220187802327D-06 0.000000000000D+00  7 1 -2 -24 -11 11 23 21 2 0.34969858D+00 0.32207101D-02 0.35992365D+05 0.35992365D+05 0.35992365D+05 0.11600683D+01  1  2 15  1  7  1        1 0.164802314344D-03 0.100000000000D+01
-.190962966201D-05 0.000000000000D+00 0.000000000000D+00 0.220187802327D-06 0.000000000000D+00  7 1 -2 -24 -11 11 23 21 2 0.34969858D+00 0.32207101D-02 0.35992365D+05 0.35992365D+05 0.35992365D+05 0.11600683D+01  1  2  4  1  7  1        1 -.201953397661D-03 0.100000000000D+01
  </mgrwgt>
  </event>
  <event>
  8     66 0.29493621E-05 0.43523211E+03 0.75467711E-02 0.91231726E-01
        1 -1    0    0  501    0 0.00000000E+00 0.00000000E+00 0.65265002E+03 0.65265010E+03 0.32000000E+00 0.0000E+00 0.9000E+01
       -2 -1    0    0    0  501 0.00000000E+00 0.00000000E+00 -.64807012E+03 0.64807019E+03 0.32000000E+00 0.0000E+00 0.9000E+01
       25  2    1    2    0    0 0.19488076E+03 0.57110292E+03 -.97494189E+02 0.68344936E+03 0.30571367E+03 0.0000E+00 0.0000E+00
       23  2    3    3    0    0 0.10819110E+03 0.32636775E+03 -.17634726E+03 0.39719168E+03 0.91878460E+02 0.0000E+00 0.0000E+00
      -24  1    1    2    0    0 -.19488076E+03 -.57110292E+03 0.10207409E+03 0.61727093E+03 0.80419002E+02 0.0000E+00 0.9000E+01
      -13  1    4    4    0    0 0.60463565E+02 0.23489052E+03 -.78343292E+02 0.25488641E+03 0.10565837E+00 0.0000E+00 0.9000E+01
       13  1    4    4    0    0 0.47727535E+02 0.91477232E+02 -.98003966E+02 0.14230527E+03 0.10565837E+00 0.0000E+00 0.9000E+01
       23  1    3    3    0    0 0.86689665E+02 0.24473518E+03 0.78853069E+02 0.28625769E+03 0.91188000E+02 0.0000E+00 0.9000E+01
#aMCatNLO 1  0  0  2  1 0.12386909D+03 0.00000000D+00  -5  7  0 0.00000000D+00 0.00000000D+00 0.00000000D+00 0.00000000D+00 0.00000000D+00
  <mgrwgt>
 0.1205325802D-02    9    2    0
 0.650356113175473D+03 0.000000000000000D+00 0.000000000000000D+00 0.650356113175473D+03
 0.650356113175473D+03 0.000000000000000D+00 0.000000000000000D+00 -.650356113175473D+03
 0.616915345189385D+03 -.194880765286919D+03 -.571102925222249D+03 0.999012677574380D+02
 0.255163987903563D+03 0.604635818239186D+02 0.234890707346755D+03 -.792412241072341D+02
 0.142651081192514D+03 0.477275179466790D+02 0.914770411994302D+02 -.985056644535755D+02
 0.285981812065484D+03 0.866896655163213D+02 0.244735176676063D+03 0.778456208033716D+02
 0.000000000000000D+00 -.000000000000000D+00 -.000000000000000D+00 -.000000000000000D+00
 0.713005245964988D+03 0.000000000000000D+00 0.000000000000000D+00 0.713005245964988D+03
 0.717544015686572D+03 0.000000000000000D+00 0.000000000000000D+00 -.717544015686572D+03
 0.563002465202664D+03 -.168404381525700D+03 -.521693646552561D+03 0.999012677574380D+02
 0.278754758508180D+03 0.724442787019571D+02 0.257248654566538D+03 -.792412241072341D+02
 0.153121823553040D+03 0.543644182996042D+02 0.103862586823714D+03 -.985056644535755D+02
 0.311718001007011D+03 0.100101556993456D+03 0.269763967973914D+03 0.778456208033716D+02
 0.123952213380665D+03 -.585058724693167D+02 -.109181562811605D+03 -.453876972158361D+01
0.237493286053D-03 0.000000000000D+00 0.000000000000D+00 0.121644554567D-06 0.000000000000D+00  7 1 -2 -24 -13 13 23 21 0 0.10040771D+00 0.99703107D-01 0.37803002D+06 0.37803002D+06 0.37803002D+06 0.10772007D+01  1  2  2  2  7  2       -2 0.656127482742D-03 0.100000000000D+01
-.131434834969D-04 0.000000000000D+00 -.912036751862D-06 0.121644554567D-06 0.000000000000D+00  7 1 -2 -24 -13 13 23 21 2 0.10040771D+00 0.99703107D-01 0.37803002D+06 0.37803002D+06 0.37803002D+06 0.10772007D+01  1  2  3  2  7  2       -2 -.421347712000D-04 0.100000000000D+01
0.151356332766D-04 0.000000000000D+00 0.000000000000D+00 0.121644554567D-06 0.000000000000D+00  7 1 -2 -24 -13 13 23 21 2 0.10040771D+00 0.99703107D-01 0.37803002D+06 0.37803002D+06 0.37803002D+06 0.10772007D+01  1  2 15  2  7  2       -2 0.485211127801D-04 0.100000000000D+01
0.227956854726D-03 0.000000000000D+00 0.000000000000D+00 0.121644554567D-06 0.000000000000D+00  7 1 -2 -24 -13 13 23 21 2 0.10040771D+00 0.11434387D+00 0.46530366D+06 0.46530366D+06 0.46530366D+06 0.10707248D+01  1  2 12  2  7  2       -2 0.509935732879D-03 0.100000000000D+01
-.187533706778D-03 0.000000000000D+00 0.000000000000D+00 0.121644554567D-06 0.000000000000D+00  7 1 -2 -24 -13 13 23 21 2 0.10040771D+00 0.99703107D-01 0.37803002D+06 0.37803002D+06 0.37803002D+06 0.10772007D+01  1  2  4  2  7  2       -2 -.601186879359D-03 0.100000000000D+01
-.676526245252D-03 0.000000000000D+00 -.181010742427D-03 0.121644554567D-06 0.000000000000D+00  7 1 -2 -24 -13 13 23 21 2 0.10040771D+00 0.11836617D+00 0.37803002D+06 0.37803002D+06 0.37803002D+06 0.10772007D+01  1  2  5  2  7  2       -2 -.141606902241D-02 0.100000000000D+01
0.699889211954D-03 0.000000000000D+00 0.178378404046D-03 0.121644554567D-06 0.000000000000D+00  7 1 -2 -24 -13 13 23 21 2 0.10040771D+00 0.99703107D-01 0.37803002D+06 0.37803002D+06 0.37803002D+06 0.10772007D+01  1  2  6  2  7  2       -2 0.224367244939D-02 0.100000000000D+01
0.482949685974D-05 0.000000000000D+00 0.000000000000D+00 0.121644554567D-06 0.000000000000D+00  7 1 21 -24 -13 13 23 2 2 0.10040771D+00 0.11434387D+00 0.46530366D+06 0.46530366D+06 0.46530366D+06 0.10707248D+01  1  2 12  4  7  2       -2 0.957543998526D-04 0.100000000000D+01
-.155875980847D-04 0.000000000000D+00 -.459765654767D-05 0.121644554567D-06 0.000000000000D+00  7 1 21 -24 -13 13 23 2 2 0.10040771D+00 0.11836617D+00 0.37803002D+06 0.37803002D+06 0.37803002D+06 0.10772007D+01  1  2  5  4  7  2       -2 -.289294703155D-03 0.100000000000D+01
  </mgrwgt>
  </event>
  <event>
  9     66 0.29493621E-05 0.42456141E+03 0.75467711E-02 0.94764560E-01
       21 -1    0    0  501  502 0.00000000E+00 0.00000000E+00 0.21075510E+04 0.21075511E+04 0.75000000E+00 0.0000E+00 0.9000E+01
       -4 -1    0    0    0  501 0.00000000E+00 0.00000000E+00 -.20228129E+03 0.20228723E+03 0.15500000E+01 0.0000E+00 0.9000E+01
       25  2    1    2    0    0 -.46655349E+03 0.94024142E+01 0.68268749E+03 0.87956865E+03 0.29969692E+03 0.0000E+00 0.0000E+00
       23  2    3    3    0    0 -.38017951E+03 0.19393049E+02 0.35469731E+03 0.52820974E+03 0.91009887E+02 0.0000E+00 0.0000E+00
      -24  1    1    2    0    0 0.34093766E+03 -.25072293E+02 0.20871358E+03 0.40852868E+03 0.80419002E+02 0.0000E+00 0.9000E+01
      -11  1    4    4    0    0 -.11558631E+03 0.29462465E+02 0.15989820E+03 0.19948852E+03 0.51099893E-03 0.0000E+00 0.9000E+01
       11  1    4    4    0    0 -.26459319E+03 -.10069416E+02 0.19479911E+03 0.32872122E+03 0.51099893E-03 0.0000E+00 0.9000E+01
       23  1    3    3    0    0 -.86373980E+02 -.99906348E+01 0.32799018E+03 0.35135891E+03 0.91188000E+02 0.0000E+00 0.9000E+01
       -3  1    1    2    0  502 0.12561583E+03 0.15669879E+02 0.10138686E+04 0.10217410E+04 0.50000000E+00 0.0000E+00 0.9000E+01
#aMCatNLO 2  0  0  1  2 0.12658942D+03 0.00000000D+00  -5  7  0 0.00000000D+00 0.00000000D+00 0.00000000D+00 0.00000000D+00 0.00000000D+00
  <mgrwgt>
 0.2232644266D-05    2    2    0
 0.460590377188778D+03 0.000000000000000D+00 0.000000000000000D+00 0.460590377188778D+03
 0.460590377188778D+03 0.000000000000000D+00 0.000000000000000D+00 -.460590377188778D+03
 0.415348968551470D+03 0.393951923511976D+03 -.184590570445400D+02 -.102511925631312D+03
 0.108957333620913D+03 -.998408084947389D+02 0.314266300019227D+02 0.302635165771938D+02
 0.234900605630270D+03 -.230422174025267D+03 -.580677117103678D+01 -.452791083338046D+02
 0.161973846574904D+03 -.636889409919704D+02 -.716080178634589D+01 0.117527517387923D+03
 0.000000000000000D+00 0.000000000000000D+00 0.000000000000000D+00 0.000000000000000D+00
 0.899144230861306D+03 0.000000000000000D+00 0.000000000000000D+00 0.899144230861306D+03
 0.474145177449245D+03 0.000000000000000D+00 0.000000000000000D+00 -.474145177449245D+03
 0.365845619468279D+03 0.340937657859820D+03 -.250722931974458D+02 -.102511925631312D+03
 0.123061421024002D+03 -.115586314267133D+03 0.294624653240036D+02 0.302635165771938D+02
 0.268628270221090D+03 -.264593191076963D+03 -.100694163773397D+02 -.452791083338046D+02
 0.172302773800158D+03 -.863739798102635D+02 -.999063479445632D+01 0.117527517387923D+03
 0.443451323797022D+03 0.125615827294539D+03 0.156698790452382D+02 0.424999053412061D+03
-.177466244931D-04 0.000000000000D+00 0.000000000000D+00 0.738712926302D-05 0.000000000000D+00  7 21 -4 -24 -11 11 23 -3 2 0.32443538D+00 0.30230984D-01 0.24395909D+06 0.24395909D+06 0.24395909D+06 0.10912592D+01  1  2 13  3  7  1        3 -.164057726891D-04 0.100000000000D+01
0.213094437496D-04 0.000000000000D+00 0.000000000000D+00 0.738712926302D-05 0.282457593003D-09  7 21 -4 -24 -11 11 23 -3 2 0.32423898D+00 0.31120657D-01 0.24395909D+06 0.24395909D+06 0.24395909D+06 0.10912592D+01  1  2  1  3  7  1        3 0.186384169548D-04 0.100000000000D+01
  </mgrwgt>
  </event>
  <event>
  8     66 0.29493621E-05 0.10228500E+03 0.75467711E-02 0.10461373E+00
        1 -1    0    0  501    0 0.00000000E+00 0.00000000E+00 0.50276335E+03 0.50276345E+03 0.32000000E+00 0.0000E+00 0.9000E+01
       -2 -1    0    0    0  501 0.00000000E+00 0.00000000E+00 -.14893305E+03 0.14893339E+03 0.32000000E+00 0.0000E+00 0.9000E+01
       25  2    1    2    0    0 0.93916726E+02 0.54564434E+02 0.55685236E+02 0.32435096E+03 0.30050802E+03 0.0000E+00 0.0000E+00
       23  2    3    3    0    0 0.94258600E+02 0.14032614E+03 0.53632338E+02 0.19915251E+03 0.90604544E+02 0.0000E+00 0.0000E+00
      -24  1    1    2    0    0 -.93916726E+02 -.54564434E+02 0.29814506E+03 0.32734588E+03 0.80419002E+02 0.0000E+00 0.9000E+01
      -11  1    4    4    0    0 0.15023674E+02 0.68901813E+02 -.15276406E+02 0.72156352E+02 0.51099893E-03 0.0000E+00 0.9000E+01
       11  1    4    4    0    0 0.79234926E+02 0.71424328E+02 0.68908743E+02 0.12699615E+03 0.51099893E-03 0.0000E+00 0.9000E+01
       23  1    3    3    0    0 -.34187374E+00 -.85761707E+02 0.20528985E+01 0.12519845E+03 0.91188000E+02 0.0000E+00 0.9000E+01
#aMCatNLO 1  0  0  2  1 0.14836699D+02 0.00000000D+00  -5  7  0 0.00000000D+00 0.00000000D+00 0.00000000D+00 0.00000000D+00 0.00000000D+00
  <mgrwgt>
 0.5019082038D-03    9    2    0
 0.273638852934142D+03 0.000000000000000D+00 0.000000000000000D+00 0.273638852934142D+03
 0.273638852934142D+03 0.000000000000000D+00 0.000000000000000D+00 -.273638852934142D+03
 0.197043503029109D+03 -.939167259433963D+02 -.545644339528358D+02 0.143392110198196D+03
 0.958002149028776D+02 0.150236741130207D+02 0.689018129898027D+02 -.648421973586764D+02
 0.106675257368840D+03 0.792349255608053D+02 0.714243276859538D+02 -.502064882826900D-01
 0.147758730567457D+03 -.341873730429661D+00 -.857617067229206D+02 -.784997063512368D+02
 0.000000000000000D+00 -.000000000000000D+00 -.000000000000000D+00 -.000000000000000D+00
 0.279183677614331D+03 0.000000000000000D+00 0.000000000000000D+00 0.279183677614331D+03
 0.283847583336782D+03 0.000000000000000D+00 0.000000000000000D+00 -.283847583336782D+03
 0.194206745645298D+03 -.897992183829655D+02 -.512235025206563D+02 0.143392110198196D+03
 0.973286257112640D+02 0.170561570674986D+02 0.705509626485039D+02 -.648421973586764D+02
 0.109602515167131D+03 0.815110272798129D+02 0.732711487698900D+02 -.502064882826900D-01
 0.146340893864660D+03 0.275322315761561D+01 -.832503557837544D+02 -.784997063512368D+02
 0.155524805627596D+02 -.115211891219616D+02 -.934825311398321D+01 -.466390572245114D+01
0.498949592042D-05 0.000000000000D+00 0.000000000000D+00 0.125838074621D-05 0.000000000000D+00  7 1 -2 -24 -11 11 23 21 0 0.77348241D-01 0.22912811D-01 0.47857047D+05 0.47857047D+05 0.47857047D+05 0.11489725D+01  1  2  2  2  7  2       -2 0.382608694242D-03 0.100000000000D+01
-.260310325217D-06 0.000000000000D+00 -.191609780988D-07 0.125838074621D-05 0.000000000000D+00  7 1 -2 -24 -11 11 23 21 2 0.77348241D-01 0.22912811D-01 0.47857047D+05 0.47857047D+05 0.47857047D+05 0.11489725D+01  1  2  3  2  7  2       -2 -.263517117621D-04 0.100000000000D+01
0.312002200946D-06 0.000000000000D+00 0.000000000000D+00 0.125838074621D-05 0.000000000000D+00  7 1 -2 -24 -11 11 23 21 2 0.77348241D-01 0.22912811D-01 0.47857047D+05 0.47857047D+05 0.47857047D+05 0.11489725D+01  1  2 15  2  7  2       -2 0.315845791426D-04 0.100000000000D+01
0.121176157801D-04 0.000000000000D+00 0.000000000000D+00 0.125838074621D-05 0.000000000000D+00  7 1 -2 -24 -11 11 23 21 2 0.77348241D-01 0.23993029D-01 0.50964064D+05 0.50964064D+05 0.50964064D+05 0.11465666D+01  1  2 12  2  7  2       -2 0.113072424870D-02 0.100000000000D+01
-.111051773539D-04 0.000000000000D+00 0.000000000000D+00 0.125838074621D-05 0.000000000000D+00  7 1 -2 -24 -11 11 23 21 2 0.77348241D-01 0.22912811D-01 0.47857047D+05 0.47857047D+05 0.47857047D+05 0.11489725D+01  1  2  4  2  7  2       -2 -.112419832925D-02 0.100000000000D+01
-.719431209979D-04 0.000000000000D+00 -.118879979209D-04 0.125838074621D-05 0.000000000000D+00  7 1 -2 -24 -11 11 23 21 2 0.77348241D-01 0.24221423D-01 0.47857047D+05 0.47857047D+05 0.47857047D+05 0.11489725D+01  1  2  5  2  7  2       -2 -.663598352731D-02 0.100000000000D+01
0.725098393752D-04 0.000000000000D+00 0.118696851954D-04 0.125838074621D-05 0.000000000000D+00  7 1 -2 -24 -11 11 23 21 2 0.77348241D-01 0.22912811D-01 0.47857047D+05 0.47857047D+05 0.47857047D+05 0.11489725D+01  1  2  6  2  7  2       -2 0.734030963058D-02 0.100000000000D+01
0.162680045531D-06 0.000000000000D+00 0.000000000000D+00 0.125838074621D-05 0.000000000000D+00  7 1 21 -24 -11 11 23 2 2 0.77348241D-01 0.23993029D-01 0.50964064D+05 0.50964064D+05 0.50964064D+05 0.11465666D+01  1  2 12  4  7  2       -2 0.191402499071D-03 0.100000000000D+01
-.677781247218D-06 0.000000000000D+00 -.114115527322D-06 0.125838074621D-05 0.000000000000D+00  7 1 21 -24 -11 11 23 2 2 0.77348241D-01 0.24221423D-01 0.47857047D+05 0.47857047D+05 0.47857047D+05 0.11489725D+01  1  2  5  4  7  2       -2 -.788187879618D-03 0.100000000000D+01
  </mgrwgt>
  </event>
  <event>
  9     66 0.29493621E-05 0.37784260E+03 0.75467711E-02 0.97539889E-01
        1 -1    0    0  501    0 0.00000000E+00 0.00000000E+00 0.95331706E+03 0.95331712E+03 0.32000000E+00 0.0000E+00 0.9000E+01
       -2 -1    0    0    0  502 0.00000000E+00 0.00000000E+00 -.19436353E+03 0.19436379E+03 0.32000000E+00 0.0000E+00 0.9000E+01
       25  2    1    2    0    0 -.74222700E+02 -.36248046E+03 0.37821600E+03 0.60805177E+03 0.29963064E+03 0.0000E+00 0.0000E+00
       23  2    3    3    0    0 -.55859454E+01 -.15357867E+03 0.31495076E+03 0.36174159E+03 0.89696082E+02 0.0000E+00 0.0000E+00
      -24  1    1    2    0    0 0.69437755E+02 0.34122753E+03 0.33924718E+03 0.49276130E+03 0.80419002E+02 0.0000E+00 0.9000E+01
      -13  1    4    4    0    0 -.17043151E+02 -.13634933E+02 0.11717819E+03 0.11919362E+03 0.10565837E+00 0.0000E+00 0.9000E+01
       13  1    4    4    0    0 0.11457206E+02 -.13994373E+03 0.19777257E+03 0.24254797E+03 0.10565837E+00 0.0000E+00 0.9000E+01
       23  1    3    3    0    0 -.68636755E+02 -.20890179E+03 0.63265241E+02 0.24631018E+03 0.91188000E+02 0.0000E+00 0.9000E+01
       21  1    1    2  501  502 0.47849452E+01 0.21252925E+02 0.41490353E+02 0.46867840E+02 0.75000000E+00 0.0000E+00 0.9000E+01
#aMCatNLO 2  0  0  2  1 0.21784915D+02 0.00000000D+00  -5  7  0 0.00000000D+00 0.00000000D+00 0.00000000D+00 0.00000000D+00 0.00000000D+00
  <mgrwgt>
 0.3679775262D-03    2    2    0
 0.417301272386166D+03 0.000000000000000D+00 0.000000000000000D+00 0.417301272386166D+03
 0.417301272386166D+03 0.000000000000000D+00 0.000000000000000D+00 -.417301272386166D+03
 0.367390507013528D+03 0.715173255210116D+02 0.350464200706077D+03 0.238471143549596D+02
 0.560355611278146D+02 -.167207618414144D+02 -.122026519772909D+02 0.520720224215736D+02
 0.146400401398274D+03 0.123063244880794D+02 -.136172615975815D+03 0.523321179150351D+02
 0.264776075232715D+03 -.671028881676766D+02 -.202088932752971D+03 -.128251254691568D+03
 0.000000000000000D+00 0.000000000000000D+00 0.000000000000000D+00 0.000000000000000D+00
 0.437723330943802D+03 0.000000000000000D+00 0.000000000000000D+00 0.437723330943802D+03
 0.423293804440503D+03 0.000000000000000D+00 0.000000000000000D+00 -.423293804440503D+03
 0.358181143218331D+03 0.694377551450524D+02 0.341227532154393D+03 0.238471143549596D+02
 0.564612477014331D+02 -.170431904133639D+02 -.136347582840159D+02 0.520720224215736D+02
 0.149847309486698D+03 0.114572450576672D+02 -.139943907086438D+03 0.523321179150351D+02
 0.270397112437880D+03 -.686367550252526D+02 -.208901791759634D+03 -.128251254691568D+03
 0.261303225399622D+02 0.478494523589687D+01 0.212529249756950D+02 0.144295265032989D+02
-.758657306140D-05 0.000000000000D+00 0.000000000000D+00 0.163284844618D-05 0.000000000000D+00  7 1 -2 -24 -13 13 23 21 2 0.13981978D+00 0.29478412D-01 0.14276503D+06 0.14276503D+06 0.14276503D+06 0.11092501D+01  1  2  8  2  7  2       -2 -.189665116867D-03 0.100000000000D+01
0.249225213673D-04 0.000000000000D+00 0.000000000000D+00 0.163284844618D-05 0.225361632758D-07  7 1 -2 -24 -13 13 23 21 2 0.14666234D+00 0.29901728D-01 0.15188798D+06 0.15188798D+06 0.15188798D+06 0.11071235D+01  1  2  1  2  7  2       -2 0.557642643056D-03 0.100000000000D+01
  </mgrwgt>
  </event>
  <event>
  8     66 0.29493621E-05 0.10300860E+03 0.75467711E-02 0.10151604E+00
        1 -1    0    0  501    0 0.00000000E+00 0.00000000E+00 0.76791870E+03 0.76791877E+03 0.32000000E+00 0.0000E+00 0.9000E+01
       -2 -1    0    0    0  501 0.00000000E+00 0.00000000E+00 -.20046928E+03 0.20046954E+03 0.32000000E+00 0.0000E+00 0.9000E+01
       25  2    1    2    0    0 -.24931544E+02 0.16560306E+03 0.67298184E+03 0.75472908E+03 0.29776750E+03 0.0000E+00 0.0000E+00
       23  2    3    3    0    0 0.10322899E+03 0.99233159E+02 0.36497951E+03 0.40257746E+03 0.91406341E+02 0.0000E+00 0.0000E+00
      -24  1    1    2    0    0 0.24931544E+02 -.16560306E+03 -.10553242E+03 0.21365922E+03 0.80419002E+02 0.0000E+00 0.9000E+01
      -11  1    4    4    0    0 0.45608132E+02 0.54415153E+02 0.28745346E+03 0.29609222E+03 0.51099893E-03 0.0000E+00 0.9000E+01
       11  1    4    4    0    0 0.57620857E+02 0.44818006E+02 0.77526054E+02 0.10648524E+03 0.51099893E-03 0.0000E+00 0.9000E+01
       23  1    3    3    0    0 -.12816053E+03 0.66369902E+02 0.30800233E+03 0.35215163E+03 0.91188000E+02 0.0000E+00 0.9000E+01
#aMCatNLO 1  0  0  1  2 0.61130400D+02 0.00000000D+00  -5  7  0 0.00000000D+00 0.00000000D+00 0.00000000D+00 0.00000000D+00 0.00000000D+00
  <mgrwgt>
 0.1504319507D-02    9    2    0
 0.392357318606826D+03 0.000000000000000D+00 0.000000000000000D+00 0.392357318606826D+03
 0.392357318606826D+03 0.000000000000000D+00 0.000000000000000D+00 -.392357318606826D+03
 0.339982696478169D+03 0.249315439996625D+02 -.165603061211503D+03 -.284736829689045D+03
 0.157531076665903D+03 0.456081317291738D+02 0.544151527820350D+02 0.140623360731426D+03
 0.753483390209883D+02 0.576208569484917D+02 0.448180063570334D+02 0.186696369521252D+02
 0.211852525048591D+03 -.128160532677328D+03 0.663699020724348D+02 0.125443832005495D+03
 0.000000000000000D+00 0.000000000000000D+00 0.000000000000000D+00 0.000000000000000D+00
 0.432886834610842D+03 0.000000000000000D+00 0.000000000000000D+00 0.432886834610842D+03
 0.417293205798247D+03 0.000000000000000D+00 0.000000000000000D+00 -.417293205798247D+03
 0.353800007012099D+03 0.235801772691357D+02 -.192551660771800D+03 -.284736829689045D+03
 0.153596711494294D+03 0.450021094980820D+02 0.423300169995635D+02 0.140623360731426D+03
 0.718648075878294D+02 0.573341116208516D+02 0.390998065258553D+02 0.186696369521252D+02
 0.207830582692421D+03 -.128978001585550D+03 0.500681523230737D+02 0.125443832005495D+03
 0.630879316224457D+02 0.306160319748028D+01 0.610536849233080D+02 0.155936288125951D+02
0.347377184569D-04 0.000000000000D+00 0.000000000000D+00 0.450615888554D-06 0.000000000000D+00  7 1 -2 -24 -11 11 23 21 0 0.11814136D+00 0.30841452D-01 0.62624259D+05 0.62624259D+05 0.62624259D+05 0.11387934D+01  1  2  2  1  7  1        1 0.867850210183D-03 0.100000000000D+01
-.145531157604D-05 0.000000000000D+00 -.133401985526D-06 0.450615888554D-06 0.000000000000D+00  7 1 -2 -24 -11 11 23 21 2 0.11814136D+00 0.30841452D-01 0.62624259D+05 0.62624259D+05 0.62624259D+05 0.11387934D+01  1  2  3  1  7  1        1 -.471508295034D-04 0.100000000000D+01
0.217786974241D-05 0.000000000000D+00 0.000000000000D+00 0.450615888554D-06 0.000000000000D+00  7 1 -2 -24 -11 11 23 21 2 0.11814136D+00 0.30841452D-01 0.62624259D+05 0.62624259D+05 0.62624259D+05 0.11387934D+01  1  2 15  1  7  1        1 0.705610857466D-04 0.100000000000D+01
0.481088958877D-04 0.000000000000D+00 0.000000000000D+00 0.450615888554D-06 0.000000000000D+00  7 1 -2 -24 -11 11 23 21 2 0.13378290D+00 0.30841452D-01 0.80659145D+05 0.80659145D+05 0.80659145D+05 0.11294636D+01  1  2 12  1  7  1        1 0.125388508177D-02 0.100000000000D+01
-.450742982724D-04 0.000000000000D+00 0.000000000000D+00 0.450615888554D-06 0.000000000000D+00  7 1 -2 -24 -11 11 23 21 2 0.11814136D+00 0.30841452D-01 0.62624259D+05 0.62624259D+05 0.62624259D+05 0.11387934D+01  1  2  4  1  7  1        1 -.146036806676D-02 0.100000000000D+01
-.115586572949D-03 0.000000000000D+00 -.322504331202D-04 0.450615888554D-06 0.000000000000D+00  7 1 -2 -24 -11 11 23 21 2 0.13630177D+00 0.30841452D-01 0.62624259D+05 0.62624259D+05 0.62624259D+05 0.11387934D+01  1  2  5  1  7  1        1 -.298766789394D-02 0.100000000000D+01
0.119303239455D-03 0.000000000000D+00 0.319235228027D-04 0.450615888554D-06 0.000000000000D+00  7 1 -2 -24 -11 11 23 21 2 0.11814136D+00 0.30841452D-01 0.62624259D+05 0.62624259D+05 0.62624259D+05 0.11387934D+01  1  2  6  1  7  1        1 0.386532121051D-02 0.100000000000D+01
0.940383964890D-06 0.000000000000D+00 0.000000000000D+00 0.450615888554D-06 0.000000000000D+00  7 21 -2 -24 -11 11 23 -1 2 0.13378290D+00 0.30841452D-01 0.80659145D+05 0.80659145D+05 0.80659145D+05 0.11294636D+01  1  2 12  3  7  1        1 0.406525847453D-04 0.100000000000D+01
-.233066831084D-05 0.000000000000D+00 -.707586151114D-06 0.450615888554D-06 0.000000000000D+00  7 21 -2 -24 -11 11 23 -1 2 0.13630177D+00 0.30841452D-01 0.62624259D+05 0.62624259D+05 0.62624259D+05 0.11387934D+01  1  2  5  3  7  1        1 -.987638758987D-04 0.100000000000D+01
  </mgrwgt>
  </event>
  <event>
  9     66 0.29493621E-05 0.27876047E+03 0.75467711E-02 0.95775559E-01
        1 -1    0    0  501    0 0.00000000E+00 0.00000000E+00 0.75201436E+03 0.75201443E+03 0.32000000E+00 0.0000E+00 0.9000E+01
       21 -1    0    0  502  501 0.00000000E+00 0.00000000E+00 -.48386829E+03 0.48386887E+03 0.75000000E+00 0.0000E+00 0.9000E+01
       25  2    1    2    0    0 0.95142856E+02 0.23113123E+03 0.32315743E+03 0.50962164E+03 0.30464682E+03 0.0000E+00 0.0000E+00
       23  2    3    3    0    0 0.15875956E+03 0.21275375E+03 0.21364607E+03 0.35248219E+03 0.90168155E+02 0.0000E+00 0.0000E+00
      -24  1    1    2    0    0 -.23069491E+03 0.14985128E+02 0.22290658E+03 0.33105778E+03 0.80419002E+02 0.0000E+00 0.9000E+01
      -13  1    4    4    0    0 0.51971292E+02 0.54189948E+02 0.11505164E+03 0.13738434E+03 0.10565837E+00 0.0000E+00 0.9000E+01
       13  1    4    4    0    0 0.10678827E+03 0.15856380E+03 0.98594429E+02 0.21509785E+03 0.10565837E+00 0.0000E+00 0.9000E+01
       23  1    3    3    0    0 -.63616704E+02 0.18377481E+02 0.10951136E+03 0.15713945E+03 0.91188000E+02 0.0000E+00 0.9000E+01
        2  1    1    2  502    0 0.13555205E+03 -.24611636E+03 -.27791793E+03 0.39520387E+03 0.32000000E+00 0.0000E+00 0.9000E+01
#aMCatNLO 2  0  0  2  1 0.28097619D+03 0.00000000D+00  -5  7  0 0.00000000D+00 0.00000000D+00 0.00000000D+00 0.00000000D+00 0.00000000D+00
  <mgrwgt>
 0.2696595491D-03    1    2    0
 0.287057645492417D+03 0.000000000000000D+00 0.000000000000000D+00 0.287057645492417D+03
 0.287057645492417D+03 0.000000000000000D+00 0.000000000000000D+00 -.287057645492417D+03
 0.211861600547872D+03 -.179654911765206D+03 -.776862577122466D+02 0.103479405505563D+02
 0.807822596958338D+02 0.702025515699817D+02 0.210879002403812D+02 0.339510780105864D+02
 0.178430642586593D+03 0.148919232889990D+03 0.820685685412245D+02 -.540861012360465D+02
 0.103040788154536D+03 -.394668726947654D+02 -.254702110693592D+02 0.978708267490379D+01
 0.000000000000000D+00 0.000000000000000D+00 -.000000000000000D+00 -.000000000000000D+00
 0.346621866276110D+03 0.000000000000000D+00 0.000000000000000D+00 0.346621866276110D+03
 0.104977864503494D+04 0.000000000000000D+00 0.000000000000000D+00 -.104977864503494D+04
 0.244987807213505D+03 -.230694984280732D+03 0.149851287277007D+02 0.103479405505563D+02
 0.824027740437264D+02 0.519712135973031D+02 0.541898000480166D+02 0.339510780105864D+02
 0.198674544225610D+03 0.106788334274643D+03 0.158563929817551D+03 -.540861012360465D+02
 0.113118720898691D+03 -.636166183868073D+02 0.183775012310669D+02 0.978708267490379D+01
 0.757216664929517D+03 0.135552054795594D+03 -.246116359824335D+03 -.703156778758828D+03
0.510886562264D-05 0.000000000000D+00 0.000000000000D+00 0.196582343276D-07 0.639354861302D-12  7 1 21 -24 -13 13 23 2 2 0.11569456D+00 0.74441318D-01 0.20461792D+06 0.20461792D+06 0.20461792D+06 0.10970648D+01  1  2  1  4  7  2       -2 0.269659549092D-03 0.100000000000D+01
  </mgrwgt>
  </event>
  <event>
  8     66 0.29493621E-05 0.21693270E+03 0.75467711E-02 0.10156724E+00
        1 -1    0    0  501    0 0.00000000E+00 0.00000000E+00 0.30312082E+04 0.30312082E+04 0.32000000E+00 0.0000E+00 0.9000E+01
       -2 -1    0    0    0  501 0.00000000E+00 0.00000000E+00 -.49232894E+02 0.49233934E+02 0.32000000E+00 0.0000E+00 0.9000E+01
       25  2    1    2    0    0 -.57004321E+02 0.88511039E+02 0.48313033E+03 0.57808783E+03 0.29947776E+03 0.0000E+00 0.0000E+00
       23  2    3    3    0    0 -.41043707E+02 -.70735477E+02 0.12346152E+03 0.17399490E+03 0.91342131E+02 0.0000E+00 0.0000E+00
      -24  1    1    2    0    0 0.57004321E+02 -.88511039E+02 0.24988450E+04 0.25023543E+04 0.80419002E+02 0.0000E+00 0.9000E+01
      -13  1    4    4    0    0 0.12819163E+02 0.12589597E+02 0.34770421E+01 0.18301090E+02 0.10565837E+00 0.0000E+00 0.9000E+01
       13  1    4    4    0    0 -.53862870E+02 -.83325074E+02 0.11998448E+03 0.15569381E+03 0.10565837E+00 0.0000E+00 0.9000E+01
       23  1    3    3    0    0 -.15960614E+02 0.15924652E+03 0.35966881E+03 0.40409293E+03 0.91188000E+02 0.0000E+00 0.9000E+01
#aMCatNLO 1  0  0  2  1 0.11343854D+03 0.00000000D+00  -5  7  0 0.00000000D+00 0.00000000D+00 0.00000000D+00 0.00000000D+00 0.00000000D+00
  <mgrwgt>
 0.1586888268D-02    4    2    0
 0.386311763574766D+03 0.000000000000000D+00 0.000000000000000D+00 0.386311763574766D+03
 0.386311763574766D+03 0.000000000000000D+00 0.000000000000000D+00 -.386311763574766D+03
 0.332456482163873D+03 0.570043211669345D+02 -.885110390972606D+02 0.304920317303762D+03
 0.595463258397739D+02 0.128192521120367D+02 0.125897253305007D+02 -.567708597117141D+02
 0.157664276794767D+03 -.538629592610394D+02 -.833252025220753D+02 -.122530471400039D+03
 0.222956442351119D+03 -.159606140179317D+02 0.159246516288835D+03 -.125618986192009D+03
 0.000000000000000D+00 0.000000000000000D+00 0.000000000000000D+00 0.000000000000000D+00
 0.629035984840474D+03 0.000000000000000D+00 0.000000000000000D+00 0.629035984840474D+03
 0.403937512810993D+03 0.000000000000000D+00 0.000000000000000D+00 -.403937512810993D+03
 0.341389139672632D+03 0.274649843635788D+02 -.127861657510493D+03 0.304920317303762D+03
 0.575764924079915D+02 0.768494498965785D+01 0.575009444325208D+01 -.567708597117141D+02
 0.173886343859998D+03 -.683971272269759D+02 -.102686791490330D+03 -.122530471400039D+03
 0.208054815527531D+03 -.348548329605674D+02 0.134076716276830D+03 -.125618986192009D+03
 0.252066706183315D+03 0.681020308343067D+02 0.907216382807413D+02 0.225098472029482D+03
0.241160818336D-03 0.000000000000D+00 0.000000000000D+00 0.643872614139D-05 0.000000000000D+00  7 1 -2 -24 -13 13 23 21 0 0.46633980D+00 0.75743727D-02 0.47059798D+05 0.47059798D+05 0.47059798D+05 0.11496177D+01  1  2  2  2  7  2       -2 0.159122690358D-02 0.100000000000D+01
-.797339487031D-05 0.000000000000D+00 -.926121041510D-06 0.643872614139D-05 0.000000000000D+00  7 1 -2 -24 -13 13 23 21 2 0.46633980D+00 0.75743727D-02 0.47059798D+05 0.47059798D+05 0.47059798D+05 0.11496177D+01  1  2  3  2  7  2       -2 -.695305265482D-04 0.100000000000D+01
0.149323880655D-04 0.000000000000D+00 0.000000000000D+00 0.643872614139D-05 0.000000000000D+00  7 1 -2 -24 -13 13 23 21 2 0.46633980D+00 0.75743727D-02 0.47059798D+05 0.47059798D+05 0.47059798D+05 0.11496177D+01  1  2 15  2  7  2       -2 0.130215149470D-03 0.100000000000D+01
-.745652509311D-05 0.000000000000D+00 0.000000000000D+00 0.643872614139D-05 0.000000000000D+00  7 1 -2 -24 -13 13 23 21 2 0.46633980D+00 0.75743727D-02 0.47059798D+05 0.47059798D+05 0.47059798D+05 0.11496177D+01  1  2  4  2  7  2       -2 -.650232585212D-04 0.100000000000D+01
  </mgrwgt>
  </event>
  <event>
  9     66 0.29493621E-05 0.32920412E+03 0.75467711E-02 0.99266100E-01
        1 -1    0    0  501    0 0.00000000E+00 0.00000000E+00 0.12141366E+03 0.12141408E+03 0.32000000E+00 0.0000E+00 0.9000E+01
       21 -1    0    0  502  501 0.00000000E+00 0.00000000E+00 -.10574870E+04 0.10574872E+04 0.75000000E+00 0.0000E+00 0.9000E+01
       25  2    1    2    0    0 0.17086130E+03 0.18693083E+03 -.38797187E+03 0.55292581E+03 0.30177487E+03 0.0000E+00 0.0000E+00
       23  2    3    3    0    0 0.87298995E+01 -.41292374E+02 -.97718024E+02 0.13948300E+03 0.90141125E+02 0.0000E+00 0.0000E+00
      -24  1    1    2    0    0 -.18633721E+03 -.17659364E+03 -.54404380E+03 0.60692483E+03 0.80419002E+02 0.0000E+00 0.9000E+01
      -11  1    4    4    0    0 0.36998090E+01 0.26725630E+02 -.48064491E+02 0.55119354E+02 0.51099893E-03 0.0000E+00 0.9000E+01
       11  1    4    4    0    0 0.50300905E+01 -.68018004E+02 -.49653533E+02 0.84363642E+02 0.51099893E-03 0.0000E+00 0.9000E+01
       23  1    3    3    0    0 0.16213140E+03 0.22822320E+03 -.29025384E+03 0.41344282E+03 0.91188000E+02 0.0000E+00 0.9000E+01
        2  1    1    2  502    0 0.15475912E+02 -.10337190E+02 -.40576446E+01 0.19050675E+02 0.32000000E+00 0.0000E+00 0.9000E+01
#aMCatNLO 2  0  0  2  1 0.18610786D+02 0.00000000D+00  -5  7  0 0.00000000D+00 0.00000000D+00 0.00000000D+00 0.00000000D+00 0.00000000D+00
  <mgrwgt>
 0.1572899379D-03    1    2    0
 0.345055770698877D+03 0.000000000000000D+00 0.000000000000000D+00 0.345055770698877D+03
 0.345055770698877D+03 0.000000000000000D+00 0.000000000000000D+00 -.345055770698877D+03
 0.283760712921885D+03 -.179958937278922D+03 -.180854028174509D+03 -.946547813375593D+02
 0.274076694735545D+02 0.431776537715626D+01 0.263128634450097D+02 -.633801746950189D+01
 0.758606540564305D+02 0.671798328249229D+01 -.691454377351536D+02 0.304732009296626D+02
 0.303082504945885D+03 0.168923188619273D+03 0.223686602464653D+03 0.705195978773987D+02
 0.000000000000000D+00 0.000000000000000D+00 -.000000000000000D+00 0.000000000000000D+00
 0.367895392303591D+03 0.000000000000000D+00 0.000000000000000D+00 0.367895392303591D+03
 0.348993393196689D+03 0.000000000000000D+00 0.000000000000000D+00 -.348993393196689D+03
 0.285190484286217D+03 -.186337209179835D+03 -.176593638668118D+03 -.946547813375593D+02
 0.277149477974089D+02 0.369980896442800D+01 0.267256296389090D+02 -.633801746950189D+01
 0.747018515104388D+02 0.503009053650523D+01 -.680180037444691D+02 0.304732009296626D+02
 0.302755158109822D+03 0.162131398107635D+03 0.228223203204619D+03 0.705195978773987D+02
 0.265263437963941D+02 0.154759115712661D+02 -.103371904309407D+02 0.189019991069018D+02
0.189663166585D-05 0.000000000000D+00 0.000000000000D+00 0.307955227026D-06 0.128839068623D-10  7 1 21 -24 -11 11 23 2 2 0.18679026D-01 0.16268991D+00 0.11466590D+06 0.11466590D+06 0.11466590D+06 0.11168772D+01  1  2  1  4  7  2       -2 0.157289937909D-03 0.100000000000D+01
  </mgrwgt>
  </event>
  <event>
  8     66 0.29493621E-05 0.14697477E+03 0.75467711E-02 0.10255120E+00
        1 -1    0    0  501    0 0.00000000E+00 0.00000000E+00 0.22449274E+04 0.22449274E+04 0.32000000E+00 0.0000E+00 0.9000E+01
       -2 -1    0    0    0  501 0.00000000E+00 0.00000000E+00 -.34174189E+02 0.34175687E+02 0.32000000E+00 0.0000E+00 0.9000E+01
       25  2    1    2    0    0 0.16192734E+03 -.57250963E+02 0.11220781E+04 0.11740335E+04 0.29966189E+03 0.0000E+00 0.0000E+00
       23  2    3    3    0    0 0.95264111E+02 0.81969840E+02 0.67042425E+03 0.68809844E+03 0.90644868E+02 0.0000E+00 0.0000E+00
      -24  1    1    2    0    0 -.16192734E+03 0.57250963E+02 0.10886752E+04 0.11050697E+04 0.80419002E+02 0.0000E+00 0.9000E+01
      -11  1    4    4    0    0 0.81952325E+02 0.98420222E+02 0.62499337E+03 0.63798075E+03 0.51099893E-03 0.0000E+00 0.9000E+01
       11  1    4    4    0    0 0.13311785E+02 -.16450383E+02 0.45430874E+02 0.50117692E+02 0.51099893E-03 0.0000E+00 0.9000E+01
       23  1    3    3    0    0 0.66663233E+02 -.13922080E+03 0.45165382E+03 0.48593502E+03 0.91188000E+02 0.0000E+00 0.9000E+01
#aMCatNLO 1  0  0  1  2 0.70943661D+01 0.00000000D+00  -5  7  0 0.00000000D+00 0.00000000D+00 0.00000000D+00 0.00000000D+00 0.00000000D+00
  <mgrwgt>
 0.4460789332D-02   11    2    0
 0.276984306338296D+03 0.000000000000000D+00 0.000000000000000D+00 0.276984306338296D+03
 0.276984306338296D+03 0.000000000000000D+00 0.000000000000000D+00 -.276984306338296D+03
 0.201772436061376D+03 -.161927343927182D+03 0.572509627898584D+02 0.688967528124061D+02
 0.130544958743626D+03 0.819523253832169D+02 0.984202224267981D+02 0.252836396730755D+02
 0.248875772111700D+02 0.133117852595801D+02 -.164503827066114D+02 -.130985793676564D+02
 0.196763640660421D+03 0.666632332843851D+02 -.139220802510045D+03 -.810818131178253D+02
 0.000000000000000D+00 -.000000000000000D+00 -.000000000000000D+00 0.000000000000000D+00
 0.282067048269161D+03 0.000000000000000D+00 0.000000000000000D+00 0.282067048269161D+03
 0.279493665896086D+03 0.000000000000000D+00 0.000000000000000D+00 -.279493665896086D+03
 0.200273497377549D+03 -.159633165085250D+03 0.584187286256386D+02 0.688967528124061D+02
 0.132062742278575D+03 0.834508333428926D+02 0.991829817932303D+02 0.252836396730755D+02
 0.249459791205462D+02 0.135961485152323D+02 -.163056382390779D+02 -.130985793676564D+02
 0.196731818826283D+03 0.689086208942756D+02 -.138077872023987D+03 -.810818131178253D+02
 0.754667656229366D+01 -.632243766715006D+01 -.321820015580430D+01 0.257338237307551D+01
0.261384322940D-04 0.000000000000D+00 0.000000000000D+00 0.218995080579D-05 0.000000000000D+00  7 1 -2 -24 -11 11 23 21 0 0.34537357D+00 0.52576845D-02 0.67122748D+05 0.67122748D+05 0.67122748D+05 0.11362125D+01  1  2  2  1  7  1        1 0.102965277259D-02 0.100000000000D+01
-.144425154329D-05 0.000000000000D+00 -.100378462416D-06 0.218995080579D-05 0.000000000000D+00  7 1 -2 -24 -11 11 23 21 2 0.34537357D+00 0.52576845D-02 0.67122748D+05 0.67122748D+05 0.67122748D+05 0.11362125D+01  1  2  3  1  7  1        1 -.734468548269D-04 0.100000000000D+01
0.171986172322D-05 0.000000000000D+00 0.000000000000D+00 0.218995080579D-05 0.000000000000D+00  7 1 -2 -24 -11 11 23 21 2 0.34537357D+00 0.52576845D-02 0.67122748D+05 0.67122748D+05 0.67122748D+05 0.11362125D+01  1  2 15  1  7  1        1 0.874629041562D-04 0.100000000000D+01
0.225086668824D-04 0.000000000000D+00 0.000000000000D+00 0.218995080579D-05 0.000000000000D+00  7 1 -2 -24 -11 11 23 21 2 0.35325417D+00 0.52576845D-02 0.68969372D+05 0.68969372D+05 0.68969372D+05 0.11352076D+01  1  2 12  1  7  1        1 0.105594502552D-02 0.100000000000D+01
-.275770534699D-04 0.000000000000D+00 0.000000000000D+00 0.218995080579D-05 0.000000000000D+00  7 1 -2 -24 -11 11 23 21 2 0.34537357D+00 0.52576845D-02 0.67122748D+05 0.67122748D+05 0.67122748D+05 0.11362125D+01  1  2  4  1  7  1        1 -.140242041089D-02 0.100000000000D+01
-.911406003557D-03 0.000000000000D+00 -.109536498349D-03 0.218995080579D-05 0.000000000000D+00  7 1 -2 -24 -11 11 23 21 2 0.35303249D+00 0.52576845D-02 0.67122748D+05 0.67122748D+05 0.67122748D+05 0.11362125D+01  1  2  5  1  7  1        1 -.429534721625D-01 0.100000000000D+01
0.913615093578D-03 0.000000000000D+00 0.109510155865D-03 0.218995080579D-05 0.000000000000D+00  7 1 -2 -24 -11 11 23 21 2 0.34537357D+00 0.52576845D-02 0.67122748D+05 0.67122748D+05 0.67122748D+05 0.11362125D+01  1  2  6  1  7  1        1 0.464615429755D-01 0.100000000000D+01
0.665336865618D-05 0.000000000000D+00 0.000000000000D+00 0.218995080579D-05 0.299140811849D-06  7 1 -2 -24 -11 11 23 21 2 0.35171127D+00 0.53053168D-02 0.68969372D+05 0.68969372D+05 0.68969372D+05 0.11352076D+01  1  2 11  1  7  1        1 0.312740485441D-03 0.100000000000D+01
0.776453339116D-06 0.000000000000D+00 0.000000000000D+00 0.218995080579D-05 0.000000000000D+00  7 21 -2 -24 -11 11 23 -1 2 0.35325417D+00 0.52576845D-02 0.68969372D+05 0.68969372D+05 0.68969372D+05 0.11352076D+01  1  2 12  3  7  1        1 0.157059567224D-04 0.100000000000D+01
-.360863226680D-05 0.000000000000D+00 -.436010519294D-06 0.218995080579D-05 0.000000000000D+00  7 21 -2 -24 -11 11 23 -1 2 0.35303249D+00 0.52576845D-02 0.67122748D+05 0.67122748D+05 0.67122748D+05 0.11362125D+01  1  2  5  3  7  1        1 -.735304846242D-04 0.100000000000D+01
0.298214588309D-07 0.000000000000D+00 0.000000000000D+00 0.218995080579D-05 0.993719594790D-09  7 21 -2 -24 -11 11 23 -1 2 0.35171127D+00 0.53053168D-02 0.68969372D+05 0.68969372D+05 0.68969372D+05 0.11352076D+01  1  2 11  3  7  1        1 0.609125016753D-06 0.100000000000D+01
  </mgrwgt>
  </event>
  <event>
  8     66 0.29493621E-05 0.26268121E+03 0.75467711E-02 0.82116081E-01
        1 -1    0    0  501    0 0.00000000E+00 0.00000000E+00 0.23089620E+03 0.23089642E+03 0.32000000E+00 0.0000E+00 0.9000E+01
       -2 -1    0    0    0  501 0.00000000E+00 0.00000000E+00 -.12325080E+04 0.12325080E+04 0.32000000E+00 0.0000E+00 0.9000E+01
       25  2    1    2    0    0 0.12751775E+03 0.11589651E+03 0.88178658E+02 0.35714806E+03 0.30014410E+03 0.0000E+00 0.0000E+00
       23  2    3    3    0    0 0.17295557E+03 0.14085400E+03 0.59621541E+02 0.24843637E+03 0.91719249E+02 0.0000E+00 0.0000E+00
      -24  1    1    2    0    0 -.12751775E+03 -.11589651E+03 -.10897904E+04 0.11062564E+04 0.80419002E+02 0.0000E+00 0.9000E+01
      -13  1    4    4    0    0 0.17541845E+03 0.14354333E+03 0.42101327E+02 0.23054035E+03 0.10565837E+00 0.0000E+00 0.9000E+01
       13  1    4    4    0    0 -.24628774E+01 -.26893327E+01 0.17520214E+02 0.17896015E+02 0.10565837E+00 0.0000E+00 0.9000E+01
       23  1    3    3    0    0 -.45437823E+02 -.24957487E+02 0.28557117E+02 0.10871169E+03 0.91188000E+02 0.0000E+00 0.9000E+01
#aMCatNLO 1  0  0  2  1 0.17731172D+04 0.00000000D+00  -5  7  0 0.00000000D+00 0.00000000D+00 0.00000000D+00 0.00000000D+00 0.00000000D+00
  <mgrwgt>
 0.1531961218D-02    5    2    0
 0.533461899371215D+03 0.000000000000000D+00 0.000000000000000D+00 0.533461899371215D+03
 0.533461899371215D+03 0.000000000000000D+00 0.000000000000000D+00 -.533461899371215D+03
 0.494274814614163D+03 -.127517748747090D+03 -.115896513972907D+03 -.456231956586665D+03
 0.355736183013090D+03 0.175418685444166D+03 0.143543527547764D+03 0.274174711454043D+03
 0.409936622437662D+02 -.246311338804879D+01 -.268952677766735D+01 0.408311138998902D+02
 0.175919138871411D+03 -.454378233090275D+02 -.249574867971888D+02 0.141226131232731D+03
 0.000000000000000D+00 -.000000000000000D+00 -.000000000000000D+00 -.000000000000000D+00
 0.189662432959113D+04 0.000000000000000D+00 0.000000000000000D+00 0.189662432959113D+04
 0.194656085101352D+04 0.000000000000000D+00 0.000000000000000D+00 -.194656085101352D+04
 0.682369514685616D+03 0.465032388539255D+03 0.186435559957031D+03 -.456231956586665D+03
 0.105807129187682D+04 0.887402581071338D+03 0.506813324016748D+03 0.274174711454043D+03
 0.738320875408526D+02 0.553623586807912D+02 0.268142971124313D+02 0.408311138998902D+02
 0.255092010409058D+03 0.171616480458427D+03 0.857883787154909D+02 0.141226131232731D+03
 0.177382027609231D+04 -.157941380874981D+04 -.805851559801702D+03 -.499365214223932D+02
0.669568908133D-03 0.000000000000D+00 0.000000000000D+00 0.254324273853D-04 0.000000000000D+00  7 1 -2 -24 -13 13 23 21 0 0.35522513D-01 0.18961663D+00 0.69001419D+05 0.69001419D+05 0.69001419D+05 0.11351905D+01  1  2  2  2  7  2       -2 0.145421582589D-02 0.100000000000D+01
-.144986640817D-04 0.000000000000D+00 -.257132090877D-05 0.254324273853D-04 0.000000000000D+00  7 1 -2 -24 -13 13 23 21 2 0.35522513D-01 0.18961663D+00 0.69001419D+05 0.69001419D+05 0.69001419D+05 0.11351905D+01  1  2  3  2  7  2       -2 -.405787856218D-04 0.100000000000D+01
0.420187329894D-04 0.000000000000D+00 0.000000000000D+00 0.254324273853D-04 0.000000000000D+00  7 1 -2 -24 -13 13 23 21 2 0.35522513D-01 0.18961663D+00 0.69001419D+05 0.69001419D+05 0.69001419D+05 0.11351905D+01  1  2 15  2  7  2       -2 0.117601811344D-03 0.100000000000D+01
0.575081926106D-03 0.000000000000D+00 -.215989399790D-03 0.254324273853D-04 0.000000000000D+00  7 1 -2 -24 -13 13 23 21 2 0.35522513D-01 0.84892091D+00 0.69001419D+05 0.69001419D+05 0.69001419D+05 0.11351905D+01  1  2  5  2  7  2       -2 0.716578159631D-06 0.100000000000D+01
0.102488505247D-03 0.000000000000D+00 -.391281735065D-04 0.254324273853D-04 0.000000000000D+00  7 1 21 -24 -13 13 23 2 2 0.35522513D-01 0.84892091D+00 0.69001419D+05 0.69001419D+05 0.69001419D+05 0.11351905D+01  1  2  5  4  7  2       -2 0.578869927251D-08 0.100000000000D+01
  </mgrwgt>
  </event>
  <event>
  8     66 0.29493621E-05 0.51076085E+03 0.75467711E-02 0.88333091E-01
        1 -1    0    0  501    0 0.00000000E+00 0.00000000E+00 0.10761920E+04 0.10761921E+04 0.32000000E+00 0.0000E+00 0.9000E+01
       -2 -1    0    0    0  501 0.00000000E+00 0.00000000E+00 -.53858589E+03 0.53858599E+03 0.32000000E+00 0.0000E+00 0.9000E+01
       25  2    1    2    0    0 0.47079418E+03 0.12917476E+03 -.29646460E+03 0.64499742E+03 0.29966171E+03 0.0000E+00 0.0000E+00
       23  2    3    3    0    0 0.32865095E+03 0.81539340E+02 -.31030173E+03 0.46898450E+03 0.94864049E+02 0.0000E+00 0.0000E+00
      -24  1    1    2    0    0 -.47079418E+03 -.12917476E+03 0.83407071E+03 0.96978061E+03 0.80419002E+02 0.0000E+00 0.9000E+01
      -13  1    4    4    0    0 0.59477742E+02 0.54640713E+02 -.62444461E+02 0.10209080E+03 0.10565837E+00 0.0000E+00 0.9000E+01
       13  1    4    4    0    0 0.26917321E+03 0.26898627E+02 -.24785727E+03 0.36689371E+03 0.10565837E+00 0.0000E+00 0.9000E+01
       23  1    3    3    0    0 0.14214323E+03 0.47635422E+02 0.13837135E+02 0.17601292E+03 0.91188000E+02 0.0000E+00 0.9000E+01
#aMCatNLO 1  0  0  1  2 0.64724977D+03 0.00000000D+00  -5  7  0 0.00000000D+00 0.00000000D+00 0.00000000D+00 0.00000000D+00 0.00000000D+00
  <mgrwgt>
 0.1621405135D-02    3    2    0
 0.761329065711987D+03 0.000000000000000D+00 0.000000000000000D+00 0.761329065711987D+03
 0.761329065711987D+03 0.000000000000000D+00 0.000000000000000D+00 -.761329065711987D+03
 0.733965758031848D+03 -.470794178777767D+03 -.129174762203879D+03 0.542130279589172D+03
 0.130314116455861D+03 0.594774823900719D+02 0.546407469385966D+02 -.102267232338626D+03
 0.476602147725915D+03 0.269173468767513D+03 0.268985927649678D+02 -.392392299409512D+03
 0.181776109210351D+03 0.142143227620182D+03 0.476354225003148D+02 -.474707478410331D+02
 0.000000000000000D+00 0.000000000000000D+00 -.000000000000000D+00 -.000000000000000D+00
 0.925111780160119D+03 0.000000000000000D+00 0.000000000000000D+00 0.925111780160119D+03
 0.189755403945254D+04 0.000000000000000D+00 0.000000000000000D+00 -.189755403945254D+04
 0.940660050599441D+03 -.763073430147003D+03 0.467740846583351D+02 0.542130279589172D+03
 0.131917316475428D+03 0.137091641737875D+02 0.821927636324018D+02 -.102267232338626D+03
 0.425743138331161D+03 0.111683477077441D+03 0.121705809836978D+03 -.392392299409512D+03
 0.156194545905486D+03 0.831558350021479D+02 0.831451744308079D+02 -.474707478410331D+02
 0.116815076830114D+04 0.554524953893627D+03 -.333817832558523D+03 -.972442259292419D+03
0.831990932074D-03 0.000000000000D+00 0.000000000000D+00 0.323123821335D-05 0.000000000000D+00  7 1 -2 -24 -13 13 23 21 0 0.16556801D+00 0.82859379D-01 0.26087664D+06 0.26087664D+06 0.26087664D+06 0.10890704D+01  1  2  2  1  7  1        1 0.158675324144D-02 0.100000000000D+01
-.372674364946D-04 0.000000000000D+00 -.319506424741D-05 0.323123821335D-05 0.000000000000D+00  7 1 -2 -24 -13 13 23 21 2 0.16556801D+00 0.82859379D-01 0.26087664D+06 0.26087664D+06 0.26087664D+06 0.10890704D+01  1  2  3  1  7  1        1 -.843009104730D-04 0.100000000000D+01
0.525862179644D-04 0.000000000000D+00 0.000000000000D+00 0.323123821335D-05 0.000000000000D+00  7 1 -2 -24 -13 13 23 21 2 0.16556801D+00 0.82859379D-01 0.26087664D+06 0.26087664D+06 0.26087664D+06 0.10890704D+01  1  2 15  1  7  1        1 0.118952803565D-03 0.100000000000D+01
  </mgrwgt>
  </event>
  <event>
  8     66 0.29493621E-05 0.21619523E+03 0.75467711E-02 0.93522624E-01
        1 -1    0    0  501    0 0.00000000E+00 0.00000000E+00 0.71716989E+02 0.71717703E+02 0.32000000E+00 0.0000E+00 0.9000E+01
       -2 -1    0    0    0  501 0.00000000E+00 0.00000000E+00 -.82864319E+03 0.82864325E+03 0.32000000E+00 0.0000E+00 0.9000E+01
       25  2    1    2    0    0 -.10774264E+03 0.39587606E+01 -.35638070E+03 0.47783515E+03 0.29949135E+03 0.0000E+00 0.0000E+00
       23  2    3    3    0    0 -.16314974E+03 -.33293485E+02 -.29289412E+03 0.34820693E+03 0.87947739E+02 0.0000E+00 0.0000E+00
      -24  1    1    2    0    0 0.10774264E+03 -.39587606E+01 -.40054550E+03 0.42252581E+03 0.80419002E+02 0.0000E+00 0.9000E+01
      -11  1    4    4    0    0 0.79251201E+01 0.52494160E+01 -.35512488E+02 0.36762763E+02 0.51099893E-03 0.0000E+00 0.9000E+01
       11  1    4    4    0    0 -.17107486E+03 -.38542901E+02 -.25738163E+03 0.31144416E+03 0.51099893E-03 0.0000E+00 0.9000E+01
       23  1    3    3    0    0 0.55407104E+02 0.37252245E+02 -.63486588E+02 0.12962822E+03 0.91188000E+02 0.0000E+00 0.9000E+01
#aMCatNLO 1  0  0  1  2 0.47055488D+03 0.00000000D+00  -5  7  0 0.00000000D+00 0.00000000D+00 0.00000000D+00 0.00000000D+00 0.00000000D+00
  <mgrwgt>
 0.1785028827D-02    5    2    0
 0.243778882341783D+03 0.000000000000000D+00 0.000000000000000D+00 0.243778882341783D+03
 0.243778882341783D+03 0.000000000000000D+00 0.000000000000000D+00 -.243778882341783D+03
 0.158427092757147D+03 0.107742639876623D+03 -.395876060722962D+01 -.837124813392976D+02
 0.127562798193516D+02 0.792512010022870D+01 0.524941600320492D+01 -.850639629054771D+01
 0.175555128679614D+03 -.171074864384664D+03 -.385429006705505D+02 0.821211235826259D+01
 0.140819263427452D+03 0.554071044078128D+02 0.372522452745752D+02 0.840067652715828D+02
 0.000000000000000D+00 0.000000000000000D+00 -.000000000000000D+00 0.000000000000000D+00
 0.773428855079420D+03 0.000000000000000D+00 0.000000000000000D+00 0.773428855079420D+03
 0.466159153821230D+03 0.000000000000000D+00 0.000000000000000D+00 -.466159153821230D+03
 0.160303435171190D+03 0.375908295912886D+02 0.103966943650229D+03 -.837124813392976D+02
 0.178077004283190D+02 0.119806273978231D+01 0.155987198950573D+02 -.850639629054771D+01
 0.302775224640216D+03 -.276354206209599D+03 0.123425080825620D+03 0.821211235826259D+01
 0.196708261658902D+03 -.188818790160153D+02 0.151542821982094D+03 0.840067652715828D+02
 0.561993387002024D+03 0.256447192894544D+03 -.394533566353000D+03 0.307269701258190D+03
0.507684256110D-04 0.000000000000D+00 0.000000000000D+00 0.165548578803D-06 0.000000000000D+00  7 1 -2 -24 -11 11 23 21 0 0.11033443D-01 0.12748363D+00 0.46740379D+05 0.46740379D+05 0.46740379D+05 0.11498796D+01  1  2  2  1  7  1        1 0.151956829118D-02 0.100000000000D+01
-.277102083739D-05 0.000000000000D+00 -.194964121980D-06 0.165548578803D-06 0.000000000000D+00  7 1 -2 -24 -11 11 23 21 2 0.11033443D-01 0.12748363D+00 0.46740379D+05 0.46740379D+05 0.46740379D+05 0.11498796D+01  1  2  3  1  7  1        1 -.109665758169D-03 0.100000000000D+01
0.328240240595D-05 0.000000000000D+00 0.000000000000D+00 0.165548578803D-06 0.000000000000D+00  7 1 -2 -24 -11 11 23 21 2 0.11033443D-01 0.12748363D+00 0.46740379D+05 0.46740379D+05 0.46740379D+05 0.11498796D+01  1  2 15  1  7  1        1 0.129904165139D-03 0.100000000000D+01
0.385758318101D-04 0.000000000000D+00 -.257111684584D-04 0.165548578803D-06 0.000000000000D+00  7 1 -2 -24 -11 11 23 21 2 0.65916958D-01 0.12748363D+00 0.46740379D+05 0.46740379D+05 0.46740379D+05 0.11498796D+01  1  2  5  1  7  1        1 0.149910459335D-03 0.100000000000D+01
0.682898313819D-05 0.000000000000D+00 -.563239815995D-05 0.165548578803D-06 0.000000000000D+00  7 21 -2 -24 -11 11 23 -1 2 0.65916958D-01 0.12748363D+00 0.46740379D+05 0.46740379D+05 0.46740379D+05 0.11498796D+01  1  2  5  3  7  1        1 0.953116698175D-04 0.100000000000D+01
  </mgrwgt>
  </event>
  <event>
  8     66 0.29493621E-05 0.13624787E+03 0.75467711E-02 0.10891554E+00
        1 -1    0    0  502    0 0.00000000E+00 0.00000000E+00 0.13387664E+04 0.13387665E+04 0.32000000E+00 0.0000E+00 0.9000E+01
       -2 -1    0    0    0  501 0.00000000E+00 0.00000000E+00 -.28192239E+03 0.28192257E+03 0.32000000E+00 0.0000E+00 0.9000E+01
       23  2    1    2    0    0 -.36577429E+01 -.42096528E+02 0.22664079E+03 0.24752197E+03 0.90086521E+02 0.0000E+00 0.0000E+00
      -24  1    1    2    0    0 -.41789812E+02 0.17952756E+02 -.41932082E+02 0.10146036E+03 0.80419002E+02 0.0000E+00 0.9000E+01
      -11  1    3    3    0    0 -.21725335E+02 0.20284612E+02 0.39510695E+02 0.49442398E+02 0.51099893E-03 0.0000E+00 0.9000E+01
       11  1    3    3    0    0 0.18067592E+02 -.62381140E+02 0.18713010E+03 0.19807958E+03 0.51099893E-03 0.0000E+00 0.9000E+01
       23  1    1    2    0    0 0.95638811E+01 -.17724441E+02 -.18811702E+03 0.21002116E+03 0.91188000E+02 0.0000E+00 0.9000E+01
       21  1    1    2  502  501 0.35883674E+02 0.41868213E+02 0.10602524E+04 0.10616856E+04 0.75000000E+00 0.0000E+00 0.9000E+01
#aMCatNLO 2  0  0  1  2 0.55141502D+02 0.00000000D+00  -5  7  0 0.00000000D+00 0.00000000D+00 0.00000000D+00 0.00000000D+00 0.00000000D+00
  <mgrwgt>
 0.6161462232D-03    2    2    0
 0.278133378371360D+03 0.000000000000000D+00 0.000000000000000D+00 0.278133378371360D+03
 0.278133378371360D+03 0.000000000000000D+00 0.000000000000000D+00 -.278133378371360D+03
 0.100358682881911D+03 -.353050382930120D+02 0.255201742147491D+02 -.413149398474588D+02
 0.500528808652234D+02 -.185161821309987D+02 0.240288187152831D+02 0.398127837929978D+02
 0.196671111820471D+03 0.308058355493859D+02 -.475189177913566D+02 0.188341389961799D+03
 0.209184081175114D+03 0.230153848746249D+02 -.203007513867558D+01 -.186839233907338D+03
 0.000000000000000D+00 0.000000000000000D+00 0.000000000000000D+00 0.000000000000000D+00
 0.134695356352913D+04 0.000000000000000D+00 0.000000000000000D+00 0.134695356352913D+04
 0.280208661376758D+03 0.000000000000000D+00 0.000000000000000D+00 -.280208661376758D+03
 0.101207202043488D+03 -.417904546567848D+02 0.179531455762201D+02 -.413149398474588D+02
 0.496840766533851D+02 -.217252355707884D+02 0.202845719438497D+02 0.398127837929978D+02
 0.199224381893139D+03 0.180678312277496D+02 -.623813164552187D+02 0.188341389961799D+03
 0.208877443080055D+03 0.956418477957026D+01 -.177246135665289D+02 -.186839233907338D+03
 0.106816912123582D+04 0.358836742202534D+02 0.418682125016778D+02 0.106674490215237D+04
-.340102866006D-03 0.000000000000D+00 0.000000000000D+00 0.242043495094D-10 0.000000000000D+00  7 1 -2 -24 -11 11 23 21 2 0.20522278D+00 0.43051444D-01 0.28154420D+05 0.28154420D+05 0.28154420D+05 0.11699030D+01  1  2 13  1  7  1        1 -.249027613875D-02 0.100000000000D+01
0.433347949457D-03 0.000000000000D+00 0.000000000000D+00 0.242043495094D-10 0.147224139689D-12  7 1 -2 -24 -11 11 23 21 2 0.20596399D+00 0.43372671D-01 0.28154420D+05 0.28154420D+05 0.28154420D+05 0.11699030D+01  1  2  1  1  7  1        1 0.310642236197D-02 0.100000000000D+01
  </mgrwgt>
  </event>
  <event>
  8     66 0.29493621E-05 0.23218784E+03 0.75467711E-02 0.99976590E-01
        1 -1    0    0  501    0 0.00000000E+00 0.00000000E+00 0.50845823E+03 0.50845833E+03 0.32000000E+00 0.0000E+00 0.9000E+01
       -2 -1    0    0    0  501 0.00000000E+00 0.00000000E+00 -.14689089E+03 0.14689124E+03 0.32000000E+00 0.0000E+00 0.9000E+01
       25  2    1    2    0    0 0.88064423E+02 0.11053458E+03 0.36402044E+03 0.49272586E+03 0.30049070E+03 0.0000E+00 0.0000E+00
       23  2    3    3    0    0 -.44326658E+02 0.97831955E+02 0.27329845E+03 0.30770023E+03 0.91931739E+02 0.0000E+00 0.0000E+00
      -24  1    1    2    0    0 -.88064423E+02 -.11053458E+03 -.24530999E+01 0.16262370E+03 0.80419002E+02 0.0000E+00 0.9000E+01
      -11  1    4    4    0    0 0.58915985E+00 -.17103053E+02 0.23346937E+02 0.28947210E+02 0.51099893E-03 0.0000E+00 0.9000E+01
       11  1    4    4    0    0 -.44915818E+02 0.11493501E+03 0.24995151E+03 0.27875301E+03 0.51099893E-03 0.0000E+00 0.9000E+01
       23  1    3    3    0    0 0.13239108E+03 0.12702621E+02 0.90721994E+02 0.18502564E+03 0.91188000E+02 0.0000E+00 0.9000E+01
#aMCatNLO 1  0  0  1  1 0.15394438D+03 0.00000000D+00  -5  7  0 0.00000000D+00 0.00000000D+00 0.00000000D+00 0.00000000D+00 0.00000000D+00
  <mgrwgt>
 0.1185580362D-02    7    2    0
 0.273291105043485D+03 0.000000000000000D+00 0.000000000000000D+00 0.273291105043485D+03
 0.273291105043485D+03 0.000000000000000D+00 0.000000000000000D+00 -.273291105043485D+03
 0.196607814461933D+03 -.880644230038885D+02 -.110534575900665D+03 -.110517788996069D+03
 0.192634369952028D+02 0.589159855568235D+00 -.171030531472474D+02 0.884412056539052D+01
 0.168879198385825D+03 -.449158181182242D+02 0.114935008043156D+03 0.115293958455459D+03
 0.161831760244009D+03 0.132391081266544D+03 0.127026210047569D+02 -.136202900247808D+02
 0.000000000000000D+00 -.000000000000000D+00 -.000000000000000D+00 0.000000000000000D+00
 0.371348274008196D+03 0.000000000000000D+00 0.000000000000000D+00 0.371348274008196D+03
 0.351693424264703D+03 0.000000000000000D+00 0.000000000000000D+00 -.351693424264703D+03
 0.166195944511529D+03 -.696766082238798D+02 -.639129454769914D+02 -.110517788996069D+03
 0.155926670601040D+02 0.235575562385676D+01 -.126239143261017D+02 0.884412056539052D+01
 0.200921971783686D+03 -.261733567894131D+02 0.162455831792796D+03 0.115293958455459D+03
 0.185137093111983D+03 0.149976342863596D+03 0.572894072482592D+02 -.136202900247808D+02
 0.155194021805597D+03 -.564821334741598D+02 -.143208379237962D+03 0.196548497434936D+02
0.148717687101D-04 0.000000000000D+00 0.000000000000D+00 0.147408972666D-05 0.000000000000D+00  7 1 -2 -24 -11 11 23 21 0 0.78224377D-01 0.22598633D-01 0.53911193D+05 0.53911193D+05 0.53911193D+05 0.11444294D+01  1  2  2  1  7  1        1 0.114884640945D-02 0.100000000000D+01
-.799522476575D-06 0.000000000000D+00 -.571115076732D-07 0.147408972666D-05 0.000000000000D+00  7 1 -2 -24 -11 11 23 21 2 0.78224377D-01 0.22598633D-01 0.53911193D+05 0.53911193D+05 0.53911193D+05 0.11444294D+01  1  2  3  1  7  1        1 -.808924581015D-04 0.100000000000D+01
0.964774155267D-06 0.000000000000D+00 0.000000000000D+00 0.147408972666D-05 0.000000000000D+00  7 1 -2 -24 -11 11 23 21 2 0.78224377D-01 0.22598633D-01 0.53911193D+05 0.53911193D+05 0.53911193D+05 0.11444294D+01  1  2 15  1  7  1        1 0.976119561599D-04 0.100000000000D+01
-.555629700430D-05 0.000000000000D+00 0.000000000000D+00 0.147408972666D-05 0.000000000000D+00  7 1 -2 -24 -11 11 23 21 2 0.78224377D-01 0.22598633D-01 0.53911193D+05 0.53911193D+05 0.53911193D+05 0.11444294D+01  1  2  4  1  7  1        1 -.562163711201D-03 0.100000000000D+01
-.711348870361D-05 0.000000000000D+00 -.541533704727D-05 0.147408972666D-05 0.000000000000D+00  7 1 -2 -24 -11 11 23 21 2 0.12985316D+00 0.22598633D-01 0.53911193D+05 0.53911193D+05 0.53911193D+05 0.11444294D+01  1  2  5  1  7  1        1 -.342475959495D-03 0.100000000000D+01
0.926993854742D-05 0.000000000000D+00 0.478721748054D-05 0.147408972666D-05 0.000000000000D+00  7 1 -2 -24 -11 11 23 21 2 0.78224377D-01 0.22598633D-01 0.53911193D+05 0.53911193D+05 0.53911193D+05 0.11444294D+01  1  2  6  1  7  1        1 0.937894977966D-03 0.100000000000D+01
-.157433472377D-06 0.000000000000D+00 -.308638705546D-06 0.147408972666D-05 0.000000000000D+00  7 21 -2 -24 -11 11 23 -1 2 0.12985316D+00 0.22598633D-01 0.53911193D+05 0.53911193D+05 0.53911193D+05 0.11444294D+01  1  2  5  3  7  1        1 -.132408530630D-04 0.100000000000D+01
  </mgrwgt>
  </event>
  <event>
  8     66 0.29493621E-05 0.30027809E+03 0.75467711E-02 0.99002629E-01
        1 -1    0    0  501    0 0.00000000E+00 0.00000000E+00 0.89594953E+02 0.89595524E+02 0.32000000E+00 0.0000E+00 0.9000E+01
       -2 -1    0    0    0  501 0.00000000E+00 0.00000000E+00 -.10894316E+04 0.10894317E+04 0.32000000E+00 0.0000E+00 0.9000E+01
       25  2    1    2    0    0 0.11624111E+03 0.19317563E+03 -.71063813E+03 0.80361831E+03 0.29994503E+03 0.0000E+00 0.0000E+00
       23  2    3    3    0    0 -.36628092E+02 0.14791648E+03 -.24091099E+03 0.29926107E+03 0.91094366E+02 0.0000E+00 0.0000E+00
      -24  1    1    2    0    0 -.11624111E+03 -.19317563E+03 -.28919856E+03 0.37540890E+03 0.80419002E+02 0.0000E+00 0.9000E+01
      -11  1    4    4    0    0 0.27799104E+02 0.19824772E+02 -.45070862E+02 0.56543739E+02 0.51099893E-03 0.0000E+00 0.9000E+01
       11  1    4    4    0    0 -.64427196E+02 0.12809171E+03 -.19584013E+03 0.24271734E+03 0.51099893E-03 0.0000E+00 0.9000E+01
       23  1    3    3    0    0 0.15286920E+03 0.45259149E+02 -.46972714E+03 0.50435724E+03 0.91188000E+02 0.0000E+00 0.9000E+01
#aMCatNLO 1  0  0  1  1 0.84138915D+02 0.00000000D+00  -5  7  0 0.00000000D+00 0.00000000D+00 0.00000000D+00 0.00000000D+00 0.00000000D+00
  <mgrwgt>
 0.6111062838D-03    4    2    0
 0.312422696029186D+03 0.000000000000000D+00 0.000000000000000D+00 0.312422696029186D+03
 0.312422696029186D+03 0.000000000000000D+00 0.000000000000000D+00 -.312422696029186D+03
 0.245606325475093D+03 -.116241110174300D+03 -.193175632201304D+03 0.550130038089170D+02
 0.345735209072135D+02 0.277991044378108D+02 0.198247718999821D+02 0.543291445643102D+01
 0.144615295165471D+03 -.644271961043511D+02 0.128091711531986D+03 0.188476373780434D+02
 0.200050250510595D+03 0.152869201840840D+03 0.452591487693355D+02 -.792935556433914D+02
 0.000000000000000D+00 -.000000000000000D+00 0.000000000000000D+00 -.000000000000000D+00
 0.347772287832811D+03 0.000000000000000D+00 0.000000000000000D+00 0.347772287832811D+03
 0.369648999563058D+03 0.000000000000000D+00 0.000000000000000D+00 -.369648999563058D+03
 0.239336606790225D+03 -.848166109348726D+02 -.201480786470896D+03 0.550130038089170D+02
 0.378224990540776D+02 0.324903959751137D+02 0.185849144357762D+02 0.543291445643102D+01
 0.133125791848203D+03 -.464294607072225D+02 0.123335105298181D+03 0.188476373780434D+02
 0.220199932464214D+03 0.180101584615388D+03 0.380619254071425D+02 -.792935556433914D+02
 0.869364572391500D+02 -.813459089484066D+02 0.214988413297967D+02 -.218767117302470D+02
0.111821258405D-03 0.000000000000D+00 0.000000000000D+00 0.460031113366D-05 0.000000000000D+00  7 1 -2 -24 -11 11 23 21 0 0.13783886D-01 0.16760492D+00 0.90166933D+05 0.90166933D+05 0.90166933D+05 0.11254297D+01  1  2  2  1  7  1        1 0.118385795159D-02 0.100000000000D+01
-.620041868540D-05 0.000000000000D+00 -.429423075489D-06 0.460031113366D-05 0.000000000000D+00  7 1 -2 -24 -11 11 23 21 2 0.13783886D-01 0.16760492D+00 0.90166933D+05 0.90166933D+05 0.90166933D+05 0.11254297D+01  1  2  3  1  7  1        1 -.831443961090D-04 0.100000000000D+01
0.718934924533D-05 0.000000000000D+00 0.000000000000D+00 0.460031113366D-05 0.000000000000D+00  7 1 -2 -24 -11 11 23 21 2 0.13783886D-01 0.16760492D+00 0.90166933D+05 0.90166933D+05 0.90166933D+05 0.11254297D+01  1  2 15  1  7  1        1 0.964054415918D-04 0.100000000000D+01
-.437013719184D-04 0.000000000000D+00 0.000000000000D+00 0.460031113366D-05 0.000000000000D+00  7 1 -2 -24 -11 11 23 21 2 0.13783886D-01 0.16760492D+00 0.90166933D+05 0.90166933D+05 0.90166933D+05 0.11254297D+01  1  2  4  1  7  1        1 -.586012713278D-03 0.100000000000D+01
  </mgrwgt>
  </event>
  <event>
  8     66 0.29493621E-05 0.19594070E+03 0.75467711E-02 0.93404660E-01
        3 -1    0    0  501    0 0.00000000E+00 0.00000000E+00 0.22736624E+03 0.22736679E+03 0.50000000E+00 0.0000E+00 0.9000E+01
       -4 -1    0    0    0  501 0.00000000E+00 0.00000000E+00 -.35971575E+03 0.35971909E+03 0.15500000E+01 0.0000E+00 0.9000E+01
       25  2    1    2    0    0 0.61613524E+02 0.34986404E+02 -.27170265E+03 0.41128262E+03 0.30051753E+03 0.0000E+00 0.0000E+00
       23  2    3    3    0    0 0.13295668E+03 0.85588410E+02 -.18087451E+03 0.25566960E+03 0.87455697E+02 0.0000E+00 0.0000E+00
      -24  1    1    2    0    0 -.61613524E+02 -.34986404E+02 0.13935314E+03 0.17580326E+03 0.80419002E+02 0.0000E+00 0.9000E+01
      -13  1    4    4    0    0 0.11627760E+03 0.71404591E+02 -.18830655E+03 0.23254777E+03 0.10565837E+00 0.0000E+00 0.9000E+01
       13  1    4    4    0    0 0.16679086E+02 0.14183819E+02 0.74320418E+01 0.23121830E+02 0.10565837E+00 0.0000E+00 0.9000E+01
       23  1    3    3    0    0 -.71343160E+02 -.50602005E+02 -.90828139E+02 0.15561302E+03 0.91188000E+02 0.0000E+00 0.9000E+01
#aMCatNLO 1  0  0  1  2 0.50396392D+03 0.00000000D+00  -5  7  0 0.00000000D+00 0.00000000D+00 0.00000000D+00 0.00000000D+00 0.00000000D+00
  <mgrwgt>
 0.2577470306D-03    3    2    0
 0.285986641288441D+03 0.000000000000000D+00 0.000000000000000D+00 0.285986641288441D+03
 0.285986641288441D+03 0.000000000000000D+00 0.000000000000000D+00 -.285986641288441D+03
 0.212693385095843D+03 -.616135247663205D+02 -.349864045455592D+02 0.183714411987744D+03
 0.195119903497959D+03 0.116277743545930D+03 0.714046745196052D+02 -.139472705407435D+03
 0.254522115731605D+02 0.166789401636321D+02 0.141837348263585D+02 0.129788171787128D+02
 0.138707782409920D+03 -.713431589432416D+02 -.506020048004045D+02 -.572205237590223D+02
 0.000000000000000D+00 0.000000000000000D+00 0.000000000000000D+00 -.000000000000000D+00
 0.544724923731407D+03 0.000000000000000D+00 0.000000000000000D+00 0.544724923731407D+03
 0.769355326423367D+03 0.000000000000000D+00 0.000000000000000D+00 -.769355326423367D+03
 0.338079120136968D+03 -.269629605038197D+03 -.371371301147373D+02 0.183714411987744D+03
 0.156957108724392D+03 -.166949073044778D+02 0.700298400365615D+02 -.139472705407435D+03
 0.190982955348974D+02 -.146921284962406D+00 0.140097684176383D+02 0.129788171787128D+02
 0.248186316275034D+03 -.217465547268973D+03 -.521127974102391D+02 -.572205237590223D+02
 0.551759409483483D+03 0.503936980896610D+03 0.521031907077652D+01 -.224630402691960D+03
0.326400359050D-04 0.000000000000D+00 0.000000000000D+00 0.239000742660D-06 0.000000000000D+00  7 3 -4 -24 -13 13 23 21 0 0.34979720D-01 0.55341184D-01 0.38392757D+05 0.38392757D+05 0.38392757D+05 0.11575250D+01  1  2  2  1  7  1        3 0.251988162191D-03 0.100000000000D+01
-.149808982919D-05 0.000000000000D+00 -.125346332194D-06 0.239000742660D-06 0.000000000000D+00  7 3 -4 -24 -13 13 23 21 2 0.34979720D-01 0.55341184D-01 0.38392757D+05 0.38392757D+05 0.38392757D+05 0.11575250D+01  1  2  3  1  7  1        3 -.154963036964D-04 0.100000000000D+01
0.205482273790D-05 0.000000000000D+00 0.000000000000D+00 0.239000742660D-06 0.000000000000D+00  7 3 -4 -24 -13 13 23 21 2 0.34979720D-01 0.55341184D-01 0.38392757D+05 0.38392757D+05 0.38392757D+05 0.11575250D+01  1  2 15  1  7  1        3 0.212551721321D-04 0.100000000000D+01
  </mgrwgt>
  </event>
  <event>
  8     66 0.29493621E-05 0.25253897E+03 0.75467711E-02 0.93258324E-01
        1 -1    0    0  501    0 0.00000000E+00 0.00000000E+00 0.81016909E+03 0.81016915E+03 0.32000000E+00 0.0000E+00 0.9000E+01
       -2 -1    0    0    0  501 0.00000000E+00 0.00000000E+00 -.30703169E+03 0.30703186E+03 0.32000000E+00 0.0000E+00 0.9000E+01
       25  2    1    2    0    0 0.66902359E+02 -.43642231E+03 0.17659190E+03 0.56218792E+03 0.29988364E+03 0.0000E+00 0.0000E+00
       23  2    3    3    0    0 0.14116380E+03 -.18197447E+03 0.99330014E+02 0.27142493E+03 0.10374543E+03 0.0000E+00 0.0000E+00
      -24  1    1    2    0    0 -.66902359E+02 0.43642231E+03 0.32654550E+03 0.55501309E+03 0.80419002E+02 0.0000E+00 0.9000E+01
      -11  1    4    4    0    0 0.58901537E+02 -.15323508E+03 0.51672363E+02 0.17210582E+03 0.51099893E-03 0.0000E+00 0.9000E+01
       11  1    4    4    0    0 0.82262266E+02 -.28739385E+02 0.47657652E+02 0.99319104E+02 0.51099893E-03 0.0000E+00 0.9000E+01
       23  1    3    3    0    0 -.74261444E+02 -.25444784E+03 0.77261888E+02 0.29076299E+03 0.91188000E+02 0.0000E+00 0.9000E+01
#aMCatNLO 1  0  0  1  2 0.14010137D+03 0.00000000D+00  -5  7  0 0.00000000D+00 0.00000000D+00 0.00000000D+00 0.00000000D+00 0.00000000D+00
  <mgrwgt>
 0.9560324401D-03    9    2    0
 0.498746143306473D+03 0.000000000000000D+00 0.000000000000000D+00 0.498746143306473D+03
 0.498746143306473D+03 0.000000000000000D+00 0.000000000000000D+00 -.498746143306473D+03
 0.456909738203568D+03 -.669023594240087D+02 0.436422309047475D+03 0.857842373635946D+02
 0.166696527577573D+03 0.589015373928443D+02 -.153235080111217D+03 -.289370251147025D+02
 0.871997288357811D+02 0.822622661739666D+02 -.287393850609530D+02 0.328024683149057D+01
 0.286686291996024D+03 -.742614441428022D+02 -.254447843875306D+03 -.601274590803827D+02
 0.000000000000000D+00 -.000000000000000D+00 0.000000000000000D+00 0.000000000000000D+00
 0.767151043410903D+03 0.000000000000000D+00 0.000000000000000D+00 0.767151043410903D+03
 0.522263646789930D+03 0.000000000000000D+00 0.000000000000000D+00 -.522263646789930D+03
 0.399519362923969D+03 -.617980325500083D+02 0.376789826282104D+03 0.857842373635946D+02
 0.190482282293580D+03 0.610303270330475D+02 -.178105158902042D+03 -.289370251147025D+02
 0.930628554619960D+02 0.833366331614925D+02 -.412909266155617D+02 0.328024683149057D+01
 0.324218605320141D+03 -.706204442273113D+02 -.296984669997311D+03 -.601274590803827D+02
 0.282131584201147D+03 -.119484834172204D+02 0.139590929232810D+03 0.244887396620974D+03
0.798218192183D-04 0.000000000000D+00 0.000000000000D+00 0.100519404789D-06 0.000000000000D+00  7 1 -2 -24 -11 11 23 21 0 0.12464142D+00 0.47235663D-01 0.24029521D+06 0.24029521D+06 0.24029521D+06 0.10917550D+01  1  2  2  1  7  1        1 0.807464935117D-03 0.100000000000D+01
-.443293451867D-05 0.000000000000D+00 -.306536803366D-06 0.100519404789D-06 0.000000000000D+00  7 1 -2 -24 -11 11 23 21 2 0.12464142D+00 0.47235663D-01 0.24029521D+06 0.24029521D+06 0.24029521D+06 0.10917550D+01  1  2  3  1  7  1        1 -.534495155538D-04 0.100000000000D+01
0.516503564612D-05 0.000000000000D+00 0.000000000000D+00 0.100519404789D-06 0.000000000000D+00  7 1 -2 -24 -11 11 23 21 2 0.12464142D+00 0.47235663D-01 0.24029521D+06 0.24029521D+06 0.24029521D+06 0.10917550D+01  1  2 15  1  7  1        1 0.622767270620D-04 0.100000000000D+01
0.150660884114D-03 0.000000000000D+00 0.000000000000D+00 0.100519404789D-06 0.000000000000D+00  7 1 -2 -24 -11 11 23 21 2 0.19336898D+00 0.47235663D-01 0.31932288D+06 0.31932288D+06 0.31932288D+06 0.10825519D+01  1  2 12  1  7  1        1 0.807270578651D-03 0.100000000000D+01
-.152115158611D-03 0.000000000000D+00 0.000000000000D+00 0.100519404789D-06 0.000000000000D+00  7 1 -2 -24 -11 11 23 21 2 0.12464142D+00 0.47235663D-01 0.24029521D+06 0.24029521D+06 0.24029521D+06 0.10917550D+01  1  2  4  1  7  1        1 -.183410819671D-02 0.100000000000D+01
-.179533111933D-03 0.000000000000D+00 -.295415964564D-04 0.100519404789D-06 0.000000000000D+00  7 1 -2 -24 -11 11 23 21 2 0.19541535D+00 0.47235663D-01 0.24029521D+06 0.24029521D+06 0.24029521D+06 0.10917550D+01  1  2  5  1  7  1        1 -.968986218013D-03 0.100000000000D+01
0.177337357130D-03 0.000000000000D+00 0.267872201967D-04 0.100519404789D-06 0.000000000000D+00  7 1 -2 -24 -11 11 23 21 2 0.12464142D+00 0.47235663D-01 0.24029521D+06 0.24029521D+06 0.24029521D+06 0.10917550D+01  1  2  6  1  7  1        1 0.213822148472D-02 0.100000000000D+01
0.768626644717D-05 0.000000000000D+00 0.000000000000D+00 0.100519404789D-06 0.000000000000D+00  7 21 -2 -24 -11 11 23 -1 2 0.19336898D+00 0.47235663D-01 0.31932288D+06 0.31932288D+06 0.31932288D+06 0.10825519D+01  1  2 12  3  7  1        1 0.405489093092D-04 0.100000000000D+01
-.814997874975D-05 0.000000000000D+00 -.153432256902D-05 0.100519404789D-06 0.000000000000D+00  7 21 -2 -24 -11 11 23 -1 2 0.19541535D+00 0.47235663D-01 0.24029521D+06 0.24029521D+06 0.24029521D+06 0.10917550D+01  1  2  5  3  7  1        1 -.432062645273D-04 0.100000000000D+01
  </mgrwgt>
  </event>
  <event>
  8     66 0.29493621E-05 0.17955356E+03 0.75467711E-02 0.10260179E+00
        1 -1    0    0  501    0 0.00000000E+00 0.00000000E+00 0.28410656E+04 0.28410656E+04 0.32000000E+00 0.0000E+00 0.9000E+01
       -2 -1    0    0    0  501 0.00000000E+00 0.00000000E+00 -.98085522E+02 0.98086044E+02 0.32000000E+00 0.0000E+00 0.9000E+01
       25  2    1    2    0    0 -.10794908E+03 0.16398646E+03 0.25031039E+03 0.43746944E+03 0.30029927E+03 0.0000E+00 0.0000E+00
       23  2    3    3    0    0 -.10018167E+03 0.90853984E+02 0.16054912E+01 0.16255478E+03 0.90170197E+02 0.0000E+00 0.0000E+00
      -24  1    1    2    0    0 0.10794908E+03 -.16398646E+03 0.24926697E+04 0.25016822E+04 0.80419002E+02 0.0000E+00 0.9000E+01
      -13  1    4    4    0    0 -.39530542E+02 -.65760680E+01 -.21513543E+02 0.45483537E+02 0.10565837E+00 0.0000E+00 0.9000E+01
       13  1    4    4    0    0 -.60651131E+02 0.97430052E+02 0.23119035E+02 0.11707124E+03 0.10565837E+00 0.0000E+00 0.9000E+01
       23  1    3    3    0    0 -.77674116E+01 0.73132480E+02 0.24870490E+03 0.27491466E+03 0.91188000E+02 0.0000E+00 0.9000E+01
#aMCatNLO 1  0  0  1  2 0.34438589D+02 0.00000000D+00  -5  7  0 0.00000000D+00 0.00000000D+00 0.00000000D+00 0.00000000D+00 0.00000000D+00
  <mgrwgt>
 0.1983934598D-02    9    2    0
 0.527890327421213D+03 0.000000000000000D+00 0.000000000000000D+00 0.527890327421213D+03
 0.527890327421213D+03 0.000000000000000D+00 0.000000000000000D+00 -.527890327421213D+03
 0.488245521572517D+03 0.107949084186466D+03 -.163986463872094D+03 0.439740728465397D+03
 0.182513395844727D+03 -.395305126121357D+02 -.657621072104190D+01 -.178059629585002D+03
 0.265846133057985D+03 -.606511599818563D+02 0.974301944570179D+02 -.239797749077857D+03
 0.119175604367198D+03 -.776741159247366D+01 0.731324801361182D+02 -.218833498025380D+02
 0.000000000000000D+00 0.000000000000000D+00 0.000000000000000D+00 0.000000000000000D+00
 0.547130758726037D+03 0.000000000000000D+00 0.000000000000000D+00 0.547130758726037D+03
 0.543809768319030D+03 0.000000000000000D+00 0.000000000000000D+00 -.543809768319030D+03
 0.487087551405381D+03 0.930596790673705D+02 -.169573154244176D+03 0.439740728465397D+03
 0.183893088577736D+03 -.451240628935513D+02 -.867498050082751D+01 -.178059629585002D+03
 0.266723362497026D+03 -.687813497530078D+02 0.943796459257375D+02 -.239797749077857D+03
 0.118638180514208D+03 -.113978696217430D+02 0.717702870359818D+02 -.218833498025380D+02
 0.345983440507148D+02 0.322436032009317D+02 0.120982017832845D+02 0.332099040700683D+01
0.196339413125D-03 0.000000000000D+00 0.000000000000D+00 0.847568467536D-05 0.000000000000D+00  7 1 -2 -24 -13 13 23 21 0 0.43708706D+00 0.15090122D-01 0.58599989D+05 0.58599989D+05 0.58599989D+05 0.11412815D+01  1  2  2  1  7  1        1 0.607619162960D-03 0.100000000000D+01
-.284637661114D-05 0.000000000000D+00 -.753995043754D-06 0.847568467536D-05 0.000000000000D+00  7 1 -2 -24 -13 13 23 21 2 0.43708706D+00 0.15090122D-01 0.58599989D+05 0.58599989D+05 0.58599989D+05 0.11412815D+01  1  2  3  1  7  1        1 -.114736569480D-04 0.100000000000D+01
0.118615547281D-04 0.000000000000D+00 0.000000000000D+00 0.847568467536D-05 0.000000000000D+00  7 1 -2 -24 -13 13 23 21 2 0.43708706D+00 0.15090122D-01 0.58599989D+05 0.58599989D+05 0.58599989D+05 0.11412815D+01  1  2 15  1  7  1        1 0.478135638436D-04 0.100000000000D+01
0.353601715215D-03 0.000000000000D+00 0.000000000000D+00 0.847568467536D-05 0.000000000000D+00  7 1 -2 -24 -13 13 23 21 2 0.45939079D+00 0.15090122D-01 0.68449252D+05 0.68449252D+05 0.68449252D+05 0.11354876D+01  1  2 12  1  7  1        1 0.109979274251D-02 0.100000000000D+01
-.290714956633D-03 0.000000000000D+00 0.000000000000D+00 0.847568467536D-05 0.000000000000D+00  7 1 -2 -24 -13 13 23 21 2 0.43708706D+00 0.15090122D-01 0.58599989D+05 0.58599989D+05 0.58599989D+05 0.11412815D+01  1  2  4  1  7  1        1 -.117186308691D-02 0.100000000000D+01
-.168244229617D-02 0.000000000000D+00 -.337658933234D-03 0.847568467536D-05 0.000000000000D+00  7 1 -2 -24 -13 13 23 21 2 0.45792074D+00 0.15090122D-01 0.58599989D+05 0.58599989D+05 0.58599989D+05 0.11412815D+01  1  2  5  1  7  1        1 -.541960331600D-02 0.100000000000D+01
0.169669097914D-02 0.000000000000D+00 0.337293210803D-03 0.847568467536D-05 0.000000000000D+00  7 1 -2 -24 -13 13 23 21 2 0.43708706D+00 0.15090122D-01 0.58599989D+05 0.58599989D+05 0.58599989D+05 0.11412815D+01  1  2  6  1  7  1        1 0.683930937500D-02 0.100000000000D+01
0.408794247616D-05 0.000000000000D+00 0.000000000000D+00 0.847568467536D-05 0.000000000000D+00  7 21 -2 -24 -13 13 23 -1 2 0.45939079D+00 0.15090122D-01 0.68449252D+05 0.68449252D+05 0.68449252D+05 0.11354876D+01  1  2 12  3  7  1        1 0.309625932862D-05 0.100000000000D+01
-.134566111253D-04 0.000000000000D+00 -.275263028156D-05 0.847568467536D-05 0.000000000000D+00  7 21 -2 -24 -13 13 23 -1 2 0.45792074D+00 0.15090122D-01 0.58599989D+05 0.58599989D+05 0.58599989D+05 0.11412815D+01  1  2  5  3  7  1        1 -.107564461551D-04 0.100000000000D+01
  </mgrwgt>
  </event>
  <event>
  8     66 0.29493621E-05 0.30885769E+03 0.75467711E-02 0.99601908E-01
        1 -1    0    0  501    0 0.00000000E+00 0.00000000E+00 0.17667190E+04 0.17667190E+04 0.32000000E+00 0.0000E+00 0.9000E+01
       -2 -1    0    0    0  501 0.00000000E+00 0.00000000E+00 -.11271834E+03 0.11271880E+03 0.32000000E+00 0.0000E+00 0.9000E+01
       25  2    1    2    0    0 0.24601931E+03 0.60002525E+02 0.15411023E+04 0.15907527E+04 0.30227834E+03 0.0000E+00 0.0000E+00
       23  2    3    3    0    0 0.26381113E+03 -.77923783E+01 0.11167394E+04 0.11510803E+04 0.90675452E+02 0.0000E+00 0.0000E+00
      -24  1    1    2    0    0 -.24601931E+03 -.60002525E+02 0.11289831E+03 0.28868503E+03 0.80419002E+02 0.0000E+00 0.9000E+01
      -13  1    4    4    0    0 0.12558232E+03 0.40190107E+02 0.48361523E+03 0.50126826E+03 0.10565837E+00 0.0000E+00 0.9000E+01
       13  1    4    4    0    0 0.13822881E+03 -.47982485E+02 0.63312412E+03 0.64981204E+03 0.10565837E+00 0.0000E+00 0.9000E+01
       23  1    3    3    0    0 -.17791821E+02 0.67794903E+02 0.42436295E+03 0.43967245E+03 0.91188000E+02 0.0000E+00 0.9000E+01
#aMCatNLO 1  0  0  1  1 0.50111737D+00 0.00000000D+00  -5  7  0 0.00000000D+00 0.00000000D+00 0.00000000D+00 0.00000000D+00 0.00000000D+00
  <mgrwgt>
 0.1299643118D-02   10    2    0
 0.446253391858098D+03 0.000000000000000D+00 0.000000000000000D+00 0.446253391858098D+03
 0.446253391858098D+03 0.000000000000000D+00 0.000000000000000D+00 -.446253391858098D+03
 0.398687941137672D+03 -.246019312259406D+03 -.600025251427818D+02 -.297252507855062D+03
 0.159329403392452D+03 0.125582304084664D+03 0.401902267282410D+02 0.894409825623261D+02
 0.195061440717726D+03 0.138228827150198D+03 -.479826041592326D+02 0.128993901784752D+03
 0.139427998468346D+03 -.177918189754553D+02 0.677949025737734D+02 0.788176235079837D+02
 0.000000000000000D+00 -.000000000000000D+00 0.000000000000000D+00 0.000000000000000D+00
 0.446570890895463D+03 0.000000000000000D+00 0.000000000000000D+00 0.446570890895463D+03
 0.446451237806718D+03 0.000000000000000D+00 0.000000000000000D+00 -.446451237806718D+03
 0.398569181448116D+03 -.245808467335649D+03 -.600776198415534D+02 -.297252507855062D+03
 0.159388281089088D+03 0.125666593085014D+03 0.401602062896255D+02 0.894409825623261D+02
 0.195143623350800D+03 0.138332021909646D+03 -.480193580883167D+02 0.128993901784752D+03
 0.139405838509809D+03 -.177180777727326D+02 0.677686388473017D+02 0.788176235079837D+02
 0.515204304368692D+00 -.472069886278452D+00 0.168132792942894D+00 0.119653088745337D+00
0.199457255997D-04 0.000000000000D+00 0.000000000000D+00 0.508511915687D-06 0.000000000000D+00  7 1 -2 -24 -13 13 23 21 0 0.27180295D+00 0.17341321D-01 0.10853167D+06 0.10853167D+06 0.10853167D+06 0.11188159D+01  1  2  2  1  7  1        1 0.253643598914D-03 0.100000000000D+01
-.984004180296D-06 0.000000000000D+00 -.765968381331D-07 0.508511915687D-06 0.000000000000D+00  7 1 -2 -24 -13 13 23 21 2 0.27180295D+00 0.17341321D-01 0.10853167D+06 0.10853167D+06 0.10853167D+06 0.11188159D+01  1  2  3  1  7  1        1 -.156634790603D-04 0.100000000000D+01
0.122700308072D-05 0.000000000000D+00 0.000000000000D+00 0.508511915687D-06 0.000000000000D+00  7 1 -2 -24 -13 13 23 21 2 0.27180295D+00 0.17341321D-01 0.10853167D+06 0.10853167D+06 0.10853167D+06 0.11188159D+01  1  2 15  1  7  1        1 0.195315603802D-04 0.100000000000D+01
-.303392874630D-02 0.000000000000D+00 0.000000000000D+00 0.508511915687D-06 0.000000000000D+00  7 1 -2 -24 -13 13 23 21 2 0.27180295D+00 0.17341321D-01 0.10853167D+06 0.10853167D+06 0.10853167D+06 0.11188159D+01  1  2  4  1  7  1        1 -.482943877064D-01 0.100000000000D+01
-.298436448034D-01 0.000000000000D+00 -.214136707114D-02 0.508511915687D-06 0.000000000000D+00  7 1 -2 -24 -13 13 23 21 2 0.27205917D+00 0.17341321D-01 0.10853167D+06 0.10853167D+06 0.10853167D+06 0.11188159D+01  1  2  5  1  7  1        1 -.473863802260D+00 0.100000000000D+01
0.298456501207D-01 0.000000000000D+00 0.214136612063D-02 0.508511915687D-06 0.000000000000D+00  7 1 -2 -24 -13 13 23 21 2 0.27180295D+00 0.17341321D-01 0.10853167D+06 0.10853167D+06 0.10853167D+06 0.11188159D+01  1  2  6  1  7  1        1 0.475086107423D+00 0.100000000000D+01
0.303392941784D-02 0.000000000000D+00 0.000000000000D+00 0.508511915687D-06 0.135175683196D-04  7 1 -2 -24 -13 13 23 21 2 0.27199633D+00 0.17349009D-01 0.10868877D+06 0.10868877D+06 0.10868877D+06 0.11187647D+01  1  2 11  1  7  1        1 0.481616126172D-01 0.100000000000D+01
0.133774767592D-21 0.000000000000D+00 0.000000000000D+00 0.508511915687D-06 0.000000000000D+00  7 21 -2 -24 -13 13 23 -1 2 0.27205655D+00 0.17341321D-01 0.10868877D+06 0.10868877D+06 0.10868877D+06 0.11187647D+01  1  2 12  3  7  1        1 0.136020549285D-20 0.100000000000D+01
-.526414577523D-05 0.000000000000D+00 -.377768641733D-06 0.508511915687D-06 0.000000000000D+00  7 21 -2 -24 -13 13 23 -1 2 0.27205917D+00 0.17341321D-01 0.10853167D+06 0.10853167D+06 0.10853167D+06 0.11188159D+01  1  2  5  3  7  1        1 -.535341790826D-04 0.100000000000D+01
0.603305186855D-06 0.000000000000D+00 0.000000000000D+00 0.508511915687D-06 0.180161327745D-08  7 21 -2 -24 -13 13 23 -1 2 0.27199633D+00 0.17349009D-01 0.10868877D+06 0.10868877D+06 0.10868877D+06 0.11187647D+01  1  2 11  3  7  1        1 0.613554334364D-05 0.100000000000D+01
  </mgrwgt>
  </event>
  <event>
  8     66 0.29493621E-05 0.69936354E+03 0.75467711E-02 0.85958986E-01
        1 -1    0    0  501    0 0.00000000E+00 0.00000000E+00 0.53779291E+03 0.53779301E+03 0.32000000E+00 0.0000E+00 0.9000E+01
       -2 -1    0    0    0  501 0.00000000E+00 0.00000000E+00 -.22062164E+04 0.22062164E+04 0.32000000E+00 0.0000E+00 0.9000E+01
       25  2    1    2    0    0 0.51479391E+03 -.78072009E+03 -.14963827E+04 0.17897548E+04 0.29920645E+03 0.0000E+00 0.0000E+00
       23  2    3    3    0    0 0.29889485E+03 -.59300045E+03 -.11511781E+04 0.13322261E+04 0.92885300E+02 0.0000E+00 0.0000E+00
      -24  1    1    2    0    0 -.51479391E+03 0.78072009E+03 -.17204081E+03 0.95425462E+03 0.80419002E+02 0.0000E+00 0.9000E+01
      -13  1    4    4    0    0 0.81026725E+02 -.16295529E+03 -.23797525E+03 0.29958636E+03 0.10565837E+00 0.0000E+00 0.9000E+01
       13  1    4    4    0    0 0.21786813E+03 -.43004516E+03 -.91320285E+03 0.10326397E+04 0.10565837E+00 0.0000E+00 0.9000E+01
       23  1    3    3    0    0 0.21589906E+03 -.18771964E+03 -.34520458E+03 0.45752871E+03 0.91188000E+02 0.0000E+00 0.9000E+01
#aMCatNLO 1  0  0  2  1 0.38424209D+03 0.00000000D+00  -5  7  0 0.00000000D+00 0.00000000D+00 0.00000000D+00 0.00000000D+00 0.00000000D+00
  <mgrwgt>
 0.1553905967D-02    9    2    0
 0.108926016404314D+04 0.000000000000000D+00 0.000000000000000D+00 0.108926016404314D+04
 0.108926016404314D+04 0.000000000000000D+00 0.000000000000000D+00 -.108926016404314D+04
 0.107019738911665D+04 -.514793913139493D+03 0.780720090618464D+03 0.514119249607470D+03
 0.195097173107528D+03 0.810265483171051D+02 -.162954944291951D+03 -.703085453780094D+02
 0.601309615279829D+03 0.217868302696831D+03 -.430045501859878D+03 -.359398834775606D+03
 0.311916150582283D+03 0.215899062125558D+03 -.187719644466634D+03 -.844118694538539D+02
 0.000000000000000D+00 0.000000000000000D+00 -.000000000000000D+00 -.000000000000000D+00
 0.122341405118295D+04 0.000000000000000D+00 0.000000000000000D+00 0.122341405118295D+04
 0.142063159321242D+04 0.000000000000000D+00 0.000000000000000D+00 -.142063159321242D+04
 0.119546692425555D+04 -.711212657693951D+03 0.807794468756515D+03 0.514119249607470D+03
 0.180026536634737D+03 0.485056988314549D+02 -.158472267354257D+03 -.703085453780094D+02
 0.562166630609406D+03 0.117002281994781D+03 -.416142120123261D+03 -.359398834775606D+03
 0.274486558737545D+03 0.165061661682727D+03 -.180712212430212D+03 -.844118694538539D+02
 0.431898994158122D+03 0.380643015184988D+03 -.524678688487860D+02 -.197217542029469D+03
0.167203220950D-01 0.000000000000D+00 0.000000000000D+00 0.828072517869D-05 0.000000000000D+00  7 1 -2 -24 -13 13 23 21 0 0.82737380D-01 0.33941792D+00 0.90532167D+06 0.90532167D+06 0.90532167D+06 0.10507516D+01  1  2  2  2  7  2       -2 0.105048573268D-02 0.100000000000D+01
-.908252627590D-03 0.000000000000D+00 -.642104394067D-04 0.828072517869D-05 0.000000000000D+00  7 1 -2 -24 -13 13 23 21 2 0.82737380D-01 0.33941792D+00 0.90532167D+06 0.90532167D+06 0.90532167D+06 0.10507516D+01  1  2  3  2  7  2       -2 -.630017051458D-04 0.100000000000D+01
0.105099267820D-02 0.000000000000D+00 0.000000000000D+00 0.828072517869D-05 0.000000000000D+00  7 1 -2 -24 -13 13 23 21 2 0.82737380D-01 0.33941792D+00 0.90532167D+06 0.90532167D+06 0.90532167D+06 0.10507516D+01  1  2 15  2  7  2       -2 0.729029884542D-04 0.100000000000D+01
0.843998851744D-02 0.000000000000D+00 0.000000000000D+00 0.828072517869D-05 0.000000000000D+00  7 1 -2 -24 -13 13 23 21 2 0.82737380D-01 0.45861083D+00 0.13487377D+07 0.13487377D+07 0.13487377D+07 0.10393231D+01  1  2 12  2  7  2       -2 0.672292896762D-04 0.100000000000D+01
-.102531628068D-01 0.000000000000D+00 0.000000000000D+00 0.828072517869D-05 0.000000000000D+00  7 1 -2 -24 -13 13 23 21 2 0.82737380D-01 0.33941792D+00 0.90532167D+06 0.90532167D+06 0.90532167D+06 0.10507516D+01  1  2  4  2  7  2       -2 -.711219236088D-03 0.100000000000D+01
-.175989261200D-01 0.000000000000D+00 -.581468495045D-02 0.828072517869D-05 0.000000000000D+00  7 1 -2 -24 -13 13 23 21 2 0.82737380D-01 0.45955825D+00 0.90532167D+06 0.90532167D+06 0.90532167D+06 0.10507516D+01  1  2  5  2  7  2       -2 -.146319126658D-03 0.100000000000D+01
0.187505681811D-01 0.000000000000D+00 0.555755304513D-02 0.828072517869D-05 0.000000000000D+00  7 1 -2 -24 -13 13 23 21 2 0.82737380D-01 0.33941792D+00 0.90532167D+06 0.90532167D+06 0.90532167D+06 0.10507516D+01  1  2  6  2  7  2       -2 0.130064888554D-02 0.100000000000D+01
0.327011570268D-03 0.000000000000D+00 0.000000000000D+00 0.828072517869D-05 0.000000000000D+00  7 1 21 -24 -13 13 23 2 2 0.82737380D-01 0.45861083D+00 0.13487377D+07 0.13487377D+07 0.13487377D+07 0.10393231D+01  1  2 12  4  7  2       -2 0.213987242683D-04 0.100000000000D+01
-.552831618759D-03 0.000000000000D+00 -.226407544330D-03 0.828072517869D-05 0.000000000000D+00  7 1 21 -24 -13 13 23 2 2 0.82737380D-01 0.45955825D+00 0.90532167D+06 0.90532167D+06 0.90532167D+06 0.10507516D+01  1  2  5  4  7  2       -2 -.382195857773D-04 0.100000000000D+01
  </mgrwgt>
  </event>
  <event>
  8     66 0.29493621E-05 0.18315598E+03 0.75467711E-02 0.98818405E-01
        1 -1    0    0  501    0 0.00000000E+00 0.00000000E+00 0.62337756E+03 0.62337764E+03 0.32000000E+00 0.0000E+00 0.9000E+01
       -2 -1    0    0    0  501 0.00000000E+00 0.00000000E+00 -.16161478E+03 0.16161510E+03 0.32000000E+00 0.0000E+00 0.9000E+01
       25  2    1    2    0    0 -.45620121E+01 0.47695474E+02 0.56683841E+03 0.64426685E+03 0.30245382E+03 0.0000E+00 0.0000E+00
       23  2    3    3    0    0 0.10304709E+03 0.65717174E+02 0.38292702E+03 0.41179502E+03 0.89468330E+02 0.0000E+00 0.0000E+00
      -24  1    1    2    0    0 0.45620121E+01 -.47695474E+02 -.10507564E+03 0.14072589E+03 0.80419002E+02 0.0000E+00 0.9000E+01
      -11  1    4    4    0    0 0.42706780E+02 0.54320450E+02 0.30421157E+03 0.31196035E+03 0.51099893E-03 0.0000E+00 0.9000E+01
       11  1    4    4    0    0 0.60340313E+02 0.11396724E+02 0.78715454E+02 0.99834670E+02 0.51099893E-03 0.0000E+00 0.9000E+01
       23  1    3    3    0    0 -.10760911E+03 -.18021699E+02 0.18391139E+03 0.23247183E+03 0.91188000E+02 0.0000E+00 0.9000E+01
#aMCatNLO 1  0  0  2  2 0.24312133D+03 0.00000000D+00  -5  7  0 0.00000000D+00 0.00000000D+00 0.00000000D+00 0.00000000D+00 0.00000000D+00
  <mgrwgt>
 0.1100863440D-02    3    2    0
 0.317406967923141D+03 0.000000000000000D+00 0.000000000000000D+00 0.317406967923141D+03
 0.317406967923141D+03 0.000000000000000D+00 0.000000000000000D+00 -.317406967923141D+03
 0.250449474262466D+03 0.456201212677531D+01 -.476954741983860D+02 -.232297337458528D+03
 0.164478160928583D+03 0.427067803564216D+02 0.543204499057256D+02 0.149259790486510D+03
 0.661951822644131D+02 0.603403127316879D+02 0.113967236460560D+02 0.247176759545958D+02
 0.153691118390820D+03 -.107609105214885D+03 -.180216993533957D+02 0.583198710174224D+02
 0.000000000000000D+00 -.000000000000000D+00 0.000000000000000D+00 0.000000000000000D+00
 0.113240282737585D+04 0.000000000000000D+00 0.000000000000000D+00 0.113240282737585D+04
 0.358534191658242D+03 0.000000000000000D+00 0.000000000000000D+00 -.358534191658242D+03
 0.278008798553666D+03 0.917266044060347D+02 -.919013230193113D+02 -.232297337458528D+03
 0.181305360555720D+03 0.997407624463426D+02 0.253954526792734D+02 0.149259790486510D+03
 0.895196378333104D+02 0.860241169293728D+02 -.162891366630098D+01 0.247176759545958D+02
 0.130943160985642D+03 -.606611583536529D+02 -.418315261090964D+02 0.583198710174224D+02
 0.811160061105756D+03 -.216830325428097D+03 0.109966310115435D+03 0.773868635717610D+03
0.213999850328D-04 0.000000000000D+00 0.000000000000D+00 0.836851593512D-07 0.000000000000D+00  7 1 -2 -24 -11 11 23 21 0 0.95904270D-01 0.24863843D-01 0.33546113D+05 0.33546113D+05 0.33546113D+05 0.11628607D+01  1  2  2  2  7  2       -2 0.106211822288D-02 0.100000000000D+01
-.751863747893D-06 0.000000000000D+00 -.821815772715D-07 0.836851593512D-07 0.000000000000D+00  7 1 -2 -24 -11 11 23 21 2 0.95904270D-01 0.24863843D-01 0.33546113D+05 0.33546113D+05 0.33546113D+05 0.11628607D+01  1  2  3  2  7  2       -2 -.504607721833D-04 0.100000000000D+01
0.132916613662D-05 0.000000000000D+00 0.000000000000D+00 0.836851593512D-07 0.000000000000D+00  7 1 -2 -24 -11 11 23 21 2 0.95904270D-01 0.24863843D-01 0.33546113D+05 0.33546113D+05 0.33546113D+05 0.11628607D+01  1  2 15  2  7  2       -2 0.892059895185D-04 0.100000000000D+01
  </mgrwgt>
  </event>
  <event>
  7     66 0.29493621E-05 0.50751327E+03 0.75467711E-02 0.88280297E-01
        1 -1    0    0  501    0 0.00000000E+00 0.00000000E+00 0.11092612E+04 0.11092613E+04 0.32000000E+00 0.0000E+00 0.9000E+01
       -2 -1    0    0    0  501 0.00000000E+00 0.00000000E+00 -.33186423E+03 0.33186438E+03 0.32000000E+00 0.0000E+00 0.9000E+01
       23  2    1    2    0    0 0.34232886E+01 0.57955893E+01 0.99899605E+02 0.13659757E+03 0.92917471E+02 0.0000E+00 0.0000E+00
      -24  1    1    2    0    0 -.18749074E+03 0.42579159E+03 0.67842760E+03 0.82654854E+03 0.80419002E+02 0.0000E+00 0.9000E+01
      -11  1    3    3    0    0 -.30532434E+02 0.50093811E+01 0.97789135E+02 0.10256724E+03 0.51099893E-03 0.0000E+00 0.9000E+01
       11  1    3    3    0    0 0.33955723E+02 0.78620823E+00 0.21104703E+01 0.34030329E+02 0.51099893E-03 0.0000E+00 0.9000E+01
       23  1    1    2    0    0 0.18406745E+03 -.43158718E+03 -.93021597E+00 0.47797954E+03 0.91188000E+02 0.0000E+00 0.9000E+01
#aMCatNLO 1  0  0  1  1 0.64863309D+03 0.00000000D+00  -5  7  0 0.00000000D+00 0.00000000D+00 0.00000000D+00 0.00000000D+00 0.00000000D+00
  <mgrwgt>
 0.2990715949D-02    5    2    0
 0.606732446152202D+03 0.000000000000000D+00 0.000000000000000D+00 0.606732446152202D+03
 0.606732446152202D+03 0.000000000000000D+00 0.000000000000000D+00 -.606732446152202D+03
 0.546989638744701D+03 -.187490743813769D+03 0.425791595734770D+03 0.276186869574725D+03
 0.591622353504597D+02 -.305324333617141D+02 0.500937937178331D+01 0.504266469536219D+02
 0.390627765741605D+02 0.339557231222281D+02 0.786206935760886D+00 -.192948505975954D+02
 0.568250241635082D+03 0.184067454053255D+03 -.431587182042315D+03 -.307318665930751D+03
 0.000000000000000D+00 -.000000000000000D+00 -.000000000000000D+00 0.000000000000000D+00
 0.141244551436370D+04 0.000000000000000D+00 0.000000000000000D+00 0.141244551436370D+04
 0.833154986384262D+03 0.000000000000000D+00 0.000000000000000D+00 -.833154986384262D+03
 0.825626630544757D+03 -.124526247041235D+03 0.763810280097523D+03 0.276186869574725D+03
 0.667275602111491D+02 -.247576310344496D+02 0.360108355125143D+02 0.504266469536219D+02
 0.480300891521688D+02 0.379508371141196D+02 0.222335819588145D+02 -.192948505975954D+02
 0.435559735055813D+03 0.230114110683887D+03 -.184390252162629D+03 -.307318665930751D+03
 0.869656485784069D+03 -.118781069722322D+03 -.637664445406224D+03 0.579290527979434D+03
0.593631369692D-03 0.000000000000D+00 0.000000000000D+00 0.626626207672D-09 0.000000000000D+00  7 1 -2 -24 -11 11 23 21 0 0.17065559D+00 0.51056050D-01 0.25756972D+06 0.25756972D+06 0.25756972D+06 0.10894859D+01  1  2  2  1  7  1        1 0.299404119680D-02 0.100000000000D+01
-.317009673268D-04 0.000000000000D+00 -.227970076634D-05 0.626626207672D-09 0.000000000000D+00  7 1 -2 -24 -11 11 23 21 2 0.17065559D+00 0.51056050D-01 0.25756972D+06 0.25756972D+06 0.25756972D+06 0.10894859D+01  1  2  3  1  7  1        1 -.189782708275D-03 0.100000000000D+01
0.374470350452D-04 0.000000000000D+00 0.000000000000D+00 0.626626207672D-09 0.000000000000D+00  7 1 -2 -24 -11 11 23 21 2 0.17065559D+00 0.51056050D-01 0.25756972D+06 0.25756972D+06 0.25756972D+06 0.10894859D+01  1  2 15  1  7  1        1 0.224182424924D-03 0.100000000000D+01
-.101778162812D-03 0.000000000000D+00 -.165717700797D-03 0.626626207672D-09 0.000000000000D+00  7 1 -2 -24 -11 11 23 21 2 0.44256104D+00 0.51056050D-01 0.25756972D+06 0.25756972D+06 0.25756972D+06 0.10894859D+01  1  2  5  1  7  1        1 -.376567403511D-04 0.100000000000D+01
-.738993104328D-06 0.000000000000D+00 -.174890778878D-04 0.626626207672D-09 0.000000000000D+00  7 21 -2 -24 -11 11 23 -1 2 0.44256104D+00 0.51056050D-01 0.25756972D+06 0.25756972D+06 0.25756972D+06 0.10894859D+01  1  2  5  3  7  1        1 -.682245384887D-07 0.100000000000D+01
  </mgrwgt>
  </event>
  <event>
  8     66 0.29493621E-05 0.51896806E+03 0.75467711E-02 0.89099057E-01
        1 -1    0    0  501    0 0.00000000E+00 0.00000000E+00 0.10391686E+04 0.10391686E+04 0.32000000E+00 0.0000E+00 0.9000E+01
       -2 -1    0    0    0  501 0.00000000E+00 0.00000000E+00 -.82099185E+03 0.82099191E+03 0.32000000E+00 0.0000E+00 0.9000E+01
       25  2    1    2    0    0 -.10064689E+02 0.77754817E+03 0.56229909E+03 0.10060119E+04 0.30198885E+03 0.0000E+00 0.0000E+00
       23  2    3    3    0    0 -.52276231E+02 0.66776344E+03 0.39732173E+03 0.78382443E+03 0.88743236E+02 0.0000E+00 0.0000E+00
      -24  1    1    2    0    0 0.10064689E+02 -.77754817E+03 -.34412236E+03 0.85414862E+03 0.80419002E+02 0.0000E+00 0.9000E+01
      -11  1    4    4    0    0 -.19838145E+02 0.58489337E+03 0.36159750E+03 0.68792918E+03 0.51099893E-03 0.0000E+00 0.9000E+01
       11  1    4    4    0    0 -.32438086E+02 0.82870066E+02 0.35724231E+02 0.95895245E+02 0.51099893E-03 0.0000E+00 0.9000E+01
       23  1    3    3    0    0 0.42211542E+02 0.10978473E+03 0.16497736E+03 0.22218749E+03 0.91188000E+02 0.0000E+00 0.9000E+01
#aMCatNLO 1  0  0  2  1 0.72963450D+02 0.00000000D+00  -5  7  0 0.00000000D+00 0.00000000D+00 0.00000000D+00 0.00000000D+00 0.00000000D+00
  <mgrwgt>
 0.1435062330D-02    9    2    0
 0.923660673395339D+03 0.000000000000000D+00 0.000000000000000D+00 0.923660673395339D+03
 0.923660673395339D+03 0.000000000000000D+00 0.000000000000000D+00 -.923660673395339D+03
 0.900727455177824D+03 0.100646892173470D+02 -.777548168713210D+03 -.447392758008488D+03
 0.650004160342971D+03 -.198381447006812D+02 0.584893370909602D+03 0.282863219850173D+03
 0.923425452962120D+02 -.324380864350595D+02 0.828700662767988D+02 0.246468727325303D+02
 0.204247185973672D+03 0.422115419183937D+02 0.109784731526808D+03 0.139882665425785D+03
 0.000000000000000D+00 0.000000000000000D+00 -.000000000000000D+00 -.000000000000000D+00
 0.945516738986938D+03 0.000000000000000D+00 0.000000000000000D+00 0.945516738986938D+03
 0.987350345377201D+03 0.000000000000000D+00 0.000000000000000D+00 -.987350345377201D+03
 0.900369191072376D+03 -.254820191354073D+02 -.776780439416632D+03 -.447392758008488D+03
 0.651793153487155D+03 -.455306079815718D+02 0.585448270580374D+03 0.282863219850173D+03
 0.937661248364578D+02 -.361111545254911D+02 0.829493963220272D+02 0.246468727325303D+02
 0.202833230598077D+03 0.341773429351685D+02 0.109958252232938D+03 0.139882665425785D+03
 0.841053843700727D+02 0.729464387073017D+02 -.157547971870746D+01 -.418336063902634D+02
0.112037865434D-02 0.000000000000D+00 0.000000000000D+00 0.727947021323D-06 0.000000000000D+00  7 1 -2 -24 -11 11 23 21 0 0.15987210D+00 0.12630645D+00 0.64385445D+06 0.64385445D+06 0.64385445D+06 0.10608346D+01  1  2  2  2  7  2       -2 0.776688939724D-03 0.100000000000D+01
-.607444297225D-04 0.000000000000D+00 -.430254903515D-05 0.727947021323D-06 0.000000000000D+00  7 1 -2 -24 -11 11 23 21 2 0.15987210D+00 0.12630645D+00 0.64385445D+06 0.64385445D+06 0.64385445D+06 0.10608346D+01  1  2  3  2  7  2       -2 -.473897117835D-04 0.100000000000D+01
0.713543414429D-04 0.000000000000D+00 0.000000000000D+00 0.727947021323D-06 0.000000000000D+00  7 1 -2 -24 -11 11 23 21 2 0.15987210D+00 0.12630645D+00 0.64385445D+06 0.64385445D+06 0.64385445D+06 0.10608346D+01  1  2 15  2  7  2       -2 0.556670247944D-04 0.100000000000D+01
0.350417520887D-02 0.000000000000D+00 0.000000000000D+00 0.727947021323D-06 0.000000000000D+00  7 1 -2 -24 -11 11 23 21 2 0.15987210D+00 0.13643800D+00 0.70465755D+06 0.70465755D+06 0.70465755D+06 0.10581360D+01  1  2 12  2  7  2       -2 0.220535320943D-02 0.100000000000D+01
-.344516589406D-02 0.000000000000D+00 0.000000000000D+00 0.727947021323D-06 0.000000000000D+00  7 1 -2 -24 -11 11 23 21 2 0.15987210D+00 0.12630645D+00 0.64385445D+06 0.64385445D+06 0.64385445D+06 0.10608346D+01  1  2  4  2  7  2       -2 -.268774304923D-02 0.100000000000D+01
-.980341094171D-02 0.000000000000D+00 -.164588643163D-02 0.727947021323D-06 0.000000000000D+00  7 1 -2 -24 -11 11 23 21 2 0.15987210D+00 0.13706518D+00 0.64385445D+06 0.64385445D+06 0.64385445D+06 0.10608346D+01  1  2  5  2  7  2       -2 -.615644737473D-02 0.100000000000D+01
0.991030825990D-02 0.000000000000D+00 0.164040252530D-02 0.727947021323D-06 0.000000000000D+00  7 1 -2 -24 -11 11 23 21 2 0.15987210D+00 0.12630645D+00 0.64385445D+06 0.64385445D+06 0.64385445D+06 0.10608346D+01  1  2  6  2  7  2       -2 0.773151800532D-02 0.100000000000D+01
0.464976205640D-04 0.000000000000D+00 0.000000000000D+00 0.727947021323D-06 0.000000000000D+00  7 1 21 -24 -11 11 23 2 2 0.15987210D+00 0.13643800D+00 0.70465755D+06 0.70465755D+06 0.70465755D+06 0.10581360D+01  1  2 12  4  7  2       -2 0.247280714546D-03 0.100000000000D+01
-.129759927947D-03 0.000000000000D+00 -.224090652407D-04 0.727947021323D-06 0.000000000000D+00  7 1 21 -24 -11 11 23 2 2 0.15987210D+00 0.13706518D+00 0.64385445D+06 0.64385445D+06 0.64385445D+06 0.10608346D+01  1  2  5  4  7  2       -2 -.689865427937D-03 0.100000000000D+01
  </mgrwgt>
  </event>
  <event>
  8     66 0.29493621E-05 0.45039219E+03 0.75467711E-02 0.90284558E-01
        1 -1    0    0  501    0 0.00000000E+00 0.00000000E+00 0.23456648E+04 0.23456648E+04 0.32000000E+00 0.0000E+00 0.9000E+01
       -2 -1    0    0    0  501 0.00000000E+00 0.00000000E+00 -.91268347E+02 0.91268908E+02 0.32000000E+00 0.0000E+00 0.9000E+01
       25  2    1    2    0    0 0.38195305E+03 -.14811612E+03 0.12409174E+04 0.13408345E+04 0.30022431E+03 0.0000E+00 0.0000E+00
       23  2    3    3    0    0 0.34045552E+03 -.77352476E+02 0.72121265E+03 0.80685152E+03 0.94701266E+02 0.0000E+00 0.0000E+00
      -24  1    1    2    0    0 -.38195305E+03 0.14811612E+03 0.10134790E+04 0.10960992E+04 0.80419002E+02 0.0000E+00 0.9000E+01
      -11  1    4    4    0    0 0.63120705E+02 0.20786705E+02 0.10979604E+03 0.12834127E+03 0.51099893E-03 0.0000E+00 0.9000E+01
       11  1    4    4    0    0 0.27733481E+03 -.98139181E+02 0.61141661E+03 0.67851026E+03 0.51099893E-03 0.0000E+00 0.9000E+01
       23  1    3    3    0    0 0.41497540E+02 -.70763639E+02 0.51970478E+03 0.53398300E+03 0.91188000E+02 0.0000E+00 0.9000E+01
#aMCatNLO 1  0  0  2  1 0.47528066D+03 0.00000000D+00  -5  7  0 0.00000000D+00 0.00000000D+00 0.00000000D+00 0.00000000D+00 0.00000000D+00
  <mgrwgt>
 0.9471296906D-03    5    2    0
 0.462693916160789D+03 0.000000000000000D+00 0.000000000000000D+00 0.462693916160789D+03
 0.462693916160789D+03 0.000000000000000D+00 0.000000000000000D+00 -.462693916160789D+03
 0.417487236205918D+03 -.381953054978158D+03 0.148116115030072D+03 -.136260843104512D+01
 0.704951560952652D+02 0.631207047003410D+02 0.207867049027307D+02 -.235214066398027D+02
 0.297290586820652D+03 0.277334810722545D+03 -.981391805310237D+02 -.428462019128516D+02
 0.140114853199742D+03 0.414975395552716D+02 -.707636394017786D+02 0.677302169836994D+02
 0.000000000000000D+00 0.000000000000000D+00 0.000000000000000D+00 -.000000000000000D+00
 0.618672730711972D+03 0.000000000000000D+00 0.000000000000000D+00 0.618672730711972D+03
 0.109336373594582D+04 0.000000000000000D+00 0.000000000000000D+00 -.109336373594582D+04
 0.491502004523166D+03 -.482565319462884D+03 -.472848839045590D+02 -.136260843104512D+01
 0.549169457421649D+02 0.492393571614721D+02 -.617252506336865D+01 -.235214066398027D+02
 0.313815610005602D+03 0.209693989964290D+03 -.229505709379281D+03 -.428462019128516D+02
 0.180070369646488D+03 0.605755976049730D+01 -.139592300495807D+03 0.677302169836994D+02
 0.671731536740371D+03 0.217574412576624D+03 0.422555418843016D+03 -.474691005233847D+03
0.134172180177D-03 0.000000000000D+00 0.000000000000D+00 0.835990374940D-06 0.000000000000D+00  7 1 -2 -24 -11 11 23 21 0 0.36087155D+00 0.14041329D-01 0.20285313D+06 0.20285313D+06 0.20285313D+06 0.10973532D+01  1  2  2  2  7  2       -2 0.968058995358D-03 0.100000000000D+01
-.744742899942D-05 0.000000000000D+00 -.515256500227D-06 0.835990374940D-06 0.000000000000D+00  7 1 -2 -24 -11 11 23 21 2 0.36087155D+00 0.14041329D-01 0.20285313D+06 0.20285313D+06 0.20285313D+06 0.10973532D+01  1  2  3  2  7  2       -2 -.647051146373D-04 0.100000000000D+01
0.861788277141D-05 0.000000000000D+00 0.000000000000D+00 0.835990374940D-06 0.000000000000D+00  7 1 -2 -24 -11 11 23 21 2 0.36087155D+00 0.14041329D-01 0.20285313D+06 0.20285313D+06 0.20285313D+06 0.10973532D+01  1  2 15  2  7  2       -2 0.748743079926D-04 0.100000000000D+01
-.189427525053D-04 0.000000000000D+00 -.455085471719D-04 0.835990374940D-06 0.000000000000D+00  7 1 -2 -24 -11 11 23 21 2 0.36087155D+00 0.47679025D-01 0.20285313D+06 0.20285313D+06 0.20285313D+06 0.10973532D+01  1  2  5  2  7  2       -2 -.195080285731D-04 0.100000000000D+01
-.105732078925D-05 0.000000000000D+00 -.647528781815D-05 0.835990374940D-06 0.000000000000D+00  7 1 21 -24 -11 11 23 2 2 0.36087155D+00 0.47679025D-01 0.20285313D+06 0.20285313D+06 0.20285313D+06 0.10973532D+01  1  2  5  4  7  2       -2 -.115904695550D-04 0.100000000000D+01
  </mgrwgt>
  </event>
  <event>
  8     66 0.29493621E-05 0.11975686E+03 0.75467711E-02 0.99786486E-01
        1 -1    0    0  501    0 0.00000000E+00 0.00000000E+00 0.90916246E+03 0.90916252E+03 0.32000000E+00 0.0000E+00 0.9000E+01
       -2 -1    0    0    0  501 0.00000000E+00 0.00000000E+00 -.73630102E+02 0.73630798E+02 0.32000000E+00 0.0000E+00 0.9000E+01
       25  2    1    2    0    0 -.13478197E+03 0.42621580E+02 0.68809865E+03 0.76327864E+03 0.29854941E+03 0.0000E+00 0.0000E+00
       23  2    3    3    0    0 -.13676279E+03 -.42791361E+01 0.60870292E+03 0.63357692E+03 0.11035445E+03 0.0000E+00 0.0000E+00
      -24  1    1    2    0    0 0.13478197E+03 -.42621580E+02 0.14743371E+03 0.21951468E+03 0.80419002E+02 0.0000E+00 0.9000E+01
      -11  1    4    4    0    0 -.90232127E+00 0.50189558E+01 0.24755587E+03 0.24760838E+03 0.51099893E-03 0.0000E+00 0.9000E+01
       11  1    4    4    0    0 -.13586047E+03 -.92980919E+01 0.36114705E+03 0.38596854E+03 0.51099893E-03 0.0000E+00 0.9000E+01
       23  1    3    3    0    0 0.19808224E+01 0.46900716E+02 0.79395732E+02 0.12970171E+03 0.91188000E+02 0.0000E+00 0.9000E+01
#aMCatNLO 1  0  0  1  2 0.18998239D+03 0.00000000D+00  -5  7  0 0.00000000D+00 0.00000000D+00 0.00000000D+00 0.00000000D+00 0.00000000D+00
  <mgrwgt>
 0.8484811324D-03    7    2    0
 0.258731703275463D+03 0.000000000000000D+00 0.000000000000000D+00 0.258731703275463D+03
 0.258731703275463D+03 0.000000000000000D+00 0.000000000000000D+00 -.258731703275463D+03
 0.178856942236512D+03 0.134781971217602D+03 -.426215804298958D+02 -.744299062755010D+02
 0.705497728926790D+02 -.902322954398699D+00 0.501895534509975D+01 0.703652354201877D+02
 0.149918339557120D+03 -.135860471126921D+03 -.929809204763655D+01 0.626975789405667D+02
 0.118138351864615D+03 0.198082286371791D+01 0.469007171324326D+02 -.586329080852534D+02
 0.000000000000000D+00 0.000000000000000D+00 -.000000000000000D+00 0.000000000000000D+00
 0.468641064305745D+03 0.000000000000000D+00 0.000000000000000D+00 0.468641064305745D+03
 0.322365717297934D+03 0.000000000000000D+00 0.000000000000000D+00 -.322365717297934D+03
 0.140557138377448D+03 0.872724315998745D+02 -.115241020887523D+02 -.744299062755010D+02
 0.764406628958332D+02 -.227656294157110D+02 0.193296328346528D+02 0.703652354201877D+02
 0.199568015561634D+03 -.187842950429193D+03 0.247271592435415D+02 0.626975789405667D+02
 0.134670688844613D+03 -.356219062088645D+02 0.715136698638498D+02 -.586329080852534D+02
 0.239770275924150D+03 0.158958054453894D+03 -.104046359853292D+03 0.146275347007810D+03
0.953573320216D-05 0.000000000000D+00 0.000000000000D+00 0.104620797638D-08 0.000000000000D+00  7 1 -2 -24 -11 11 23 21 0 0.13987121D+00 0.11327766D-01 0.41305216D+05 0.41305216D+05 0.41305216D+05 0.11546653D+01  1  2  2  1  7  1        1 0.939621255241D-03 0.100000000000D+01
-.492221758085D-06 0.000000000000D+00 -.366197263125D-07 0.104620797638D-08 0.000000000000D+00  7 1 -2 -24 -11 11 23 21 2 0.13987121D+00 0.11327766D-01 0.41305216D+05 0.41305216D+05 0.41305216D+05 0.11546653D+01  1  2  3  1  7  1        1 -.646653663069D-04 0.100000000000D+01
0.612437853404D-06 0.000000000000D+00 0.000000000000D+00 0.104620797638D-08 0.000000000000D+00  7 1 -2 -24 -11 11 23 21 2 0.13987121D+00 0.11327766D-01 0.41305216D+05 0.41305216D+05 0.41305216D+05 0.11546653D+01  1  2 15  1  7  1        1 0.804586905802D-04 0.100000000000D+01
0.323950428418D-07 0.000000000000D+00 0.000000000000D+00 0.104620797638D-08 0.000000000000D+00  7 1 -2 -24 -11 11 23 21 2 0.25885492D+00 0.11327766D-01 0.10555368D+06 0.10555368D+06 0.10555368D+06 0.11198009D+01  1  2 12  1  7  1        1 0.115561518682D-05 0.100000000000D+01
-.343317225161D-05 0.000000000000D+00 -.283819226325D-05 0.104620797638D-08 0.000000000000D+00  7 1 -2 -24 -11 11 23 21 2 0.28198447D+00 0.11327766D-01 0.41305216D+05 0.41305216D+05 0.41305216D+05 0.11546653D+01  1  2  5  1  7  1        1 -.106381769630D-03 0.100000000000D+01
0.217508307019D-08 0.000000000000D+00 0.000000000000D+00 0.104620797638D-08 0.000000000000D+00  7 21 -2 -24 -11 11 23 -1 2 0.25885492D+00 0.11327766D-01 0.10555368D+06 0.10555368D+06 0.10555368D+06 0.11198009D+01  1  2 12  3  7  1        1 0.535198471525D-07 0.100000000000D+01
-.890280656464D-07 0.000000000000D+00 -.215252332143D-06 0.104620797638D-08 0.000000000000D+00  7 21 -2 -24 -11 11 23 -1 2 0.28198447D+00 0.11327766D-01 0.41305216D+05 0.41305216D+05 0.41305216D+05 0.11546653D+01  1  2  5  3  7  1        1 -.176081249547D-05 0.100000000000D+01
  </mgrwgt>
  </event>
  <event>
  8     66 0.29493621E-05 0.25866101E+03 0.75467711E-02 0.93900960E-01
        1 -1    0    0  501    0 0.00000000E+00 0.00000000E+00 0.34380975E+03 0.34380990E+03 0.32000000E+00 0.0000E+00 0.9000E+01
       -2 -1    0    0    0  501 0.00000000E+00 0.00000000E+00 -.56939832E+03 0.56939841E+03 0.32000000E+00 0.0000E+00 0.9000E+01
       25  2    1    2    0    0 -.10025938E+03 -.16196591E+03 0.22321066E+03 0.41906980E+03 0.29918489E+03 0.0000E+00 0.0000E+00
       23  2    3    3    0    0 0.16943480E+02 -.14587186E+03 0.31882700E+02 0.17634121E+03 0.92271529E+02 0.0000E+00 0.0000E+00
      -24  1    1    2    0    0 0.10025938E+03 0.16196591E+03 -.44879923E+03 0.49413851E+03 0.80419002E+02 0.0000E+00 0.9000E+01
      -13  1    4    4    0    0 -.20898147E+02 -.97805796E+02 0.50976969E+02 0.11225582E+03 0.10565837E+00 0.0000E+00 0.9000E+01
       13  1    4    4    0    0 0.37841627E+02 -.48066061E+02 -.19094269E+02 0.64085390E+02 0.10565837E+00 0.0000E+00 0.9000E+01
       23  1    3    3    0    0 -.11720286E+03 -.16094048E+02 0.19132796E+03 0.24272859E+03 0.91188000E+02 0.0000E+00 0.9000E+01
#aMCatNLO 1  0  0  1  2 0.39604330D+03 0.00000000D+00  -5  7  0 0.00000000D+00 0.00000000D+00 0.00000000D+00 0.00000000D+00 0.00000000D+00
  <mgrwgt>
 0.1115335417D-02    3    2    0
 0.442453164506112D+03 0.000000000000000D+00 0.000000000000000D+00 0.442453164506112D+03
 0.442453164506112D+03 0.000000000000000D+00 0.000000000000000D+00 -.442453164506112D+03
 0.395530466909184D+03 0.100259379811245D+03 0.161965905825188D+03 -.337182793761956D+03
 0.128841711454927D+03 -.208982234637230D+02 -.978058614228903D+02 0.812247766264780D+02
 0.612672568266745D+02 0.378417035673407D+02 -.480659959744790D+02 -.336782736620747D+01
 0.299266893821438D+03 -.117202859914862D+03 -.160940484278186D+02 0.259325844501685D+03
 0.000000000000000D+00 0.000000000000000D+00 -.000000000000000D+00 -.000000000000000D+00
 0.508727039086036D+03 0.000000000000000D+00 0.000000000000000D+00 0.508727039086036D+03
 0.211980182041598D+04 0.000000000000000D+00 0.000000000000000D+00 -.211980182041598D+04
 0.494693625654685D+03 0.600429152902898D+02 0.347788986633178D+03 -.337182793761956D+03
 0.100352445834151D+03 -.312522217120517D+02 -.499644642214414D+02 0.812247766264780D+02
 0.425156251411181D+02 0.331532429590465D+02 -.264026248935580D+02 -.336782736620747D+01
 0.331927606654529D+03 -.145717490608698D+03 0.115659863477334D+03 0.259325844501685D+03
 0.165903955621753D+04 0.837735540714130D+02 -.387081760995513D+03 -.161107478132994D+04
0.111929339869D-03 0.000000000000D+00 0.000000000000D+00 0.211254169991D-05 0.000000000000D+00  7 1 -2 -24 -13 13 23 21 0 0.52893826D-01 0.87599760D-01 0.66905516D+05 0.66905516D+05 0.66905516D+05 0.11363327D+01  1  2  2  1  7  1        1 0.107918585977D-02 0.100000000000D+01
-.403956232924D-05 0.000000000000D+00 -.429838136768D-06 0.211254169991D-05 0.000000000000D+00  7 1 -2 -24 -13 13 23 21 2 0.52893826D-01 0.87599760D-01 0.66905516D+05 0.66905516D+05 0.66905516D+05 0.11363327D+01  1  2  3  1  7  1        1 -.502918495541D-04 0.100000000000D+01
0.694318173107D-05 0.000000000000D+00 0.000000000000D+00 0.211254169991D-05 0.000000000000D+00  7 1 -2 -24 -13 13 23 21 2 0.52893826D-01 0.87599760D-01 0.66905516D+05 0.66905516D+05 0.66905516D+05 0.11363327D+01  1  2 15  1  7  1        1 0.864414069113D-04 0.100000000000D+01
  </mgrwgt>
  </event>
  <event>
  8     66 0.29493621E-05 0.34664946E+03 0.75467711E-02 0.98961113E-01
        1 -1    0    0  501    0 0.00000000E+00 0.00000000E+00 0.10995520E+04 0.10995521E+04 0.32000000E+00 0.0000E+00 0.9000E+01
       -2 -1    0    0    0  501 0.00000000E+00 0.00000000E+00 -.16579533E+03 0.16579564E+03 0.32000000E+00 0.0000E+00 0.9000E+01
       25  2    1    2    0    0 -.13800355E+03 0.26222408E+03 0.84693535E+03 0.94626840E+03 0.30052943E+03 0.0000E+00 0.0000E+00
       23  2    3    3    0    0 -.61108882E+02 0.24386898E+03 0.38117161E+03 0.46512309E+03 0.88551183E+02 0.0000E+00 0.0000E+00
      -24  1    1    2    0    0 0.13800355E+03 -.26222408E+03 0.86821356E+02 0.31907932E+03 0.80419002E+02 0.0000E+00 0.9000E+01
      -13  1    4    4    0    0 -.27321804E+02 0.22543494E+03 0.33898047E+03 0.40801368E+03 0.10565837E+00 0.0000E+00 0.9000E+01
       13  1    4    4    0    0 -.33787078E+02 0.18434035E+02 0.42191148E+02 0.57109408E+02 0.10565837E+00 0.0000E+00 0.9000E+01
       23  1    3    3    0    0 -.76894668E+02 0.18355106E+02 0.46576374E+03 0.48114531E+03 0.91188000E+02 0.0000E+00 0.9000E+01
#aMCatNLO 1  0  0  1  1 0.70515391D+00 0.00000000D+00  -5  7  0 0.00000000D+00 0.00000000D+00 0.00000000D+00 0.00000000D+00 0.00000000D+00
  <mgrwgt>
 0.9829689464D-03    8    2    0
 0.426966995101862D+03 0.000000000000000D+00 0.000000000000000D+00 0.426966995101862D+03
 0.426966995101862D+03 0.000000000000000D+00 0.000000000000000D+00 -.426966995101862D+03
 0.377870270578221D+03 0.138003549634856D+03 -.262224083048643D+03 -.220255024891523D+03
 0.233922214766871D+03 -.273217944111340D+02 0.225435236498385D+03 0.561433545177958D+02
 0.384886348965662D+02 -.337870871939902D+02 0.184337407970954D+02 0.703944058342234D-01
 0.203652869962068D+03 -.768946680297319D+02 0.183551057531630D+02 0.164041275967893D+03
 0.000000000000000D+00 -.000000000000000D+00 0.000000000000000D+00 -.000000000000000D+00
 0.426982113349413D+03 0.000000000000000D+00 0.000000000000000D+00 0.426982113349413D+03
 0.435269633158071D+03 0.000000000000000D+00 0.000000000000000D+00 -.435269633158071D+03
 0.378114725862876D+03 0.138163827950944D+03 -.262491924858584D+03 -.220255024891523D+03
 0.233750968148662D+03 -.272226418213469D+02 0.225269542162701D+03 0.561433545177958D+02
 0.384612594711573D+02 -.337707728497235D+02 0.184064778235189D+02 0.703944058342234D-01
 0.203607327868801D+03 -.768083237517034D+02 0.182108154444700D+02 0.164041275967893D+03
 0.831746515598753D+01 -.362089528170384D+00 0.605089427894280D+00 -.828751980865848D+01
0.508461821858D-04 0.000000000000D+00 0.000000000000D+00 0.103409001707D-05 0.000000000000D+00  7 1 -2 -24 -13 13 23 21 0 0.16916188D+00 0.25507001D-01 0.12016585D+06 0.12016585D+06 0.12016585D+06 0.11152333D+01  1  2  2  1  7  1        1 0.956342695929D-03 0.100000000000D+01
-.267563485851D-05 0.000000000000D+00 -.195262727701D-06 0.103409001707D-05 0.000000000000D+00  7 1 -2 -24 -13 13 23 21 2 0.16916188D+00 0.25507001D-01 0.12016585D+06 0.12016585D+06 0.12016585D+06 0.11152333D+01  1  2  3  1  7  1        1 -.625912311128D-04 0.100000000000D+01
0.328825773487D-05 0.000000000000D+00 0.000000000000D+00 0.103409001707D-05 0.000000000000D+00  7 1 -2 -24 -13 13 23 21 2 0.16916188D+00 0.25507001D-01 0.12016585D+06 0.12016585D+06 0.12016585D+06 0.11152333D+01  1  2 15  1  7  1        1 0.769223420703D-04 0.100000000000D+01
-.775312161748D-05 0.000000000000D+00 0.000000000000D+00 0.103409001707D-05 0.000000000000D+00  7 1 -2 -24 -13 13 23 21 2 0.16916188D+00 0.25507001D-01 0.12016585D+06 0.12016585D+06 0.12016585D+06 0.11152333D+01  1  2  4  1  7  1        1 -.181369077870D-03 0.100000000000D+01
0.405804765724D-10 0.000000000000D+00 0.000000000000D+00 0.103409001707D-05 0.000000000000D+00  7 1 -2 -24 -13 13 23 21 2 0.17196095D+00 0.25507001D-01 0.12016585D+06 0.12016585D+06 0.12016585D+06 0.11152333D+01  1  2  5  1  7  1        1 0.921017801135D-09 0.100000000000D+01
-.405750124137D-10 0.000000000000D+00 0.000000000000D+00 0.103409001707D-05 0.000000000000D+00  7 1 -2 -24 -13 13 23 21 2 0.16916188D+00 0.25507001D-01 0.12016585D+06 0.12016585D+06 0.12016585D+06 0.11152333D+01  1  2  6  1  7  1        1 -.949172855672D-09 0.100000000000D+01
0.775447847736D-05 0.000000000000D+00 0.000000000000D+00 0.103409001707D-05 0.137955707535D-04  7 1 -2 -24 -13 13 23 21 2 0.16916787D+00 0.26003000D-01 0.12041741D+06 0.12041741D+06 0.12041741D+06 0.11151601D+01  1  2 11  1  7  1        1 0.175458342443D-03 0.100000000000D+01
0.659177517236D-06 0.000000000000D+00 0.000000000000D+00 0.103409001707D-05 0.924303431322D-10  7 21 -2 -24 -13 13 23 -1 2 0.16916787D+00 0.26003000D-01 0.12041741D+06 0.12041741D+06 0.12041741D+06 0.11151601D+01  1  2 11  3  7  1        1 0.182059031437D-04 0.100000000000D+01
  </mgrwgt>
  </event>
  <event>
  8     66 0.29493621E-05 0.49663757E+03 0.75467711E-02 0.91607747E-01
        1 -1    0    0  501    0 0.00000000E+00 0.00000000E+00 0.59343989E+03 0.59343998E+03 0.32000000E+00 0.0000E+00 0.9000E+01
       -2 -1    0    0    0  501 0.00000000E+00 0.00000000E+00 -.52348576E+03 0.52348585E+03 0.32000000E+00 0.0000E+00 0.9000E+01
       25  2    1    2    0    0 -.34955628E+03 -.28527814E+03 0.28326338E+03 0.61141494E+03 0.30002812E+03 0.0000E+00 0.0000E+00
       23  2    3    3    0    0 -.14334235E+03 0.21473127E+01 0.13462514E+03 0.21702153E+03 0.91775704E+02 0.0000E+00 0.0000E+00
      -24  1    1    2    0    0 0.34955628E+03 0.28527814E+03 -.21330924E+03 0.50551089E+03 0.80419002E+02 0.0000E+00 0.9000E+01
      -11  1    4    4    0    0 -.10687169E+03 -.39831226E+02 0.82108941E+02 0.14053456E+03 0.51099893E-03 0.0000E+00 0.9000E+01
       11  1    4    4    0    0 -.36470660E+02 0.41978539E+02 0.52516196E+02 0.76486977E+02 0.51099893E-03 0.0000E+00 0.9000E+01
       23  1    3    3    0    0 -.20621394E+03 -.28742546E+03 0.14863824E+03 0.39439341E+03 0.91188000E+02 0.0000E+00 0.9000E+01
#aMCatNLO 1  0  0  2  1 0.28020212D+03 0.00000000D+00  -5  7  0 0.00000000D+00 0.00000000D+00 0.00000000D+00 0.00000000D+00 0.00000000D+00
  <mgrwgt>
 0.1483954172D-02    4    2    0
 0.557366516907224D+03 0.000000000000000D+00 0.000000000000000D+00 0.557366516907224D+03
 0.557366516907224D+03 0.000000000000000D+00 0.000000000000000D+00 -.557366516907224D+03
 0.519891329877555D+03 0.349556284528325D+03 0.285278142549498D+03 -.245451755458671D+03
 0.135658326819721D+03 -.106871685626631D+03 -.398312259600114D+02 0.734513300449440D+02
 0.733418248649966D+02 -.364706602540442D+02 0.419785386830700D+02 0.478196246868994D+02
 0.385841552252177D+03 -.206213938647650D+03 -.287425455272556D+03 0.124180800726827D+03
 0.000000000000000D+00 0.000000000000000D+00 -.000000000000000D+00 0.000000000000000D+00
 0.892263637017106D+03 0.000000000000000D+00 0.000000000000000D+00 0.892263637017106D+03
 0.636514923975908D+03 0.000000000000000D+00 0.000000000000000D+00 -.636514923975908D+03
 0.568966936540260D+03 0.298307202940327D+03 0.409905363880266D+03 -.245451755458671D+03
 0.140835313600121D+03 -.119885358363907D+03 -.818465157662788D+01 0.734513300449440D+02
 0.888687564475367D+02 -.441053943351580D+02 0.605446410335044D+02 0.478196246868994D+02
 0.350738826424146D+03 -.240882424976078D+03 -.203118829963831D+03 0.124180800726827D+03
 0.379368727980951D+03 0.106565974734815D+03 -.259146523373311D+03 0.255748713041198D+03
0.315108854701D-03 0.000000000000D+00 0.000000000000D+00 0.138184552889D-04 0.000000000000D+00  7 1 -2 -24 -11 11 23 21 0 0.91298459D-01 0.80536284D-01 0.24664888D+06 0.24664888D+06 0.24664888D+06 0.10909003D+01  1  2  2  2  7  2       -2 0.167403041690D-02 0.100000000000D+01
-.172227785084D-04 0.000000000000D+00 -.121010097212D-05 0.138184552889D-04 0.000000000000D+00  7 1 -2 -24 -11 11 23 21 2 0.91298459D-01 0.80536284D-01 0.24664888D+06 0.24664888D+06 0.24664888D+06 0.10909003D+01  1  2  3  2  7  2       -2 -.108887009394D-03 0.100000000000D+01
0.200988385419D-04 0.000000000000D+00 0.000000000000D+00 0.138184552889D-04 0.000000000000D+00  7 1 -2 -24 -11 11 23 21 2 0.91298459D-01 0.80536284D-01 0.24664888D+06 0.24664888D+06 0.24664888D+06 0.10909003D+01  1  2 15  2  7  2       -2 0.127070229699D-03 0.100000000000D+01
-.329406296101D-04 0.000000000000D+00 0.000000000000D+00 0.138184552889D-04 0.000000000000D+00  7 1 -2 -24 -11 11 23 21 2 0.91298459D-01 0.80536284D-01 0.24664888D+06 0.24664888D+06 0.24664888D+06 0.10909003D+01  1  2  4  2  7  2       -2 -.208259465454D-03 0.100000000000D+01
  </mgrwgt>
  </event>
  <event>
  8     66 0.29493621E-05 0.14869607E+03 0.75467711E-02 0.93264498E-01
        1 -1    0    0  501    0 0.00000000E+00 0.00000000E+00 0.87935239E+03 0.87935245E+03 0.32000000E+00 0.0000E+00 0.9000E+01
       -2 -1    0    0    0  501 0.00000000E+00 0.00000000E+00 -.29040911E+03 0.29040929E+03 0.32000000E+00 0.0000E+00 0.9000E+01
       25  2    1    2    0    0 0.41217665E+03 -.12374135E+03 0.14013769E+03 0.54278870E+03 0.29963225E+03 0.0000E+00 0.0000E+00
       23  2    3    3    0    0 0.19172130E+03 -.28410203E+02 -.53448881E+02 0.22110624E+03 0.92016253E+02 0.0000E+00 0.0000E+00
      -24  1    1    2    0    0 -.41217665E+03 0.12374135E+03 0.44880559E+03 0.62697304E+03 0.80419002E+02 0.0000E+00 0.9000E+01
      -11  1    4    4    0    0 0.12512099E+03 -.60806608E+02 -.22875659E+02 0.14098227E+03 0.51099893E-03 0.0000E+00 0.9000E+01
       11  1    4    4    0    0 0.66600313E+02 0.32396405E+02 -.30573222E+02 0.80123971E+02 0.51099893E-03 0.0000E+00 0.9000E+01
       23  1    3    3    0    0 0.22045535E+03 -.95331148E+02 0.19358657E+03 0.32168245E+03 0.91188000E+02 0.0000E+00 0.9000E+01
#aMCatNLO 1  0  0  2  1 0.19687870D+03 0.00000000D+00  -5  7  0 0.00000000D+00 0.00000000D+00 0.00000000D+00 0.00000000D+00 0.00000000D+00
  <mgrwgt>
 0.9699531680D-03    9    2    0
 0.505343529511230D+03 0.000000000000000D+00 0.000000000000000D+00 0.505343529511230D+03
 0.505343529511230D+03 0.000000000000000D+00 0.000000000000000D+00 -.505343529511230D+03
 0.464127870231191D+03 -.412176654159771D+03 0.123741351329747D+03 0.154097202141102D+03
 0.176501848331608D+03 0.125120989414236D+03 -.608066084893149D+02 -.108628710921670D+03
 0.110550390334845D+03 0.666003134091892D+02 0.323964050114063D+02 -.820747220483946D+02
 0.259506950124816D+03 0.220455351336345D+03 -.953311478518383D+02 0.366062308289618D+02
 0.000000000000000D+00 -.000000000000000D+00 0.000000000000000D+00 -.000000000000000D+00
 0.593833876718243D+03 0.000000000000000D+00 0.000000000000000D+00 0.593833876718243D+03
 0.637516966314494D+03 0.000000000000000D+00 0.000000000000000D+00 -.637516966314494D+03
 0.392834297134647D+03 -.343671322822591D+03 0.774315388750341D+02 0.154097202141102D+03
 0.206645386961854D+03 0.155749679109352D+03 -.815116959303655D+02 -.108628710921670D+03
 0.119842141728120D+03 0.850178321137777D+02 0.199461063201602D+02 -.820747220483946D+02
 0.310362375044850D+03 0.266010556019001D+03 -.126126604847824D+03 0.366062308289618D+02
 0.201666642163266D+03 -.163106744419539D+03 0.110260655582995D+03 -.436830895962512D+02
0.730475570059D-04 0.000000000000D+00 0.000000000000D+00 0.500770590836D-05 0.000000000000D+00  7 1 -2 -24 -11 11 23 21 0 0.13528500D+00 0.44678343D-01 0.20606500D+06 0.20606500D+06 0.20606500D+06 0.10968303D+01  1  2  2  2  7  2       -2 0.723794741052D-03 0.100000000000D+01
-.400142607577D-05 0.000000000000D+00 -.280521852766D-06 0.500770590836D-05 0.000000000000D+00  7 1 -2 -24 -11 11 23 21 2 0.13528500D+00 0.44678343D-01 0.20606500D+06 0.20606500D+06 0.20606500D+06 0.10968303D+01  1  2  3  2  7  2       -2 -.476983566594D-04 0.100000000000D+01
0.464766481696D-05 0.000000000000D+00 0.000000000000D+00 0.500770590836D-05 0.000000000000D+00  7 1 -2 -24 -11 11 23 21 2 0.13528500D+00 0.44678343D-01 0.20606500D+06 0.20606500D+06 0.20606500D+06 0.10968303D+01  1  2 15  2  7  2       -2 0.554017417478D-04 0.100000000000D+01
0.314648010011D-04 0.000000000000D+00 0.000000000000D+00 0.500770590836D-05 0.000000000000D+00  7 1 -2 -24 -11 11 23 21 2 0.13528500D+00 0.59425344D-01 0.31896494D+06 0.31896494D+06 0.31896494D+06 0.10825878D+01  1  2 12  2  7  2       -2 0.203844764554D-03 0.100000000000D+01
-.382947868208D-04 0.000000000000D+00 0.000000000000D+00 0.500770590836D-05 0.000000000000D+00  7 1 -2 -24 -11 11 23 21 2 0.13528500D+00 0.44678343D-01 0.20606500D+06 0.20606500D+06 0.20606500D+06 0.10968303D+01  1  2  4  2  7  2       -2 -.456486853784D-03 0.100000000000D+01
-.681637524133D-04 0.000000000000D+00 -.312575965133D-04 0.500770590836D-05 0.000000000000D+00  7 1 -2 -24 -11 11 23 21 2 0.13528500D+00 0.65217018D-01 0.20606500D+06 0.20606500D+06 0.20606500D+06 0.10968303D+01  1  2  5  2  7  2       -2 -.379211555051D-03 0.100000000000D+01
0.765547380576D-04 0.000000000000D+00 0.291477000331D-04 0.500770590836D-05 0.000000000000D+00  7 1 -2 -24 -11 11 23 21 2 0.13528500D+00 0.44678343D-01 0.20606500D+06 0.20606500D+06 0.20606500D+06 0.10968303D+01  1  2  6  2  7  2       -2 0.912558455584D-03 0.100000000000D+01
0.117263323051D-05 0.000000000000D+00 0.000000000000D+00 0.500770590836D-05 0.000000000000D+00  7 1 21 -24 -11 11 23 2 2 0.13528500D+00 0.59425344D-01 0.31896494D+06 0.31896494D+06 0.31896494D+06 0.10825878D+01  1  2 12  4  7  2       -2 0.766424853578D-04 0.100000000000D+01
-.212700420568D-05 0.000000000000D+00 -.142828154689D-05 0.500770590836D-05 0.000000000000D+00  7 1 21 -24 -11 11 23 2 2 0.13528500D+00 0.65217018D-01 0.20606500D+06 0.20606500D+06 0.20606500D+06 0.10968303D+01  1  2  5  4  7  2       -2 -.118892254791D-03 0.100000000000D+01
  </mgrwgt>
  </event>
  <event>
  9     66 0.29493621E-05 0.44080495E+03 0.75467711E-02 0.94166997E-01
        1 -1    0    0  501    0 0.00000000E+00 0.00000000E+00 0.20109894E+03 0.20109919E+03 0.32000000E+00 0.0000E+00 0.9000E+01
       21 -1    0    0  502  501 0.00000000E+00 0.00000000E+00 -.15901850E+04 0.15901852E+04 0.75000000E+00 0.0000E+00 0.9000E+01
       25  2    1    2    0    0 0.36295566E+03 0.26488009E+03 -.39066495E+03 0.66688032E+03 0.30035311E+03 0.0000E+00 0.0000E+00
       23  2    3    3    0    0 0.20256220E+03 0.18562265E+02 -.22991460E+03 0.31967079E+03 0.89177849E+02 0.0000E+00 0.0000E+00
      -24  1    1    2    0    0 -.33476346E+03 -.12084486E+03 -.78164755E+03 0.86261820E+03 0.80419002E+02 0.0000E+00 0.9000E+01
      -13  1    4    4    0    0 0.20545555E+03 0.22059614E+01 -.21389882E+03 0.29659664E+03 0.10565837E+00 0.0000E+00 0.9000E+01
       13  1    4    4    0    0 -.28933509E+01 0.16356303E+02 -.16015780E+02 0.23074152E+02 0.10565837E+00 0.0000E+00 0.9000E+01
       23  1    3    3    0    0 0.16039346E+03 0.24631783E+03 -.16075034E+03 0.34720953E+03 0.91188000E+02 0.0000E+00 0.9000E+01
        2  1    1    2  502    0 -.28192202E+02 -.14403523E+03 -.21677358E+03 0.26178586E+03 0.32000000E+00 0.0000E+00 0.9000E+01
#aMCatNLO 2  0  0  2  1 0.14676835D+03 0.00000000D+00  -5  7  0 0.00000000D+00 0.00000000D+00 0.00000000D+00 0.00000000D+00 0.00000000D+00
  <mgrwgt>
 0.5505015908D-04    2    2    0
 0.485671750170215D+03 0.000000000000000D+00 0.000000000000000D+00 0.485671750170215D+03
 0.485671750170215D+03 0.000000000000000D+00 0.000000000000000D+00 -.485671750170215D+03
 0.442564046327553D+03 -.347069929102512D+03 -.183719187513973D+03 -.187577833443690D+03
 0.202583467590324D+03 0.199552315800852D+03 -.279554373481062D+02 0.209147823826293D+02
 0.146619735196073D+02 -.334782265133673D+01 0.140359004487682D+02 0.259981721994685D+01
 0.311534012902945D+03 0.150865435952997D+03 0.197638724413311D+03 0.164063233841113D+03
 0.000000000000000D+00 -.000000000000000D+00 -.000000000000000D+00 -.000000000000000D+00
 0.553083064411608D+03 0.000000000000000D+00 0.000000000000000D+00 0.553083064411608D+03
 0.578185677428800D+03 0.000000000000000D+00 0.000000000000000D+00 -.578185677428800D+03
 0.410271509657630D+03 -.334763456022437D+03 -.120844861681686D+03 -.187577833443690D+03
 0.206529409774977D+03 0.205455841488395D+03 0.220594156384127D+01 0.209147823826293D+02
 0.168125406647294D+02 -.289364334467012D+01 0.163563230042664D+02 0.259981721994685D+01
 0.348755688157642D+03 0.160393459701685D+03 0.246317827338645D+03 0.164063233841113D+03
 0.148899593585430D+03 -.281922018229731D+02 -.144035230225067D+03 -.251026130171921D+02
-.106900694339D-04 0.000000000000D+00 0.000000000000D+00 0.297313632450D-05 0.000000000000D+00  7 1 21 -24 -13 13 23 2 2 0.27167472D-01 0.25659494D+00 0.27117129D+06 0.27117129D+06 0.27117129D+06 0.10878131D+01  1  2 13  4  7  2       -2 -.993099687801D-04 0.100000000000D+01
0.163329025927D-04 0.000000000000D+00 0.000000000000D+00 0.297313632450D-05 0.253763486311D-10  7 1 21 -24 -13 13 23 2 2 0.30938322D-01 0.24464381D+00 0.27117129D+06 0.27117129D+06 0.27117129D+06 0.10878131D+01  1  2  1  4  7  2       -2 0.154360127860D-03 0.100000000000D+01
  </mgrwgt>
  </event>
  <event>
  8     66 0.29493621E-05 0.86375129E+02 0.75467711E-02 0.99556845E-01
        1 -1    0    0  501    0 0.00000000E+00 0.00000000E+00 0.22520776E+04 0.22520776E+04 0.32000000E+00 0.0000E+00 0.9000E+01
       -2 -1    0    0    0  501 0.00000000E+00 0.00000000E+00 -.31546401E+02 0.31548024E+02 0.32000000E+00 0.0000E+00 0.9000E+01
       25  2    1    2    0    0 0.58135763E+02 -.15098231E+03 0.16579182E+04 0.16927144E+04 0.30068931E+03 0.0000E+00 0.0000E+00
       23  2    3    3    0    0 0.38574894E+02 -.18060476E+03 0.68939233E+03 0.71925788E+03 0.89241250E+02 0.0000E+00 0.0000E+00
      -24  1    1    2    0    0 -.58135763E+02 0.15098231E+03 0.56261298E+03 0.59091117E+03 0.80419002E+02 0.0000E+00 0.9000E+01
      -13  1    4    4    0    0 0.27179273E+02 -.18382564E+03 0.57562415E+03 0.60487499E+03 0.10565837E+00 0.0000E+00 0.9000E+01
       13  1    4    4    0    0 0.11395621E+02 0.32208777E+01 0.11376818E+03 0.11438289E+03 0.10565837E+00 0.0000E+00 0.9000E+01
       23  1    3    3    0    0 0.19560869E+02 0.29622448E+02 0.96852584E+03 0.97345656E+03 0.91188000E+02 0.0000E+00 0.9000E+01
#aMCatNLO 1  0  0  1  2 0.16319069D+03 0.00000000D+00  -5  7  0 0.00000000D+00 0.00000000D+00 0.00000000D+00 0.00000000D+00 0.00000000D+00
  <mgrwgt>
 0.1914599064D-02    7    2    0
 0.266546096324559D+03 0.000000000000000D+00 0.000000000000000D+00 0.266546096324559D+03
 0.266546096324559D+03 0.000000000000000D+00 0.000000000000000D+00 -.266546096324559D+03
 0.187810331896040D+03 -.581357642928273D+02 0.150982317028257D+03 -.512842828496028D+02
 0.193431428568924D+03 0.271792955923534D+02 -.183825901391263D+03 -.537125816453436D+02
 0.160980826991130D+02 0.113955986280440D+02 0.322113940809798D+01 0.109047173007650D+02
 0.135752349485041D+03 0.195608700724300D+02 0.296224449549090D+02 0.940921471941814D+02
 0.000000000000000D+00 0.000000000000000D+00 0.000000000000000D+00 0.000000000000000D+00
 0.628984828782820D+03 0.000000000000000D+00 0.000000000000000D+00 0.628984828782820D+03
 0.297765315984843D+03 0.000000000000000D+00 0.000000000000000D+00 -.297765315984843D+03
 0.167149078545228D+03 -.868469273608685D+02 0.106297375530754D+03 -.512842828496028D+02
 0.245136964152917D+03 -.829464387659031D+01 -.239036165987620D+03 -.537125816453436D+02
 0.141201891138876D+02 0.895137062862596D+01 -.582962324099923D+00 0.109047173007650D+02
 0.131104741812504D+03 -.202406961005996D+01 -.397151864222628D+01 0.940921471941814D+02
 0.369239171143127D+03 0.882142702188928D+02 0.137293271423193D+03 0.331219512797977D+03
0.429553490715D-04 0.000000000000D+00 0.000000000000D+00 0.328708656706D-06 0.000000000000D+00  7 1 -2 -24 -13 13 23 21 0 0.34647360D+00 0.48534191D-02 0.56689939D+05 0.56689939D+05 0.56689939D+05 0.11425291D+01  1  2  2  1  7  1        1 0.189111778441D-02 0.100000000000D+01
-.234944313601D-05 0.000000000000D+00 -.164959850838D-06 0.328708656706D-06 0.000000000000D+00  7 1 -2 -24 -13 13 23 21 2 0.34647360D+00 0.48534191D-02 0.56689939D+05 0.56689939D+05 0.56689939D+05 0.11425291D+01  1  2  3  1  7  1        1 -.135020840581D-03 0.100000000000D+01
0.278215582045D-05 0.000000000000D+00 0.000000000000D+00 0.328708656706D-06 0.000000000000D+00  7 1 -2 -24 -13 13 23 21 2 0.34647360D+00 0.48534191D-02 0.56689939D+05 0.56689939D+05 0.56689939D+05 0.11425291D+01  1  2 15  1  7  1        1 0.159888533477D-03 0.100000000000D+01
0.102559498866D-04 0.000000000000D+00 0.000000000000D+00 0.328708656706D-06 0.000000000000D+00  7 1 -2 -24 -13 13 23 21 2 0.80992622D+00 0.48534191D-02 0.10947004D+06 0.10947004D+06 0.10947004D+06 0.11185116D+01  1  2 12  1  7  1        1 0.766535438078D-06 0.100000000000D+01
-.365538084222D-04 0.000000000000D+00 -.941205350298D-05 0.328708656706D-06 0.000000000000D+00  7 1 -2 -24 -13 13 23 21 2 0.82334657D+00 0.48534191D-02 0.56689939D+05 0.56689939D+05 0.56689939D+05 0.11425291D+01  1  2  5  1  7  1        1 -.215027293423D-05 0.100000000000D+01
0.949552497896D-06 0.000000000000D+00 0.000000000000D+00 0.328708656706D-06 0.000000000000D+00  7 21 -2 -24 -13 13 23 -1 2 0.80992622D+00 0.48534191D-02 0.10947004D+06 0.10947004D+06 0.10947004D+06 0.11185116D+01  1  2 12  3  7  1        1 0.215093006748D-08 0.100000000000D+01
-.286416139503D-05 0.000000000000D+00 -.890139503303D-06 0.328708656706D-06 0.000000000000D+00  7 21 -2 -24 -13 13 23 -1 2 0.82334657D+00 0.48534191D-02 0.56689939D+05 0.56689939D+05 0.56689939D+05 0.11425291D+01  1  2  5  3  7  1        1 -.482644075022D-08 0.100000000000D+01
  </mgrwgt>
  </event>
  <event>
  8     66 0.29493621E-05 0.75830409E+03 0.75467711E-02 0.82141245E-01
        1 -1    0    0  501    0 0.00000000E+00 0.00000000E+00 0.16071553E+04 0.16071554E+04 0.32000000E+00 0.0000E+00 0.9000E+01
       -2 -1    0    0    0  501 0.00000000E+00 0.00000000E+00 -.36704956E+03 0.36704970E+03 0.32000000E+00 0.0000E+00 0.9000E+01
       25  2    1    2    0    0 0.66737537E+03 0.29601480E+03 0.76449858E+03 0.10991713E+04 0.30117246E+03 0.0000E+00 0.0000E+00
       23  2    3    3    0    0 0.55388574E+03 0.31184807E+03 0.60223170E+03 0.88059322E+03 0.93395833E+02 0.0000E+00 0.0000E+00
      -24  1    1    2    0    0 -.66737537E+03 -.29601480E+03 0.47560719E+03 0.87503375E+03 0.80419002E+02 0.0000E+00 0.9000E+01
      -13  1    4    4    0    0 0.50236213E+03 0.28077976E+03 0.50195528E+03 0.76365181E+03 0.10565837E+00 0.0000E+00 0.9000E+01
       13  1    4    4    0    0 0.51523610E+02 0.31068307E+02 0.10027642E+03 0.11694141E+03 0.10565837E+00 0.0000E+00 0.9000E+01
       23  1    3    3    0    0 0.11348964E+03 -.15833269E+02 0.16226689E+03 0.21857810E+03 0.91188000E+02 0.0000E+00 0.9000E+01
#aMCatNLO 1  0  0  1  2 0.14639492D+04 0.00000000D+00  -5  7  0 0.00000000D+00 0.00000000D+00 0.00000000D+00 0.00000000D+00 0.00000000D+00
  <mgrwgt>
 0.1184558011D-02    3    2    0
 0.768053274894708D+03 0.000000000000000D+00 0.000000000000000D+00 0.768053274894708D+03
 0.768053274894708D+03 0.000000000000000D+00 0.000000000000000D+00 -.768053274894708D+03
 0.740634071000963D+03 -.667375374506019D+03 -.296014798232166D+03 -.951680613630982D+02
 0.576215653862430D+03 0.502362702643824D+03 0.280780080066460D+03 0.286136573400336D+02
 0.693389149585754D+02 0.515230334682291D+02 0.310679869378600D+02 0.344679900413883D+02
 0.149917909967448D+03 0.113489638393966D+03 -.158332687721542D+02 0.320864139816764D+02
 0.000000000000000D+00 -.000000000000000D+00 -.000000000000000D+00 -.000000000000000D+00
 0.168624822771112D+04 0.000000000000000D+00 0.000000000000000D+00 0.168624822771112D+04
 0.191788687164690D+04 0.000000000000000D+00 0.000000000000000D+00 -.191788687164690D+04
 0.328031331310929D+03 -.269021954310388D+03 -.140383640651818D+03 -.951680613630982D+02
 0.133929849368033D+04 0.121638564233667D+04 0.559738941744485D+03 0.286136573400336D+02
 0.152295345595580D+03 0.134138944429020D+03 0.633448777728089D+02 0.344679900413883D+02
 0.302348099517613D+03 0.282075344758981D+03 0.500308290438076D+02 0.320864139816764D+02
 0.148216182925356D+04 -.136357797721429D+04 -.532731007909284D+03 -.231638643935782D+03
0.655971507172D-03 0.000000000000D+00 0.000000000000D+00 0.144218795847D-05 0.000000000000D+00  7 1 -2 -24 -13 13 23 21 0 0.24725468D+00 0.56469177D-01 0.57502509D+06 0.57502509D+06 0.57502509D+06 0.10642455D+01  1  2  2  1  7  1        1 0.117467146012D-02 0.100000000000D+01
-.364356306496D-04 0.000000000000D+00 -.251910330880D-05 0.144218795847D-05 0.000000000000D+00  7 1 -2 -24 -13 13 23 21 2 0.24725468D+00 0.56469177D-01 0.57502509D+06 0.57502509D+06 0.57502509D+06 0.10642455D+01  1  2  3  1  7  1        1 -.738994842401D-04 0.100000000000D+01
0.413101264527D-04 0.000000000000D+00 0.000000000000D+00 0.144218795847D-05 0.000000000000D+00  7 1 -2 -24 -13 13 23 21 2 0.24725468D+00 0.56469177D-01 0.57502509D+06 0.57502509D+06 0.57502509D+06 0.10642455D+01  1  2 15  1  7  1        1 0.837860353812D-04 0.100000000000D+01
  </mgrwgt>
  </event>
  <event>
  9     66 0.29493621E-05 0.19006306E+03 0.75467711E-02 0.10476740E+00
        1 -1    0    0  501    0 0.00000000E+00 0.00000000E+00 0.15779774E+04 0.15779774E+04 0.32000000E+00 0.0000E+00 0.9000E+01
       21 -1    0    0  502  501 0.00000000E+00 0.00000000E+00 -.48517083E+02 0.48522880E+02 0.75000000E+00 0.0000E+00 0.9000E+01
       25  2    1    2    0    0 0.17428669E+02 0.60652453E+02 0.56622830E+03 0.64353773E+03 0.29923878E+03 0.0000E+00 0.0000E+00
       23  2    3    3    0    0 0.53424694E+02 0.12757057E+03 0.44072430E+03 0.47079441E+03 0.91000130E+02 0.0000E+00 0.0000E+00
      -24  1    1    2    0    0 -.58272987E+02 -.13655841E+02 0.28961606E+03 0.30647496E+03 0.80419002E+02 0.0000E+00 0.9000E+01
      -13  1    4    4    0    0 -.24622583E+02 0.16678084E+02 0.70432644E+02 0.76453898E+02 0.10565837E+00 0.0000E+00 0.9000E+01
       13  1    4    4    0    0 0.78047277E+02 0.11089249E+03 0.37029166E+03 0.39434052E+03 0.10565837E+00 0.0000E+00 0.9000E+01
       23  1    3    3    0    0 -.35996026E+02 -.66918119E+02 0.12550400E+03 0.17274332E+03 0.91188000E+02 0.0000E+00 0.9000E+01
        2  1    1    2  502    0 0.40844318E+02 -.46996612E+02 0.67361597E+03 0.67648763E+03 0.32000000E+00 0.0000E+00 0.9000E+01
#aMCatNLO 2  0  0  2  2 0.62265078D+02 0.00000000D+00  -5  7  0 0.00000000D+00 0.00000000D+00 0.00000000D+00 0.00000000D+00 0.00000000D+00
  <mgrwgt>
 0.7489922724D-03    1    2    0
 0.203824438823554D+03 0.000000000000000D+00 0.000000000000000D+00 0.203824438823554D+03
 0.203824438823554D+03 0.000000000000000D+00 0.000000000000000D+00 -.203824438823554D+03
 0.101927184293067D+03 -.479675757417224D+02 -.255136070681994D+02 0.311464681043298D+02
 0.259125523140141D+02 -.218400337822162D+02 0.134761200953665D+02 0.358712684378848D+01
 0.136619403606695D+03 0.918234883839774D+02 0.950414845998518D+02 0.346471445851288D+02
 0.143189737433331D+03 -.220158788600388D+02 -.830039976270190D+02 -.693807395332471D+02
 0.000000000000000D+00 0.000000000000000D+00 -.000000000000000D+00 0.000000000000000D+00
 0.360339625670027D+03 0.000000000000000D+00 0.000000000000000D+00 0.360339625670027D+03
 0.212475910156041D+03 0.000000000000000D+00 0.000000000000000D+00 -.212475910156041D+03
 0.104974031936101D+03 -.582730336189621D+02 -.136558596953938D+02 0.311464681043298D+02
 0.299549610076613D+02 -.246227158550221D+02 0.166779517297515D+02 0.358712684378848D+01
 0.139960693431414D+03 0.780474236915782D+02 0.110892609009828D+03 0.346471445851288D+02
 0.137487019228443D+03 -.359959923925487D+02 -.669180889283124D+02 -.693807395332471D+02
 0.160438830222449D+03 0.408443181749548D+02 -.469966121158734D+02 0.147863715513986D+03
0.574047477831D-06 0.000000000000D+00 0.000000000000D+00 0.341238094015D-06 0.718234575847D-11  7 1 21 -24 -13 13 23 2 2 0.24276603D+00 0.74646096D-02 0.49852381D+05 0.49852381D+05 0.49852381D+05 0.11474084D+01  1  2  1  4  7  2       -2 0.748992272441D-03 0.100000000000D+01
  </mgrwgt>
  </event>
  <event>
  8     66 0.29493621E-05 0.16600085E+03 0.75467711E-02 0.95089765E-01
        1 -1    0    0  501    0 0.00000000E+00 0.00000000E+00 0.15094602E+04 0.15094602E+04 0.32000000E+00 0.0000E+00 0.9000E+01
       -2 -1    0    0    0  501 0.00000000E+00 0.00000000E+00 -.27411912E+02 0.27413780E+02 0.32000000E+00 0.0000E+00 0.9000E+01
       25  2    1    2    0    0 0.32454507E+02 -.13188196E+02 0.13093581E+04 0.13431827E+04 0.29747907E+03 0.0000E+00 0.0000E+00
       23  2    3    3    0    0 0.92940994E+02 0.15891781E+02 0.10739880E+04 0.10819958E+04 0.91509706E+02 0.0000E+00 0.0000E+00
      -24  1    1    2    0    0 -.32454507E+02 0.13188196E+02 0.17269016E+03 0.19369133E+03 0.80419002E+02 0.0000E+00 0.9000E+01
      -11  1    4    4    0    0 0.63920770E+02 -.34703176E+02 0.63406164E+03 0.63821966E+03 0.51099893E-03 0.0000E+00 0.9000E+01
       11  1    4    4    0    0 0.29020224E+02 0.50594956E+02 0.43992637E+03 0.44377610E+03 0.51099893E-03 0.0000E+00 0.9000E+01
       23  1    3    3    0    0 -.60486487E+02 -.29079977E+02 0.23537012E+03 0.26118691E+03 0.91188000E+02 0.0000E+00 0.9000E+01
#aMCatNLO 1  0  0  1  2 0.43875117D+03 0.00000000D+00  -5  7  0 0.00000000D+00 0.00000000D+00 0.00000000D+00 0.00000000D+00 0.00000000D+00
  <mgrwgt>
 0.5482709883D-02    3    2    0
 0.203417432210316D+03 0.000000000000000D+00 0.000000000000000D+00 0.203417432210316D+03
 0.203417432210316D+03 0.000000000000000D+00 0.000000000000000D+00 -.203417432210316D+03
 0.102606777427988D+03 -.324545076928680D+02 0.131881963461773D+02 -.532326143199296D+02
 0.101154673304675D+03 0.639207700757276D+02 -.347031758019039D+02 0.703000190153861D+02
 0.738280993083383D+02 0.290202241714764D+02 0.505949561806495D+02 0.452610787056304D+02
 0.129245314379630D+03 -.604864865543360D+02 -.290799767249229D+02 -.623284834010869D+02
 0.000000000000000D+00 0.000000000000000D+00 -.000000000000000D+00 -.000000000000000D+00
 0.337246932572041D+03 0.000000000000000D+00 0.000000000000000D+00 0.337246932572041D+03
 0.156316763123870D+04 0.000000000000000D+00 0.000000000000000D+00 -.156316763123870D+04
 0.185590343554557D+03 -.120664625444976D+03 0.102873206449576D+03 -.532326143199296D+02
 0.737502006438758D+02 0.103866491455129D+02 0.197260472719779D+02 0.703000190153861D+02
 0.125536632037548D+03 -.320004632236040D+02 0.112635922738744D+03 0.452610787056304D+02
 0.213468207224062D+03 -.165382746422707D+03 0.775701714195482D+02 -.623284834010869D+02
 0.130206918035070D+04 0.307661185945774D+03 -.312805347879846D+03 -.122592069866666D+04
0.327568262616D-04 0.000000000000D+00 0.000000000000D+00 0.341874665064D-07 0.000000000000D+00  7 1 -2 -24 -11 11 23 21 0 0.23222479D+00 0.42173636D-02 0.27556281D+05 0.27556281D+05 0.27556281D+05 0.11707752D+01  1  2  2  1  7  1        1 0.540260717500D-02 0.100000000000D+01
-.172840270217D-05 0.000000000000D+00 -.125794837915D-06 0.341874665064D-07 0.000000000000D+00  7 1 -2 -24 -11 11 23 21 2 0.23222479D+00 0.42173636D-02 0.27556281D+05 0.27556281D+05 0.27556281D+05 0.11707752D+01  1  2  3  1  7  1        1 -.390745083130D-03 0.100000000000D+01
0.208272510521D-05 0.000000000000D+00 0.000000000000D+00 0.341874665064D-07 0.000000000000D+00  7 1 -2 -24 -11 11 23 21 2 0.23222479D+00 0.42173636D-02 0.27556281D+05 0.27556281D+05 0.27556281D+05 0.11707752D+01  1  2 15  1  7  1        1 0.470847791057D-03 0.100000000000D+01
  </mgrwgt>
  </event>
  <event>
  8     66 0.29493621E-05 0.36449774E+03 0.75467711E-02 0.97675042E-01
        1 -1    0    0  501    0 0.00000000E+00 0.00000000E+00 0.94147385E+03 0.94147390E+03 0.32000000E+00 0.0000E+00 0.9000E+01
       -2 -1    0    0    0  501 0.00000000E+00 0.00000000E+00 -.22457957E+03 0.22457980E+03 0.32000000E+00 0.0000E+00 0.9000E+01
       25  2    1    2    0    0 -.28696147E+03 -.15479245E+03 0.86666018E+02 0.45193714E+03 0.30071348E+03 0.0000E+00 0.0000E+00
       23  2    3    3    0    0 -.24227662E+03 -.12818967E+03 -.34662504E+02 0.29149929E+03 0.92950492E+02 0.0000E+00 0.0000E+00
      -24  1    1    2    0    0 0.28696147E+03 0.15479245E+03 0.63022826E+03 0.71411656E+03 0.80419002E+02 0.0000E+00 0.9000E+01
      -13  1    4    4    0    0 -.23582097E+03 -.14035504E+03 -.38707572E+02 0.27714500E+03 0.10565837E+00 0.0000E+00 0.9000E+01
       13  1    4    4    0    0 -.64556507E+01 0.12165371E+02 0.40450685E+01 0.14354282E+02 0.10565837E+00 0.0000E+00 0.9000E+01
       23  1    3    3    0    0 -.44684848E+02 -.26602785E+02 0.12132852E+03 0.16043786E+03 0.91188000E+02 0.0000E+00 0.9000E+01
#aMCatNLO 1  0  0  2  1 0.42469572D+02 0.00000000D+00  -5  7  0 0.00000000D+00 0.00000000D+00 0.00000000D+00 0.00000000D+00 0.00000000D+00
  <mgrwgt>
 0.1128439220D-02    4    2    0
 0.459821658971324D+03 0.000000000000000D+00 0.000000000000000D+00 0.459821658971324D+03
 0.459821658971324D+03 0.000000000000000D+00 0.000000000000000D+00 -.459821658971324D+03
 0.414172777064341D+03 0.286961467392348D+03 0.154792452455934D+03 0.242413461263037D+03
 0.381577970814274D+03 -.235821265292337D+03 -.140355235297694D+03 -.265123530776106D+03
 0.150466403017135D+02 -.645535437752056D+01 0.121655681806245D+02 -.606042367102761D+01
 0.108845929762320D+03 -.446848477224898D+02 -.266027853388640D+02 0.287704931840974D+02
 0.000000000000000D+00 -.000000000000000D+00 -.000000000000000D+00 0.000000000000000D+00
 0.541154391635161D+03 0.000000000000000D+00 0.000000000000000D+00 0.541154391635161D+03
 0.465889413344838D+03 0.000000000000000D+00 0.000000000000000D+00 -.465889413344838D+03
 0.429116620025716D+03 0.300974288652013D+03 0.168297501457428D+03 0.242413461263037D+03
 0.369645346985132D+03 -.223338293118442D+03 -.128324599370153D+03 -.265123530776106D+03
 0.152378906466374D+02 -.595212058781986D+01 0.126505666590307D+02 -.606042367102761D+01
 0.106623570667434D+03 -.411044213506531D+02 -.231521002339965D+02 0.287704931840974D+02
 0.864203766550797D+02 -.305794535950979D+02 -.294713685123088D+02 0.752649782903230D+02
0.898157932425D-04 0.000000000000D+00 0.000000000000D+00 0.191494756519D-05 0.000000000000D+00  7 1 -2 -24 -13 13 23 21 0 0.14484215D+00 0.34550725D-01 0.13285860D+06 0.13285860D+06 0.13285860D+06 0.11117350D+01  1  2  2  2  7  2       -2 0.129811115410D-02 0.100000000000D+01
-.466232849689D-05 0.000000000000D+00 -.344916295093D-06 0.191494756519D-05 0.000000000000D+00  7 1 -2 -24 -13 13 23 21 2 0.14484215D+00 0.34550725D-01 0.13285860D+06 0.13285860D+06 0.13285860D+06 0.11117350D+01  1  2  3  2  7  2       -2 -.832845747365D-04 0.100000000000D+01
0.567661704676D-05 0.000000000000D+00 0.000000000000D+00 0.191494756519D-05 0.000000000000D+00  7 1 -2 -24 -13 13 23 21 2 0.14484215D+00 0.34550725D-01 0.13285860D+06 0.13285860D+06 0.13285860D+06 0.11117350D+01  1  2 15  2  7  2       -2 0.101403115846D-03 0.100000000000D+01
-.105126416058D-04 0.000000000000D+00 0.000000000000D+00 0.191494756519D-05 0.000000000000D+00  7 1 -2 -24 -13 13 23 21 2 0.14484215D+00 0.34550725D-01 0.13285860D+06 0.13285860D+06 0.13285860D+06 0.11117350D+01  1  2  4  2  7  2       -2 -.187790475527D-03 0.100000000000D+01
  </mgrwgt>
  </event>
  <event>
  8     66 0.29493621E-05 0.14079121E+03 0.75467711E-02 0.96146693E-01
        1 -1    0    0  501    0 0.00000000E+00 0.00000000E+00 0.91829937E+03 0.91829942E+03 0.32000000E+00 0.0000E+00 0.9000E+01
       -2 -1    0    0    0  501 0.00000000E+00 0.00000000E+00 -.22684288E+03 0.22684311E+03 0.32000000E+00 0.0000E+00 0.9000E+01
       25  2    1    2    0    0 0.33665985E+03 -.12135743E+03 0.61215312E+03 0.76987766E+03 0.29985445E+03 0.0000E+00 0.0000E+00
       23  2    3    3    0    0 0.12332127E+03 -.15290947E+03 0.22020583E+03 0.31331790E+03 0.10529986E+03 0.0000E+00 0.0000E+00
      -24  1    1    2    0    0 -.33665985E+03 0.12135743E+03 0.79303364E+02 0.37526487E+03 0.80419002E+02 0.0000E+00 0.9000E+01
      -11  1    4    4    0    0 0.64820595E+02 -.95501280E+01 0.88038508E+02 0.10974376E+03 0.51099893E-03 0.0000E+00 0.9000E+01
       11  1    4    4    0    0 0.58500677E+02 -.14335934E+03 0.13216732E+03 0.20357414E+03 0.51099893E-03 0.0000E+00 0.9000E+01
       23  1    3    3    0    0 0.21333858E+03 0.31552038E+02 0.39194730E+03 0.45655976E+03 0.91188000E+02 0.0000E+00 0.9000E+01
#aMCatNLO 1  0  0  1  2 0.53359421D+02 0.00000000D+00  -5  7  0 0.00000000D+00 0.00000000D+00 0.00000000D+00 0.00000000D+00 0.00000000D+00
  <mgrwgt>
 0.1535668770D-02    9    2    0
 0.456409723828608D+03 0.000000000000000D+00 0.000000000000000D+00 0.456409723828608D+03
 0.456409723828608D+03 0.000000000000000D+00 0.000000000000000D+00 -.456409723828608D+03
 0.410702178477748D+03 -.336659851156588D+03 0.121357433303880D+03 -.184774406921294D+03
 0.709860557795868D+02 0.648205948235399D+02 -.955012803959953D+01 0.273149346748685D+02
 0.155269978972614D+03 0.585006765997742D+02 -.143359343263423D+03 0.115989614450918D+02
 0.275861234427267D+03 0.213338579733274D+03 0.315520379991422D+02 0.145860510801334D+03
 0.000000000000000D+00 -.000000000000000D+00 -.000000000000000D+00 0.000000000000000D+00
 0.526917249915220D+03 0.000000000000000D+00 0.000000000000000D+00 0.526917249915220D+03
 0.467397126992474D+03 0.000000000000000D+00 0.000000000000000D+00 -.467397126992474D+03
 0.392210752534572D+03 -.313259256301011D+03 0.122837760228630D+03 -.184774406921294D+03
 0.748535575799025D+02 0.690710354059536D+02 -.928124420672985D+01 0.273149346748685D+02
 0.158418833803488D+03 0.676430188575401D+02 -.142780996623819D+03 0.115989614450918D+02
 0.288894552585277D+03 0.229798174359009D+03 0.325932756790101D+02 0.145860510801334D+03
 0.799366804044543D+02 -.532529723214917D+02 -.336879507709159D+01 0.595201229227467D+02
0.653994364709D-04 0.000000000000D+00 0.000000000000D+00 0.104698482970D-06 0.000000000000D+00  7 1 -2 -24 -11 11 23 21 0 0.14127685D+00 0.34898927D-01 0.16863003D+06 0.16863003D+06 0.16863003D+06 0.11035618D+01  1  2  2  1  7  1        1 0.961931692469D-03 0.100000000000D+01
-.358398442842D-05 0.000000000000D+00 -.251151056115D-06 0.104698482970D-06 0.000000000000D+00  7 1 -2 -24 -11 11 23 21 2 0.14127685D+00 0.34898927D-01 0.16863003D+06 0.16863003D+06 0.16863003D+06 0.11035618D+01  1  2  3  1  7  1        1 -.641992095916D-04 0.100000000000D+01
0.429647433436D-05 0.000000000000D+00 0.000000000000D+00 0.104698482970D-06 0.000000000000D+00  7 1 -2 -24 -11 11 23 21 2 0.14127685D+00 0.34898927D-01 0.16863003D+06 0.16863003D+06 0.16863003D+06 0.11035618D+01  1  2 15  1  7  1        1 0.769619014272D-04 0.100000000000D+01
0.205084682484D-03 0.000000000000D+00 0.000000000000D+00 0.104698482970D-06 0.000000000000D+00  7 1 -2 -24 -11 11 23 21 2 0.16462778D+00 0.34898927D-01 0.19200729D+06 0.19200729D+06 0.19200729D+06 0.10991883D+01  1  2 12  1  7  1        1 0.278046353388D-02 0.100000000000D+01
-.208378795368D-03 0.000000000000D+00 0.000000000000D+00 0.104698482970D-06 0.000000000000D+00  7 1 -2 -24 -11 11 23 21 2 0.14127685D+00 0.34898927D-01 0.16863003D+06 0.16863003D+06 0.16863003D+06 0.11035618D+01  1  2  4  1  7  1        1 -.373264846024D-02 0.100000000000D+01
-.346461813497D-03 0.000000000000D+00 -.547302756764D-04 0.104698482970D-06 0.000000000000D+00  7 1 -2 -24 -11 11 23 21 2 0.16508249D+00 0.34898927D-01 0.16863003D+06 0.16863003D+06 0.16863003D+06 0.11035618D+01  1  2  5  1  7  1        1 -.472958826606D-02 0.100000000000D+01
0.351372590920D-03 0.000000000000D+00 0.540733128798D-04 0.104698482970D-06 0.000000000000D+00  7 1 -2 -24 -11 11 23 21 2 0.14127685D+00 0.34898927D-01 0.16863003D+06 0.16863003D+06 0.16863003D+06 0.11035618D+01  1  2  6  1  7  1        1 0.629406825273D-02 0.100000000000D+01
0.475277885335D-05 0.000000000000D+00 0.000000000000D+00 0.104698482970D-06 0.000000000000D+00  7 21 -2 -24 -11 11 23 -1 2 0.16462778D+00 0.34898927D-01 0.19200729D+06 0.19200729D+06 0.19200729D+06 0.10991883D+01  1  2 12  3  7  1        1 0.798749977258D-04 0.100000000000D+01
-.773932145276D-05 0.000000000000D+00 -.128674478723D-05 0.104698482970D-06 0.000000000000D+00  7 21 -2 -24 -11 11 23 -1 2 0.16508249D+00 0.34898927D-01 0.16863003D+06 0.16863003D+06 0.16863003D+06 0.11035618D+01  1  2  5  3  7  1        1 -.131195672480D-03 0.100000000000D+01
  </mgrwgt>
  </event>
  <event>
  8     66 0.29493621E-05 0.93508295E+02 0.75467711E-02 0.10237661E+00
        1 -1    0    0  501    0 0.00000000E+00 0.00000000E+00 0.78323755E+03 0.78323762E+03 0.32000000E+00 0.0000E+00 0.9000E+01
       -2 -1    0    0    0  501 0.00000000E+00 0.00000000E+00 -.10057185E+03 0.10057236E+03 0.32000000E+00 0.0000E+00 0.9000E+01
       25  2    1    2    0    0 0.33919438E+01 -.13553483E+03 0.64093439E+03 0.72074584E+03 0.30049371E+03 0.0000E+00 0.0000E+00
       23  2    3    3    0    0 0.84927278E+02 -.16281624E+03 0.38575601E+03 0.43645102E+03 0.89218948E+02 0.0000E+00 0.0000E+00
      -24  1    1    2    0    0 -.33919438E+01 0.13553483E+03 0.41731307E+02 0.16306414E+03 0.80419002E+02 0.0000E+00 0.9000E+01
      -11  1    4    4    0    0 0.15031223E+02 -.23355407E+02 0.98623671E+01 0.29473360E+02 0.51099893E-03 0.0000E+00 0.9000E+01
       11  1    4    4    0    0 0.69896055E+02 -.13946083E+03 0.37589364E+03 0.40697766E+03 0.51099893E-03 0.0000E+00 0.9000E+01
       23  1    3    3    0    0 -.81535334E+02 0.27281404E+02 0.25517838E+03 0.28429482E+03 0.91188000E+02 0.0000E+00 0.9000E+01
#aMCatNLO 1  0  0  1  2 0.60493270D+02 0.00000000D+00  -5  7  0 0.00000000D+00 0.00000000D+00 0.00000000D+00 0.00000000D+00 0.00000000D+00
  <mgrwgt>
 0.1217119773D-02    9    2    0
 0.280663329458508D+03 0.000000000000000D+00 0.000000000000000D+00 0.280663329458508D+03
 0.280663329458508D+03 0.000000000000000D+00 0.000000000000000D+00 -.280663329458508D+03
 0.205992681310498D+03 -.339194384221177D+01 0.135534833151515D+03 -.132606834358867D+03
 0.344116030232479D+02 0.150312225742411D+02 -.233554068669305D+02 -.203161448270424D+02
 0.183638554037991D+03 0.698960550252829D+02 -.139460830457095D+03 0.968934300625380D+02
 0.137283820545279D+03 -.815353337573122D+02 0.272814041725104D+02 0.560295491233712D+02
 0.000000000000000D+00 -.000000000000000D+00 -.000000000000000D+00 0.000000000000000D+00
 0.464367491929121D+03 0.000000000000000D+00 0.000000000000000D+00 0.464367491929121D+03
 0.287312955171371D+03 0.000000000000000D+00 0.000000000000000D+00 -.287312955171371D+03
 0.221042980655950D+03 0.333387378474898D+01 0.157470937349734D+03 -.132606834358867D+03
 0.326793067978426D+02 0.160879053388740D+02 -.199090595951086D+02 -.203161448270424D+02
 0.172540751528258D+03 0.755058840515161D+02 -.121164498192545D+03 0.968934300625380D+02
 0.138313841294417D+03 -.771946667427240D+02 0.414383928395973D+02 0.560295491233712D+02
 0.187103566824024D+03 -.177329964324151D+02 -.578357724016776D+02 0.177054536757749D+03
0.153858658428D-04 0.000000000000D+00 0.000000000000D+00 0.530523403125D-06 0.000000000000D+00  7 1 -2 -24 -11 11 23 21 0 0.12049813D+00 0.15472637D-01 0.54460137D+05 0.54460137D+05 0.54460137D+05 0.11440456D+01  1  2  2  1  7  1        1 0.117796211217D-02 0.100000000000D+01
-.819376349244D-06 0.000000000000D+00 -.590857760278D-07 0.530523403125D-06 0.000000000000D+00  7 1 -2 -24 -11 11 23 21 2 0.12049813D+00 0.15472637D-01 0.54460137D+05 0.54460137D+05 0.54460137D+05 0.11440456D+01  1  2  3  1  7  1        1 -.821068598914D-04 0.100000000000D+01
0.100003387260D-05 0.000000000000D+00 0.000000000000D+00 0.530523403125D-06 0.000000000000D+00  7 1 -2 -24 -11 11 23 21 2 0.12049813D+00 0.15472637D-01 0.54460137D+05 0.54460137D+05 0.54460137D+05 0.11440456D+01  1  2 15  1  7  1        1 0.100209923242D-03 0.100000000000D+01
0.601350271156D-04 0.000000000000D+00 0.000000000000D+00 0.530523403125D-06 0.000000000000D+00  7 1 -2 -24 -11 11 23 21 2 0.19998950D+00 0.15472637D-01 0.70798877D+05 0.70798877D+05 0.70798877D+05 0.11342409D+01  1  2 12  1  7  1        1 0.243437745045D-02 0.100000000000D+01
-.568542748653D-04 0.000000000000D+00 0.000000000000D+00 0.530523403125D-06 0.000000000000D+00  7 1 -2 -24 -11 11 23 21 2 0.12049813D+00 0.15472637D-01 0.54460137D+05 0.54460137D+05 0.54460137D+05 0.11440456D+01  1  2  4  1  7  1        1 -.569716954229D-02 0.100000000000D+01
-.630241045104D-04 0.000000000000D+00 -.531898334729D-05 0.530523403125D-06 0.000000000000D+00  7 1 -2 -24 -11 11 23 21 2 0.20099339D+00 0.15472637D-01 0.54460137D+05 0.54460137D+05 0.54460137D+05 0.11440456D+01  1  2  5  1  7  1        1 -.258218949515D-02 0.100000000000D+01
0.585420665324D-04 0.000000000000D+00 0.469142604320D-05 0.530523403125D-06 0.000000000000D+00  7 1 -2 -24 -11 11 23 21 2 0.12049813D+00 0.15472637D-01 0.54460137D+05 0.54460137D+05 0.54460137D+05 0.11440456D+01  1  2  6  1  7  1        1 0.586629728691D-02 0.100000000000D+01
0.342626477692D-05 0.000000000000D+00 0.000000000000D+00 0.530523403125D-06 0.000000000000D+00  7 21 -2 -24 -11 11 23 -1 2 0.19998950D+00 0.15472637D-01 0.70798877D+05 0.70798877D+05 0.70798877D+05 0.11342409D+01  1  2 12  3  7  1        1 0.139289744635D-03 0.100000000000D+01
-.337308813473D-05 0.000000000000D+00 -.305447881819D-06 0.530523403125D-06 0.000000000000D+00  7 21 -2 -24 -11 11 23 -1 2 0.20099339D+00 0.15472637D-01 0.54460137D+05 0.54460137D+05 0.54460137D+05 0.11440456D+01  1  2  5  3  7  1        1 -.139550847383D-03 0.100000000000D+01
  </mgrwgt>
  </event>
  <event>
  8     66 0.29493621E-05 0.14330907E+03 0.75467711E-02 0.96626863E-01
        1 -1    0    0  501    0 0.00000000E+00 0.00000000E+00 0.46358912E+03 0.46358923E+03 0.32000000E+00 0.0000E+00 0.9000E+01
       -2 -1    0    0    0  501 0.00000000E+00 0.00000000E+00 -.27511550E+03 0.27511568E+03 0.32000000E+00 0.0000E+00 0.9000E+01
       25  2    1    2    0    0 0.18116185E+03 0.28810254E+02 -.12388703E+03 0.36764422E+03 0.29353812E+03 0.0000E+00 0.0000E+00
       23  2    3    3    0    0 -.43117712E+01 -.71865254E+02 -.57954020E+02 0.12848227E+03 0.89251439E+02 0.0000E+00 0.0000E+00
      -24  1    1    2    0    0 -.18116185E+03 -.28810254E+02 0.31236065E+03 0.37106070E+03 0.80419002E+02 0.0000E+00 0.9000E+01
      -13  1    4    4    0    0 0.40722232E+02 -.23280965E+02 -.34416839E+02 0.58179322E+02 0.10565837E+00 0.0000E+00 0.9000E+01
       13  1    4    4    0    0 -.45034003E+02 -.48584289E+02 -.23537181E+02 0.70302949E+02 0.10565837E+00 0.0000E+00 0.9000E+01
       23  1    3    3    0    0 0.18547362E+03 0.10067551E+03 -.65933011E+02 0.23916195E+03 0.91188000E+02 0.0000E+00 0.9000E+01
#aMCatNLO 1  0  0  1  2 0.24257144D+03 0.00000000D+00  -5  7  0 0.00000000D+00 0.00000000D+00 0.00000000D+00 0.00000000D+00 0.00000000D+00
  <mgrwgt>
 0.1928822473D-02    7    2    0
 0.357128353413609D+03 0.000000000000000D+00 0.000000000000000D+00 0.357128353413609D+03
 0.357128353413609D+03 0.000000000000000D+00 0.000000000000000D+00 -.357128353413609D+03
 0.301337901298670D+03 -.181161853269465D+03 -.288102545242381D+02 0.225139216839132D+03
 0.692524226457200D+02 0.407223520922888D+02 -.232809294158771D+02 -.509468979223078D+02
 0.789201982605503D+02 -.450341226596724D+02 -.485843242040921D+02 -.428939265093534D+02
 0.264746184622278D+03 0.185473623836849D+03 0.100675508144207D+03 -.131298392407470D+03
 0.000000000000000D+00 0.000000000000000D+00 0.000000000000000D+00 0.000000000000000D+00
 0.112174529494751D+04 0.000000000000000D+00 0.000000000000000D+00 0.112174529494751D+04
 0.396917928466313D+03 0.000000000000000D+00 0.000000000000000D+00 -.396917928466313D+03
 0.378190116094494D+03 -.283032856555208D+03 -.759294613997602D+02 0.225139216839132D+03
 0.639041871236896D+02 0.207602650493206D+02 -.325141525972222D+02 -.509468979223078D+02
 0.104155255922834D+03 -.724797609811071D+02 -.612789739884968D+02 -.428939265093534D+02
 0.208073678188391D+03 0.114591139869920D+03 0.678896680310959D+02 -.131298392407470D+03
 0.764339986084410D+03 0.220161212617074D+03 0.101832919954383D+03 0.724827366481192D+03
0.966133899380D-04 0.000000000000D+00 0.000000000000D+00 0.143545697597D-07 0.000000000000D+00  7 1 -2 -24 -13 13 23 21 0 0.71321426D-01 0.42325484D-01 0.73804398D+05 0.73804398D+05 0.73804398D+05 0.11327109D+01  1  2  2  1  7  1        1 0.279626076401D-02 0.100000000000D+01
-.487922175129D-05 0.000000000000D+00 -.371020856252D-06 0.143545697597D-07 0.000000000000D+00  7 1 -2 -24 -13 13 23 21 2 0.71321426D-01 0.42325484D-01 0.73804398D+05 0.73804398D+05 0.73804398D+05 0.11327109D+01  1  2  3  1  7  1        1 -.181187846572D-03 0.100000000000D+01
0.593663936542D-05 0.000000000000D+00 0.000000000000D+00 0.143545697597D-07 0.000000000000D+00  7 1 -2 -24 -13 13 23 21 2 0.71321426D-01 0.42325484D-01 0.73804398D+05 0.73804398D+05 0.73804398D+05 0.11327109D+01  1  2 15  1  7  1        1 0.220454604714D-03 0.100000000000D+01
0.392384927189D-05 0.000000000000D+00 0.000000000000D+00 0.143545697597D-07 0.000000000000D+00  7 1 -2 -24 -13 13 23 21 2 0.21814780D+00 0.42325484D-01 0.17696863D+06 0.17696863D+06 0.17696863D+06 0.11019297D+01  1  2 12  1  7  1        1 0.213821210568D-04 0.100000000000D+01
-.161527639386D-03 0.000000000000D+00 -.320195466366D-04 0.143545697597D-07 0.000000000000D+00  7 1 -2 -24 -13 13 23 21 2 0.23198774D+00 0.42325484D-01 0.73804398D+05 0.73804398D+05 0.73804398D+05 0.11327109D+01  1  2  5  1  7  1        1 -.842068183410D-03 0.100000000000D+01
0.500958661503D-06 0.000000000000D+00 0.000000000000D+00 0.143545697597D-07 0.000000000000D+00  7 21 -2 -24 -13 13 23 -1 2 0.21814780D+00 0.42325484D-01 0.17696863D+06 0.17696863D+06 0.17696863D+06 0.11019297D+01  1  2 12  3  7  1        1 0.234023515239D-05 0.100000000000D+01
-.206827045568D-04 0.000000000000D+00 -.436232394945D-05 0.143545697597D-07 0.000000000000D+00  7 21 -2 -24 -13 13 23 -1 2 0.23198774D+00 0.42325484D-01 0.73804398D+05 0.73804398D+05 0.73804398D+05 0.11327109D+01  1  2  5  3  7  1        1 -.883592217293D-04 0.100000000000D+01
  </mgrwgt>
  </event>
  <event>
  9     66 0.29493621E-05 0.29259679E+03 0.75467711E-02 0.96806597E-01
       21 -1    0    0  501  502 0.00000000E+00 0.00000000E+00 0.25427982E+03 0.25428093E+03 0.75000000E+00 0.0000E+00 0.9000E+01
       -4 -1    0    0    0  501 0.00000000E+00 0.00000000E+00 -.98217177E+03 0.98217299E+03 0.15500000E+01 0.0000E+00 0.9000E+01
       25  2    1    2    0    0 -.99252386E+02 0.10641170E+03 -.10987415E+03 0.35061035E+03 0.29946753E+03 0.0000E+00 0.0000E+00
       23  2    3    3    0    0 -.28736126E+01 0.83013476E+02 0.50694325E+02 0.14100636E+03 0.10204599E+03 0.0000E+00 0.0000E+00
      -24  1    1    2    0    0 0.29946847E+03 -.21936045E+03 -.25968475E+03 0.46011277E+03 0.80419002E+02 0.0000E+00 0.9000E+01
      -11  1    4    4    0    0 0.47982760E+01 0.13488762E+02 -.30587149E+02 0.33771939E+02 0.51099893E-03 0.0000E+00 0.9000E+01
       11  1    4    4    0    0 -.76718886E+01 0.69524714E+02 0.81281474E+02 0.10723442E+03 0.51099893E-03 0.0000E+00 0.9000E+01
       23  1    3    3    0    0 -.96378774E+02 0.23398226E+02 -.16056847E+03 0.20960399E+03 0.91188000E+02 0.0000E+00 0.9000E+01
       -3  1    1    2    0  502 -.20021608E+03 0.11294875E+03 -.35833304E+03 0.42573080E+03 0.50000000E+00 0.0000E+00 0.9000E+01
#aMCatNLO 2  0  0  1  2 0.22987801D+03 0.00000000D+00  -5  7  0 0.00000000D+00 0.00000000D+00 0.00000000D+00 0.00000000D+00 0.00000000D+00
  <mgrwgt>
 0.1892785521D-04    1    2    0
 0.341999374498194D+03 0.000000000000000D+00 0.000000000000000D+00 0.341999374498194D+03
 0.341999374498194D+03 0.000000000000000D+00 0.000000000000000D+00 -.341999374498194D+03
 0.281170618583254D+03 0.204727235190712D+03 -.165913676581335D+03 -.561169483716823D+02
 0.243257530542577D+02 -.184012785557190D+01 0.172337125276849D+02 -.170691342382968D+02
 0.184743735789859D+03 -.570782007047790D+02 0.973965072451569D+02 0.146240375048556D+03
 0.193758641569018D+03 -.145808906630361D+03 0.512834568084932D+02 -.730542924385771D+02
 0.000000000000000D+00 -.000000000000000D+00 0.000000000000000D+00 -.000000000000000D+00
 0.415916780974262D+03 0.000000000000000D+00 0.000000000000000D+00 0.415916780974262D+03
 0.600475094365802D+03 0.000000000000000D+00 0.000000000000000D+00 -.600475094365802D+03
 0.383948822370944D+03 0.299468467546892D+03 -.219360450620048D+03 -.561169483716823D+02
 0.222783635952715D+02 0.479827597444278D+01 0.134887615632871D+02 -.170691342382968D+02
 0.162107344293518D+03 -.767188847305727D+01 0.695247143598002D+02 0.146240375048556D+03
 0.153259668509914D+03 -.963787737509628D+02 0.233982258799302D+02 -.730542924385771D+02
 0.294797676570416D+03 -.200216081297315D+03 0.112948748817030D+03 -.184558313391540D+03
0.239871139846D-05 0.000000000000D+00 0.000000000000D+00 0.387695915195D-07 0.287440770815D-12  7 21 -4 -24 -11 11 23 -3 2 0.39120134D-01 0.15110346D+00 0.17168389D+06 0.17168389D+06 0.17168389D+06 0.11029540D+01  1  2  1  3  7  1        3 0.189278552108D-04 0.100000000000D+01
  </mgrwgt>
  </event>
  <event>
  9     66 -.29493621E-05 0.52151991E+03 0.75467711E-02 0.92173253E-01
        1 -1    0    0  501    0 0.00000000E+00 0.00000000E+00 0.47066423E+04 0.47066424E+04 0.32000000E+00 0.0000E+00 0.9000E+01
       21 -1    0    0  502  501 0.00000000E+00 0.00000000E+00 -.14732314E+03 0.14732505E+03 0.75000000E+00 0.0000E+00 0.9000E+01
       25  2    1    2    0    0 -.25793192E+03 -.34828854E+03 0.87053500E+03 0.10173337E+04 0.29883601E+03 0.0000E+00 0.0000E+00
       23  2    3    3    0    0 0.12510783E+02 -.13886215E+03 0.35439276E+03 0.39146096E+03 0.90599327E+02 0.0000E+00 0.0000E+00
      -24  1    1    2    0    0 0.44505295E+03 0.30283578E+03 0.35681076E+04 0.36093823E+04 0.80419002E+02 0.0000E+00 0.9000E+01
      -11  1    4    4    0    0 0.30401503E+02 -.13646830E+03 0.34225004E+03 0.36970656E+03 0.51099893E-03 0.0000E+00 0.9000E+01
       11  1    4    4    0    0 -.17890720E+02 -.23938524E+01 0.12142717E+02 0.21754401E+02 0.51099893E-03 0.0000E+00 0.9000E+01
       23  1    3    3    0    0 -.27044271E+03 -.20942639E+03 0.51614224E+03 0.62587277E+03 0.91188000E+02 0.0000E+00 0.9000E+01
        2  1    1    2  502    0 -.18712102E+03 0.45452751E+02 0.12067657E+03 0.22725133E+03 0.32000000E+00 0.0000E+00 0.9000E+01
#aMCatNLO 2  0  0  2  1 0.19256228D+03 0.00000000D+00  -5  7  0 0.00000000D+00 0.00000000D+00 0.00000000D+00 0.00000000D+00 0.00000000D+00
  <mgrwgt>
 -.4644367357D-04    2    2    0
 0.645730800077633D+03 0.000000000000000D+00 0.000000000000000D+00 0.645730800077633D+03
 0.645730800077633D+03 0.000000000000000D+00 0.000000000000000D+00 -.645730800077633D+03
 0.613660258485147D+03 0.353275749060578D+03 0.325128983229334D+03 0.373629611085141D+03
 0.138997572904930D+03 0.982607827243986D+01 -.131470410061590D+03 -.440375378226637D+02
 0.387105413231317D+02 -.232594825849707D+02 -.108974968328791D+01 -.309243419499447D+02
 0.500093227442057D+03 -.339842344748047D+03 -.192568823484456D+03 -.298667731312532D+03
 0.000000000000000D+00 -.000000000000000D+00 0.000000000000000D+00 -.000000000000000D+00
 0.677926321096670D+03 0.000000000000000D+00 0.000000000000000D+00 0.677926321096670D+03
 0.102282778971714D+04 0.000000000000000D+00 0.000000000000000D+00 -.102282778971714D+04
 0.660187805965647D+03 0.445052945455261D+03 0.302835784961632D+03 0.373629611085141D+03
 0.146584965460236D+03 0.304015028005856D+02 -.136468296644174D+03 -.440375378226637D+02
 0.358067495128728D+02 -.178907198363268D+02 -.239385241369893D+01 -.309243419499447D+02
 0.463159080199732D+03 -.270442705432203D+03 -.209426387016053D+03 -.298667731312532D+03
 0.395015509675320D+03 -.187121022987316D+03 0.454527511122929D+02 -.344901468620470D+03
-.266785510456D-03 0.000000000000D+00 0.000000000000D+00 0.480625875486D-05 0.000000000000D+00  7 1 21 -24 -11 11 23 2 2 0.68971059D+00 0.22848871D-01 0.38981953D+06 0.38981953D+06 0.38981953D+06 0.10762357D+01  1  2 13  4  7  2       -2 -.193921581010D-03 0.100000000000D+01
0.361781788804D-03 0.000000000000D+00 0.000000000000D+00 0.480625875486D-05 0.509437092815D-10  7 1 21 -24 -11 11 23 2 2 0.72409890D+00 0.22665245D-01 0.38981953D+06 0.38981953D+06 0.38981953D+06 0.10762357D+01  1  2  1  4  7  2       -2 0.147477907436D-03 0.100000000000D+01
  </mgrwgt>
  </event>
  <event>
  8     66 0.29493621E-05 0.34583469E+03 0.75467711E-02 0.92875743E-01
        1 -1    0    0  501    0 0.00000000E+00 0.00000000E+00 0.29783325E+04 0.29783326E+04 0.32000000E+00 0.0000E+00 0.9000E+01
       -2 -1    0    0    0  501 0.00000000E+00 0.00000000E+00 -.11485723E+03 0.11485767E+03 0.32000000E+00 0.0000E+00 0.9000E+01
       25  2    1    2    0    0 0.54332232E+02 -.51125515E+03 0.10549201E+04 0.12112569E+04 0.29992178E+03 0.0000E+00 0.0000E+00
       23  2    3    3    0    0 0.85860803E+02 -.41529552E+03 0.63099060E+03 0.76602240E+03 0.93801548E+02 0.0000E+00 0.0000E+00
      -24  1    1    2    0    0 -.54332232E+02 0.51125515E+03 0.18085552E+04 0.18819333E+04 0.80419002E+02 0.0000E+00 0.9000E+01
      -13  1    4    4    0    0 0.92596245E+02 -.21719117E+03 0.34454726E+03 0.41768277E+03 0.10565837E+00 0.0000E+00 0.9000E+01
       13  1    4    4    0    0 -.67354418E+01 -.19810436E+03 0.28644334E+03 0.34833963E+03 0.10565837E+00 0.0000E+00 0.9000E+01
       23  1    3    3    0    0 -.31528571E+02 -.95959625E+02 0.42392949E+03 0.44523450E+03 0.91188000E+02 0.0000E+00 0.9000E+01
#aMCatNLO 1  0  0  1  2 0.78296022D+02 0.00000000D+00  -5  7  0 0.00000000D+00 0.00000000D+00 0.00000000D+00 0.00000000D+00 0.00000000D+00
  <mgrwgt>
 0.1005975987D-02    9    2    0
 0.584879243398474D+03 0.000000000000000D+00 0.000000000000000D+00 0.584879243398474D+03
 0.584879243398474D+03 0.000000000000000D+00 0.000000000000000D+00 -.584879243398474D+03
 0.549194160110099D+03 -.543322323262964D+02 0.511255148821133D+03 0.175536864729291D+03
 0.261053663922202D+03 0.925963705027962D+02 -.217191191688380D+03 -.111368370150129D+03
 0.219923396334071D+03 -.673556750653040D+01 -.198104332369484D+03 -.952659744185661D+02
 0.139587266430576D+03 -.315285706699694D+02 -.959596247632689D+02 0.310974798394034D+02
 0.000000000000000D+00 -.000000000000000D+00 -.000000000000000D+00 0.000000000000000D+00
 0.912519843431247D+03 0.000000000000000D+00 0.000000000000000D+00 0.912519843431247D+03
 0.590884279431330D+03 0.000000000000000D+00 0.000000000000000D+00 -.590884279431330D+03
 0.584567163721519D+03 -.536062705788384D+02 0.549149096168508D+03 0.175536864729291D+03
 0.247221798447913D+03 0.929218257243636D+02 -.200202992140416D+03 -.111368370150129D+03
 0.207149466599592D+03 -.646210733872417D+01 -.183830184679556D+03 -.952659744185661D+02
 0.133437442906818D+03 -.313537494876592D+02 -.868342614767540D+02 0.310974798394034D+02
 0.331028251186735D+03 -.149969831914182D+01 -.782816578717825D+02 0.321635563999917D+03
0.485596395565D-03 0.000000000000D+00 0.000000000000D+00 0.271283106969D-05 0.000000000000D+00  7 1 -2 -24 -13 13 23 21 0 0.45820504D+00 0.17670378D-01 0.29745549D+06 0.29745549D+06 0.29745549D+06 0.10848257D+01  1  2  2  1  7  1        1 0.844582968505D-03 0.100000000000D+01
-.268173332956D-04 0.000000000000D+00 -.186481801944D-05 0.271283106969D-05 0.000000000000D+00  7 1 -2 -24 -13 13 23 21 2 0.45820504D+00 0.17670378D-01 0.29745549D+06 0.29745549D+06 0.29745549D+06 0.10848257D+01  1  2  3  1  7  1        1 -.548911529472D-04 0.100000000000D+01
0.308487961043D-04 0.000000000000D+00 0.000000000000D+00 0.271283106969D-05 0.000000000000D+00  7 1 -2 -24 -13 13 23 21 2 0.45820504D+00 0.17670378D-01 0.29745549D+06 0.29745549D+06 0.29745549D+06 0.10848257D+01  1  2 15  1  7  1        1 0.631429667721D-04 0.100000000000D+01
0.258264070693D-02 0.000000000000D+00 0.000000000000D+00 0.271283106969D-05 0.000000000000D+00  7 1 -2 -24 -13 13 23 21 2 0.71614730D+00 0.17670378D-01 0.34240544D+06 0.34240544D+06 0.34240544D+06 0.10803291D+01  1  2 12  1  7  1        1 0.155176467624D-03 0.100000000000D+01
-.237893314107D-02 0.000000000000D+00 0.000000000000D+00 0.271283106969D-05 0.000000000000D+00  7 1 -2 -24 -13 13 23 21 2 0.45820504D+00 0.17670378D-01 0.29745549D+06 0.29745549D+06 0.29745549D+06 0.10848257D+01  1  2  4  1  7  1        1 -.486932766426D-02 0.100000000000D+01
-.264630196056D-02 0.000000000000D+00 -.111794986165D-03 0.271283106969D-05 0.000000000000D+00  7 1 -2 -24 -13 13 23 21 2 0.71571048D+00 0.17670378D-01 0.29745549D+06 0.29745549D+06 0.29745549D+06 0.10848257D+01  1  2  5  1  7  1        1 -.163718458163D-03 0.100000000000D+01
0.245792909309D-02 0.000000000000D+00 0.101530395315D-03 0.271283106969D-05 0.000000000000D+00  7 1 -2 -24 -13 13 23 21 2 0.45820504D+00 0.17670378D-01 0.29745549D+06 0.29745549D+06 0.29745549D+06 0.10848257D+01  1  2  6  1  7  1        1 0.503102080639D-02 0.100000000000D+01
0.133431755259D-03 0.000000000000D+00 0.000000000000D+00 0.271283106969D-05 0.000000000000D+00  7 21 -2 -24 -13 13 23 -1 2 0.71614730D+00 0.17670378D-01 0.34240544D+06 0.34240544D+06 0.34240544D+06 0.10803291D+01  1  2 12  3  7  1        1 0.384808148393D-06 0.100000000000D+01
-.132180689847D-03 0.000000000000D+00 -.576990381283D-05 0.271283106969D-05 0.000000000000D+00  7 21 -2 -24 -13 13 23 -1 2 0.71571048D+00 0.17670378D-01 0.29745549D+06 0.29745549D+06 0.29745549D+06 0.10848257D+01  1  2  5  3  7  1        1 -.394754976016D-06 0.100000000000D+01
  </mgrwgt>
  </event>
  <event>
  8     66 0.29493621E-05 0.20923332E+03 0.75467711E-02 0.88062021E-01
        1 -1    0    0  501    0 0.00000000E+00 0.00000000E+00 0.19723347E+04 0.19723348E+04 0.32000000E+00 0.0000E+00 0.9000E+01
       -2 -1    0    0    0  501 0.00000000E+00 0.00000000E+00 -.51589524E+03 0.51589534E+03 0.32000000E+00 0.0000E+00 0.9000E+01
       25  2    1    2    0    0 -.25225129E+03 -.55313814E+03 0.16985158E+04 0.18289421E+04 0.30079974E+03 0.0000E+00 0.0000E+00
       23  2    3    3    0    0 -.15397294E+03 -.49790426E+03 0.14098018E+04 0.15058624E+04 0.92000792E+02 0.0000E+00 0.0000E+00
      -24  1    1    2    0    0 0.25225129E+03 0.55313814E+03 -.24207636E+03 0.65928802E+03 0.80419002E+02 0.0000E+00 0.9000E+01
      -13  1    4    4    0    0 -.70498714E+02 -.36389315E+03 0.95289373E+03 0.10224455E+04 0.10565837E+00 0.0000E+00 0.9000E+01
       13  1    4    4    0    0 -.83474224E+02 -.13401111E+03 0.45690808E+03 0.48341693E+03 0.10565837E+00 0.0000E+00 0.9000E+01
       23  1    3    3    0    0 -.98278350E+02 -.55233885E+02 0.28871404E+03 0.32307965E+03 0.91188000E+02 0.0000E+00 0.9000E+01
#aMCatNLO 1  0  0  2  1 0.50034439D+03 0.00000000D+00  -5  7  0 0.00000000D+00 0.00000000D+00 0.00000000D+00 0.00000000D+00 0.00000000D+00
  <mgrwgt>
 0.1957763027D-02    8    2    0
 0.100872109455257D+04 0.000000000000000D+00 0.000000000000000D+00 0.100872109455257D+04
 0.100872109455257D+04 0.000000000000000D+00 0.000000000000000D+00 -.100872109455257D+04
 0.987899366578168D+03 0.252251287312247D+03 0.553138144682895D+03 -.774522706882925D+03
 0.573125902056881D+03 -.704986968294943D+02 -.363893454612559D+03 0.437132459380442D+03
 0.266373313442762D+03 -.834742408187918D+02 -.134010805199248D+03 0.214541132009812D+03
 0.190043607027324D+03 -.982783496639613D+02 -.552338848710881D+02 0.122849115492671D+03
 0.000000000000000D+00 0.000000000000000D+00 0.000000000000000D+00 -.000000000000000D+00
 0.111234224290023D+04 0.000000000000000D+00 0.000000000000000D+00 0.111234224290023D+04
 0.189590275095252D+04 0.000000000000000D+00 0.000000000000000D+00 -.189590275095252D+04
 0.944316692432604D+03 0.170048598147334D+02 0.533940269054424D+03 -.774522706882925D+03
 0.615255968314594D+03 -.215183649738347D+03 -.375700833626995D+03 0.437132459380442D+03
 0.297780305425892D+03 -.152159687655721D+03 -.139616053618484D+03 0.214541132009812D+03
 0.221208435108584D+03 -.148348098987471D+03 -.593199525342053D+02 0.122849115492671D+03
 0.929683592571085D+03 0.498686576566806D+03 0.406965707252596D+02 -.783560508052290D+03
0.210105212253D-02 0.000000000000D+00 0.000000000000D+00 0.177592617533D-04 0.000000000000D+00  7 1 -2 -24 -13 13 23 21 0 0.30343612D+00 0.79368508D-01 0.41394933D+06 0.41394933D+06 0.41394933D+06 0.10743561D+01  1  2  2  2  7  2       -2 0.105097052809D-02 0.100000000000D+01
-.880258639901D-04 0.000000000000D+00 -.806859337023D-05 0.177592617533D-04 0.000000000000D+00  7 1 -2 -24 -13 13 23 21 2 0.30343612D+00 0.79368508D-01 0.41394933D+06 0.41394933D+06 0.41394933D+06 0.10743561D+01  1  2  3  2  7  2       -2 -.508230218995D-04 0.100000000000D+01
0.131027877527D-03 0.000000000000D+00 0.000000000000D+00 0.177592617533D-04 0.000000000000D+00  7 1 -2 -24 -13 13 23 21 2 0.30343612D+00 0.79368508D-01 0.41394933D+06 0.41394933D+06 0.41394933D+06 0.10743561D+01  1  2 15  2  7  2       -2 0.756508642706D-04 0.100000000000D+01
0.244614494235D-03 0.000000000000D+00 0.000000000000D+00 0.177592617533D-04 0.000000000000D+00  7 1 -2 -24 -13 13 23 21 2 0.30343612D+00 0.15000214D+00 0.86862636D+06 0.86862636D+06 0.86862636D+06 0.10519601D+01  1  2 12  2  7  2       -2 0.260543297435D-04 0.100000000000D+01
-.184371790134D-02 0.000000000000D+00 -.639391100452D-03 0.177592617533D-04 0.000000000000D+00  7 1 -2 -24 -13 13 23 21 2 0.30343612D+00 0.15678060D+00 0.41394933D+06 0.41394933D+06 0.41394933D+06 0.10743561D+01  1  2  5  2  7  2       -2 -.192071481886D-03 0.100000000000D+01
0.193671353551D-02 0.000000000000D+00 0.515307693141D-03 0.177592617533D-04 0.000000000000D+00  7 1 -2 -24 -13 13 23 21 2 0.30343612D+00 0.79368508D-01 0.41394933D+06 0.41394933D+06 0.41394933D+06 0.10743561D+01  1  2  6  2  7  2       -2 0.111818992699D-02 0.100000000000D+01
0.169305124577D-04 0.000000000000D+00 0.000000000000D+00 0.177592617533D-04 0.000000000000D+00  7 1 21 -24 -13 13 23 2 2 0.30343612D+00 0.15000214D+00 0.86862636D+06 0.86862636D+06 0.86862636D+06 0.10519601D+01  1  2 12  4  7  2       -2 0.148206662569D-04 0.100000000000D+01
-.979257309833D-04 0.000000000000D+00 -.471266011907D-04 0.177592617533D-04 0.000000000000D+00  7 1 21 -24 -13 13 23 2 2 0.30343612D+00 0.15678060D+00 0.41394933D+06 0.41394933D+06 0.41394933D+06 0.10743561D+01  1  2  5  4  7  2       -2 -.850287849548D-04 0.100000000000D+01
  </mgrwgt>
  </event>
  <event>
  8     66 0.29493621E-05 0.21484943E+03 0.75467711E-02 0.90886799E-01
        1 -1    0    0  501    0 0.00000000E+00 0.00000000E+00 0.19711794E+04 0.19711794E+04 0.32000000E+00 0.0000E+00 0.9000E+01
       -2 -1    0    0    0  501 0.00000000E+00 0.00000000E+00 -.20433714E+03 0.20433739E+03 0.32000000E+00 0.0000E+00 0.9000E+01
       25  2    1    2    0    0 -.40858318E+03 0.42902360E+03 0.10449801E+04 0.12382049E+04 0.30027726E+03 0.0000E+00 0.0000E+00
       23  2    3    3    0    0 -.21729981E+03 0.26983117E+03 0.38186079E+03 0.52408021E+03 0.93884708E+02 0.0000E+00 0.0000E+00
      -24  1    1    2    0    0 0.40858318E+03 -.42902360E+03 0.72186211E+03 0.93731189E+03 0.80419002E+02 0.0000E+00 0.9000E+01
      -13  1    4    4    0    0 -.18282080E+03 0.18472277E+03 0.23231500E+03 0.34859176E+03 0.10565837E+00 0.0000E+00 0.9000E+01
       13  1    4    4    0    0 -.34479015E+02 0.85108397E+02 0.14954579E+03 0.17548845E+03 0.10565837E+00 0.0000E+00 0.9000E+01
       23  1    3    3    0    0 -.19128337E+03 0.15919243E+03 0.66311932E+03 0.71412467E+03 0.91188000E+02 0.0000E+00 0.9000E+01
#aMCatNLO 1  0  0  2  1 0.18035662D+03 0.00000000D+00  -5  7  0 0.00000000D+00 0.00000000D+00 0.00000000D+00 0.00000000D+00 0.00000000D+00
  <mgrwgt>
 0.1054599304D-02    9    2    0
 0.634653800015463D+03 0.000000000000000D+00 0.000000000000000D+00 0.634653800015463D+03
 0.634653800015463D+03 0.000000000000000D+00 0.000000000000000D+00 -.634653800015463D+03
 0.601683377756397D+03 0.408583176790046D+03 -.429023597100852D+03 -.674849011911291D+02
 0.274089246783200D+03 -.182820982840978D+03 0.184722898501621D+03 -.870566149376420D+02
 0.926126645210513D+02 -.344788268883026D+02 0.851082706388247D+02 0.120373749199660D+02
 0.300922310970277D+03 -.191283367060766D+03 0.159192427960407D+03 0.142504141208805D+03
 0.000000000000000D+00 -.000000000000000D+00 -.000000000000000D+00 -.000000000000000D+00
 0.674915137497791D+03 0.000000000000000D+00 0.000000000000000D+00 0.674915137497791D+03
 0.881009076328302D+03 0.000000000000000D+00 0.000000000000000D+00 -.881009076328302D+03
 0.579101433049627D+03 0.445851358415185D+03 -.354335445752072D+03 -.674849011911291D+02
 0.288729792529312D+03 -.165057168480200D+03 0.220322876757992D+03 -.870566149376420D+02
 0.102176293135707D+03 -.283308563300025D+02 0.974292515808205D+02 0.120373749199660D+02
 0.312049536375911D+03 -.171936619093708D+03 0.197964720496828D+03 0.142504141208805D+03
 0.273867158735537D+03 -.805267145112744D+02 -.161381403083568D+03 -.206093938830511D+03
0.264454566397D-03 0.000000000000D+00 0.000000000000D+00 0.291859568197D-05 0.000000000000D+00  7 1 -2 -24 -13 13 23 21 0 0.30325838D+00 0.31436504D-01 0.36884444D+06 0.36884444D+06 0.36884444D+06 0.10779756D+01  1  2  2  2  7  2       -2 0.849858213325D-03 0.100000000000D+01
-.146573142949D-04 0.000000000000D+00 -.101557516745D-05 0.291859568197D-05 0.000000000000D+00  7 1 -2 -24 -13 13 23 21 2 0.30325838D+00 0.31436504D-01 0.36884444D+06 0.36884444D+06 0.36884444D+06 0.10779756D+01  1  2  3  2  7  2       -2 -.547353210879D-04 0.100000000000D+01
0.165733510683D-04 0.000000000000D+00 0.000000000000D+00 0.291859568197D-05 0.000000000000D+00  7 1 -2 -24 -13 13 23 21 2 0.30325838D+00 0.31436504D-01 0.36884444D+06 0.36884444D+06 0.36884444D+06 0.10779756D+01  1  2 15  2  7  2       -2 0.618904441818D-04 0.100000000000D+01
0.351824015085D-03 0.000000000000D+00 0.000000000000D+00 0.291859568197D-05 0.000000000000D+00  7 1 -2 -24 -13 13 23 21 2 0.30325838D+00 0.44340532D-01 0.49694053D+06 0.49694053D+06 0.49694053D+06 0.10686988D+01  1  2 12  2  7  2       -2 0.669937187706D-03 0.100000000000D+01
-.373116065741D-03 0.000000000000D+00 0.000000000000D+00 0.291859568197D-05 0.000000000000D+00  7 1 -2 -24 -13 13 23 21 2 0.30325838D+00 0.31436504D-01 0.36884444D+06 0.36884444D+06 0.36884444D+06 0.10779756D+01  1  2  4  2  7  2       -2 -.139334036580D-02 0.100000000000D+01
-.485243243774D-03 0.000000000000D+00 -.113694835822D-03 0.291859568197D-05 0.000000000000D+00  7 1 -2 -24 -13 13 23 21 2 0.30325838D+00 0.46120370D-01 0.36884444D+06 0.36884444D+06 0.36884444D+06 0.10779756D+01  1  2  5  2  7  2       -2 -.885424185943D-03 0.100000000000D+01
0.499544870680D-03 0.000000000000D+00 0.105825903376D-03 0.291859568197D-05 0.000000000000D+00  7 1 -2 -24 -13 13 23 21 2 0.30325838D+00 0.31436504D-01 0.36884444D+06 0.36884444D+06 0.36884444D+06 0.10779756D+01  1  2  6  2  7  2       -2 0.186546787115D-02 0.100000000000D+01
0.150077577797D-04 0.000000000000D+00 0.000000000000D+00 0.291859568197D-05 0.000000000000D+00  7 1 21 -24 -13 13 23 2 2 0.30325838D+00 0.44340532D-01 0.49694053D+06 0.49694053D+06 0.49694053D+06 0.10686988D+01  1  2 12  4  7  2       -2 0.301043318071D-03 0.100000000000D+01
-.187281794298D-04 0.000000000000D+00 -.524557811218D-05 0.291859568197D-05 0.000000000000D+00  7 1 21 -24 -13 13 23 2 2 0.30325838D+00 0.46120370D-01 0.36884444D+06 0.36884444D+06 0.36884444D+06 0.10779756D+01  1  2  5  4  7  2       -2 -.360097857700D-03 0.100000000000D+01
  </mgrwgt>
  </event>
  <event>
  9     66 0.29493621E-05 0.36565571E+03 0.75467711E-02 0.90281323E-01
        1 -1    0    0  501    0 0.00000000E+00 0.00000000E+00 0.13384480E+04 0.13384481E+04 0.32000000E+00 0.0000E+00 0.9000E+01
       21 -1    0    0  502  501 0.00000000E+00 0.00000000E+00 -.48023000E+03 0.48023058E+03 0.75000000E+00 0.0000E+00 0.9000E+01
       25  2    1    2    0    0 0.14296687E+03 -.62130836E+03 0.43729906E+03 0.82936257E+03 0.30024688E+03 0.0000E+00 0.0000E+00
       23  2    3    3    0    0 0.76114405E+02 -.24758277E+03 0.31996826E+03 0.42165944E+03 0.91248920E+02 0.0000E+00 0.0000E+00
      -24  1    1    2    0    0 -.25986795E+03 0.72994094E+02 0.30810793E+03 0.41744125E+03 0.80419002E+02 0.0000E+00 0.9000E+01
      -13  1    4    4    0    0 -.40414670E+01 -.53471499E+01 -.50929809E+01 0.84187343E+01 0.10565837E+00 0.0000E+00 0.9000E+01
       13  1    4    4    0    0 0.80155872E+02 -.24223562E+03 0.32506124E+03 0.41324071E+03 0.10565837E+00 0.0000E+00 0.9000E+01
       23  1    3    3    0    0 0.66852461E+02 -.37372559E+03 0.11733080E+03 0.40770313E+03 0.91188000E+02 0.0000E+00 0.9000E+01
        2  1    1    2  502    0 0.11690108E+03 0.54831427E+03 0.11281105E+03 0.57187484E+03 0.32000000E+00 0.0000E+00 0.9000E+01
#aMCatNLO 2  0  0  2  1 0.56063750D+03 0.00000000D+00  -5  7  0 0.00000000D+00 0.00000000D+00 0.00000000D+00 0.00000000D+00 0.00000000D+00
  <mgrwgt>
 0.1351147882D-03    1    2    0
 0.413694869540559D+03 0.000000000000000D+00 0.000000000000000D+00 0.413694869540559D+03
 0.413694869540559D+03 0.000000000000000D+00 0.000000000000000D+00 -.413694869540559D+03
 0.363125610131780D+03 -.218012081720285D+03 0.269315362982864D+03 0.730271200623634D+02
 0.131598166564331D+02 -.228436689539457D+01 0.289522118092742D+01 -.126325031815420D+02
 0.180660224695612D+03 0.109191276878000D+03 -.106048449374140D+03 0.973093429541136D+02
 0.270444087597293D+03 0.111105171737680D+03 -.166162134789651D+03 -.157703959834935D+03
 0.000000000000000D+00 0.000000000000000D+00 0.000000000000000D+00 -.000000000000000D+00
 0.671467102072189D+03 0.000000000000000D+00 0.000000000000000D+00 0.671467102072189D+03
 0.957252256207187D+03 0.000000000000000D+00 0.000000000000000D+00 -.957252256207187D+03
 0.290963338384779D+03 -.259867947698224D+03 0.729940944471176D+02 0.730271200623634D+02
 0.143004587511527D+02 -.404157990103233D+01 -.534683231131521D+01 -.126325031815420D+02
 0.273079366677356D+03 0.801559850136988D+02 -.242235939416983D+03 0.973093429541136D+02
 0.421100772767067D+03 0.668524610646284D+02 -.373725593160282D+03 -.157703959834935D+03
 0.629275421699022D+03 0.116901081520930D+03 0.548314270441463D+03 -.285785154134999D+03
0.808935321290D-05 0.000000000000D+00 0.000000000000D+00 0.790106357796D-05 0.504659141418D-10  7 1 21 -24 -13 13 23 2 2 0.20591512D+00 0.73881582D-01 0.55845621D+06 0.55845621D+06 0.55845621D+06 0.10651331D+01  1  2  1  4  7  2       -2 0.135114788180D-03 0.100000000000D+01
  </mgrwgt>
  </event>
  <event>
  8     66 0.29493621E-05 0.55636898E+03 0.75467711E-02 0.88938657E-01
        1 -1    0    0  501    0 0.00000000E+00 0.00000000E+00 0.43496483E+04 0.43496483E+04 0.32000000E+00 0.0000E+00 0.9000E+01
       -2 -1    0    0    0  501 0.00000000E+00 0.00000000E+00 -.99337054E+02 0.99337570E+02 0.32000000E+00 0.0000E+00 0.9000E+01
       25  2    1    2    0    0 -.49210908E+03 0.21982036E+03 0.32676601E+04 0.33253477E+04 0.29973694E+03 0.0000E+00 0.0000E+00
       23  2    3    3    0    0 -.34050328E+03 0.14409165E+03 0.26807286E+04 0.27076722E+04 0.92075887E+02 0.0000E+00 0.0000E+00
      -24  1    1    2    0    0 0.49210908E+03 -.21982036E+03 0.98265111E+03 0.11236382E+04 0.80419002E+02 0.0000E+00 0.9000E+01
      -13  1    4    4    0    0 -.92962142E+01 0.19292527E+02 0.30169630E+03 0.30245543E+03 0.10565837E+00 0.0000E+00 0.9000E+01
       13  1    4    4    0    0 -.33120706E+03 0.12479912E+03 0.23790323E+04 0.24052168E+04 0.10565837E+00 0.0000E+00 0.9000E+01
       23  1    3    3    0    0 -.15160580E+03 0.75728708E+02 0.58693147E+03 0.61767544E+03 0.91188000E+02 0.0000E+00 0.9000E+01
#aMCatNLO 1  0  0  1  2 0.49619512D+03 0.00000000D+00  -5  7  0 0.00000000D+00 0.00000000D+00 0.00000000D+00 0.00000000D+00 0.00000000D+00
  <mgrwgt>
 0.5109206618D-03    3    2    0
 0.657329763953601D+03 0.000000000000000D+00 0.000000000000000D+00 0.657329763953601D+03
 0.657329763953601D+03 0.000000000000000D+00 0.000000000000000D+00 -.657329763953601D+03
 0.625620025331438D+03 0.492109079938804D+03 -.219820359866642D+03 -.307312321541494D+03
 0.481615862186433D+02 -.929579037341146D+01 0.192923884379218D+02 0.431385027184505D+02
 0.448137580734298D+03 -.331207485144054D+03 0.124799263709415D+03 0.274870945770063D+03
 0.192740335622821D+03 -.151605804421339D+03 0.757287077193050D+02 -.106971269470191D+02
 0.000000000000000D+00 0.000000000000000D+00 0.000000000000000D+00 -.000000000000000D+00
 0.799056611182675D+03 0.000000000000000D+00 0.000000000000000D+00 0.799056611182675D+03
 0.134067090576708D+04 0.000000000000000D+00 0.000000000000000D+00 -.134067090576708D+04
 0.725944273355748D+03 0.458962844199824D+03 -.464155272227323D+03 -.307312321541494D+03
 0.447340103503643D+02 -.115739944854766D+02 0.249878308120398D+01 0.431385027184505D+02
 0.449123825349951D+03 -.353212237795811D+03 -.374070680449555D+02 0.274870945770063D+03
 0.185380894241312D+03 -.160878981757529D+03 0.737219841352839D+01 -.106971269470191D+02
 0.734544513652380D+03 0.667023698389933D+02 0.491691358777547D+03 -.541614294584406D+03
0.352144769923D-02 0.000000000000D+00 0.000000000000D+00 0.144018421279D-04 0.000000000000D+00  7 1 -2 -24 -13 13 23 21 0 0.66917670D+00 0.15282664D-01 0.30954645D+06 0.30954645D+06 0.30954645D+06 0.10835468D+01  1  2  2  1  7  1        1 0.504730238032D-03 0.100000000000D+01
-.189021692410D-03 0.000000000000D+00 -.135232863835D-04 0.144018421279D-04 0.000000000000D+00  7 1 -2 -24 -13 13 23 21 2 0.66917670D+00 0.15282664D-01 0.30954645D+06 0.30954645D+06 0.30954645D+06 0.10835468D+01  1  2  3  1  7  1        1 -.318086366448D-04 0.100000000000D+01
0.225808065296D-03 0.000000000000D+00 0.000000000000D+00 0.144018421279D-04 0.000000000000D+00  7 1 -2 -24 -13 13 23 21 2 0.66917670D+00 0.15282664D-01 0.30954645D+06 0.30954645D+06 0.30954645D+06 0.10835468D+01  1  2 15  1  7  1        1 0.379990603665D-04 0.100000000000D+01
  </mgrwgt>
  </event>
  <event>
  8     66 0.29493621E-05 0.22705166E+03 0.75467711E-02 0.10154378E+00
        1 -1    0    0  501    0 0.00000000E+00 0.00000000E+00 0.11794887E+04 0.11794887E+04 0.32000000E+00 0.0000E+00 0.9000E+01
       -2 -1    0    0    0  501 0.00000000E+00 0.00000000E+00 -.81624091E+02 0.81624718E+02 0.32000000E+00 0.0000E+00 0.9000E+01
       25  2    1    2    0    0 -.18932322E+03 -.12672246E+03 0.71870438E+03 0.81152303E+03 0.30021954E+03 0.0000E+00 0.0000E+00
       23  2    3    3    0    0 -.78746668E+02 0.77107377E+00 0.52650249E+03 0.53997451E+03 0.90365791E+02 0.0000E+00 0.0000E+00
      -24  1    1    2    0    0 0.18932322E+03 0.12672246E+03 0.37916021E+03 0.44959042E+03 0.80419002E+02 0.0000E+00 0.9000E+01
      -13  1    4    4    0    0 -.84962667E+02 0.24504342E+02 0.31907544E+03 0.33110159E+03 0.10565837E+00 0.0000E+00 0.9000E+01
       13  1    4    4    0    0 0.62159981E+01 -.23733268E+02 0.20742705E+03 0.20887292E+03 0.10565837E+00 0.0000E+00 0.9000E+01
       23  1    3    3    0    0 -.11057656E+03 -.12749353E+03 0.19220190E+03 0.27154852E+03 0.91188000E+02 0.0000E+00 0.9000E+01
#aMCatNLO 1  0  0  1  2 0.21535599D+02 0.00000000D+00  -5  7  0 0.00000000D+00 0.00000000D+00 0.00000000D+00 0.00000000D+00 0.00000000D+00
  <mgrwgt>
 0.1374424828D-02    9    2    0
 0.310282314990711D+03 0.000000000000000D+00 0.000000000000000D+00 0.310282314990711D+03
 0.310282314990711D+03 0.000000000000000D+00 0.000000000000000D+00 -.310282314990711D+03
 0.242872290543443D+03 0.189323224777693D+03 0.126722455259235D+03 -.248569799512009D+02
 0.108377246747335D+03 -.849627909337881D+02 0.245044075772243D+02 0.626616771125973D+02
 0.575050445674688D+02 0.621612247701702D+01 -.237333339022443D+02 0.520088341913360D+02
 0.211810048123175D+03 -.110576556320922D+03 -.127493528934215D+03 -.898135313527325D+02
 0.000000000000000D+00 -.000000000000000D+00 -.000000000000000D+00 0.000000000000000D+00
 0.323798792408339D+03 0.000000000000000D+00 0.000000000000000D+00 0.323798792408339D+03
 0.319167384279159D+03 0.000000000000000D+00 0.000000000000000D+00 -.319167384279159D+03
 0.250603195157079D+03 0.194803856904296D+03 0.133297912029718D+03 -.248569799512009D+02
 0.107207922231369D+03 -.825684612510349D+02 0.273770344858627D+02 0.626616771125973D+02
 0.570451039418645D+02 0.748833810316141D+01 -.222069773325633D+02 0.520088341913360D+02
 0.206081973677533D+03 -.105935368447363D+03 -.121925205879262D+03 -.898135313527325D+02
 0.220279816796540D+02 -.137883653090599D+02 -.165427633037548D+02 0.463140812917961D+01
0.959475530342D-05 0.000000000000D+00 0.000000000000D+00 0.172718700498D-05 0.000000000000D+00  7 1 -2 -24 -13 13 23 21 0 0.18145985D+00 0.12557604D-01 0.74633388D+05 0.74633388D+05 0.74633388D+05 0.11323009D+01  1  2  2  1  7  1        1 0.508017833177D-03 0.100000000000D+01
-.522537483982D-06 0.000000000000D+00 -.368463867222D-07 0.172718700498D-05 0.000000000000D+00  7 1 -2 -24 -13 13 23 21 2 0.18145985D+00 0.12557604D-01 0.74633388D+05 0.74633388D+05 0.74633388D+05 0.11323009D+01  1  2  3  1  7  1        1 -.354720453644D-04 0.100000000000D+01
0.612334427271D-06 0.000000000000D+00 0.000000000000D+00 0.172718700498D-05 0.000000000000D+00  7 1 -2 -24 -13 13 23 21 2 0.18145985D+00 0.12557604D-01 0.74633388D+05 0.74633388D+05 0.74633388D+05 0.11323009D+01  1  2 15  1  7  1        1 0.415678401037D-04 0.100000000000D+01
0.235805508929D-04 0.000000000000D+00 0.000000000000D+00 0.172718700498D-05 0.000000000000D+00  7 1 -2 -24 -13 13 23 21 2 0.19186871D+00 0.12557604D-01 0.80318007D+05 0.80318007D+05 0.80318007D+05 0.11296180D+01  1  2 12  1  7  1        1 0.142860531360D-02 0.100000000000D+01
-.207226864320D-04 0.000000000000D+00 0.000000000000D+00 0.172718700498D-05 0.000000000000D+00  7 1 -2 -24 -13 13 23 21 2 0.18145985D+00 0.12557604D-01 0.74633388D+05 0.74633388D+05 0.74633388D+05 0.11323009D+01  1  2  4  1  7  1        1 -.140674323990D-02 0.100000000000D+01
-.109798164570D-03 0.000000000000D+00 -.185732699640D-04 0.172718700498D-05 0.000000000000D+00  7 1 -2 -24 -13 13 23 21 2 0.19280016D+00 0.12557604D-01 0.74633388D+05 0.74633388D+05 0.74633388D+05 0.11323009D+01  1  2  5  1  7  1        1 -.662667109633D-02 0.100000000000D+01
0.110754586078D-03 0.000000000000D+00 0.185391959639D-04 0.172718700498D-05 0.000000000000D+00  7 1 -2 -24 -13 13 23 21 2 0.18145985D+00 0.12557604D-01 0.74633388D+05 0.74633388D+05 0.74633388D+05 0.11323009D+01  1  2  6  1  7  1        1 0.751848780636D-02 0.100000000000D+01
0.275650695766D-06 0.000000000000D+00 0.000000000000D+00 0.172718700498D-05 0.000000000000D+00  7 21 -2 -24 -13 13 23 -1 2 0.19186871D+00 0.12557604D-01 0.80318007D+05 0.80318007D+05 0.80318007D+05 0.11296180D+01  1  2 12  3  7  1        1 0.176200033069D-04 0.100000000000D+01
-.111834541692D-05 0.000000000000D+00 -.193186102957D-06 0.172718700498D-05 0.000000000000D+00  7 21 -2 -24 -13 13 23 -1 2 0.19280016D+00 0.12557604D-01 0.74633388D+05 0.74633388D+05 0.74633388D+05 0.11323009D+01  1  2  5  3  7  1        1 -.709875871071D-04 0.100000000000D+01
  </mgrwgt>
  </event>
  <event>
  9     66 0.29493621E-05 0.35193930E+03 0.75467711E-02 0.94022123E-01
        1 -1    0    0  501    0 0.00000000E+00 0.00000000E+00 0.25527340E+04 0.25527340E+04 0.32000000E+00 0.0000E+00 0.9000E+01
       21 -1    0    0  502  501 0.00000000E+00 0.00000000E+00 -.31933323E+03 0.31933412E+03 0.75000000E+00 0.0000E+00 0.9000E+01
       25  2    1    2    0    0 -.60533069E+02 -.17684013E+03 0.42214789E+03 0.54970113E+03 0.29837194E+03 0.0000E+00 0.0000E+00
       23  2    3    3    0    0 0.20837790E+02 -.20398037E+03 0.23522106E+03 0.32472402E+03 0.89858446E+02 0.0000E+00 0.0000E+00
      -24  1    1    2    0    0 -.15207186E+03 0.37744782E+03 0.19536632E+04 0.19972130E+04 0.80419002E+02 0.0000E+00 0.9000E+01
      -13  1    4    4    0    0 0.50914735E+02 -.16944679E+03 0.19942458E+03 0.26659839E+03 0.10565837E+00 0.0000E+00 0.9000E+01
       13  1    4    4    0    0 -.30076944E+02 -.34533577E+02 0.35796476E+02 0.58125635E+02 0.10565837E+00 0.0000E+00 0.9000E+01
       23  1    3    3    0    0 -.81370859E+02 0.27140242E+02 0.18692683E+03 0.22497711E+03 0.91188000E+02 0.0000E+00 0.9000E+01
        2  1    1    2  502    0 0.21260492E+03 -.20060769E+03 -.14241034E+03 0.32515397E+03 0.32000000E+00 0.0000E+00 0.9000E+01
#aMCatNLO 2  0  0  2  1 0.29230857D+03 0.00000000D+00  -5  7  0 0.00000000D+00 0.00000000D+00 0.00000000D+00 0.00000000D+00 0.00000000D+00
  <mgrwgt>
 0.9798026994D-03    2    2    0
 0.434985359387078D+03 0.000000000000000D+00 0.000000000000000D+00 0.434985359387078D+03
 0.434985359387078D+03 0.000000000000000D+00 0.000000000000000D+00 -.434985359387078D+03
 0.387536291992942D+03 -.482959976278229D+02 0.279528002267664D+03 0.251493050040454D+03
 0.287395174465780D+03 0.111683963729117D+03 -.226786913396326D+03 -.136712744336937D+03
 0.730234610784377D+02 -.132298915319544D+02 -.504298748075977D+02 -.511294784328653D+02
 0.122015791236996D+03 -.501580745693402D+02 -.231121406374035D+01 -.636508272706516D+02
 0.000000000000000D+00 0.000000000000000D+00 -.000000000000000D+00 -.000000000000000D+00
 0.475917537877660D+03 0.000000000000000D+00 0.000000000000000D+00 0.475917537877660D+03
 0.171284720901614D+04 0.000000000000000D+00 0.000000000000000D+00 -.171284720901614D+04
 0.485086255370622D+03 -.152071855513713D+03 0.377447818561835D+03 0.251493050040454D+03
 0.223595561211921D+03 0.509148463977933D+02 -.169446979748316D+03 -.136712744336937D+03
 0.686396966196674D+02 -.300770561684417D+02 -.345333907901257D+02 -.511294784328653D+02
 0.140443898345166D+03 -.813708589847140D+02 0.271402419708961D+02 -.636508272706516D+02
 0.127099933534643D+04 0.212604924269075D+03 -.200607689994289D+03 -.123692967113848D+04
-.501125619937D-05 0.000000000000D+00 0.000000000000D+00 0.558489592537D-06 0.000000000000D+00  7 1 21 -24 -13 13 23 2 2 0.35895102D+00 0.47512679D-01 0.27827092D+06 0.27827092D+06 0.27827092D+06 0.10869760D+01  1  2 13  4  7  2       -2 -.537787311590D-04 0.100000000000D+01
0.146579178099D-03 0.000000000000D+00 0.000000000000D+00 0.558489592537D-06 0.189298657973D-10  7 1 21 -24 -13 13 23 2 2 0.39272836D+00 0.49128257D-01 0.27827092D+06 0.27827092D+06 0.27827092D+06 0.10869760D+01  1  2  1  4  7  2       -2 0.103358143061D-02 0.100000000000D+01
  </mgrwgt>
  </event>
  <event>
  9     66 0.29493621E-05 0.35156349E+03 0.75467711E-02 0.98557412E-01
        1 -1    0    0  501    0 0.00000000E+00 0.00000000E+00 0.35320736E+03 0.35320751E+03 0.32000000E+00 0.0000E+00 0.9000E+01
       -2 -1    0    0    0  502 0.00000000E+00 0.00000000E+00 -.40757651E+03 0.40757664E+03 0.32000000E+00 0.0000E+00 0.9000E+01
       25  2    1    2    0    0 0.30046909E+03 0.18315787E+02 0.74958132E+01 0.42318337E+03 0.29733959E+03 0.0000E+00 0.0000E+00
       23  2    3    3    0    0 0.11259889E+02 -.39084666E+02 -.44897669E+02 0.11013848E+03 0.91979821E+02 0.0000E+00 0.0000E+00
      -24  1    1    2    0    0 -.30332863E+03 -.52205450E+01 -.70455887E+02 0.32166249E+03 0.80419002E+02 0.0000E+00 0.9000E+01
      -11  1    4    4    0    0 0.69682642E+01 0.20380252E+02 -.45691504E+02 0.50513612E+02 0.51099893E-03 0.0000E+00 0.9000E+01
       11  1    4    4    0    0 0.42916250E+01 -.59464918E+02 0.79383539E+00 0.59624867E+02 0.51099893E-03 0.0000E+00 0.9000E+01
       23  1    3    3    0    0 0.28920920E+03 0.57400453E+02 0.52393482E+02 0.31304489E+03 0.91188000E+02 0.0000E+00 0.9000E+01
       21  1    1    2  501  502 0.28595411E+01 -.13095242E+02 0.85909241E+01 0.15938282E+02 0.75000000E+00 0.0000E+00 0.9000E+01
#aMCatNLO 2  0  0  2  1 0.13403818D+02 0.00000000D+00  -5  7  0 0.00000000D+00 0.00000000D+00 0.00000000D+00 0.00000000D+00 0.00000000D+00
  <mgrwgt>
 0.3009105381D-03    2    2    0
 0.371029554305838D+03 0.000000000000000D+00 0.000000000000000D+00 0.371029554305838D+03
 0.371029554305838D+03 0.000000000000000D+00 0.000000000000000D+00 -.371029554305838D+03
 0.315815882255680D+03 -.302109750691434D+03 -.108023906298246D+02 -.434219118004180D+02
 0.464938106459940D+02 0.714804094635018D+01 0.195569659630708D+02 -.415704825727839D+02
 0.609820621016587D+02 0.452452915321422D+01 -.605315006175693D+02 0.585473885817936D+01
 0.318767353608344D+03 0.290437180591869D+03 0.517769252843231D+02 0.791376555150225D+02
 0.000000000000000D+00 0.000000000000000D+00 -.000000000000000D+00 0.000000000000000D+00
 0.384430562548453D+03 0.000000000000000D+00 0.000000000000000D+00 0.384430562548453D+03
 0.374456940744873D+03 0.000000000000000D+00 0.000000000000000D+00 -.374456940744873D+03
 0.316840954005869D+03 -.303328629817039D+03 -.522054498046831D+01 -.434219118004180D+02
 0.468189747873341D+02 0.696826417038288D+01 0.203802520409992D+02 -.415704825727839D+02
 0.599063646987866D+02 0.429162503915291D+01 -.594649183876499D+02 0.585473885817936D+01
 0.318613861872257D+03 0.289209199458854D+03 0.574004534921824D+02 0.791376555150225D+02
 0.167073479290797D+02 0.285954114864901D+01 -.130952421650633D+02 0.997362180358041D+01
-.240657998404D-04 0.000000000000D+00 0.000000000000D+00 0.126414076993D-06 0.000000000000D+00  7 1 -2 -24 -11 11 23 21 2 0.52444198D-01 0.62128783D-01 0.12359689D+06 0.12359689D+06 0.12359689D+06 0.11142491D+01  1  2  8  2  7  2       -2 -.606941213519D-03 0.100000000000D+01
0.385839695936D-04 0.000000000000D+00 0.000000000000D+00 0.126414076993D-06 0.465091520894D-08  7 1 -2 -24 -11 11 23 21 2 0.54338400D-01 0.62702698D-01 0.12853756D+06 0.12853756D+06 0.12853756D+06 0.11128832D+01  1  2  1  2  7  2       -2 0.907851751667D-03 0.100000000000D+01
  </mgrwgt>
  </event>
  <event>
  8     66 0.29493621E-05 0.73046953E+02 0.75467711E-02 0.10211736E+00
        1 -1    0    0  501    0 0.00000000E+00 0.00000000E+00 0.24672834E+03 0.24672855E+03 0.32000000E+00 0.0000E+00 0.9000E+01
       -2 -1    0    0    0  501 0.00000000E+00 0.00000000E+00 -.44948387E+03 0.44948398E+03 0.32000000E+00 0.0000E+00 0.9000E+01
       25  2    1    2    0    0 0.18241090E+03 -.58827700E+02 -.30496335E+03 0.46459195E+03 0.29344267E+03 0.0000E+00 0.0000E+00
       23  2    3    3    0    0 0.19016016E+03 -.31732434E+02 -.30055641E+03 0.36904680E+03 0.93239208E+02 0.0000E+00 0.0000E+00
      -24  1    1    2    0    0 -.18241090E+03 0.58827700E+02 0.10220782E+03 0.23162057E+03 0.80419002E+02 0.0000E+00 0.9000E+01
      -11  1    4    4    0    0 0.10240734E+03 0.20548185E+02 -.10324984E+03 0.14686736E+03 0.51099893E-03 0.0000E+00 0.9000E+01
       11  1    4    4    0    0 0.87752815E+02 -.52280619E+02 -.19730657E+03 0.22217944E+03 0.51099893E-03 0.0000E+00 0.9000E+01
       23  1    3    3    0    0 -.77492525E+01 -.27095266E+02 -.44069368E+01 0.95545156E+02 0.91188000E+02 0.0000E+00 0.9000E+01
#aMCatNLO 1  0  0  2  1 0.33162564D+02 0.00000000D+00  -5  7  0 0.00000000D+00 0.00000000D+00 0.00000000D+00 0.00000000D+00 0.00000000D+00
  <mgrwgt>
 0.1908244452D-02    9    2    0
 0.333017295895655D+03 0.000000000000000D+00 0.000000000000000D+00 0.333017295895655D+03
 0.333017295895655D+03 0.000000000000000D+00 0.000000000000000D+00 -.333017295895655D+03
 0.273229570316395D+03 -.182410904385327D+03 0.588277004596016D+02 0.177349219792120D+03
 0.122090381700553D+03 0.102407341639590D+03 0.205481853443435D+02 -.632184289677732D+02
 0.172181914451915D+03 0.877528152330970D+02 -.522806194857143D+02 -.138610215746107D+03
 0.985327253224472D+02 -.774925248736021D+01 -.270952663182308D+02 0.244794249217607D+02
 0.000000000000000D+00 0.000000000000000D+00 -.000000000000000D+00 -.000000000000000D+00
 0.348189132988177D+03 0.000000000000000D+00 0.000000000000000D+00 0.348189132988177D+03
 0.352058030606935D+03 0.000000000000000D+00 0.000000000000000D+00 -.352058030606935D+03
 0.283030874142576D+03 -.196021647792377D+03 0.613353698890618D+02 0.177349219792120D+03
 0.117412439084779D+03 0.965471165032438D+02 0.216278844456107D+02 -.632184289677732D+02
 0.167626568648379D+03 0.794382817855223D+02 -.507487339212632D+02 -.138610215746107D+03
 0.987897983705669D+02 -.125773977656556D+02 -.262057195864113D+02 0.244794249217607D+02
 0.333874833488103D+02 0.326136472692663D+02 -.600880082699798D+01 -.386889761875836D+01
0.394358504645D-04 0.000000000000D+00 0.000000000000D+00 0.803734184318D-08 0.000000000000D+00  7 1 -2 -24 -11 11 23 21 0 0.37958231D-01 0.69151389D-01 0.64996474D+05 0.64996474D+05 0.64996474D+05 0.11374079D+01  1  2  2  2  7  2       -2 0.986358389581D-03 0.100000000000D+01
-.200076773823D-05 0.000000000000D+00 -.151444049481D-06 0.803734184318D-08 0.000000000000D+00  7 1 -2 -24 -11 11 23 21 2 0.37958231D-01 0.69151389D-01 0.64996474D+05 0.64996474D+05 0.64996474D+05 0.11374079D+01  1  2  3  2  7  2       -2 -.647399938940D-04 0.100000000000D+01
0.253257995080D-05 0.000000000000D+00 0.000000000000D+00 0.803734184318D-08 0.000000000000D+00  7 1 -2 -24 -11 11 23 21 2 0.37958231D-01 0.69151389D-01 0.64996474D+05 0.64996474D+05 0.64996474D+05 0.11374079D+01  1  2 15  2  7  2       -2 0.819481479126D-04 0.100000000000D+01
0.760000489587D-04 0.000000000000D+00 0.000000000000D+00 0.803734184318D-08 0.000000000000D+00  7 1 -2 -24 -11 11 23 21 2 0.37958231D-01 0.74600342D-01 0.73617843D+05 0.73617843D+05 0.73617843D+05 0.11328039D+01  1  2 12  2  7  2       -2 0.206860530775D-02 0.100000000000D+01
-.636480654186D-04 0.000000000000D+00 0.000000000000D+00 0.803734184318D-08 0.000000000000D+00  7 1 -2 -24 -11 11 23 21 2 0.37958231D-01 0.69151389D-01 0.64996474D+05 0.64996474D+05 0.64996474D+05 0.11374079D+01  1  2  4  2  7  2       -2 -.205949710595D-02 0.100000000000D+01
-.251705179754D-03 0.000000000000D+00 -.543445157256D-04 0.803734184318D-08 0.000000000000D+00  7 1 -2 -24 -11 11 23 21 2 0.37958231D-01 0.75927299D-01 0.64996474D+05 0.64996474D+05 0.64996474D+05 0.11374079D+01  1  2  5  2  7  2       -2 -.665936257320D-02 0.100000000000D+01
0.255902903690D-03 0.000000000000D+00 0.541079414666D-04 0.803734184318D-08 0.000000000000D+00  7 1 -2 -24 -11 11 23 21 2 0.37958231D-01 0.69151389D-01 0.64996474D+05 0.64996474D+05 0.64996474D+05 0.11374079D+01  1  2  6  2  7  2       -2 0.828039762226D-02 0.100000000000D+01
0.970380945216D-06 0.000000000000D+00 0.000000000000D+00 0.803734184318D-08 0.000000000000D+00  7 1 21 -24 -11 11 23 2 2 0.37958231D-01 0.74600342D-01 0.73617843D+05 0.73617843D+05 0.73617843D+05 0.11328039D+01  1  2 12  4  7  2       -2 0.267818081564D-03 0.100000000000D+01
-.369788817217D-05 0.000000000000D+00 -.832501231621D-06 0.803734184318D-08 0.000000000000D+00  7 1 21 -24 -11 11 23 2 2 0.37958231D-01 0.75927299D-01 0.64996474D+05 0.64996474D+05 0.64996474D+05 0.11374079D+01  1  2  5  4  7  2       -2 -.993283423782D-03 0.100000000000D+01
  </mgrwgt>
  </event>
  <event>
  8     66 0.29493621E-05 0.14114027E+03 0.75467711E-02 0.10162143E+00
        1 -1    0    0  501    0 0.00000000E+00 0.00000000E+00 0.71192101E+03 0.71192108E+03 0.32000000E+00 0.0000E+00 0.9000E+01
       -2 -1    0    0    0  501 0.00000000E+00 0.00000000E+00 -.10525599E+03 0.10525647E+03 0.32000000E+00 0.0000E+00 0.9000E+01
       25  2    1    2    0    0 0.29741807E+02 -.37963241E+02 0.64748287E+03 0.71490783E+03 0.29922127E+03 0.0000E+00 0.0000E+00
       23  2    3    3    0    0 0.38161702E+02 -.10696062E+02 0.52209082E+02 0.11201437E+03 0.90833422E+02 0.0000E+00 0.0000E+00
      -24  1    1    2    0    0 -.29741807E+02 0.37963241E+02 -.40817844E+02 0.10226972E+03 0.80419002E+02 0.0000E+00 0.9000E+01
      -11  1    4    4    0    0 0.68314960E+01 -.45570433E+02 0.45317531E+02 0.64629809E+02 0.51099893E-03 0.0000E+00 0.9000E+01
       11  1    4    4    0    0 0.31330206E+02 0.34874371E+02 0.68915514E+01 0.47384565E+02 0.51099893E-03 0.0000E+00 0.9000E+01
       23  1    3    3    0    0 -.84198946E+01 -.27267179E+02 0.59527378E+03 0.60289346E+03 0.91188000E+02 0.0000E+00 0.9000E+01
#aMCatNLO 1  0  0  2  2 0.21336279D+03 0.00000000D+00  -5  7  0 0.00000000D+00 0.00000000D+00 0.00000000D+00 0.00000000D+00 0.00000000D+00
  <mgrwgt>
 0.9423300808D-03    5    2    0
 0.273741073143884D+03 0.000000000000000D+00 0.000000000000000D+00 0.273741073143884D+03
 0.273741073143884D+03 0.000000000000000D+00 0.000000000000000D+00 -.273741073143884D+03
 0.197879101921869D+03 -.297418069918504D+02 0.379632407123143D+02 -.174250223226580D+03
 0.462507658730452D+02 0.683149601941450D+01 -.455704326495205D+02 -.397488039008480D+01
 0.630901660872128D+02 0.313302055336684D+02 0.348743707335016D+02 -.422204398848765D+02
 0.240262112405642D+03 -.841989456123255D+01 -.272671787962955D+02 0.220445543501542D+03
 0.000000000000000D+00 -.000000000000000D+00 -.000000000000000D+00 -.000000000000000D+00
 0.385404892048952D+03 0.000000000000000D+00 0.000000000000000D+00 0.385404892048952D+03
 0.418025799825971D+03 0.000000000000000D+00 0.000000000000000D+00 -.418025799825971D+03
 0.207980314319625D+03 0.396498591158600D+02 0.696659426671222D+02 -.174250223226580D+03
 0.446805039423831D+02 0.223784368104293D+02 -.384675619756627D+02 -.397488039008480D+01
 0.844654720815555D+02 0.565584771133645D+02 0.464003135388609D+02 -.422204398848765D+02
 0.250462323755131D+03 0.754815374673919D+02 0.110645437632454D+02 0.220445543501542D+03
 0.215842077776229D+03 -.194068310507046D+03 -.886632379935657D+02 -.326209077770197D+02
0.878378938653D-05 0.000000000000D+00 0.000000000000D+00 0.107835740805D-05 0.000000000000D+00  7 1 -2 -24 -11 11 23 21 0 0.10952635D+00 0.16193271D-01 0.19920577D+05 0.19920577D+05 0.19920577D+05 0.11842028D+01  1  2  2  2  7  2       -2 0.723887533273D-03 0.100000000000D+01
-.227631558623D-06 0.000000000000D+00 -.337320640691D-07 0.107835740805D-05 0.000000000000D+00  7 1 -2 -24 -11 11 23 21 2 0.10952635D+00 0.16193271D-01 0.19920577D+05 0.19920577D+05 0.19920577D+05 0.11842028D+01  1  2  3  2  7  2       -2 -.263071526113D-04 0.100000000000D+01
0.552137980935D-06 0.000000000000D+00 0.000000000000D+00 0.107835740805D-05 0.000000000000D+00  7 1 -2 -24 -11 11 23 21 2 0.10952635D+00 0.16193271D-01 0.19920577D+05 0.19920577D+05 0.19920577D+05 0.11842028D+01  1  2 15  2  7  2       -2 0.638100367753D-04 0.100000000000D+01
0.171909191305D-05 0.000000000000D+00 -.278370514795D-05 0.107835740805D-05 0.000000000000D+00  7 1 -2 -24 -11 11 23 21 2 0.10952635D+00 0.34552600D-01 0.19920577D+05 0.19920577D+05 0.19920577D+05 0.11842028D+01  1  2  5  2  7  2       -2 0.564038048921D-04 0.100000000000D+01
0.314628826395D-06 0.000000000000D+00 -.228282671757D-06 0.107835740805D-05 0.000000000000D+00  7 1 21 -24 -11 11 23 2 2 0.10952635D+00 0.34552600D-01 0.19920577D+05 0.19920577D+05 0.19920577D+05 0.11842028D+01  1  2  5  4  7  2       -2 0.124535858479D-03 0.100000000000D+01
  </mgrwgt>
  </event>
  <event>
  8     66 0.29493621E-05 0.12059639E+03 0.75467711E-02 0.95968945E-01
        1 -1    0    0  501    0 0.00000000E+00 0.00000000E+00 0.14583274E+04 0.14583274E+04 0.32000000E+00 0.0000E+00 0.9000E+01
       -2 -1    0    0    0  501 0.00000000E+00 0.00000000E+00 -.12218706E+03 0.12218748E+03 0.32000000E+00 0.0000E+00 0.9000E+01
       25  2    1    2    0    0 0.10220239E+03 -.33042682E+03 0.95881133E+03 0.10623724E+04 0.29948092E+03 0.0000E+00 0.0000E+00
       23  2    3    3    0    0 -.26449505E+02 -.19207468E+02 0.37287995E+03 0.38043430E+03 0.67987461E+02 0.0000E+00 0.0000E+00
      -24  1    1    2    0    0 -.10220239E+03 0.33042682E+03 0.37732898E+03 0.51814244E+03 0.80419002E+02 0.0000E+00 0.9000E+01
      -13  1    4    4    0    0 -.15777715E+02 -.29973199E+02 0.76460033E+02 0.83627010E+02 0.10565837E+00 0.0000E+00 0.9000E+01
       13  1    4    4    0    0 -.10671791E+02 0.10765731E+02 0.29641991E+03 0.29680729E+03 0.10565837E+00 0.0000E+00 0.9000E+01
       23  1    3    3    0    0 0.12865190E+03 -.31121936E+03 0.58593139E+03 0.68193815E+03 0.91188000E+02 0.0000E+00 0.9000E+01
#aMCatNLO 1  0  0  1  2 0.12570773D+03 0.00000000D+00  -5  7  0 0.00000000D+00 0.00000000D+00 0.00000000D+00 0.00000000D+00 0.00000000D+00
  <mgrwgt>
 0.5131909883D-02    9    2    0
 0.422124497180979D+03 0.000000000000000D+00 0.000000000000000D+00 0.422124497180979D+03
 0.422124497180979D+03 0.000000000000000D+00 0.000000000000000D+00 -.422124497180979D+03
 0.372837138461000D+03 -.102202390955859D+03 0.330426823621409D+03 -.113635827870387D+03
 0.355491057248136D+02 -.157777270431974D+02 -.299732966852511D+02 0.107890561682776D+02
 0.865264157714117D+02 -.106717786447221D+02 0.107658294488785D+02 0.851882074179456D+02
 0.349336334404733D+03 0.128651896643778D+03 -.311219356385037D+03 0.176585642841636D+02
 0.000000000000000D+00 0.000000000000000D+00 0.000000000000000D+00 0.000000000000000D+00
 0.491246765907947D+03 0.000000000000000D+00 0.000000000000000D+00 0.491246765907947D+03
 0.488057962063385D+03 0.000000000000000D+00 0.000000000000000D+00 -.488057962063385D+03
 0.347906221063604D+03 -.135412754579700D+03 0.288655170093551D+03 -.113635827870387D+03
 0.408964849289549D+02 -.193001817831558D+02 -.344038040001266D+02 0.107890561682776D+02
 0.872144537103155D+02 -.186773986418544D+02 0.696443019280959D+00 0.851882074179456D+02
 0.377539398581792D+03 0.951589659315881D+02 -.353346419888124D+03 0.176585642841636D+02
 0.125748169686665D+03 0.782313690731217D+02 0.983986107754183D+02 0.318880384456145D+01
0.168035884295D-03 0.000000000000D+00 0.000000000000D+00 0.106804595879D-07 0.000000000000D+00  7 1 -2 -24 -13 13 23 21 0 0.22435809D+00 0.18798044D-01 0.14175928D+06 0.14175928D+06 0.14175928D+06 0.11094937D+01  1  2  2  1  7  1        1 0.296794676578D-02 0.100000000000D+01
-.918689068736D-05 0.000000000000D+00 -.645302040558D-06 0.106804595879D-07 0.000000000000D+00  7 1 -2 -24 -13 13 23 21 2 0.22435809D+00 0.18798044D-01 0.14175928D+06 0.14175928D+06 0.14175928D+06 0.11094937D+01  1  2  3  1  7  1        1 -.199743320028D-03 0.100000000000D+01
0.107060490625D-04 0.000000000000D+00 0.000000000000D+00 0.106804595879D-07 0.000000000000D+00  7 1 -2 -24 -13 13 23 21 2 0.22435809D+00 0.18798044D-01 0.14175928D+06 0.14175928D+06 0.14175928D+06 0.11094937D+01  1  2 15  1  7  1        1 0.232773182670D-03 0.100000000000D+01
0.966434261178D-04 0.000000000000D+00 0.000000000000D+00 0.106804595879D-07 0.000000000000D+00  7 1 -2 -24 -13 13 23 21 2 0.27598316D+00 0.18798044D-01 0.19793450D+06 0.19793450D+06 0.19793450D+06 0.10981718D+01  1  2 12  1  7  1        1 0.122083479143D-02 0.100000000000D+01
-.889945484985D-04 0.000000000000D+00 0.000000000000D+00 0.106804595879D-07 0.000000000000D+00  7 1 -2 -24 -13 13 23 21 2 0.22435809D+00 0.18798044D-01 0.14175928D+06 0.14175928D+06 0.14175928D+06 0.11094937D+01  1  2  4  1  7  1        1 -.193493829266D-02 0.100000000000D+01
-.261715273768D-03 0.000000000000D+00 -.885049701603D-04 0.106804595879D-07 0.000000000000D+00  7 1 -2 -24 -13 13 23 21 2 0.28406556D+00 0.18798044D-01 0.14175928D+06 0.14175928D+06 0.14175928D+06 0.11094937D+01  1  2  5  1  7  1        1 -.315393877827D-02 0.100000000000D+01
0.277252740256D-03 0.000000000000D+00 0.860969788195D-04 0.106804595879D-07 0.000000000000D+00  7 1 -2 -24 -13 13 23 21 2 0.22435809D+00 0.18798044D-01 0.14175928D+06 0.14175928D+06 0.14175928D+06 0.11094937D+01  1  2  6  1  7  1        1 0.602808770783D-02 0.100000000000D+01
0.284033589955D-05 0.000000000000D+00 0.000000000000D+00 0.106804595879D-07 0.000000000000D+00  7 21 -2 -24 -13 13 23 -1 2 0.27598316D+00 0.18798044D-01 0.19793450D+06 0.19793450D+06 0.19793450D+06 0.10981718D+01  1  2 12  3  7  1        1 0.218553789110D-04 0.100000000000D+01
-.713765415402D-05 0.000000000000D+00 -.286972364090D-05 0.106804595879D-07 0.000000000000D+00  7 21 -2 -24 -13 13 23 -1 2 0.28406556D+00 0.18798044D-01 0.14175928D+06 0.14175928D+06 0.14175928D+06 0.11094937D+01  1  2  5  3  7  1        1 -.509675526712D-04 0.100000000000D+01
  </mgrwgt>
  </event>
  <event>
  8     66 0.29493621E-05 0.20564932E+03 0.75467711E-02 0.97802781E-01
        1 -1    0    0  501    0 0.00000000E+00 0.00000000E+00 0.25408342E+03 0.25408362E+03 0.32000000E+00 0.0000E+00 0.9000E+01
       -2 -1    0    0    0  501 0.00000000E+00 0.00000000E+00 -.26363910E+03 0.26363930E+03 0.32000000E+00 0.0000E+00 0.9000E+01
       25  2    1    2    0    0 -.10339597E+03 0.46370382E+02 -.11651838E+03 0.34236850E+03 0.30132826E+03 0.0000E+00 0.0000E+00
       23  2    3    3    0    0 -.49054384E+02 -.67954290E+02 -.13791767E+03 0.18490003E+03 0.90236474E+02 0.0000E+00 0.0000E+00
      -24  1    1    2    0    0 0.10339597E+03 -.46370382E+02 0.10696270E+03 0.17535442E+03 0.80419002E+02 0.0000E+00 0.9000E+01
      -11  1    4    4    0    0 -.14232488E+02 -.78636156E+02 -.63587183E+02 0.10212511E+03 0.51099893E-03 0.0000E+00 0.9000E+01
       11  1    4    4    0    0 -.34821896E+02 0.10681866E+02 -.74330483E+02 0.82774920E+02 0.51099893E-03 0.0000E+00 0.9000E+01
       23  1    3    3    0    0 -.54341582E+02 0.11432467E+03 0.21399287E+02 0.15746847E+03 0.91188000E+02 0.0000E+00 0.9000E+01
#aMCatNLO 1  0  0  2  2 0.28001444D+03 0.00000000D+00  -5  7  0 0.00000000D+00 0.00000000D+00 0.00000000D+00 0.00000000D+00 0.00000000D+00
  <mgrwgt>
 0.1150055901D-02    3    2    0
 0.258817364681583D+03 0.000000000000000D+00 0.000000000000000D+00 0.258817364681583D+03
 0.258817364681583D+03 0.000000000000000D+00 0.000000000000000D+00 -.258817364681583D+03
 0.177358857679622D+03 0.103395965743332D+03 -.463703816468176D+02 0.110218013123910D+03
 0.100968674913868D+03 -.142324876810774D+02 -.786361559700473D+02 -.617127586688902D+02
 0.814168615378674D+02 -.348218963314574D+02 0.106818658436231D+02 -.728150988508314D+02
 0.157890335231809D+03 -.543415817307967D+02 0.114324671773242D+03 0.243098443958118D+02
 0.000000000000000D+00 0.000000000000000D+00 -.000000000000000D+00 0.000000000000000D+00
 0.477180671481875D+03 0.000000000000000D+00 0.000000000000000D+00 0.477180671481875D+03
 0.401419981680048D+03 0.000000000000000D+00 0.000000000000000D+00 -.401419981680048D+03
 0.158911940520289D+03 0.742220051927607D+02 0.335986966077103D+02 0.110218013123910D+03
 0.774717176212124D+02 -.297135017932572D+02 -.362009704267483D+02 -.617127586688902D+02
 0.104450084842765D+03 -.509472185134329D+02 0.548831716352920D+02 -.728150988508314D+02
 0.247684564473444D+03 -.895281818984048D+02 0.210775065522032D+03 0.243098443958118D+02
 0.290082345704213D+03 0.959668970123342D+02 -.263055963338286D+03 0.757606898018263D+02
0.163051072069D-04 0.000000000000D+00 0.000000000000D+00 0.207848502526D-06 0.000000000000D+00  7 1 -2 -24 -11 11 23 21 0 0.39089788D-01 0.40559893D-01 0.42291642D+05 0.42291642D+05 0.42291642D+05 0.11537469D+01  1  2  2  2  7  2       -2 0.113111938774D-02 0.100000000000D+01
-.847602083099D-06 0.000000000000D+00 -.626159049080D-07 0.207848502526D-06 0.000000000000D+00  7 1 -2 -24 -11 11 23 21 2 0.39089788D-01 0.40559893D-01 0.42291642D+05 0.42291642D+05 0.42291642D+05 0.11537469D+01  1  2  3  2  7  2       -2 -.782704569255D-04 0.100000000000D+01
0.105266831788D-05 0.000000000000D+00 0.000000000000D+00 0.207848502526D-06 0.000000000000D+00  7 1 -2 -24 -11 11 23 21 2 0.39089788D-01 0.40559893D-01 0.42291642D+05 0.42291642D+05 0.42291642D+05 0.11537469D+01  1  2 15  2  7  2       -2 0.972069699621D-04 0.100000000000D+01
  </mgrwgt>
  </event>
  <event>
  8     66 0.29493621E-05 0.58101086E+03 0.75467711E-02 0.83835838E-01
        1 -1    0    0  501    0 0.00000000E+00 0.00000000E+00 0.56983985E+03 0.56983994E+03 0.32000000E+00 0.0000E+00 0.9000E+01
       -2 -1    0    0    0  501 0.00000000E+00 0.00000000E+00 -.70165357E+03 0.70165364E+03 0.32000000E+00 0.0000E+00 0.9000E+01
       25  2    1    2    0    0 -.32607297E+03 0.44397713E+03 -.29317123E+03 0.69188792E+03 0.29886495E+03 0.0000E+00 0.0000E+00
       23  2    3    3    0    0 -.27244863E+03 0.19823611E+03 -.10300724E+03 0.36364744E+03 0.90017562E+02 0.0000E+00 0.0000E+00
      -24  1    1    2    0    0 0.32607297E+03 -.44397713E+03 0.16135751E+03 0.57960567E+03 0.80419002E+02 0.0000E+00 0.9000E+01
      -11  1    4    4    0    0 -.11408382E+03 0.97725095E+02 -.91140700E+02 0.17570413E+03 0.51099893E-03 0.0000E+00 0.9000E+01
       11  1    4    4    0    0 -.15836481E+03 0.10051101E+03 -.11866542E+02 0.18794332E+03 0.51099893E-03 0.0000E+00 0.9000E+01
       23  1    3    3    0    0 -.53624337E+02 0.24574102E+03 -.19016399E+03 0.32824048E+03 0.91188000E+02 0.0000E+00 0.9000E+01
#aMCatNLO 1  0  0  1  2 0.12669244D+04 0.00000000D+00  -5  7  0 0.00000000D+00 0.00000000D+00 0.00000000D+00 0.00000000D+00 0.00000000D+00
  <mgrwgt>
 0.1253186361D-02    3    2    0
 0.632321335509693D+03 0.000000000000000D+00 0.000000000000000D+00 0.632321335509693D+03
 0.632321335509693D+03 0.000000000000000D+00 0.000000000000000D+00 -.632321335509693D+03
 0.599563844749679D+03 0.326072965820542D+03 -.443977126929145D+03 0.222643930304387D+03
 0.167156366344111D+03 -.114083820667378D+03 0.977250952941354D+02 -.733207911922133D+02
 0.187724609305098D+03 -.158364807880877D+03 0.100511013404351D+03 0.765850821210260D+01
 0.310197850620497D+03 -.536243372722863D+02 0.245741018230659D+03 -.156981647324277D+03
 0.000000000000000D+00 -.000000000000000D+00 0.000000000000000D+00 -.000000000000000D+00
 0.124914588030254D+04 0.000000000000000D+00 0.000000000000000D+00 0.124914588030254D+04
 0.202826329357832D+04 0.000000000000000D+00 0.000000000000000D+00 -.202826329357832D+04
 0.139713188040844D+04 0.887141372006884D+03 -.105305277250080D+04 0.222643930304387D+03
 0.871675520850458D+02 -.426191934985031D+02 0.201456710234277D+02 -.733207911922133D+02
 0.841732850830545D+02 -.819619206869844D+02 0.175707919838230D+02 0.765850821210260D+01
 0.221616253956685D+03 0.958146024133824D+02 0.835154898298273D+02 -.156981647324277D+03
 0.148732020234763D+04 -.858374860234779D+03 0.931820819663717D+03 -.779117413275782D+03
0.445021453891D-03 0.000000000000D+00 0.000000000000D+00 0.186003306144D-05 0.000000000000D+00  7 1 -2 -24 -11 11 23 21 0 0.87667682D-01 0.10794672D+00 0.33757362D+06 0.33757362D+06 0.33757362D+06 0.10807806D+01  1  2  2  1  7  1        1 0.124058438327D-02 0.100000000000D+01
-.245081256483D-04 0.000000000000D+00 -.170899955978D-05 0.186003306144D-05 0.000000000000D+00  7 1 -2 -24 -11 11 23 21 2 0.87667682D-01 0.10794672D+00 0.33757362D+06 0.33757362D+06 0.33757362D+06 0.10807806D+01  1  2  3  1  7  1        1 -.798050823605D-04 0.100000000000D+01
0.283781906783D-04 0.000000000000D+00 0.000000000000D+00 0.186003306144D-05 0.000000000000D+00  7 1 -2 -24 -11 11 23 21 2 0.87667682D-01 0.10794672D+00 0.33757362D+06 0.33757362D+06 0.33757362D+06 0.10807806D+01  1  2 15  1  7  1        1 0.924070602880D-04 0.100000000000D+01
  </mgrwgt>
  </event>
  <event>
  9     66 0.29493621E-05 0.28690250E+03 0.75467711E-02 0.98755791E-01
       21 -1    0    0  501  502 0.00000000E+00 0.00000000E+00 0.77282141E+03 0.77282177E+03 0.75000000E+00 0.0000E+00 0.9000E+01
       -4 -1    0    0    0  501 0.00000000E+00 0.00000000E+00 -.34466147E+03 0.34466496E+03 0.15500000E+01 0.0000E+00 0.9000E+01
       25  2    1    2    0    0 -.12686398E+03 0.15667315E+03 0.40812129E+03 0.54472302E+03 0.29919764E+03 0.0000E+00 0.0000E+00
       23  2    3    3    0    0 0.56993157E+02 0.16662824E+02 0.17412049E+03 0.20343433E+03 0.86843028E+02 0.0000E+00 0.0000E+00
      -24  1    1    2    0    0 0.24347136E+02 -.21787401E+03 0.23220149E+03 0.32931234E+03 0.80419002E+02 0.0000E+00 0.9000E+01
      -11  1    4    4    0    0 -.22749804E+02 -.23801582E+00 0.50100918E+02 0.55024651E+02 0.51099893E-03 0.0000E+00 0.9000E+01
       11  1    4    4    0    0 0.79742961E+02 0.16900840E+02 0.12401957E+03 0.14840968E+03 0.51099893E-03 0.0000E+00 0.9000E+01
       23  1    3    3    0    0 -.18385714E+03 0.14001033E+03 0.23400080E+03 0.34128868E+03 0.91188000E+02 0.0000E+00 0.9000E+01
       -3  1    1    2    0  502 0.10251685E+03 0.61200862E+02 -.21216284E+03 0.24345137E+03 0.50000000E+00 0.0000E+00 0.9000E+01
#aMCatNLO 2  0  0  1  2 0.11939535D+03 0.00000000D+00  -5  7  0 0.00000000D+00 0.00000000D+00 0.00000000D+00 0.00000000D+00 0.00000000D+00
  <mgrwgt>
 0.1830030856D-04    1    2    0
 0.291405767990419D+03 0.000000000000000D+00 0.000000000000000D+00 0.291405767990419D+03
 0.291405767990419D+03 0.000000000000000D+00 0.000000000000000D+00 -.291405767990419D+03
 0.220154595029515D+03 0.638703426474990D+02 -.194279313725593D+03 -.133025315877354D+02
 0.234482768806274D+02 -.183657798703193D+02 0.237917406468821D+01 0.143826057859992D+02
 0.102112068253556D+03 0.959915990310222D+02 0.266010077226511D+02 0.224693966680393D+02
 0.237096595817140D+03 -.141496161808202D+03 0.165299131938254D+03 -.235494708663031D+02
 0.000000000000000D+00 0.000000000000000D+00 0.000000000000000D+00 -.000000000000000D+00
 0.303603530103275D+03 0.000000000000000D+00 0.000000000000000D+00 0.303603530103275D+03
 0.877340684639074D+03 0.000000000000000D+00 0.000000000000000D+00 -.877340684639074D+03
 0.233893228480812D+03 0.243471363485191D+02 -.217874014007616D+03 -.133025315877354D+02
 0.269159726514488D+02 -.227498040221370D+02 -.238015823925614D+00 0.143826057859992D+02
 0.845544324247764D+02 0.797429612589471D+02 0.169008397928757D+02 0.224693966680393D+02
 0.249551936869586D+03 -.183857140886953D+03 0.140010328255291D+03 -.235494708663031D+02
 0.586028644315726D+03 0.102516847301624D+03 0.612008617833753D+02 -.573737154535799D+03
0.177982570755D-05 0.000000000000D+00 0.000000000000D+00 0.762496471710D-07 0.598403915645D-12  7 21 -4 -24 -11 11 23 -3 2 0.11889586D+00 0.53025119D-01 0.12447265D+06 0.12447265D+06 0.12447265D+06 0.11140026D+01  1  2  1  3  7  1        3 0.183003085574D-04 0.100000000000D+01
  </mgrwgt>
  </event>
  <event>
  8     66 0.29493621E-05 0.67303816E+03 0.75467711E-02 0.87242795E-01
        1 -1    0    0  501    0 0.00000000E+00 0.00000000E+00 0.93998852E+03 0.93998857E+03 0.32000000E+00 0.0000E+00 0.9000E+01
       -2 -1    0    0    0  501 0.00000000E+00 0.00000000E+00 -.11627943E+04 0.11627944E+04 0.32000000E+00 0.0000E+00 0.9000E+01
       25  2    1    2    0    0 0.49203095E+03 0.71695578E+03 -.65524787E+03 0.11283121E+04 0.29600417E+03 0.0000E+00 0.0000E+00
       23  2    3    3    0    0 0.40042837E+03 0.65954583E+03 -.54096681E+03 0.94648160E+03 0.88536678E+02 0.0000E+00 0.0000E+00
      -24  1    1    2    0    0 -.49203095E+03 -.71695578E+03 0.43244204E+03 0.97447082E+03 0.80419002E+02 0.0000E+00 0.9000E+01
      -13  1    4    4    0    0 0.46385615E+02 0.13775668E+03 -.85661443E+02 0.16871995E+03 0.10565837E+00 0.0000E+00 0.9000E+01
       13  1    4    4    0    0 0.35404276E+03 0.52178915E+03 -.45530537E+03 0.77776165E+03 0.10565837E+00 0.0000E+00 0.9000E+01
       23  1    3    3    0    0 0.91602581E+02 0.57409954E+02 -.11428106E+03 0.18183055E+03 0.91188000E+02 0.0000E+00 0.9000E+01
#aMCatNLO 1  0  0  1  2 0.22400808D+03 0.00000000D+00  -5  7  0 0.00000000D+00 0.00000000D+00 0.00000000D+00 0.00000000D+00 0.00000000D+00
  <mgrwgt>
 0.4454682547D-02    9    2    0
 0.104547283141193D+04 0.000000000000000D+00 0.000000000000000D+00 0.104547283141193D+04
 0.104547283141193D+04 0.000000000000000D+00 0.000000000000000D+00 -.104547283141193D+04
 0.102606743623166D+04 -.492030950883763D+03 -.716955780979414D+03 0.538727314356019D+03
 0.160546429237551D+03 0.463851767074787D+02 0.137756129942785D+03 -.681675875026422D+02
 0.733649366481557D+03 0.354043193426627D+03 0.521789697168617D+03 -.375007096007194D+03
 0.170682430873103D+03 0.916025807496572D+02 0.574099538680123D+02 -.955526308461823D+02
 0.000000000000000D+00 -.000000000000000D+00 0.000000000000000D+00 0.000000000000000D+00
 0.122387141894664D+04 0.000000000000000D+00 0.000000000000000D+00 0.122387141894664D+04
 0.112421483511157D+04 0.000000000000000D+00 0.000000000000000D+00 -.112421483511157D+04
 0.100381628877870D+04 -.388284981438690D+03 -.748456798765960D+03 0.538727314356019D+03
 0.161932313982477D+03 0.628668448092414D+02 0.132751701117235D+03 -.681675875026422D+02
 0.757899628008242D+03 0.430275242830037D+03 0.498642897760346D+03 -.375007096007194D+03
 0.179262462909157D+03 0.109488025029284D+03 0.519792879695065D+02 -.955526308461823D+02
 0.245175560379635D+03 -.214345131229872D+03 0.650829119188715D+02 0.996565838350753D+02
0.926855522041D-02 0.000000000000D+00 0.000000000000D+00 0.195634521430D-06 0.000000000000D+00  7 1 -2 -24 -13 13 23 21 0 0.14461363D+00 0.17889145D+00 0.80157238D+06 0.80157238D+06 0.80157238D+06 0.10543187D+01  1  2  2  1  7  1        1 0.286853539621D-02 0.100000000000D+01
-.499866964813D-03 0.000000000000D+00 -.355936925130D-04 0.195634521430D-06 0.000000000000D+00  7 1 -2 -24 -13 13 23 21 2 0.14461363D+00 0.17889145D+00 0.80157238D+06 0.80157238D+06 0.80157238D+06 0.10543187D+01  1  2  3  1  7  1        1 -.171967503168D-03 0.100000000000D+01
0.584910533332D-03 0.000000000000D+00 0.000000000000D+00 0.195634521430D-06 0.000000000000D+00  7 1 -2 -24 -13 13 23 21 2 0.14461363D+00 0.17889145D+00 0.80157238D+06 0.80157238D+06 0.80157238D+06 0.10543187D+01  1  2 15  1  7  1        1 0.201224747931D-03 0.100000000000D+01
0.106071759038D-01 0.000000000000D+00 0.000000000000D+00 0.195634521430D-06 0.000000000000D+00  7 1 -2 -24 -13 13 23 21 2 0.17402514D+00 0.17889145D+00 0.10283925D+07 0.10283925D+07 0.10283925D+07 0.10470555D+01  1  2 12  1  7  1        1 0.252742074083D-02 0.100000000000D+01
-.105942414938D-01 0.000000000000D+00 0.000000000000D+00 0.195634521430D-06 0.000000000000D+00  7 1 -2 -24 -13 13 23 21 2 0.14461363D+00 0.17889145D+00 0.80157238D+06 0.80157238D+06 0.80157238D+06 0.10543187D+01  1  2  4  1  7  1        1 -.364470026206D-02 0.100000000000D+01
-.229468411302D-01 0.000000000000D+00 -.611726096240D-02 0.195634521430D-06 0.000000000000D+00  7 1 -2 -24 -13 13 23 21 2 0.17715055D+00 0.17889145D+00 0.80157238D+06 0.80157238D+06 0.80157238D+06 0.10543187D+01  1  2  5  1  7  1        1 -.544445906590D-02 0.100000000000D+01
0.238199137997D-01 0.000000000000D+00 0.599342513102D-02 0.195634521430D-06 0.000000000000D+00  7 1 -2 -24 -13 13 23 21 2 0.14461363D+00 0.17889145D+00 0.80157238D+06 0.80157238D+06 0.80157238D+06 0.10543187D+01  1  2  6  1  7  1        1 0.819468256588D-02 0.100000000000D+01
0.285960085201D-03 0.000000000000D+00 0.000000000000D+00 0.195634521430D-06 0.000000000000D+00  7 21 -2 -24 -13 13 23 -1 2 0.17402514D+00 0.17889145D+00 0.10283925D+07 0.10283925D+07 0.10283925D+07 0.10470555D+01  1  2 12  3  7  1        1 0.737132077328D-04 0.100000000000D+01
-.591797499650D-03 0.000000000000D+00 -.177020394857D-03 0.195634521430D-06 0.000000000000D+00  7 21 -2 -24 -13 13 23 -1 2 0.17715055D+00 0.17889145D+00 0.80157238D+06 0.80157238D+06 0.80157238D+06 0.10543187D+01  1  2  5  3  7  1        1 -.149767280067D-03 0.100000000000D+01
  </mgrwgt>
  </event>
  <event>
  9     66 0.29493621E-05 0.51969474E+03 0.75467711E-02 0.93056250E-01
        1 -1    0    0  501    0 0.00000000E+00 0.00000000E+00 0.74417059E+03 0.74417066E+03 0.32000000E+00 0.0000E+00 0.9000E+01
       -2 -1    0    0    0  502 0.00000000E+00 0.00000000E+00 -.47603805E+03 0.47603815E+03 0.32000000E+00 0.0000E+00 0.9000E+01
       25  2    1    2    0    0 -.17178658E+03 0.43379360E+03 0.14687450E+03 0.57379011E+03 0.29995910E+03 0.0000E+00 0.0000E+00
       23  2    3    3    0    0 -.15651938E+03 0.36459598E+03 0.27358209E+02 0.40759507E+03 0.89200463E+02 0.0000E+00 0.0000E+00
      -24  1    1    2    0    0 0.93037006E+02 -.50702218E+03 0.67122214E+02 0.52602280E+03 0.80419002E+02 0.0000E+00 0.9000E+01
      -11  1    4    4    0    0 0.11043118E+02 0.34476667E+02 0.66329228E+01 0.36804710E+02 0.51099893E-03 0.0000E+00 0.9000E+01
       11  1    4    4    0    0 -.16756250E+03 0.33011932E+03 0.20725286E+02 0.37079036E+03 0.51099893E-03 0.0000E+00 0.9000E+01
       23  1    3    3    0    0 -.15267201E+02 0.69197611E+02 0.11951629E+03 0.16619504E+03 0.91188000E+02 0.0000E+00 0.9000E+01
       21  1    1    2  501  502 0.78749577E+02 0.73228588E+02 0.54135832E+02 0.12039590E+03 0.75000000E+00 0.0000E+00 0.9000E+01
#aMCatNLO 2  0  0  2  1 0.10753568D+03 0.00000000D+00  -5  7  0 0.00000000D+00 0.00000000D+00 0.00000000D+00 0.00000000D+00 0.00000000D+00
  <mgrwgt>
 0.4790160136D-03    1    2    0
 0.536709868130804D+03 0.000000000000000D+00 0.000000000000000D+00 0.536709868130804D+03
 0.536709868130804D+03 0.000000000000000D+00 0.000000000000000D+00 -.536709868130804D+03
 0.497811642684836D+03 0.130387004742467D+03 -.472290724911182D+03 -.359153977475262D+02
 0.395494784555901D+02 0.138150188261630D+02 0.370542350619066D+02 -.538669582322543D+00
 0.386003318930069D+03 -.139757449975163D+03 0.355975006050759D+03 -.524233961951216D+02
 0.150055296191113D+03 -.444457359346686D+01 0.792614837985161D+02 0.888774635249704D+02
 0.000000000000000D+00 0.000000000000000D+00 0.000000000000000D+00 0.000000000000000D+00
 0.611050665833067D+03 0.000000000000000D+00 0.000000000000000D+00 0.611050665833067D+03
 0.579742624457061D+03 0.000000000000000D+00 0.000000000000000D+00 -.579742624457061D+03
 0.522957465664033D+03 0.930370056481679D+02 -.507022183660673D+03 -.359153977475262D+02
 0.362060935977780D+02 0.110431181833642D+02 0.344766673198032D+02 -.538669582322543D+00
 0.373903955080556D+03 -.167562499877151D+03 0.330119317506824D+03 -.524233961951216D+02
 0.145725260982708D+03 -.152672008185630D+02 0.691976112377556D+02 0.888774635249704D+02
 0.112000514965053D+03 0.787495768641824D+02 0.732285875962903D+02 0.313080413760059D+02
0.886029846299D-04 0.000000000000D+00 0.000000000000D+00 0.439201642065D-05 0.240128244195D-08  7 1 -2 -24 -11 11 23 21 2 0.11448755D+00 0.73236481D-01 0.33128979D+06 0.33128979D+06 0.33128979D+06 0.10813784D+01  1  2  1  2  7  2       -2 0.479016013621D-03 0.100000000000D+01
  </mgrwgt>
  </event>
  <event>
  8     66 0.29493621E-05 0.71771818E+03 0.75467711E-02 0.85528387E-01
        1 -1    0    0  501    0 0.00000000E+00 0.00000000E+00 0.64275379E+03 0.64275387E+03 0.32000000E+00 0.0000E+00 0.9000E+01
       -2 -1    0    0    0  501 0.00000000E+00 0.00000000E+00 -.84173341E+03 0.84173347E+03 0.32000000E+00 0.0000E+00 0.9000E+01
       25  2    1    2    0    0 -.68755924E+03 -.88580181E+01 0.43161872E+02 0.75105984E+03 0.29901800E+03 0.0000E+00 0.0000E+00
       23  2    3    3    0    0 -.58552497E+02 0.11638419E+02 -.21474392E+02 0.11187076E+03 0.92141573E+02 0.0000E+00 0.0000E+00
      -24  1    1    2    0    0 0.68755924E+03 0.88580181E+01 -.24214149E+03 0.73342749E+03 0.80419002E+02 0.0000E+00 0.9000E+01
      -11  1    4    4    0    0 -.30410319E+01 -.34747370E+02 0.41493242E+01 0.35126123E+02 0.51099893E-03 0.0000E+00 0.9000E+01
       11  1    4    4    0    0 -.55511466E+02 0.46385790E+02 -.25623716E+02 0.76744636E+02 0.51099893E-03 0.0000E+00 0.9000E+01
       23  1    3    3    0    0 -.62900674E+03 -.20496437E+02 0.64636264E+02 0.63918908E+03 0.91188000E+02 0.0000E+00 0.9000E+01
#aMCatNLO 1  0  0  1  1 0.79621546D+03 0.00000000D+00  -5  7  0 0.00000000D+00 0.00000000D+00 0.00000000D+00 0.00000000D+00 0.00000000D+00
  <mgrwgt>
 0.8023352289D-03    5    2    0
 0.735545674694798D+03 0.000000000000000D+00 0.000000000000000D+00 0.735545674694798D+03
 0.735545674694798D+03 0.000000000000000D+00 0.000000000000000D+00 -.735545674694798D+03
 0.707354172368454D+03 0.687559238906637D+03 0.885801806337321D+01 -.145143162852422D+03
 0.360072239973208D+02 -.304103187596360D+01 -.347473704907837D+02 0.893826320371170D+01
 0.739776240506338D+02 -.555114655254305D+02 0.463857899008724D+02 -.154765807162941D+02
 0.653752328973187D+03 -.629006741505243D+03 -.204964374734619D+02 0.151681480365005D+03
 0.000000000000000D+00 -.000000000000000D+00 -.000000000000000D+00 0.000000000000000D+00
 0.164944679406000D+04 0.000000000000000D+00 0.000000000000000D+00 0.164944679406000D+04
 0.103129774424011D+04 0.000000000000000D+00 0.000000000000000D+00 -.103129774424011D+04
 0.104635635783817D+04 0.972044241375188D+03 0.349939804424321D+03 -.145143162852422D+03
 0.254462025684966D+02 0.692787571006635D+01 -.227952015609429D+02 0.893826320371170D+01
 0.841537376086277D+02 -.298595691393777D+02 0.771409951559125D+02 -.154765807162941D+02
 0.516786602688042D+03 -.439123197369859D+03 0.207163431666405D+03 0.151681480365005D+03
 0.100800163759676D+04 -.509989350576018D+03 -.611449029685696D+03 0.618149049819887D+03
0.571220374716D-03 0.000000000000D+00 0.000000000000D+00 0.322889992215D-05 0.000000000000D+00  7 1 -2 -24 -11 11 23 21 0 0.98885209D-01 0.12949746D+00 0.51511939D+06 0.51511939D+06 0.51511939D+06 0.10675972D+01  1  2  2  1  7  1        1 0.823150965445D-03 0.100000000000D+01
-.317112374737D-04 0.000000000000D+00 -.219363664469D-05 0.322889992215D-05 0.000000000000D+00  7 1 -2 -24 -11 11 23 21 2 0.98885209D-01 0.12949746D+00 0.51511939D+06 0.51511939D+06 0.51511939D+06 0.10675972D+01  1  2  3  1  7  1        1 -.520839432271D-04 0.100000000000D+01
0.359866948846D-04 0.000000000000D+00 0.000000000000D+00 0.322889992215D-05 0.000000000000D+00  7 1 -2 -24 -11 11 23 21 2 0.98885209D-01 0.12949746D+00 0.51511939D+06 0.51511939D+06 0.51511939D+06 0.10675972D+01  1  2 15  1  7  1        1 0.591061441502D-04 0.100000000000D+01
-.112266746216D-03 0.000000000000D+00 -.174269082334D-03 0.322889992215D-05 0.000000000000D+00  7 1 -2 -24 -11 11 23 21 2 0.26708453D+00 0.12949746D+00 0.51511939D+06 0.51511939D+06 0.51511939D+06 0.10675972D+01  1  2  5  1  7  1        1 -.274923778084D-04 0.100000000000D+01
-.230255390372D-05 0.000000000000D+00 -.193158822889D-04 0.322889992215D-05 0.000000000000D+00  7 21 -2 -24 -11 11 23 -1 2 0.26708453D+00 0.12949746D+00 0.51511939D+06 0.51511939D+06 0.51511939D+06 0.10675972D+01  1  2  5  3  7  1        1 -.345559674765D-06 0.100000000000D+01
  </mgrwgt>
  </event>
  <event>
  8     66 0.29493621E-05 0.13244186E+03 0.75467711E-02 0.10102573E+00
        1 -1    0    0  501    0 0.00000000E+00 0.00000000E+00 0.16435388E+03 0.16435419E+03 0.32000000E+00 0.0000E+00 0.9000E+01
       -2 -1    0    0    0  501 0.00000000E+00 0.00000000E+00 -.61270717E+03 0.61270725E+03 0.32000000E+00 0.0000E+00 0.9000E+01
       25  2    1    2    0    0 -.15604847E+03 -.87292603E+02 -.80638796E+02 0.36034537E+03 0.30228306E+03 0.0000E+00 0.0000E+00
       23  2    3    3    0    0 -.17896228E+03 -.12132664E+03 -.58292280E+01 0.23546510E+03 0.93070856E+02 0.0000E+00 0.0000E+00
      -24  1    1    2    0    0 0.15604847E+03 0.87292603E+02 -.36771449E+03 0.41671607E+03 0.80419002E+02 0.0000E+00 0.9000E+01
      -11  1    4    4    0    0 -.17420468E+03 -.12622930E+03 -.23605171E+02 0.21642160E+03 0.51099893E-03 0.0000E+00 0.9000E+01
       11  1    4    4    0    0 -.47575988E+01 0.49026556E+01 0.17775943E+02 0.19043501E+02 0.51099893E-03 0.0000E+00 0.9000E+01
       23  1    3    3    0    0 0.22913811E+02 0.34034042E+02 -.74809568E+02 0.12488027E+03 0.91188000E+02 0.0000E+00 0.9000E+01
#aMCatNLO 1  0  0  2  1 0.69514627D+02 0.00000000D+00  -5  7  0 0.00000000D+00 0.00000000D+00 0.00000000D+00 0.00000000D+00 0.00000000D+00
  <mgrwgt>
 0.1506877899D-02    9    2    0
 0.317334137326961D+03 0.000000000000000D+00 0.000000000000000D+00 0.317334137326961D+03
 0.317334137326961D+03 0.000000000000000D+00 0.000000000000000D+00 -.317334137326961D+03
 0.250442630870112D+03 0.156048465470101D+03 0.872926028482994D+02 -.155830591717957D+03
 0.248302039201116D+03 -.174204677675618D+03 -.126229299976315D+03 0.123987083096813D+03
 0.358736589909699D+02 -.475759878193629D+01 0.490265556457006D+01 0.352171638785082D+02
 0.100049945591723D+03 0.229138109874536D+02 0.340340415634460D+02 -.337365525736392D+01
 0.000000000000000D+00 0.000000000000000D+00 0.000000000000000D+00 -.000000000000000D+00
 0.350817454908119D+03 0.000000000000000D+00 0.000000000000000D+00 0.350817454908119D+03
 0.357479541946362D+03 0.000000000000000D+00 0.000000000000000D+00 -.357479541946362D+03
 0.235997047349841D+03 0.144708306743899D+03 0.632749796334819D+02 -.155830591717957D+03
 0.270435837863692D+03 -.186297790401813D+03 -.151841624456481D+03 0.123987083096813D+03
 0.358251076406002D+02 -.642908125032828D+01 0.136257847171102D+01 0.352171638785082D+02
 0.962058685049841D+02 0.183385837137643D+02 0.243440462613756D+02 -.337365525736392D+01
 0.698331354953642D+02 0.296799811944777D+02 0.628600200899126D+02 -.666208703824287D+01
0.412083130332D-04 0.000000000000D+00 0.000000000000D+00 0.942376632121D-07 0.000000000000D+00  7 1 -2 -24 -11 11 23 21 0 0.25285243D-01 0.94262672D-01 0.67084125D+05 0.67084125D+05 0.67084125D+05 0.11362338D+01  1  2  2  2  7  2       -2 0.873738894901D-03 0.100000000000D+01
-.217452731072D-05 0.000000000000D+00 -.158250772446D-06 0.942376632121D-07 0.000000000000D+00  7 1 -2 -24 -11 11 23 21 2 0.25285243D-01 0.94262672D-01 0.67084125D+05 0.67084125D+05 0.67084125D+05 0.11362338D+01  1  2  3  2  7  2       -2 -.595246867272D-04 0.100000000000D+01
0.259673512987D-05 0.000000000000D+00 0.000000000000D+00 0.942376632121D-07 0.000000000000D+00  7 1 -2 -24 -11 11 23 21 2 0.25285243D-01 0.94262672D-01 0.67084125D+05 0.67084125D+05 0.67084125D+05 0.11362338D+01  1  2 15  2  7  2       -2 0.710820436043D-04 0.100000000000D+01
0.348803603172D-04 0.000000000000D+00 0.000000000000D+00 0.942376632121D-07 0.000000000000D+00  7 1 -2 -24 -11 11 23 21 2 0.25285243D-01 0.11060006D+00 0.86967407D+05 0.86967407D+05 0.86967407D+05 0.11267328D+01  1  2 12  2  7  2       -2 0.637021541521D-03 0.100000000000D+01
-.309555687730D-04 0.000000000000D+00 0.000000000000D+00 0.942376632121D-07 0.000000000000D+00  7 1 -2 -24 -11 11 23 21 2 0.25285243D-01 0.94262672D-01 0.67084125D+05 0.67084125D+05 0.67084125D+05 0.11362338D+01  1  2  4  2  7  2       -2 -.847366011269D-03 0.100000000000D+01
-.889007908993D-04 0.000000000000D+00 -.277625933919D-04 0.942376632121D-07 0.000000000000D+00  7 1 -2 -24 -11 11 23 21 2 0.25285243D-01 0.11500381D+00 0.67084125D+05 0.67084125D+05 0.67084125D+05 0.11362338D+01  1  2  5  2  7  2       -2 -.150611978901D-02 0.100000000000D+01
0.931147864060D-04 0.000000000000D+00 0.272224483015D-04 0.942376632121D-07 0.000000000000D+00  7 1 -2 -24 -11 11 23 21 2 0.25285243D-01 0.94262672D-01 0.67084125D+05 0.67084125D+05 0.67084125D+05 0.11362338D+01  1  2  6  2  7  2       -2 0.254888888412D-02 0.100000000000D+01
0.837381656538D-06 0.000000000000D+00 0.000000000000D+00 0.942376632121D-07 0.000000000000D+00  7 1 21 -24 -11 11 23 2 2 0.25285243D-01 0.11060006D+00 0.86967407D+05 0.86967407D+05 0.86967407D+05 0.11267328D+01  1  2 12  4  7  2       -2 0.144222874776D-03 0.100000000000D+01
-.221646209356D-05 0.000000000000D+00 -.791060753708D-06 0.942376632121D-07 0.000000000000D+00  7 1 21 -24 -11 11 23 2 2 0.25285243D-01 0.11500381D+00 0.67084125D+05 0.67084125D+05 0.67084125D+05 0.11362338D+01  1  2  5  4  7  2       -2 -.355065852420D-03 0.100000000000D+01
  </mgrwgt>
  </event>
  <event>
  8     66 0.29493621E-05 0.12346180E+03 0.75467711E-02 0.11175633E+00
        1 -1    0    0  501    0 0.00000000E+00 0.00000000E+00 0.76208461E+03 0.76208468E+03 0.32000000E+00 0.0000E+00 0.9000E+01
       -2 -1    0    0    0  501 0.00000000E+00 0.00000000E+00 -.48589219E+02 0.48590273E+02 0.32000000E+00 0.0000E+00 0.9000E+01
       25  2    1    2    0    0 -.36112429E+02 0.73265243E+01 0.49586515E+03 0.57575385E+03 0.29026275E+03 0.0000E+00 0.0000E+00
       23  2    3    3    0    0 -.53344813E+01 0.37918262E+02 0.37761477E+02 0.10665113E+03 0.92099310E+02 0.0000E+00 0.0000E+00
      -24  1    1    2    0    0 0.36112429E+02 -.73265243E+01 0.21763025E+03 0.23492111E+03 0.80419002E+02 0.0000E+00 0.9000E+01
      -13  1    4    4    0    0 0.16200163E+02 0.30766603E+02 0.63464073E+02 0.72365246E+02 0.10565837E+00 0.0000E+00 0.9000E+01
       13  1    4    4    0    0 -.21534644E+02 0.71516588E+01 -.25702597E+02 0.34285883E+02 0.10565837E+00 0.0000E+00 0.9000E+01
       23  1    3    3    0    0 -.30777948E+02 -.30591738E+02 0.45810367E+03 0.46910272E+03 0.91188000E+02 0.0000E+00 0.9000E+01
#aMCatNLO 1  0  0  1  1 0.39433505D+02 0.00000000D+00  -5  7  0 0.00000000D+00 0.00000000D+00 0.00000000D+00 0.00000000D+00 0.00000000D+00
  <mgrwgt>
 0.4500850818D-02    4    2    0
 0.192430638740310D+03 0.000000000000000D+00 0.000000000000000D+00 0.192430638740310D+03
 0.192430638740310D+03 0.000000000000000D+00 0.000000000000000D+00 -.192430638740310D+03
 0.913861855089537D+02 0.361330455876015D+02 -.733070698828201D+01 0.229103186167854D+02
 0.347720828796431D+02 0.161962975431705D+02 0.307660855652798D+02 -.475050178133529D+00
 0.119870830853140D+03 -.215428346419076D+02 0.715133325225916D+01 -.117702084933652D+03
 0.138832178238883D+03 -.307865084888643D+02 -.305867118292569D+02 0.952668164950001D+02
 0.000000000000000D+00 -.000000000000000D+00 -.000000000000000D+00 -.000000000000000D+00
 0.196675796570834D+03 0.000000000000000D+00 0.000000000000000D+00 0.196675796570834D+03
 0.313508383260056D+03 0.000000000000000D+00 0.000000000000000D+00 -.313508383260056D+03
 0.953748305604914D+02 0.455245152968438D+02 -.563721189389885D+01 0.229103186167854D+02
 0.371467071763277D+02 0.198128078436117D+02 0.314182244362124D+02 -.475050178133529D+00
 0.118456166003761D+03 -.955831657179809D+01 0.931241380606251D+01 -.117702084933652D+03
 0.135898509347884D+03 -.169713934023677D+02 -.280955330945487D+02 0.952668164950001D+02
 0.123307966742425D+03 -.388076131662897D+02 -.699789325382735D+01 -.116832586689222D+03
0.191126408697D-04 0.000000000000D+00 0.000000000000D+00 0.146258406517D-08 0.000000000000D+00  7 1 -2 -24 -13 13 23 21 0 0.11724387D+00 0.74753507D-02 0.15242815D+05 0.15242815D+05 0.15242815D+05 0.11956437D+01  1  2  2  1  7  1        1 0.460798207581D-02 0.100000000000D+01
-.807533416264D-06 0.000000000000D+00 -.733975734137D-07 0.146258406517D-08 0.000000000000D+00  7 1 -2 -24 -13 13 23 21 2 0.11724387D+00 0.74753507D-02 0.15242815D+05 0.15242815D+05 0.15242815D+05 0.11956437D+01  1  2  3  1  7  1        1 -.278326252107D-03 0.100000000000D+01
0.123829292274D-05 0.000000000000D+00 0.000000000000D+00 0.146258406517D-08 0.000000000000D+00  7 1 -2 -24 -13 13 23 21 2 0.11724387D+00 0.74753507D-02 0.15242815D+05 0.15242815D+05 0.15242815D+05 0.11956437D+01  1  2 15  1  7  1        1 0.426792775698D-03 0.100000000000D+01
-.741589225323D-06 0.000000000000D+00 0.000000000000D+00 0.146258406517D-08 0.000000000000D+00  7 1 -2 -24 -13 13 23 21 2 0.11724387D+00 0.74753507D-02 0.15242815D+05 0.15242815D+05 0.15242815D+05 0.11956437D+01  1  2  4  1  7  1        1 -.255597781503D-03 0.100000000000D+01
  </mgrwgt>
  </event>
  <event>
  8     66 0.29493621E-05 0.20355401E+03 0.75467711E-02 0.96543391E-01
        1 -1    0    0  501    0 0.00000000E+00 0.00000000E+00 0.53275074E+03 0.53275083E+03 0.32000000E+00 0.0000E+00 0.9000E+01
       -2 -1    0    0    0  501 0.00000000E+00 0.00000000E+00 -.23379566E+03 0.23379588E+03 0.32000000E+00 0.0000E+00 0.9000E+01
       25  2    1    2    0    0 -.14523687E+03 0.52538829E+01 0.43754068E+03 0.55022627E+03 0.30030942E+03 0.0000E+00 0.0000E+00
       23  2    3    3    0    0 -.12270972E+03 -.16521576E+02 0.42658265E+03 0.45318518E+03 0.89852145E+02 0.0000E+00 0.0000E+00
      -24  1    1    2    0    0 0.14523687E+03 -.52538829E+01 -.13858560E+03 0.21632045E+03 0.80419002E+02 0.0000E+00 0.9000E+01
      -11  1    4    4    0    0 -.61273489E+01 0.21191085E+02 0.25075036E+02 0.33397064E+02 0.51099893E-03 0.0000E+00 0.9000E+01
       11  1    4    4    0    0 -.11658237E+03 -.37712660E+02 0.40150762E+03 0.41978811E+03 0.51099893E-03 0.0000E+00 0.9000E+01
       23  1    3    3    0    0 -.22527151E+02 0.21775459E+02 0.10958027E+02 0.97041088E+02 0.91188000E+02 0.0000E+00 0.9000E+01
#aMCatNLO 1  0  0  2  1 0.33200158D+03 0.00000000D+00  -5  7  0 0.00000000D+00 0.00000000D+00 0.00000000D+00 0.00000000D+00 0.00000000D+00
  <mgrwgt>
 0.2173272074D-02    3    2    0
 0.352923409721311D+03 0.000000000000000D+00 0.000000000000000D+00 0.352923409721311D+03
 0.352923409721311D+03 0.000000000000000D+00 0.000000000000000D+00 -.352923409721311D+03
 0.293619799612783D+03 0.145236872444176D+03 -.525388292107502D+01 -.242123973136007D+03
 0.256487671338948D+02 -.612734885581037D+01 0.211910845891411D+02 0.130863587534434D+02
 0.285833207427113D+03 -.116582372949677D+03 -.377126602741733D+02 0.258238122748246D+03
 0.100745045268831D+03 -.225271506386893D+02 0.217754586061072D+02 -.292005083656825D+02
 0.000000000000000D+00 0.000000000000000D+00 -.000000000000000D+00 0.000000000000000D+00
 0.112578631921194D+04 0.000000000000000D+00 0.000000000000000D+00 0.112578631921194D+04
 0.427466530480474D+03 0.000000000000000D+00 0.000000000000000D+00 -.427466530480474D+03
 0.321952067452723D+03 0.145126389294404D+03 0.132288436932012D+03 -.242123973136007D+03
 0.383140920487648D+02 -.613882894209926D+01 0.354828358973327D+02 0.130863587534434D+02
 0.298178773562508D+03 -.116687191715147D+03 0.927779728833060D+02 0.258238122748246D+03
 0.121583772739043D+03 -.225670543272963D+02 0.714522275344438D+02 -.292005083656825D+02
 0.773224143889376D+03 0.266685690138665D+00 -.332001473247095D+03 0.698319788731467D+03
0.644204171145D-04 0.000000000000D+00 0.000000000000D+00 0.341076228971D-05 0.000000000000D+00  7 1 -2 -24 -11 11 23 21 0 0.81961676D-01 0.35968588D-01 0.41434234D+05 0.41434234D+05 0.41434234D+05 0.11545438D+01  1  2  2  2  7  2       -2 0.209475781920D-02 0.100000000000D+01
-.226107215299D-05 0.000000000000D+00 -.247391364005D-06 0.341076228971D-05 0.000000000000D+00  7 1 -2 -24 -11 11 23 21 2 0.81961676D-01 0.35968588D-01 0.41434234D+05 0.41434234D+05 0.41434234D+05 0.11545438D+01  1  2  3  2  7  2       -2 -.980043855317D-04 0.100000000000D+01
0.407248491078D-05 0.000000000000D+00 0.000000000000D+00 0.341076228971D-05 0.000000000000D+00  7 1 -2 -24 -11 11 23 21 2 0.81961676D-01 0.35968588D-01 0.41434234D+05 0.41434234D+05 0.41434234D+05 0.11545438D+01  1  2 15  2  7  2       -2 0.176518639947D-03 0.100000000000D+01
  </mgrwgt>
  </event>
  <event>
  8     66 0.29493621E-05 0.42322530E+03 0.75467711E-02 0.86883145E-01
        1 -1    0    0  501    0 0.00000000E+00 0.00000000E+00 0.94137383E+03 0.94137388E+03 0.32000000E+00 0.0000E+00 0.9000E+01
       -2 -1    0    0    0  501 0.00000000E+00 0.00000000E+00 -.19510214E+03 0.19510241E+03 0.32000000E+00 0.0000E+00 0.9000E+01
       25  2    1    2    0    0 0.35109191E+03 0.12051273E+03 0.40529730E+03 0.62606509E+03 0.29983786E+03 0.0000E+00 0.0000E+00
       23  2    3    3    0    0 0.11579622E+03 0.15473349E+03 0.24501653E+03 0.32516593E+03 0.91370493E+02 0.0000E+00 0.0000E+00
      -24  1    1    2    0    0 -.35109191E+03 -.12051273E+03 0.34097439E+03 0.51041120E+03 0.80419002E+02 0.0000E+00 0.9000E+01
      -11  1    4    4    0    0 0.40680456E+01 0.74064243E+02 0.66291678E+02 0.99481896E+02 0.51099893E-03 0.0000E+00 0.9000E+01
       11  1    4    4    0    0 0.11172817E+03 0.80669249E+02 0.17872485E+03 0.22568404E+03 0.51099893E-03 0.0000E+00 0.9000E+01
       23  1    3    3    0    0 0.23529569E+03 -.34220765E+02 0.16028077E+03 0.30089915E+03 0.91188000E+02 0.0000E+00 0.9000E+01
#aMCatNLO 1  0  0  2  2 0.89045708D+03 0.00000000D+00  -5  7  0 0.00000000D+00 0.00000000D+00 0.00000000D+00 0.00000000D+00 0.00000000D+00
  <mgrwgt>
 0.9787860741D-03    3    2    0
 0.428560652755474D+03 0.000000000000000D+00 0.000000000000000D+00 0.428560652755474D+03
 0.428560652755474D+03 0.000000000000000D+00 0.000000000000000D+00 -.428560652755474D+03
 0.379888703734477D+03 -.351091913172596D+03 -.120512725943907D+03 0.770471680630468D+01
 0.741869482146613D+02 0.406804563705435D+01 0.740642427649728D+02 0.128149668390090D+01
 0.143628750007572D+03 0.111728172757278D+03 0.806692485886044D+02 0.404784581377258D+02
 0.259416903554238D+03 0.235295694778264D+03 -.342207654096704D+02 -.494646716279314D+02
 0.000000000000000D+00 0.000000000000000D+00 0.000000000000000D+00 0.000000000000000D+00
 0.154051956596324D+04 0.000000000000000D+00 0.000000000000000D+00 0.154051956596324D+04
 0.832846001568206D+03 0.000000000000000D+00 0.000000000000000D+00 -.832846001568206D+03
 0.912100855694438D+03 -.783700192068815D+03 -.459581767800239D+03 0.770471680630468D+01
 0.561839324434872D+02 -.395851881589182D+02 0.398497792903113D+02 0.128149668390090D+01
 0.640541406949796D+02 0.421878755874335D+02 0.261650629730534D+02 0.404784581377258D+02
 0.203610403208492D+03 0.802561708140638D+02 -.155737401601957D+03 -.494646716279314D+02
 0.113741623549005D+04 0.700841333826236D+03 0.549304327138832D+03 0.707673564395037D+03
0.524696589530D-04 0.000000000000D+00 0.000000000000D+00 0.595296284257D-05 0.000000000000D+00  7 1 -2 -24 -11 11 23 21 0 0.14482677D+00 0.30015739D-01 0.17911966D+06 0.17911966D+06 0.17911966D+06 0.11015223D+01  1  2  2  2  7  2       -2 0.968183974898D-03 0.100000000000D+01
-.291442482425D-05 0.000000000000D+00 -.201497305958D-06 0.595296284257D-05 0.000000000000D+00  7 1 -2 -24 -11 11 23 21 2 0.14482677D+00 0.30015739D-01 0.17911966D+06 0.17911966D+06 0.17911966D+06 0.11015223D+01  1  2  3  2  7  2       -2 -.652512836696D-04 0.100000000000D+01
0.338796372244D-05 0.000000000000D+00 0.000000000000D+00 0.595296284257D-05 0.000000000000D+00  7 1 -2 -24 -11 11 23 21 2 0.14482677D+00 0.30015739D-01 0.17911966D+06 0.17911966D+06 0.17911966D+06 0.11015223D+01  1  2 15  2  7  2       -2 0.758533828273D-04 0.100000000000D+01
  </mgrwgt>
  </event>
  <event>
  8     66 0.29493621E-05 0.10603455E+03 0.75467711E-02 0.10463638E+00
        1 -1    0    0  501    0 0.00000000E+00 0.00000000E+00 0.12621662E+04 0.12621662E+04 0.32000000E+00 0.0000E+00 0.9000E+01
       -2 -1    0    0    0  501 0.00000000E+00 0.00000000E+00 -.27181447E+03 0.27181466E+03 0.32000000E+00 0.0000E+00 0.9000E+01
       25  2    1    2    0    0 0.11444136E+03 -.21251908E+02 -.17067912E+03 0.36436202E+03 0.30013306E+03 0.0000E+00 0.0000E+00
       23  2    3    3    0    0 0.16177739E+03 0.31978754E+02 -.15637699E+03 0.24776869E+03 0.98696498E+02 0.0000E+00 0.0000E+00
      -24  1    1    2    0    0 -.11444136E+03 0.21251908E+02 0.11610308E+04 0.11696189E+04 0.80419002E+02 0.0000E+00 0.9000E+01
      -13  1    4    4    0    0 0.19209277E+02 0.39745070E+02 -.63870519E+02 0.77640977E+02 0.10565837E+00 0.0000E+00 0.9000E+01
       13  1    4    4    0    0 0.14256811E+03 -.77663157E+01 -.92506472E+02 0.17012772E+03 0.10565837E+00 0.0000E+00 0.9000E+01
       23  1    3    3    0    0 -.47336022E+02 -.53230662E+02 -.14302132E+02 0.11659333E+03 0.91188000E+02 0.0000E+00 0.9000E+01
#aMCatNLO 1  0  0  2  1 0.56967284D+01 0.00000000D+00  -5  7  0 0.00000000D+00 0.00000000D+00 0.00000000D+00 0.00000000D+00 0.00000000D+00
  <mgrwgt>
 0.2030698905D-02   11    2    0
 0.585726227725018D+03 0.000000000000000D+00 0.000000000000000D+00 0.585726227725018D+03
 0.585726227725018D+03 0.000000000000000D+00 0.000000000000000D+00 -.585726227725018D+03
 0.550038635232628D+03 -.114441363687092D+03 0.212519077362749D+02 0.531532515458094D+03
 0.155664754049801D+03 0.192091370590272D+02 0.397451236417149D+02 -.149274411248336D+03
 0.300982598544540D+03 0.142568249271898D+03 -.776636839299172D+01 -.264961322551338D+03
 0.164766467623066D+03 -.473360226438331D+02 -.532306629849980D+02 -.117296781658420D+03
 0.000000000000000D+00 0.000000000000000D+00 -.000000000000000D+00 -.000000000000000D+00
 0.586389667649342D+03 0.000000000000000D+00 0.000000000000000D+00 0.586389667649342D+03
 0.598091116632772D+03 0.000000000000000D+00 0.000000000000000D+00 -.598091116632772D+03
 0.550563552133951D+03 -.116654915337603D+03 0.227557623988025D+02 0.531532515458094D+03
 0.155697942169641D+03 0.185829185960483D+02 0.401705673195683D+02 -.149274411248336D+03
 0.300391458224231D+03 0.141358754550540D+03 -.694465534392099D+01 -.264961322551338D+03
 0.164813354326255D+03 -.479988797299129D+02 -.527803275617154D+02 -.117296781658420D+03
 0.130144774280375D+02 0.471212192092743D+01 -.320134681273447D+01 -.117014489834297D+02
0.115040169881D-03 0.000000000000D+00 0.000000000000D+00 0.721066976949D-06 0.000000000000D+00  7 1 -2 -24 -13 13 23 21 0 0.19417943D+00 0.41817629D-01 0.49309074D+05 0.49309074D+05 0.49309074D+05 0.11478273D+01  1  2  2  2  7  2       -2 0.709583229778D-03 0.100000000000D+01
0.919109571809D-06 0.000000000000D+00 -.441784543117D-06 0.721066976949D-06 0.000000000000D+00  7 1 -2 -24 -13 13 23 21 2 0.19417943D+00 0.41817629D-01 0.49309074D+05 0.49309074D+05 0.49309074D+05 0.11478273D+01  1  2  3  2  7  2       -2 0.746920248018D-05 0.100000000000D+01
0.701746532151D-05 0.000000000000D+00 0.000000000000D+00 0.721066976949D-06 0.000000000000D+00  7 1 -2 -24 -13 13 23 21 2 0.19417943D+00 0.41817629D-01 0.49309074D+05 0.49309074D+05 0.49309074D+05 0.11478273D+01  1  2 15  2  7  2       -2 0.570278789294D-04 0.100000000000D+01
0.331703282738D-03 0.000000000000D+00 0.000000000000D+00 0.721066976949D-06 0.000000000000D+00  7 1 -2 -24 -13 13 23 21 2 0.19417943D+00 0.42723826D-01 0.50798433D+05 0.50798433D+05 0.50798433D+05 0.11466907D+01  1  2 12  2  7  2       -2 0.258160582391D-02 0.100000000000D+01
-.253543195512D-02 0.000000000000D+00 0.000000000000D+00 0.721066976949D-06 0.000000000000D+00  7 1 -2 -24 -13 13 23 21 2 0.19417943D+00 0.41817629D-01 0.49309074D+05 0.49309074D+05 0.49309074D+05 0.11478273D+01  1  2  4  2  7  2       -2 -.206043492837D-01 0.100000000000D+01
-.100269507078D-01 0.000000000000D+00 -.679075136586D-03 0.721066976949D-06 0.000000000000D+00  7 1 -2 -24 -13 13 23 21 2 0.19417943D+00 0.42730221D-01 0.49309074D+05 0.49309074D+05 0.49309074D+05 0.11478273D+01  1  2  5  2  7  2       -2 -.782637266031D-01 0.100000000000D+01
0.100394295048D-01 0.000000000000D+00 0.678916922407D-03 0.721066976949D-06 0.000000000000D+00  7 1 -2 -24 -13 13 23 21 2 0.19417943D+00 0.41817629D-01 0.49309074D+05 0.49309074D+05 0.49309074D+05 0.11478273D+01  1  2  6  2  7  2       -2 0.815860633559D-01 0.100000000000D+01
0.219936736947D-02 0.000000000000D+00 0.000000000000D+00 0.721066976949D-06 0.155852659345D-06  7 1 -2 -24 -13 13 23 21 2 0.19439937D+00 0.42700414D-01 0.50798433D+05 0.50798433D+05 0.50798433D+05 0.11466907D+01  1  2 11  2  7  2       -2 0.170966585844D-01 0.100000000000D+01
0.179455060592D-04 0.000000000000D+00 0.000000000000D+00 0.721066976949D-06 0.000000000000D+00  7 1 21 -24 -13 13 23 2 2 0.19417943D+00 0.42723826D-01 0.50798433D+05 0.50798433D+05 0.50798433D+05 0.11466907D+01  1  2 12  4  7  2       -2 0.157967037926D-02 0.100000000000D+01
-.391889254765D-04 0.000000000000D+00 -.266189224369D-05 0.721066976949D-06 0.000000000000D+00  7 1 21 -24 -13 13 23 2 2 0.19417943D+00 0.42730221D-01 0.49309074D+05 0.49309074D+05 0.49309074D+05 0.11478273D+01  1  2  5  4  7  2       -2 -.346263319049D-02 0.100000000000D+01
0.845383927819D-05 0.000000000000D+00 0.000000000000D+00 0.721066976949D-06 0.591598330978D-09  7 1 21 -24 -13 13 23 2 2 0.19439937D+00 0.42700414D-01 0.50798433D+05 0.50798433D+05 0.50798433D+05 0.11466907D+01  1  2 11  4  7  2       -2 0.743329527184D-03 0.100000000000D+01
  </mgrwgt>
  </event>
  <event>
  8     66 0.29493621E-05 0.15172471E+03 0.75467711E-02 0.10402821E+00
        1 -1    0    0  501    0 0.00000000E+00 0.00000000E+00 0.40730370E+03 0.40730383E+03 0.32000000E+00 0.0000E+00 0.9000E+01
       -2 -1    0    0    0  501 0.00000000E+00 0.00000000E+00 -.15547812E+03 0.15547845E+03 0.32000000E+00 0.0000E+00 0.9000E+01
       25  2    1    2    0    0 0.11139099E+03 0.27839505E+02 0.27169328E+03 0.42120215E+03 0.30068425E+03 0.0000E+00 0.0000E+00
       23  2    3    3    0    0 0.32754297E+02 0.13112932E+03 0.15057215E+03 0.22160732E+03 0.90388540E+02 0.0000E+00 0.0000E+00
      -24  1    1    2    0    0 -.11139099E+03 -.27839505E+02 -.19867700E+02 0.14158013E+03 0.80419002E+02 0.0000E+00 0.9000E+01
      -13  1    4    4    0    0 0.38468336E+02 0.62462019E+02 0.23454889E+02 0.77015971E+02 0.10565837E+00 0.0000E+00 0.9000E+01
       13  1    4    4    0    0 -.57140395E+01 0.68667303E+02 0.12711726E+03 0.14459135E+03 0.10565837E+00 0.0000E+00 0.9000E+01
       23  1    3    3    0    0 0.78636693E+02 -.10328982E+03 0.12112113E+03 0.19959483E+03 0.91188000E+02 0.0000E+00 0.9000E+01
#aMCatNLO 1  0  0  2  1 0.30270072D+02 0.00000000D+00  -5  7  0 0.00000000D+00 0.00000000D+00 0.00000000D+00 0.00000000D+00 0.00000000D+00
  <mgrwgt>
 0.8057679249D-03    6    2    0
 0.251648447092392D+03 0.000000000000000D+00 0.000000000000000D+00 0.251648447092392D+03
 0.251648447092392D+03 0.000000000000000D+00 0.000000000000000D+00 -.251648447092392D+03
 0.168254530877708D+03 -.111390994392173D+03 -.278395060672064D+02 -.930557869063699D+02
 0.743828649159980D+02 0.384683976162033D+02 0.624620087197480D+02 -.123081454593050D+02
 0.980774675855866D+02 -.571409788663589D+01 0.686673096322923D+02 0.697949806304625D+02
 0.162582030805492D+03 0.786366946626060D+02 -.103289812284834D+03 0.355689517352124D+02
 0.000000000000000D+00 0.000000000000000D+00 0.000000000000000D+00 0.000000000000000D+00
 0.268540550351332D+03 0.000000000000000D+00 0.000000000000000D+00 0.268540550351332D+03
 0.266039054478660D+03 0.000000000000000D+00 0.000000000000000D+00 -.266039054478660D+03
 0.170559733948848D+03 -.111890622141262D+03 -.380067900566340D+02 -.930557869063699D+02
 0.706515572953049D+02 0.382545246201923D+02 0.581097534815580D+02 -.123081454593050D+02
 0.941466407055489D+02 -.599755849770296D+01 0.628989660248856D+02 0.697949806304625D+02
 0.168848415658787D+03 0.781479553586957D+02 -.113235519481283D+03 0.355689517352124D+02
 0.303732572215026D+02 0.148570066007657D+01 0.302335900314734D+02 0.250149587267228D+01
0.555673386154D-05 0.000000000000D+00 0.000000000000D+00 0.505805026342D-06 0.000000000000D+00  7 1 -2 -24 -13 13 23 21 0 0.62662143D-01 0.23919746D-01 0.48638961D+05 0.48638961D+05 0.48638961D+05 0.11483511D+01  1  2  2  2  7  2       -2 0.526396566323D-03 0.100000000000D+01
-.302173104235D-06 0.000000000000D+00 -.213393211499D-07 0.505805026342D-06 0.000000000000D+00  7 1 -2 -24 -13 13 23 21 2 0.62662143D-01 0.23919746D-01 0.48638961D+05 0.48638961D+05 0.48638961D+05 0.11483511D+01  1  2  3  2  7  2       -2 -.377484104759D-04 0.100000000000D+01
0.364603794825D-06 0.000000000000D+00 0.000000000000D+00 0.505805026342D-06 0.000000000000D+00  7 1 -2 -24 -13 13 23 21 2 0.62662143D-01 0.23919746D-01 0.48638961D+05 0.48638961D+05 0.48638961D+05 0.11483511D+01  1  2 15  2  7  2       -2 0.455474478543D-04 0.100000000000D+01
0.780228425191D-05 0.000000000000D+00 0.000000000000D+00 0.505805026342D-06 0.000000000000D+00  7 1 -2 -24 -13 13 23 21 2 0.62662143D-01 0.26042485D-01 0.55465650D+05 0.55465650D+05 0.55465650D+05 0.11433534D+01  1  2 12  2  7  2       -2 0.836862715645D-03 0.100000000000D+01
-.569487639658D-05 0.000000000000D+00 0.000000000000D+00 0.505805026342D-06 0.000000000000D+00  7 1 -2 -24 -13 13 23 21 2 0.62662143D-01 0.23919746D-01 0.48638961D+05 0.48638961D+05 0.48638961D+05 0.11483511D+01  1  2  4  2  7  2       -2 -.711421793716D-03 0.100000000000D+01
0.109989299857D-06 0.000000000000D+00 0.000000000000D+00 0.505805026342D-06 0.000000000000D+00  7 1 21 -24 -13 13 23 2 2 0.62662143D-01 0.26042485D-01 0.55465650D+05 0.55465650D+05 0.55465650D+05 0.11433534D+01  1  2 12  4  7  2       -2 0.146131399307D-03 0.100000000000D+01
  </mgrwgt>
  </event>
  <event>
  8     66 0.29493621E-05 0.16451205E+03 0.75467711E-02 0.10210860E+00
        1 -1    0    0  501    0 0.00000000E+00 0.00000000E+00 0.72242186E+03 0.72242193E+03 0.32000000E+00 0.0000E+00 0.9000E+01
       -2 -1    0    0    0  501 0.00000000E+00 0.00000000E+00 -.79077742E+02 0.79078389E+02 0.32000000E+00 0.0000E+00 0.9000E+01
       25  2    1    2    0    0 0.94321528E+01 -.72965943E+02 0.61638504E+03 0.68921941E+03 0.29946600E+03 0.0000E+00 0.0000E+00
       23  2    3    3    0    0 0.51926747E+02 -.22751281E+01 0.60139423E+02 0.11954633E+03 0.89291721E+02 0.0000E+00 0.0000E+00
      -24  1    1    2    0    0 -.94321528E+01 0.72965943E+02 0.26959075E+02 0.11228091E+03 0.80419002E+02 0.0000E+00 0.9000E+01
      -11  1    4    4    0    0 0.30204695E+02 0.39655356E+02 0.51249290E+02 0.71493780E+02 0.51099893E-03 0.0000E+00 0.9000E+01
       11  1    4    4    0    0 0.21722052E+02 -.41930484E+02 0.88901333E+01 0.48052549E+02 0.51099893E-03 0.0000E+00 0.9000E+01
       23  1    3    3    0    0 -.42494594E+02 -.70690815E+02 0.55624562E+03 0.56967308E+03 0.91188000E+02 0.0000E+00 0.9000E+01
#aMCatNLO 1  0  0  1  1 0.16865924D+03 0.00000000D+00  -5  7  0 0.00000000D+00 0.00000000D+00 0.00000000D+00 0.00000000D+00 0.00000000D+00
  <mgrwgt>
 0.8705779714D-03    6    2    0
 0.239014177293019D+03 0.000000000000000D+00 0.000000000000000D+00 0.239014177293019D+03
 0.239014177293019D+03 0.000000000000000D+00 0.000000000000000D+00 -.239014177293019D+03
 0.151976800457253D+03 -.943215283944777D+01 0.729659426298252D+02 -.105909100797842D+03
 0.508994040263699D+02 0.302046954098261D+02 0.396553558939965D+02 -.102897256698002D+02
 0.686041282231279D+02 0.217220517080499D+02 -.419304839563768D+02 -.497645797132078D+02
 0.206548021879288D+03 -.424945942784282D+02 -.706908145674450D+02 0.165963406180850D+03
 0.000000000000000D+00 0.000000000000000D+00 0.000000000000000D+00 0.000000000000000D+00
 0.375790601643426D+03 0.000000000000000D+00 0.000000000000000D+00 0.375790601643426D+03
 0.311585440139757D+03 0.000000000000000D+00 0.000000000000000D+00 -.311585440139757D+03
 0.135810584636680D+03 -.137963999716772D+02 0.238792935615841D+02 -.105909100797842D+03
 0.390944773355717D+02 0.288399533850016D+02 0.243054889383595D+02 -.102897256698002D+02
 0.868061446983275D+02 0.193652811439229D+02 -.684381417746829D+02 -.497645797132078D+02
 0.245198101685743D+03 -.493452480123331D+02 -.147743196235034D+03 0.165963406180850D+03
 0.180466733426861D+03 0.149364134550858D+02 0.167996555509773D+03 0.642051615036690D+02
0.473995596259D-05 0.000000000000D+00 0.000000000000D+00 0.257407203008D-06 0.000000000000D+00  7 1 -2 -24 -11 11 23 21 0 0.11114188D+00 0.12165862D-01 0.27064214D+05 0.27064214D+05 0.27064214D+05 0.11715085D+01  1  2  2  1  7  1        1 0.597586243123D-03 0.100000000000D+01
-.218656833319D-06 0.000000000000D+00 -.182026789554D-07 0.257407203008D-06 0.000000000000D+00  7 1 -2 -24 -11 11 23 21 2 0.11114188D+00 0.12165862D-01 0.27064214D+05 0.27064214D+05 0.27064214D+05 0.11715085D+01  1  2  3  1  7  1        1 -.378338250424D-04 0.100000000000D+01
0.296347157052D-06 0.000000000000D+00 0.000000000000D+00 0.257407203008D-06 0.000000000000D+00  7 1 -2 -24 -11 11 23 21 2 0.11114188D+00 0.12165862D-01 0.27064214D+05 0.27064214D+05 0.27064214D+05 0.11715085D+01  1  2 15  1  7  1        1 0.512764514218D-04 0.100000000000D+01
-.101362367644D-05 0.000000000000D+00 -.151228594818D-05 0.257407203008D-06 0.000000000000D+00  7 1 -2 -24 -11 11 23 21 2 0.20773199D+00 0.12165862D-01 0.27064214D+05 0.27064214D+05 0.27064214D+05 0.11715085D+01  1  2  5  1  7  1        1 -.600211120707D-04 0.100000000000D+01
0.184157742630D-05 0.000000000000D+00 0.125809132976D-05 0.257407203008D-06 0.000000000000D+00  7 1 -2 -24 -11 11 23 21 2 0.11114188D+00 0.12165862D-01 0.27064214D+05 0.27064214D+05 0.27064214D+05 0.11715085D+01  1  2  6  1  7  1        1 0.318645052574D-03 0.100000000000D+01
0.156454489187D-07 0.000000000000D+00 -.103006414032D-06 0.257407203008D-06 0.000000000000D+00  7 21 -2 -24 -11 11 23 -1 2 0.20773199D+00 0.12165862D-01 0.27064214D+05 0.27064214D+05 0.27064214D+05 0.11715085D+01  1  2  5  3  7  1        1 0.925161403224D-06 0.100000000000D+01
  </mgrwgt>
  </event>
  <event>
  8     66 0.29493621E-05 0.15395342E+03 0.75467711E-02 0.99248251E-01
        1 -1    0    0  501    0 0.00000000E+00 0.00000000E+00 0.11961455E+04 0.11961455E+04 0.32000000E+00 0.0000E+00 0.9000E+01
       -2 -1    0    0    0  501 0.00000000E+00 0.00000000E+00 -.53686229E+02 0.53687183E+02 0.32000000E+00 0.0000E+00 0.9000E+01
       25  2    1    2    0    0 0.13053397E+03 0.16417725E+02 0.94106155E+03 0.99618550E+03 0.29913215E+03 0.0000E+00 0.0000E+00
       23  2    3    3    0    0 0.14987303E+03 -.74265776E+02 0.64393641E+03 0.67184602E+03 0.93518139E+02 0.0000E+00 0.0000E+00
      -24  1    1    2    0    0 -.13053397E+03 -.16417725E+02 0.20139772E+03 0.25364723E+03 0.80419002E+02 0.0000E+00 0.9000E+01
      -11  1    4    4    0    0 0.10188374E+01 -.37641372E+02 0.10576662E+03 0.11226972E+03 0.51099893E-03 0.0000E+00 0.9000E+01
       11  1    4    4    0    0 0.14885419E+03 -.36624404E+02 0.53816979E+03 0.55957630E+03 0.51099893E-03 0.0000E+00 0.9000E+01
       23  1    3    3    0    0 -.19339058E+02 0.90683502E+02 0.29712514E+03 0.32433948E+03 0.91188000E+02 0.0000E+00 0.9000E+01
#aMCatNLO 1  0  0  1  2 0.17456830D+03 0.00000000D+00  -5  7  0 0.00000000D+00 0.00000000D+00 0.00000000D+00 0.00000000D+00 0.00000000D+00
  <mgrwgt>
 0.1349845297D-02    8    2    0
 0.253411057485962D+03 0.000000000000000D+00 0.000000000000000D+00 0.253411057485962D+03
 0.253411057485962D+03 0.000000000000000D+00 0.000000000000000D+00 -.253411057485962D+03
 0.171515630333245D+03 -.130533969151821D+03 -.164177254957693D+02 -.751114950008122D+02
 0.384440760138947D+02 0.101883742013180D+01 -.376413719827639D+02 0.774829440126375D+01
 0.166803516513993D+03 0.148854190150566D+03 -.366244044982049D+02 0.657609016909340D+02
 0.130058892110791D+03 -.193390584188776D+02 0.906835019767381D+02 0.160229890861439D+01
 0.000000000000000D+00 -.000000000000000D+00 -.000000000000000D+00 0.000000000000000D+00
 0.433322670339787D+03 0.000000000000000D+00 0.000000000000000D+00 0.433322670339787D+03
 0.314110625637190D+03 0.000000000000000D+00 0.000000000000000D+00 -.314110625637190D+03
 0.151388835462337D+03 -.100064146851515D+03 0.282275287953656D+02 -.751114950008122D+02
 0.301496724067543D+02 0.749146182357422D+01 -.281574977555158D+02 0.774829440126375D+01
 0.194903468658967D+03 0.182985485101366D+03 0.133857441447981D+02 0.657609016909340D+02
 0.159601628212645D+03 0.799380785140930D+01 0.130732398656070D+03 0.160229890861439D+01
 0.211389691236274D+03 -.984066079248336D+02 -.144188173840718D+03 0.119212044702598D+03
0.809533727107D-05 0.000000000000D+00 0.000000000000D+00 0.128926895837D-06 0.000000000000D+00  7 1 -2 -24 -11 11 23 21 0 0.18402246D+00 0.82594965D-02 0.56451864D+05 0.56451864D+05 0.56451864D+05 0.11426879D+01  1  2  2  1  7  1        1 0.796738539546D-03 0.100000000000D+01
-.447470206232D-06 0.000000000000D+00 -.310882266721D-07 0.128926895837D-06 0.000000000000D+00  7 1 -2 -24 -11 11 23 21 2 0.18402246D+00 0.82594965D-02 0.56451864D+05 0.56451864D+05 0.56451864D+05 0.11426879D+01  1  2  3  1  7  1        1 -.575042870199D-04 0.100000000000D+01
0.515650943056D-06 0.000000000000D+00 0.000000000000D+00 0.128926895837D-06 0.000000000000D+00  7 1 -2 -24 -11 11 23 21 2 0.18402246D+00 0.82594965D-02 0.56451864D+05 0.56451864D+05 0.56451864D+05 0.11426879D+01  1  2 15  1  7  1        1 0.662661768730D-04 0.100000000000D+01
0.637107757870D-06 0.000000000000D+00 0.000000000000D+00 0.128926895837D-06 0.000000000000D+00  7 1 -2 -24 -11 11 23 21 2 0.32380901D+00 0.82594965D-02 0.11499381D+06 0.11499381D+06 0.11499381D+06 0.11167768D+01  1  2 12  1  7  1        1 0.194039036076D-04 0.100000000000D+01
-.404046192341D-05 0.000000000000D+00 -.236756547414D-05 0.128926895837D-06 0.000000000000D+00  7 1 -2 -24 -11 11 23 21 2 0.34480617D+00 0.82594965D-02 0.56451864D+05 0.56451864D+05 0.56451864D+05 0.11426879D+01  1  2  5  1  7  1        1 -.106784834152D-03 0.100000000000D+01
0.492460487301D-05 0.000000000000D+00 0.196689342123D-05 0.128926895837D-06 0.000000000000D+00  7 1 -2 -24 -11 11 23 21 2 0.18402246D+00 0.82594965D-02 0.56451864D+05 0.56451864D+05 0.56451864D+05 0.11426879D+01  1  2  6  1  7  1        1 0.632859770624D-03 0.100000000000D+01
0.397073205191D-07 0.000000000000D+00 0.000000000000D+00 0.128926895837D-06 0.000000000000D+00  7 21 -2 -24 -11 11 23 -1 2 0.32380901D+00 0.82594965D-02 0.11499381D+06 0.11499381D+06 0.11499381D+06 0.11167768D+01  1  2 12  3  7  1        1 0.588741378420D-06 0.100000000000D+01
-.143208680315D-06 0.000000000000D+00 -.161842112369D-06 0.128926895837D-06 0.000000000000D+00  7 21 -2 -24 -11 11 23 -1 2 0.34480617D+00 0.82594965D-02 0.56451864D+05 0.56451864D+05 0.56451864D+05 0.11426879D+01  1  2  5  3  7  1        1 -.172271421056D-05 0.100000000000D+01
  </mgrwgt>
  </event>
  <event>
  8     66 0.29493621E-05 0.17929799E+03 0.75467711E-02 0.10139298E+00
        1 -1    0    0  501    0 0.00000000E+00 0.00000000E+00 0.21796869E+04 0.21796870E+04 0.32000000E+00 0.0000E+00 0.9000E+01
       -2 -1    0    0    0  501 0.00000000E+00 0.00000000E+00 -.17516313E+02 0.17519235E+02 0.32000000E+00 0.0000E+00 0.9000E+01
       25  2    1    2    0    0 0.23475026E+02 0.22658888E+02 0.16291779E+04 0.16571942E+04 0.30167443E+03 0.0000E+00 0.0000E+00
       23  2    3    3    0    0 0.37465623E+02 0.10323960E+03 0.52274484E+03 0.54400132E+03 0.10302033E+03 0.0000E+00 0.0000E+00
      -24  1    1    2    0    0 -.23475026E+02 -.22658888E+02 0.53299271E+03 0.54001199E+03 0.80419002E+02 0.0000E+00 0.9000E+01
      -13  1    4    4    0    0 -.52216123E+01 0.10638662E+03 0.33914902E+03 0.35548199E+03 0.10565837E+00 0.0000E+00 0.9000E+01
       13  1    4    4    0    0 0.42687235E+02 -.31470145E+01 0.18359582E+03 0.18851933E+03 0.10565837E+00 0.0000E+00 0.9000E+01
       23  1    3    3    0    0 -.13990596E+02 -.80580716E+02 0.11064331E+04 0.11131929E+04 0.91188000E+02 0.0000E+00 0.9000E+01
#aMCatNLO 1  0  0  1  2 0.17951126D+03 0.00000000D+00  -5  7  0 0.00000000D+00 0.00000000D+00 0.00000000D+00 0.00000000D+00 0.00000000D+00
  <mgrwgt>
 0.2637535309D-02    3    2    0
 0.195405512221313D+03 0.000000000000000D+00 0.000000000000000D+00 0.195405512221313D+03
 0.195405512221313D+03 0.000000000000000D+00 0.000000000000000D+00 -.195405512221313D+03
 0.872496643640270D+02 -.234824706614639D+02 -.226660732140000D+02 0.895045663393214D+01
 0.122231046365844D+03 -.521906801767151D+01 0.106387116251070D+03 -.599580813610419D+02
 0.441406072818806D+02 0.426881214889947D+02 -.314587796801508D+01 -.107805819306936D+02
 0.137189706430876D+03 -.139865828098593D+02 -.805751650690545D+02 0.617882066578034D+02
 0.000000000000000D+00 -.000000000000000D+00 0.000000000000000D+00 -.000000000000000D+00
 0.228438424324365D+03 0.000000000000000D+00 0.000000000000000D+00 0.228438424324365D+03
 0.816010099432836D+03 0.000000000000000D+00 0.000000000000000D+00 -.816010099432836D+03
 0.103438905564561D+03 -.131850846897775D+02 -.630748293520571D+02 0.895045663393214D+01
 0.865633862245318D+02 0.605605383114998D+01 0.621415523313857D+02 -.599580813610419D+02
 0.548166151771353D+02 0.480319169494574D+02 -.241158725090793D+02 -.107805819306936D+02
 0.185248004796461D+03 0.342539718232620D+01 -.148902841172442D+03 0.617882066578034D+02
 0.614381611994512D+03 -.443282832731561D+02 0.173951990702193D+03 -.587571675108471D+03
0.221810720428D-04 0.000000000000D+00 0.000000000000D+00 0.817678115128D-09 0.000000000000D+00  7 1 -2 -24 -13 13 23 21 0 0.33533668D+00 0.26950439D-02 0.32147770D+05 0.32147770D+05 0.32147770D+05 0.11645599D+01  1  2  2  1  7  1        1 0.260560909595D-02 0.100000000000D+01
-.122119338163D-05 0.000000000000D+00 -.851811570547D-07 0.817678115128D-09 0.000000000000D+00  7 1 -2 -24 -13 13 23 21 2 0.33533668D+00 0.26950439D-02 0.32147770D+05 0.32147770D+05 0.32147770D+05 0.11645599D+01  1  2  3  1  7  1        1 -.194551624673D-03 0.100000000000D+01
0.142159304463D-05 0.000000000000D+00 0.000000000000D+00 0.817678115128D-09 0.000000000000D+00  7 1 -2 -24 -13 13 23 21 2 0.33533668D+00 0.26950439D-02 0.32147770D+05 0.32147770D+05 0.32147770D+05 0.11645599D+01  1  2 15  1  7  1        1 0.226477837677D-03 0.100000000000D+01
  </mgrwgt>
  </event>
  <event>
  8     66 0.29493621E-05 0.12502893E+03 0.75467711E-02 0.10496925E+00
        1 -1    0    0  501    0 0.00000000E+00 0.00000000E+00 0.12559305E+04 0.12559306E+04 0.32000000E+00 0.0000E+00 0.9000E+01
       -2 -1    0    0    0  501 0.00000000E+00 0.00000000E+00 -.64803575E+02 0.64804365E+02 0.32000000E+00 0.0000E+00 0.9000E+01
       25  2    1    2    0    0 0.14019743E+03 0.20464192E+02 0.10620872E+04 0.11129067E+04 0.30076242E+03 0.0000E+00 0.0000E+00
       23  2    3    3    0    0 0.55228849E+01 -.38503994E+02 0.12557145E+03 0.16054571E+03 0.92161146E+02 0.0000E+00 0.0000E+00
      -24  1    1    2    0    0 -.14019743E+03 -.20464192E+02 0.12903981E+03 0.20782828E+03 0.80419002E+02 0.0000E+00 0.9000E+01
      -11  1    4    4    0    0 -.37888692E+02 -.40841934E+02 0.60041898E+02 0.81906325E+02 0.51099893E-03 0.0000E+00 0.9000E+01
       11  1    4    4    0    0 0.43411577E+02 0.23379404E+01 0.65529555E+02 0.78639390E+02 0.51099893E-03 0.0000E+00 0.9000E+01
       23  1    3    3    0    0 0.13467455E+03 0.58968186E+02 0.93651570E+03 0.95236095E+03 0.91188000E+02 0.0000E+00 0.9000E+01
#aMCatNLO 1  0  0  1  2 0.49123384D+01 0.00000000D+00  -5  7  0 0.00000000D+00 0.00000000D+00 0.00000000D+00 0.00000000D+00 0.00000000D+00
  <mgrwgt>
 0.1605342751D-02   11    2    0
 0.285288166583661D+03 0.000000000000000D+00 0.000000000000000D+00 0.285288166583661D+03
 0.285288166583661D+03 0.000000000000000D+00 0.000000000000000D+00 -.285288166583661D+03
 0.211686432763764D+03 -.140197434757103D+03 -.204641922840101D+02 -.135165920200204D+03
 0.642491108480242D+02 -.378886921196334D+02 -.408419339525783D+02 -.320051821622462D+02
 0.452310554252690D+02 0.434115770160295D+02 0.233794043635895D+01 -.124826836209658D+02
 0.249409734130265D+03 0.134674549860707D+03 0.589681858002295D+02 0.179653785983416D+03
 0.000000000000000D+00 -.000000000000000D+00 -.000000000000000D+00 0.000000000000000D+00
 0.295486795285949D+03 0.000000000000000D+00 0.000000000000000D+00 0.295486795285949D+03
 0.285890880660239D+03 0.000000000000000D+00 0.000000000000000D+00 -.285890880660239D+03
 0.210482891167874D+03 -.138380828858498D+03 -.204144983010599D+02 -.135165920200204D+03
 0.639157985264480D+02 -.373371950847573D+02 -.408268475299980D+02 -.320051821622462D+02
 0.456068914009091D+02 0.438024551321486D+02 0.234863306399655D+01 -.124826836209658D+02
 0.250591897903226D+03 0.136826070263955D+03 0.590270415037799D+02 0.179653785983416D+03
 0.107801969477309D+02 -.491050145284891D+01 -.134328736718587D+00 0.959591462571061D+01
0.777185025901D-05 0.000000000000D+00 0.000000000000D+00 0.774461733519D-06 0.000000000000D+00  7 1 -2 -24 -11 11 23 21 0 0.19322015D+00 0.99698447D-02 0.47328391D+05 0.47328391D+05 0.47328391D+05 0.11493990D+01  1  2  2  1  7  1        1 0.523329499979D-03 0.100000000000D+01
-.393196174756D-06 0.000000000000D+00 -.298459513698D-07 0.774461733519D-06 0.000000000000D+00  7 1 -2 -24 -11 11 23 21 2 0.19322015D+00 0.99698447D-02 0.47328391D+05 0.47328391D+05 0.47328391D+05 0.11493990D+01  1  2  3  1  7  1        1 -.349785419781D-04 0.100000000000D+01
0.495621428421D-06 0.000000000000D+00 0.000000000000D+00 0.774461733519D-06 0.000000000000D+00  7 1 -2 -24 -11 11 23 21 2 0.19322015D+00 0.99698447D-02 0.47328391D+05 0.47328391D+05 0.47328391D+05 0.11493990D+01  1  2 15  1  7  1        1 0.440902431210D-04 0.100000000000D+01
0.201089470579D-04 0.000000000000D+00 0.000000000000D+00 0.774461733519D-06 0.000000000000D+00  7 1 -2 -24 -11 11 23 21 2 0.20032754D+00 0.99698447D-02 0.48433734D+05 0.48433734D+05 0.48433734D+05 0.11485132D+01  1  2 12  1  7  1        1 0.166164049404D-02 0.100000000000D+01
-.165299871909D-03 0.000000000000D+00 0.000000000000D+00 0.774461733519D-06 0.000000000000D+00  7 1 -2 -24 -11 11 23 21 2 0.19322015D+00 0.99698447D-02 0.47328391D+05 0.47328391D+05 0.47328391D+05 0.11493990D+01  1  2  4  1  7  1        1 -.147049968432D-01 0.100000000000D+01
-.350535539121D-03 0.000000000000D+00 -.246252223478D-04 0.774461733519D-06 0.000000000000D+00  7 1 -2 -24 -11 11 23 21 2 0.20030630D+00 0.99698447D-02 0.47328391D+05 0.47328391D+05 0.47328391D+05 0.11493990D+01  1  2  5  1  7  1        1 -.290227789853D-01 0.100000000000D+01
0.351210611346D-03 0.000000000000D+00 0.246092583380D-04 0.774461733519D-06 0.000000000000D+00  7 1 -2 -24 -11 11 23 21 2 0.19322015D+00 0.99698447D-02 0.47328391D+05 0.47328391D+05 0.47328391D+05 0.11493990D+01  1  2  6  1  7  1        1 0.312435265164D-01 0.100000000000D+01
0.144945823904D-03 0.000000000000D+00 0.000000000000D+00 0.774461733519D-06 0.225888628552D-06  7 1 -2 -24 -11 11 23 21 2 0.20012748D+00 0.99909075D-02 0.48433734D+05 0.48433734D+05 0.48433734D+05 0.11485132D+01  1  2 11  1  7  1        1 0.119626540703D-01 0.100000000000D+01
0.518214294232D-06 0.000000000000D+00 0.000000000000D+00 0.774461733519D-06 0.000000000000D+00  7 21 -2 -24 -11 11 23 -1 2 0.20032754D+00 0.99698447D-02 0.48433734D+05 0.48433734D+05 0.48433734D+05 0.11485132D+01  1  2 12  3  7  1        1 0.436665688350D-04 0.100000000000D+01
-.223299721461D-05 0.000000000000D+00 -.157672866989D-06 0.774461733519D-06 0.000000000000D+00  7 21 -2 -24 -11 11 23 -1 2 0.20030630D+00 0.99698447D-02 0.47328391D+05 0.47328391D+05 0.47328391D+05 0.11493990D+01  1  2  5  3  7  1        1 -.188769041816D-03 0.100000000000D+01
0.925072477736D-06 0.000000000000D+00 0.000000000000D+00 0.774461733519D-06 0.142074702086D-08  7 21 -2 -24 -11 11 23 -1 2 0.20012748D+00 0.99909075D-02 0.48433734D+05 0.48433734D+05 0.48433734D+05 0.11485132D+01  1  2 11  3  7  1        1 0.779587704904D-04 0.100000000000D+01
  </mgrwgt>
  </event>
  <event>
  8     66 0.29493621E-05 0.83012322E+02 0.75467711E-02 0.10498057E+00
        1 -1    0    0  501    0 0.00000000E+00 0.00000000E+00 0.47295918E+03 0.47295928E+03 0.32000000E+00 0.0000E+00 0.9000E+01
       -2 -1    0    0    0  501 0.00000000E+00 0.00000000E+00 -.11034196E+03 0.11034242E+03 0.32000000E+00 0.0000E+00 0.9000E+01
       25  2    1    2    0    0 -.53909730E+02 -.95960241E+02 0.27826497E+03 0.42299842E+03 0.29896763E+03 0.0000E+00 0.0000E+00
       23  2    3    3    0    0 -.52240184E+02 0.36835535E+02 0.17615616E+02 0.11658229E+03 0.95891752E+02 0.0000E+00 0.0000E+00
      -24  1    1    2    0    0 0.53909730E+02 0.95960241E+02 0.84352244E+02 0.16030329E+03 0.80419002E+02 0.0000E+00 0.9000E+01
      -13  1    4    4    0    0 -.64850350E+02 0.56057797E+01 -.18028945E+02 0.67542925E+02 0.10565837E+00 0.0000E+00 0.9000E+01
       13  1    4    4    0    0 0.12610166E+02 0.31229756E+02 0.35644562E+02 0.49039370E+02 0.10565837E+00 0.0000E+00 0.9000E+01
       23  1    3    3    0    0 -.16695457E+01 -.13279578E+03 0.26064936E+03 0.30641613E+03 0.91188000E+02 0.0000E+00 0.9000E+01
#aMCatNLO 1  0  0  2  1 0.38946608D+02 0.00000000D+00  -5  7  0 0.00000000D+00 0.00000000D+00 0.00000000D+00 0.00000000D+00 0.00000000D+00
  <mgrwgt>
 0.7749956473D-03    6    2    0
 0.228445638793096D+03 0.000000000000000D+00 0.000000000000000D+00 0.228445638793096D+03
 0.228445638793096D+03 0.000000000000000D+00 0.000000000000000D+00 -.228445638793096D+03
 0.137708051716702D+03 0.539097323772229D+02 0.959602460143305D+02 -.195362097942467D+02
 0.100539318567609D+03 -.648504212735761D+02 0.560578849878831D+01 -.766234466334271D+02
 0.343175063918144D+02 0.126102346507194D+02 0.312297773166229D+02 0.658591191560933D+01
 0.184326400910067D+03 -.166954575436619D+01 -.132795811829742D+03 0.895737445120645D+02
 0.000000000000000D+00 0.000000000000000D+00 0.000000000000000D+00 0.000000000000000D+00
 0.248912590749428D+03 0.000000000000000D+00 0.000000000000000D+00 0.248912590749428D+03
 0.248583635023538D+03 0.000000000000000D+00 0.000000000000000D+00 -.248583635023538D+03
 0.133135748452334D+03 0.424071287468476D+02 0.952779276638410D+02 -.195362097942467D+02
 0.106393955744913D+03 -.736387761514323D+02 0.508447558595001D+01 -.766234466334271D+02
 0.332112828038944D+02 0.974232002512104D+01 0.310596566344223D+02 0.658591191560933D+01
 0.185807241452185D+03 -.173889403858953D+02 -.133728264321398D+03 0.895737445120645D+02
 0.389479973196394D+02 0.388782677653590D+02 0.230620443718482D+01 0.328955725889118D+00
0.430671768925D-05 0.000000000000D+00 0.000000000000D+00 0.172061905311D-07 0.000000000000D+00  7 1 -2 -24 -13 13 23 21 0 0.72762994D-01 0.16975730D-01 0.39240785D+05 0.39240785D+05 0.39240785D+05 0.11566682D+01  1  2  2  2  7  2       -2 0.585387820636D-03 0.100000000000D+01
-.233349679484D-06 0.000000000000D+00 -.165389299115D-07 0.172061905311D-07 0.000000000000D+00  7 1 -2 -24 -13 13 23 21 2 0.72762994D-01 0.16975730D-01 0.39240785D+05 0.39240785D+05 0.39240785D+05 0.11566682D+01  1  2  3  2  7  2       -2 -.424347944125D-04 0.100000000000D+01
0.277449476947D-06 0.000000000000D+00 0.000000000000D+00 0.172061905311D-07 0.000000000000D+00  7 1 -2 -24 -13 13 23 21 2 0.72762994D-01 0.16975730D-01 0.39240785D+05 0.39240785D+05 0.39240785D+05 0.11566682D+01  1  2 15  2  7  2       -2 0.504543719113D-04 0.100000000000D+01
0.448335221567D-05 0.000000000000D+00 0.000000000000D+00 0.172061905311D-07 0.000000000000D+00  7 1 -2 -24 -13 13 23 21 2 0.72762994D-01 0.19167836D-01 0.48355552D+05 0.48355552D+05 0.48355552D+05 0.11485751D+01  1  2 12  2  7  2       -2 0.661458629216D-03 0.100000000000D+01
-.355686721352D-05 0.000000000000D+00 0.000000000000D+00 0.172061905311D-07 0.000000000000D+00  7 1 -2 -24 -13 13 23 21 2 0.72762994D-01 0.16975730D-01 0.39240785D+05 0.39240785D+05 0.39240785D+05 0.11566682D+01  1  2  4  2  7  2       -2 -.646818668412D-03 0.100000000000D+01
0.859280549703D-07 0.000000000000D+00 0.000000000000D+00 0.172061905311D-07 0.000000000000D+00  7 1 21 -24 -13 13 23 2 2 0.72762994D-01 0.19167836D-01 0.48355552D+05 0.48355552D+05 0.48355552D+05 0.11485751D+01  1  2 12  4  7  2       -2 0.166948288341D-03 0.100000000000D+01
  </mgrwgt>
  </event>
  <event>
  8     66 0.29493621E-05 0.24342839E+03 0.75467711E-02 0.92713240E-01
        1 -1    0    0  501    0 0.00000000E+00 0.00000000E+00 0.29798141E+04 0.29798141E+04 0.32000000E+00 0.0000E+00 0.9000E+01
       -2 -1    0    0    0  501 0.00000000E+00 0.00000000E+00 -.11259292E+03 0.11259337E+03 0.32000000E+00 0.0000E+00 0.9000E+01
       25  2    1    2    0    0 0.16517454E+03 0.13212828E+03 0.20483797E+03 0.42042468E+03 0.30009633E+03 0.0000E+00 0.0000E+00
       23  2    3    3    0    0 0.11113824E+03 0.97042773E+02 -.14706694E+02 0.17411994E+03 0.91282307E+02 0.0000E+00 0.0000E+00
      -24  1    1    2    0    0 -.16517454E+03 -.13212828E+03 0.26623832E+04 0.26719828E+04 0.80419002E+02 0.0000E+00 0.9000E+01
      -13  1    4    4    0    0 0.55328742E+02 0.61604352E+02 0.36506335E+02 0.90493588E+02 0.10565837E+00 0.0000E+00 0.9000E+01
       13  1    4    4    0    0 0.55809496E+02 0.35438421E+02 -.51213029E+02 0.83626354E+02 0.10565837E+00 0.0000E+00 0.9000E+01
       23  1    3    3    0    0 0.54036299E+02 0.35085510E+02 0.21954466E+03 0.24630474E+03 0.91188000E+02 0.0000E+00 0.9000E+01
#aMCatNLO 1  0  0  2  1 0.49996850D+03 0.00000000D+00  -5  7  0 0.00000000D+00 0.00000000D+00 0.00000000D+00 0.00000000D+00 0.00000000D+00
  <mgrwgt>
 0.1469120094D-02    5    2    0
 0.579229391560829D+03 0.000000000000000D+00 0.000000000000000D+00 0.579229391560829D+03
 0.579229391560829D+03 0.000000000000000D+00 0.000000000000000D+00 -.579229391560829D+03
 0.543151028760171D+03 -.165174536888040D+03 -.132128283094773D+03 0.493766456190688D+03
 0.151210390598827D+03 0.553287408815461D+02 0.616043873418645D+02 -.126523563488174D+03
 0.349987551290701D+03 0.558094968738267D+02 0.354383854831347D+02 -.343686931598367D+03
 0.114109812471959D+03 0.540362991326676D+02 0.350855102697735D+02 -.235559611041473D+02
 0.000000000000000D+00 0.000000000000000D+00 0.000000000000000D+00 -.000000000000000D+00
 0.791013792345835D+03 0.000000000000000D+00 0.000000000000000D+00 0.791013792345835D+03
 0.102110014244218D+04 0.000000000000000D+00 0.000000000000000D+00 -.102110014244218D+04
 0.674082017208126D+03 -.409868537494663D+03 -.190057408910786D+03 0.493766456190688D+03
 0.135330252505678D+03 -.227302776076009D+01 0.479676815189480D+02 -.126523563488174D+03
 0.354229336384011D+03 -.857555453427133D+02 0.192412227528860D+01 -.343686931598367D+03
 0.981013363731006D+02 0.113766004363365D+02 0.249862064579656D+02 -.235559611041473D+02
 0.550370992317099D+03 0.486520510161799D+03 0.115179398658584D+03 -.230086350096345D+03
0.554269595181D-03 0.000000000000D+00 0.000000000000D+00 0.269880230760D-04 0.000000000000D+00  7 1 -2 -24 -13 13 23 21 0 0.45843298D+00 0.17322023D-01 0.59257383D+05 0.59257383D+05 0.59257383D+05 0.11408624D+01  1  2  2  2  7  2       -2 0.109226597303D-02 0.100000000000D+01
-.265795937037D-05 0.000000000000D+00 -.212854118803D-05 0.269880230760D-04 0.000000000000D+00  7 1 -2 -24 -13 13 23 21 2 0.45843298D+00 0.17322023D-01 0.59257383D+05 0.59257383D+05 0.59257383D+05 0.11408624D+01  1  2  3  2  7  2       -2 -.681745388214D-05 0.100000000000D+01
0.332244349413D-04 0.000000000000D+00 0.000000000000D+00 0.269880230760D-04 0.000000000000D+00  7 1 -2 -24 -13 13 23 21 2 0.45843298D+00 0.17322023D-01 0.59257383D+05 0.59257383D+05 0.59257383D+05 0.11408624D+01  1  2 15  2  7  2       -2 0.852180268431D-04 0.100000000000D+01
0.288880964089D-03 0.000000000000D+00 -.178106558271D-03 0.269880230760D-04 0.000000000000D+00  7 1 -2 -24 -13 13 23 21 2 0.45843298D+00 0.50960440D-01 0.59257383D+05 0.59257383D+05 0.59257383D+05 0.11408624D+01  1  2  5  2  7  2       -2 0.111265437936D-03 0.100000000000D+01
0.445616786552D-04 0.000000000000D+00 -.217862544016D-04 0.269880230760D-04 0.000000000000D+00  7 1 21 -24 -13 13 23 2 2 0.45843298D+00 0.50960440D-01 0.59257383D+05 0.59257383D+05 0.59257383D+05 0.11408624D+01  1  2  5  4  7  2       -2 0.187188110464D-03 0.100000000000D+01
  </mgrwgt>
  </event>
  <event>
  8     66 0.29493621E-05 0.22841551E+03 0.75467711E-02 0.98802931E-01
        1 -1    0    0  501    0 0.00000000E+00 0.00000000E+00 0.29203598E+04 0.29203598E+04 0.32000000E+00 0.0000E+00 0.9000E+01
       -2 -1    0    0    0  501 0.00000000E+00 0.00000000E+00 -.32351547E+02 0.32353129E+02 0.32000000E+00 0.0000E+00 0.9000E+01
       25  2    1    2    0    0 0.11870675E+03 0.19091292E+03 0.18513127E+04 0.18888784E+04 0.29993982E+03 0.0000E+00 0.0000E+00
       23  2    3    3    0    0 -.66086038E+02 0.41577607E+02 0.60633955E+03 0.61816097E+03 0.91538384E+02 0.0000E+00 0.0000E+00
      -24  1    1    2    0    0 -.11870675E+03 -.19091292E+03 0.10366955E+04 0.10638345E+04 0.80419002E+02 0.0000E+00 0.9000E+01
      -11  1    4    4    0    0 0.21272770E+02 0.19165576E+02 0.19168671E+03 0.19381343E+03 0.51099893E-03 0.0000E+00 0.9000E+01
       11  1    4    4    0    0 -.87358808E+02 0.22412031E+02 0.41465284E+03 0.42434754E+03 0.51099893E-03 0.0000E+00 0.9000E+01
       23  1    3    3    0    0 0.18479278E+03 0.14933532E+03 0.12449731E+04 0.12707174E+04 0.91188000E+02 0.0000E+00 0.9000E+01
#aMCatNLO 1  0  0  1  2 0.84943324D+02 0.00000000D+00  -5  7  0 0.00000000D+00 0.00000000D+00 0.00000000D+00 0.00000000D+00 0.00000000D+00
  <mgrwgt>
 0.1778866400D-02    9    2    0
 0.307376832557880D+03 0.000000000000000D+00 0.000000000000000D+00 0.307376832557880D+03
 0.307376832557880D+03 0.000000000000000D+00 0.000000000000000D+00 -.307376832557880D+03
 0.239466151902070D+03 -.118706745492850D+03 -.190912921865749D+03 -.183789768918990D+02
 0.303904119360468D+02 0.212727703397009D+02 0.191655755625258D+02 0.101846498748887D+02
 0.902079417657888D+02 -.873588080473284D+02 0.224120310814603D+02 -.190059910912963D+01
 0.254689159511853D+03 0.184792783200478D+03 0.149335315221763D+03 0.100949261261399D+02
 0.000000000000000D+00 0.000000000000000D+00 -.000000000000000D+00 0.000000000000000D+00
 0.418000803231423D+03 0.000000000000000D+00 0.000000000000000D+00 0.418000803231423D+03
 0.327045418398378D+03 0.000000000000000D+00 0.000000000000000D+00 -.327045418398378D+03
 0.219385478570267D+03 -.125319257577299D+03 -.160062703781412D+03 -.183789768918990D+02
 0.326524953760683D+02 0.203642588323733D+02 0.234041732051829D+02 0.101846498748887D+02
 0.966228186446875D+02 -.900512266395635D+02 0.349733239281101D+02 -.190059910912963D+01
 0.271933629782588D+03 0.177203620763436D+03 0.184742028021697D+03 0.100949261261399D+02
 0.124451799256191D+03 0.178026046210535D+02 -.830568213735783D+02 0.909553848330451D+02
0.824332675720D-04 0.000000000000D+00 0.000000000000D+00 0.418749570296D-05 0.000000000000D+00  7 1 -2 -24 -11 11 23 21 0 0.44928624D+00 0.49772841D-02 0.93657353D+05 0.93657353D+05 0.93657353D+05 0.11240649D+01  1  2  2  1  7  1        1 0.119332056215D-02 0.100000000000D+01
-.457951938116D-05 0.000000000000D+00 -.316565452654D-06 0.418749570296D-05 0.000000000000D+00  7 1 -2 -24 -11 11 23 21 2 0.44928624D+00 0.49772841D-02 0.93657353D+05 0.93657353D+05 0.93657353D+05 0.11240649D+01  1  2  3  1  7  1        1 -.837639713047D-04 0.100000000000D+01
0.541930437543D-05 0.000000000000D+00 0.000000000000D+00 0.418749570296D-05 0.000000000000D+00  7 1 -2 -24 -11 11 23 21 2 0.44928624D+00 0.49772841D-02 0.93657353D+05 0.93657353D+05 0.93657353D+05 0.11240649D+01  1  2 15  1  7  1        1 0.991244753899D-04 0.100000000000D+01
0.731766534192D-04 0.000000000000D+00 0.000000000000D+00 0.418749570296D-05 0.000000000000D+00  7 1 -2 -24 -11 11 23 21 2 0.62144393D+00 0.49772841D-02 0.12352815D+06 0.12352815D+06 0.12352815D+06 0.11142685D+01  1  2 12  1  7  1        1 0.158908723048D-03 0.100000000000D+01
-.766743532221D-04 0.000000000000D+00 0.000000000000D+00 0.418749570296D-05 0.000000000000D+00  7 1 -2 -24 -11 11 23 21 2 0.44928624D+00 0.49772841D-02 0.93657353D+05 0.93657353D+05 0.93657353D+05 0.11240649D+01  1  2  4  1  7  1        1 -.140245029850D-02 0.100000000000D+01
-.110264053469D-03 0.000000000000D+00 -.242722391835D-04 0.418749570296D-05 0.000000000000D+00  7 1 -2 -24 -11 11 23 21 2 0.61800028D+00 0.49772841D-02 0.93657353D+05 0.93657353D+05 0.93657353D+05 0.11240649D+01  1  2  5  1  7  1        1 -.259777280271D-03 0.100000000000D+01
0.113374865695D-03 0.000000000000D+00 0.230887582980D-04 0.418749570296D-05 0.000000000000D+00  7 1 -2 -24 -11 11 23 21 2 0.44928624D+00 0.49772841D-02 0.93657353D+05 0.93657353D+05 0.93657353D+05 0.11240649D+01  1  2  6  1  7  1        1 0.207373923033D-02 0.100000000000D+01
0.299266260721D-05 0.000000000000D+00 0.000000000000D+00 0.418749570296D-05 0.000000000000D+00  7 21 -2 -24 -11 11 23 -1 2 0.62144393D+00 0.49772841D-02 0.12352815D+06 0.12352815D+06 0.12352815D+06 0.11142685D+01  1  2 12  3  7  1        1 0.531377181419D-06 0.100000000000D+01
-.385612871695D-05 0.000000000000D+00 -.980367895122D-06 0.418749570296D-05 0.000000000000D+00  7 21 -2 -24 -11 11 23 -1 2 0.61800028D+00 0.49772841D-02 0.93657353D+05 0.93657353D+05 0.93657353D+05 0.11240649D+01  1  2  5  3  7  1        1 -.766418165778D-06 0.100000000000D+01
  </mgrwgt>
  </event>
  <event>
  8     66 0.29493621E-05 0.24971767E+03 0.75467711E-02 0.99561907E-01
        1 -1    0    0  501    0 0.00000000E+00 0.00000000E+00 0.39931312E+03 0.39931325E+03 0.32000000E+00 0.0000E+00 0.9000E+01
       -2 -1    0    0    0  501 0.00000000E+00 0.00000000E+00 -.16709236E+03 0.16709267E+03 0.32000000E+00 0.0000E+00 0.9000E+01
       25  2    1    2    0    0 0.10469779E+03 -.11693649E+03 0.14548386E+03 0.36987023E+03 0.30166648E+03 0.0000E+00 0.0000E+00
       23  2    3    3    0    0 0.17431316E+03 -.89875397E+02 0.12392740E+03 0.25004313E+03 0.93278627E+02 0.0000E+00 0.0000E+00
      -24  1    1    2    0    0 -.10469779E+03 0.11693649E+03 0.86736902E+02 0.19653568E+03 0.80419002E+02 0.0000E+00 0.9000E+01
      -11  1    4    4    0    0 0.16224954E+03 -.60007787E+02 0.13108408E+03 0.21704581E+03 0.51099893E-03 0.0000E+00 0.9000E+01
       11  1    4    4    0    0 0.12063617E+02 -.29867610E+02 -.71566797E+01 0.32997319E+02 0.51099893E-03 0.0000E+00 0.9000E+01
       23  1    3    3    0    0 -.69615368E+02 -.27061089E+02 0.21556453E+02 0.11982710E+03 0.91188000E+02 0.0000E+00 0.9000E+01
#aMCatNLO 1  0  0  2  1 0.14043218D+03 0.00000000D+00  -5  7  0 0.00000000D+00 0.00000000D+00 0.00000000D+00 0.00000000D+00 0.00000000D+00
  <mgrwgt>
 0.1184016830D-02    7    2    0
 0.258306591186978D+03 0.000000000000000D+00 0.000000000000000D+00 0.258306591186978D+03
 0.258306591186978D+03 0.000000000000000D+00 0.000000000000000D+00 -.258306591186978D+03
 0.176489620915450D+03 -.104697790054235D+03 0.116936485539174D+03 0.675288412565840D+01
 0.179042250678672D+03 0.162249540647452D+03 -.600077869836417D+02 0.461549519456055D+02
 0.393946705276973D+02 0.120636170831768D+02 -.298676099844577D+02 -.226789568250534D+02
 0.121686640252137D+03 -.696153676763939D+02 -.270610885710746D+02 -.302288792462106D+02
 0.000000000000000D+00 -.000000000000000D+00 0.000000000000000D+00 -.000000000000000D+00
 0.332556009994942D+03 0.000000000000000D+00 0.000000000000000D+00 0.332556009994942D+03
 0.343675765369282D+03 0.000000000000000D+00 0.000000000000000D+00 -.343675765369282D+03
 0.140306825378684D+03 -.784565116674176D+02 0.837720933631231D+02 0.675288412565840D+01
 0.225698350537537D+03 0.195775518969510D+03 -.102378767420216D+03 0.461549519456055D+02
 0.492259727401200D+02 0.194043527448719D+02 -.391450176151575D+02 -.226789568250534D+02
 0.120128894773465D+03 -.495850016571604D+02 -.523759724078859D+02 -.302288792462106D+02
 0.140871731934418D+03 -.871383583898043D+02 0.110127664080136D+03 -.111197553743400D+02
0.127520403371D-04 0.000000000000D+00 0.000000000000D+00 0.565807269394D-07 0.000000000000D+00  7 1 -2 -24 -11 11 23 21 0 0.61432821D-01 0.25706551D-01 0.62358915D+05 0.62358915D+05 0.62358915D+05 0.11389519D+01  1  2  2  2  7  2       -2 0.109816305421D-02 0.100000000000D+01
-.707461677397D-06 0.000000000000D+00 -.489711925840D-07 0.565807269394D-07 0.000000000000D+00  7 1 -2 -24 -11 11 23 21 2 0.61432821D-01 0.25706551D-01 0.62358915D+05 0.62358915D+05 0.62358915D+05 0.11389519D+01  1  2  3  2  7  2       -2 -.790316179477D-04 0.100000000000D+01
0.829024603066D-06 0.000000000000D+00 0.000000000000D+00 0.565807269394D-07 0.000000000000D+00  7 1 -2 -24 -11 11 23 21 2 0.61432821D-01 0.25706551D-01 0.62358915D+05 0.62358915D+05 0.62358915D+05 0.11389519D+01  1  2 15  2  7  2       -2 0.926115969135D-04 0.100000000000D+01
-.441045458042D-05 0.000000000000D+00 0.000000000000D+00 0.565807269394D-07 0.000000000000D+00  7 1 -2 -24 -11 11 23 21 2 0.61432821D-01 0.25706551D-01 0.62358915D+05 0.62358915D+05 0.62358915D+05 0.11389519D+01  1  2  4  2  7  2       -2 -.492698576491D-03 0.100000000000D+01
-.668160938848D-05 0.000000000000D+00 -.457731646107D-05 0.565807269394D-07 0.000000000000D+00  7 1 -2 -24 -11 11 23 21 2 0.61432821D-01 0.43340183D-01 0.62358915D+05 0.62358915D+05 0.62358915D+05 0.11389519D+01  1  2  5  2  7  2       -2 -.293814904991D-03 0.100000000000D+01
0.845338707594D-05 0.000000000000D+00 0.401678770668D-05 0.565807269394D-07 0.000000000000D+00  7 1 -2 -24 -11 11 23 21 2 0.61432821D-01 0.25706551D-01 0.62358915D+05 0.62358915D+05 0.62358915D+05 0.11389519D+01  1  2  6  2  7  2       -2 0.944340702960D-03 0.100000000000D+01
-.173527998024D-06 0.000000000000D+00 -.267276580809D-06 0.565807269394D-07 0.000000000000D+00  7 1 21 -24 -11 11 23 2 2 0.61432821D-01 0.43340183D-01 0.62358915D+05 0.62358915D+05 0.62358915D+05 0.11389519D+01  1  2  5  4  7  2       -2 -.855534242604D-04 0.100000000000D+01
  </mgrwgt>
  </event>
  <event>
  8     66 0.29493621E-05 0.10153344E+03 0.75467711E-02 0.10512512E+00
        1 -1    0    0  501    0 0.00000000E+00 0.00000000E+00 0.19468569E+03 0.19468596E+03 0.32000000E+00 0.0000E+00 0.9000E+01
       -2 -1    0    0    0  501 0.00000000E+00 0.00000000E+00 -.23019064E+03 0.23019087E+03 0.32000000E+00 0.0000E+00 0.9000E+01
       25  2    1    2    0    0 0.72120388E+02 0.28849356E+02 -.10300351E+02 0.31026389E+03 0.30020651E+03 0.0000E+00 0.0000E+00
       23  2    3    3    0    0 -.47731275E+02 -.74415499E+02 0.52375697E+01 0.12700252E+03 0.91028940E+02 0.0000E+00 0.0000E+00
      -24  1    1    2    0    0 -.72120388E+02 -.28849356E+02 -.25204600E+02 0.11461293E+03 0.80419002E+02 0.0000E+00 0.9000E+01
      -11  1    4    4    0    0 0.23812212E+02 -.38005675E+02 -.82505909E+01 0.45601809E+02 0.51099893E-03 0.0000E+00 0.9000E+01
       11  1    4    4    0    0 -.71543488E+02 -.36409824E+02 0.13488161E+02 0.81400715E+02 0.51099893E-03 0.0000E+00 0.9000E+01
       23  1    3    3    0    0 0.11985166E+03 0.10326486E+03 -.15537921E+02 0.18326137E+03 0.91188000E+02 0.0000E+00 0.9000E+01
#aMCatNLO 1  0  0  2  1 0.15451073D+02 0.00000000D+00  -5  7  0 0.00000000D+00 0.00000000D+00 0.00000000D+00 0.00000000D+00 0.00000000D+00
  <mgrwgt>
 0.9516937674D-03    9    2    0
 0.211695366967191D+03 0.000000000000000D+00 0.000000000000000D+00 0.211695366967191D+03
 0.211695366967191D+03 0.000000000000000D+00 0.000000000000000D+00 -.211695366967191D+03
 0.112901594948382D+03 -.721203878343460D+02 -.288493564437206D+02 -.156817881290605D+02
 0.450699874565552D+02 0.238122125012833D+02 -.380056745776028D+02 -.445544666999004D+01
 0.828175273339279D+02 -.715434875386633D+02 -.364098243660753D+02 0.203616530306993D+02
 0.182601624195517D+03 0.119851662871726D+03 0.103264855387399D+03 -.224418231648833D+00
 0.000000000000000D+00 -.000000000000000D+00 0.000000000000000D+00 -.000000000000000D+00
 0.213000683828762D+03 0.000000000000000D+00 0.000000000000000D+00 0.213000683828762D+03
 0.263093634202785D+03 0.000000000000000D+00 0.000000000000000D+00 -.263093634202785D+03
 0.113126826578534D+03 -.707939284075722D+02 -.327530786195431D+02 -.156817881290605D+02
 0.466927926960246D+02 0.243507271001912D+02 -.395905035888256D+02 -.445544666999004D+01
 0.832907458654491D+02 -.705686725868003D+02 -.392786695550807D+02 0.203616530306993D+02
 0.180562208011258D+03 0.121982908515259D+03 0.969926764478426D+02 -.224418231648833D+00
 0.524217448802812D+02 -.497103462107818D+01 0.146295753156069D+02 -.500929503740229D+02
0.636598200397D-05 0.000000000000D+00 0.000000000000D+00 0.846319502405D-06 0.000000000000D+00  7 1 -2 -24 -11 11 23 21 0 0.29951683D-01 0.35413983D-01 0.44002059D+05 0.44002059D+05 0.44002059D+05 0.11522091D+01  1  2  2  2  7  2       -2 0.795748752523D-03 0.100000000000D+01
-.353629646506D-06 0.000000000000D+00 -.244470470968D-07 0.846319502405D-06 0.000000000000D+00  7 1 -2 -24 -11 11 23 21 2 0.29951683D-01 0.35413983D-01 0.44002059D+05 0.44002059D+05 0.44002059D+05 0.11522091D+01  1  2  3  2  7  2       -2 -.586842871228D-04 0.100000000000D+01
0.414823904892D-06 0.000000000000D+00 0.000000000000D+00 0.846319502405D-06 0.000000000000D+00  7 1 -2 -24 -11 11 23 21 2 0.29951683D-01 0.35413983D-01 0.44002059D+05 0.44002059D+05 0.44002059D+05 0.11522091D+01  1  2 15  2  7  2       -2 0.688393786566D-04 0.100000000000D+01
0.773966561081D-04 0.000000000000D+00 0.000000000000D+00 0.846319502405D-06 0.000000000000D+00  7 1 -2 -24 -11 11 23 21 2 0.29951683D-01 0.44103701D-01 0.47369579D+05 0.47369579D+05 0.47369579D+05 0.11493656D+01  1  2 12  2  7  2       -2 0.854223115437D-02 0.100000000000D+01
-.764846956136D-04 0.000000000000D+00 0.000000000000D+00 0.846319502405D-06 0.000000000000D+00  7 1 -2 -24 -11 11 23 21 2 0.29951683D-01 0.35413983D-01 0.44002059D+05 0.44002059D+05 0.44002059D+05 0.11522091D+01  1  2  4  2  7  2       -2 -.126925156933D-01 0.100000000000D+01
-.861174643015D-04 0.000000000000D+00 -.417986402728D-05 0.846319502405D-06 0.000000000000D+00  7 1 -2 -24 -11 11 23 21 2 0.29951683D-01 0.44155139D-01 0.44002059D+05 0.44002059D+05 0.44002059D+05 0.11522091D+01  1  2  5  2  7  2       -2 -.952915433727D-02 0.100000000000D+01
0.850610612657D-04 0.000000000000D+00 0.408017876542D-05 0.846319502405D-06 0.000000000000D+00  7 1 -2 -24 -11 11 23 21 2 0.29951683D-01 0.35413983D-01 0.44002059D+05 0.44002059D+05 0.44002059D+05 0.11522091D+01  1  2  6  2  7  2       -2 0.141157501686D-01 0.100000000000D+01
0.237668716514D-05 0.000000000000D+00 0.000000000000D+00 0.846319502405D-06 0.000000000000D+00  7 1 21 -24 -11 11 23 2 2 0.29951683D-01 0.44103701D-01 0.47369579D+05 0.47369579D+05 0.47369579D+05 0.11493656D+01  1  2 12  4  7  2       -2 0.295612497462D-02 0.100000000000D+01
-.259817380839D-05 0.000000000000D+00 -.128868233912D-06 0.846319502405D-06 0.000000000000D+00  7 1 21 -24 -11 11 23 2 2 0.29951683D-01 0.44155139D-01 0.44002059D+05 0.44002059D+05 0.44002059D+05 0.11522091D+01  1  2  5  4  7  2       -2 -.324664634367D-02 0.100000000000D+01
  </mgrwgt>
  </event>
  <event>
  8     66 0.29493621E-05 0.26931930E+03 0.75467711E-02 0.96311296E-01
        1 -1    0    0  501    0 0.00000000E+00 0.00000000E+00 0.10263747E+04 0.10263748E+04 0.32000000E+00 0.0000E+00 0.9000E+01
       -2 -1    0    0    0  501 0.00000000E+00 0.00000000E+00 -.18324298E+03 0.18324326E+03 0.32000000E+00 0.0000E+00 0.9000E+01
       25  2    1    2    0    0 0.12842868E+03 0.17911413E+03 0.41761236E+02 0.37461044E+03 0.30002196E+03 0.0000E+00 0.0000E+00
       23  2    3    3    0    0 -.22322973E+02 0.91845720E+02 0.10469897E+03 0.16816856E+03 0.91568771E+02 0.0000E+00 0.0000E+00
      -24  1    1    2    0    0 -.12842868E+03 -.17911413E+03 0.80137052E+03 0.83500762E+03 0.80419002E+02 0.0000E+00 0.9000E+01
      -11  1    4    4    0    0 0.13889730E+02 0.78777596E+01 0.67642350E+02 0.69501591E+02 0.51099893E-03 0.0000E+00 0.9000E+01
       11  1    4    4    0    0 -.36212703E+02 0.83967961E+02 0.37056620E+02 0.98666972E+02 0.51099893E-03 0.0000E+00 0.9000E+01
       23  1    3    3    0    0 0.15075165E+03 0.87268413E+02 -.62937734E+02 0.20644187E+03 0.91188000E+02 0.0000E+00 0.9000E+01
#aMCatNLO 1  0  0  1  1 0.28627205D+03 0.00000000D+00  -5  7  0 0.00000000D+00 0.00000000D+00 0.00000000D+00 0.00000000D+00 0.00000000D+00
  <mgrwgt>
 0.8338784514D-03    7    2    0
 0.433677495258409D+03 0.000000000000000D+00 0.000000000000000D+00 0.433677495258409D+03
 0.433677495258409D+03 0.000000000000000D+00 0.000000000000000D+00 -.433677495258409D+03
 0.385516152018536D+03 -.128428679956461D+03 -.179114133353104D+03 0.305907974578329D+03
 0.311740483302723D+02 0.138897297841674D+02 0.787775955633308D+01 0.267738230403051D+02
 0.101579789440187D+03 -.362127026333223D+02 0.839679607430757D+02 -.442320625717661D+02
 0.349085000727822D+03 0.150751652805616D+03 0.872684130536955D+02 -.288449735046868D+03
 0.000000000000000D+00 -.000000000000000D+00 -.000000000000000D+00 0.000000000000000D+00
 0.654391517618238D+03 0.000000000000000D+00 0.000000000000000D+00 0.654391517618238D+03
 0.560317798237368D+03 0.000000000000000D+00 0.000000000000000D+00 -.560317798237368D+03
 0.333270718928866D+03 -.643414805778811D+02 -.829616845744057D+02 0.305907974578329D+03
 0.375341956428032D+02 0.200157722988989D+02 0.170688928064268D+02 0.267738230403051D+02
 0.123401627070517D+03 -.161533088419575D+02 0.114063827823524D+03 -.442320625717661D+02
 0.419169814313268D+03 0.219249425226247D+03 0.190038211359642D+03 -.288449735046868D+03
 0.301332959900152D+03 -.158770408105307D+03 -.238209247415187D+03 0.940737193808702D+02
0.499160401089D-04 0.000000000000D+00 0.000000000000D+00 0.100824166997D-04 0.000000000000D+00  7 1 -2 -24 -11 11 23 21 0 0.15790383D+00 0.28191254D-01 0.72532885D+05 0.72532885D+05 0.72532885D+05 0.11333497D+01  1  2  2  1  7  1        1 0.905002002108D-03 0.100000000000D+01
-.200787097439D-05 0.000000000000D+00 -.191690737213D-06 0.100824166997D-04 0.000000000000D+00  7 1 -2 -24 -11 11 23 21 2 0.15790383D+00 0.28191254D-01 0.72532885D+05 0.72532885D+05 0.72532885D+05 0.11333497D+01  1  2  3  1  7  1        1 -.467598441625D-04 0.100000000000D+01
0.305274110269D-05 0.000000000000D+00 0.000000000000D+00 0.100824166997D-04 0.000000000000D+00  7 1 -2 -24 -11 11 23 21 2 0.15790383D+00 0.28191254D-01 0.72532885D+05 0.72532885D+05 0.72532885D+05 0.11333497D+01  1  2 15  1  7  1        1 0.710930632749D-04 0.100000000000D+01
-.196237033365D-04 0.000000000000D+00 0.000000000000D+00 0.100824166997D-04 0.000000000000D+00  7 1 -2 -24 -11 11 23 21 2 0.15790383D+00 0.28191254D-01 0.72532885D+05 0.72532885D+05 0.72532885D+05 0.11333497D+01  1  2  4  1  7  1        1 -.457002128927D-03 0.100000000000D+01
-.107655808226D-04 0.000000000000D+00 -.158452820177D-04 0.100824166997D-04 0.000000000000D+00  7 1 -2 -24 -11 11 23 21 2 0.27552056D+00 0.28191254D-01 0.72532885D+05 0.72532885D+05 0.72532885D+05 0.11333497D+01  1  2  5  1  7  1        1 -.763175148953D-04 0.100000000000D+01
0.187749192877D-04 0.000000000000D+00 0.136716654354D-04 0.100824166997D-04 0.000000000000D+00  7 1 -2 -24 -11 11 23 21 2 0.15790383D+00 0.28191254D-01 0.72532885D+05 0.72532885D+05 0.72532885D+05 0.11333497D+01  1  2  6  1  7  1        1 0.437235415650D-03 0.100000000000D+01
0.138015465392D-06 0.000000000000D+00 -.975117203703D-06 0.100824166997D-04 0.000000000000D+00  7 21 -2 -24 -11 11 23 -1 2 0.27552056D+00 0.28191254D-01 0.72532885D+05 0.72532885D+05 0.72532885D+05 0.11333497D+01  1  2  5  3  7  1        1 0.627458388240D-06 0.100000000000D+01
  </mgrwgt>
  </event>
  <event>
  8     66 0.29493621E-05 0.11868894E+03 0.75467711E-02 0.10480242E+00
        1 -1    0    0  501    0 0.00000000E+00 0.00000000E+00 0.40735773E+02 0.40737030E+02 0.32000000E+00 0.0000E+00 0.9000E+01
       -2 -1    0    0    0  501 0.00000000E+00 0.00000000E+00 -.97570452E+03 0.97570457E+03 0.32000000E+00 0.0000E+00 0.9000E+01
       25  2    1    2    0    0 0.32685258E+02 -.30558888E+02 -.66877951E+03 0.73479271E+03 0.30108492E+03 0.0000E+00 0.0000E+00
       23  2    3    3    0    0 0.95976920E+02 -.10425744E+03 -.41847735E+03 0.45123719E+03 0.91708931E+02 0.0000E+00 0.0000E+00
      -24  1    1    2    0    0 -.32685258E+02 0.30558888E+02 -.26618924E+03 0.28164889E+03 0.80419002E+02 0.0000E+00 0.9000E+01
      -13  1    4    4    0    0 0.24890068E+02 -.37087743E+02 -.38796770E+02 0.59162630E+02 0.10565837E+00 0.0000E+00 0.9000E+01
       13  1    4    4    0    0 0.71086851E+02 -.67169696E+02 -.37968058E+03 0.39207456E+03 0.10565837E+00 0.0000E+00 0.9000E+01
       23  1    3    3    0    0 -.63291661E+02 0.73698551E+02 -.25030216E+03 0.28355552E+03 0.91188000E+02 0.0000E+00 0.9000E+01
#aMCatNLO 1  0  0  2  1 0.72265928D+02 0.00000000D+00  -5  7  0 0.00000000D+00 0.00000000D+00 0.00000000D+00 0.00000000D+00 0.00000000D+00
  <mgrwgt>
 0.2762345376D-02    9    2    0
 0.199365854225414D+03 0.000000000000000D+00 0.000000000000000D+00 0.199365854225414D+03
 0.199365854225414D+03 0.000000000000000D+00 0.000000000000000D+00 -.199365854225414D+03
 0.938005860121031D+02 -.326860344821105D+02 0.305596133497025D+02 -.181402084771476D+02
 0.598438218519094D+02 0.248901025428570D+02 -.370877753514466D+02 0.398279139389670D+02
 0.109174684907259D+03 0.710869267707208D+02 -.671697070387297D+02 -.485179464036223D+02
 0.135912615679557D+03 -.632909948314673D+02 0.736978690404738D+02 0.268302409418029D+02
 0.000000000000000D+00 -.000000000000000D+00 -.000000000000000D+00 -.000000000000000D+00
 0.225618346080174D+03 0.000000000000000D+00 0.000000000000000D+00 0.225618346080174D+03
 0.259367267272315D+03 0.000000000000000D+00 0.000000000000000D+00 -.259367267272315D+03
 0.972590305242431D+02 -.242802483103335D+02 0.455357600413047D+02 -.181402084771476D+02
 0.571651116376552D+02 0.300379830470234D+02 -.279160676722663D+02 0.398279139389670D+02
 0.106643320184575D+03 0.805819735823339D+02 -.502528820102999D+02 -.485179464036223D+02
 0.144160053666147D+03 -.509690242666884D+02 0.956512752938143D+02 0.268302409418029D+02
 0.797580973398684D+02 -.353706840523354D+02 -.630180856525527D+02 -.337489211921407D+02
0.460526147850D-04 0.000000000000D+00 0.000000000000D+00 0.125127374079D-06 0.000000000000D+00  7 1 -2 -24 -13 13 23 21 0 0.62671428D-02 0.15010849D+00 0.33807244D+05 0.33807244D+05 0.33807244D+05 0.11625520D+01  1  2  2  2  7  2       -2 0.189959645175D-02 0.100000000000D+01
-.253810612001D-05 0.000000000000D+00 -.176854166706D-06 0.125127374079D-06 0.000000000000D+00  7 1 -2 -24 -13 13 23 21 2 0.62671428D-02 0.15010849D+00 0.33807244D+05 0.33807244D+05 0.33807244D+05 0.11625520D+01  1  2  3  2  7  2       -2 -.141495171430D-03 0.100000000000D+01
0.295336162421D-05 0.000000000000D+00 0.000000000000D+00 0.125127374079D-06 0.000000000000D+00  7 1 -2 -24 -13 13 23 21 2 0.62671428D-02 0.15010849D+00 0.33807244D+05 0.33807244D+05 0.33807244D+05 0.11625520D+01  1  2 15  2  7  2       -2 0.164644971311D-03 0.100000000000D+01
0.267199495217D-04 0.000000000000D+00 0.000000000000D+00 0.125127374079D-06 0.000000000000D+00  7 1 -2 -24 -13 13 23 21 2 0.62671428D-02 0.20282886D+00 0.49602894D+05 0.49602894D+05 0.49602894D+05 0.11476001D+01  1  2 12  2  7  2       -2 0.609939447737D-03 0.100000000000D+01
-.315516255308D-04 0.000000000000D+00 0.000000000000D+00 0.125127374079D-06 0.000000000000D+00  7 1 -2 -24 -13 13 23 21 2 0.62671428D-02 0.15010849D+00 0.33807244D+05 0.33807244D+05 0.33807244D+05 0.11625520D+01  1  2  4  2  7  2       -2 -.175895035601D-02 0.100000000000D+01
-.540456129009D-04 0.000000000000D+00 -.190630311463D-04 0.125127374079D-06 0.000000000000D+00  7 1 -2 -24 -13 13 23 21 2 0.62671428D-02 0.21008256D+00 0.33807244D+05 0.33807244D+05 0.33807244D+05 0.11625520D+01  1  2  5  2  7  2       -2 -.113829735694D-02 0.100000000000D+01
0.581648782699D-04 0.000000000000D+00 0.180345259210D-04 0.125127374079D-06 0.000000000000D+00  7 1 -2 -24 -13 13 23 21 2 0.62671428D-02 0.15010849D+00 0.33807244D+05 0.33807244D+05 0.33807244D+05 0.11625520D+01  1  2  6  2  7  2       -2 0.324259468788D-02 0.100000000000D+01
0.103536334808D-05 0.000000000000D+00 0.000000000000D+00 0.125127374079D-06 0.000000000000D+00  7 1 21 -24 -13 13 23 2 2 0.62671428D-02 0.20282886D+00 0.49602894D+05 0.49602894D+05 0.49602894D+05 0.11476001D+01  1  2 12  4  7  2       -2 0.199676474095D-03 0.100000000000D+01
-.175967434310D-05 0.000000000000D+00 -.799860943289D-06 0.125127374079D-06 0.000000000000D+00  7 1 21 -24 -13 13 23 2 2 0.62671428D-02 0.21008256D+00 0.33807244D+05 0.33807244D+05 0.33807244D+05 0.11625520D+01  1  2  5  4  7  2       -2 -.315363772330D-03 0.100000000000D+01
  </mgrwgt>
  </event>
  <event>
  9     66 0.29493621E-05 0.49403500E+03 0.75467711E-02 0.94018939E-01
        1 -1    0    0  502    0 0.00000000E+00 0.00000000E+00 0.21196165E+04 0.21196166E+04 0.32000000E+00 0.0000E+00 0.9000E+01
       -2 -1    0    0    0  501 0.00000000E+00 0.00000000E+00 -.21223289E+03 0.21223313E+03 0.32000000E+00 0.0000E+00 0.9000E+01
       25  2    1    2    0    0 0.23645138E+03 -.44029003E+03 0.16618517E+04 0.17611294E+04 0.30010179E+03 0.0000E+00 0.0000E+00
       23  2    3    3    0    0 0.21095507E+03 -.36561727E+03 0.10211674E+04 0.11091956E+04 0.96715663E+02 0.0000E+00 0.0000E+00
      -24  1    1    2    0    0 -.22837011E+03 0.37474927E+03 0.19203998E+03 0.48573294E+03 0.80419002E+02 0.0000E+00 0.9000E+01
      -13  1    4    4    0    0 0.14228652E+03 -.22818119E+03 0.52616782E+03 0.59090160E+03 0.10565837E+00 0.0000E+00 0.9000E+01
       13  1    4    4    0    0 0.68668550E+02 -.13743607E+03 0.49499959E+03 0.51829398E+03 0.10565837E+00 0.0000E+00 0.9000E+01
       23  1    3    3    0    0 0.25496310E+02 -.74672761E+02 0.64068429E+03 0.65193381E+03 0.91188000E+02 0.0000E+00 0.9000E+01
       21  1    1    2  502  501 -.80812779E+01 0.65540758E+02 0.53491951E+02 0.84987348E+02 0.75000000E+00 0.0000E+00 0.9000E+01
#aMCatNLO 2  0  0  1  2 0.66037096D+02 0.00000000D+00  -5  7  0 0.00000000D+00 0.00000000D+00 0.00000000D+00 0.00000000D+00 0.00000000D+00
  <mgrwgt>
 0.6021579192D-03    1    2    0
 0.633860213161445D+03 0.000000000000000D+00 0.000000000000000D+00 0.633860213161445D+03
 0.633860213161445D+03 0.000000000000000D+00 0.000000000000000D+00 -.633860213161445D+03
 0.600890062470971D+03 -.232129127026860D+03 0.405235677343089D+03 -.369461453220810D+03
 0.265130611092993D+03 0.140558374806409D+03 -.214164962986719D+03 0.683443694770984D+02
 0.187183924530191D+03 0.674528517553972D+02 -.127577124474267D+03 0.119214142212516D+03
 0.214515828228736D+03 0.241179004650538D+02 -.634935898821028D+02 0.181902941531196D+03
 0.000000000000000D+00 -.000000000000000D+00 0.000000000000000D+00 -.000000000000000D+00
 0.656151691013767D+03 0.000000000000000D+00 0.000000000000000D+00 0.656151691013767D+03
 0.685588452212604D+03 0.000000000000000D+00 0.000000000000000D+00 -.685588452212604D+03
 0.579274462851456D+03 -.228370105617080D+03 0.374749271916416D+03 -.369461453220810D+03
 0.277458356632149D+03 0.142286611423106D+03 -.228181302992863D+03 0.683443694770984D+02
 0.194463400629168D+03 0.686684623211083D+02 -.137435966046915D+03 0.119214142212516D+03
 0.218243017264507D+03 0.254963097720412D+02 -.746727613726893D+02 0.181902941531196D+03
 0.723009058490897D+02 -.808127789917580D+01 0.655407584960521D+02 -.294367611988377D+02
0.210339564462D-03 0.000000000000D+00 0.000000000000D+00 0.121147268577D-05 0.175994030786D-08  7 1 -2 -24 -13 13 23 21 2 0.32609392D+00 0.32651139D-01 0.27842927D+06 0.27842927D+06 0.27842927D+06 0.10869576D+01  1  2  1  1  7  1        1 0.602157919203D-03 0.100000000000D+01
  </mgrwgt>
  </event>
  <event>
  8     66 0.29493621E-05 0.37609100E+03 0.75467711E-02 0.89987540E-01
        1 -1    0    0  501    0 0.00000000E+00 0.00000000E+00 0.14084908E+04 0.14084908E+04 0.32000000E+00 0.0000E+00 0.9000E+01
       -2 -1    0    0    0  501 0.00000000E+00 0.00000000E+00 -.10680213E+03 0.10680260E+03 0.32000000E+00 0.0000E+00 0.9000E+01
       25  2    1    2    0    0 0.31630420E+03 -.41360075E+02 0.62267885E+03 0.76078661E+03 0.29884497E+03 0.0000E+00 0.0000E+00
       23  2    3    3    0    0 0.32902151E+03 -.33330722E+02 0.51365244E+03 0.61785932E+03 0.92440356E+02 0.0000E+00 0.0000E+00
      -24  1    1    2    0    0 -.31630420E+03 0.41360075E+02 0.67900984E+03 0.75450684E+03 0.80419002E+02 0.0000E+00 0.9000E+01
      -11  1    4    4    0    0 0.54801468E+02 -.82654958E+01 0.16203068E+03 0.17124678E+03 0.51099893E-03 0.0000E+00 0.9000E+01
       11  1    4    4    0    0 0.27422004E+03 -.25065226E+02 0.35162176E+03 0.44661254E+03 0.51099893E-03 0.0000E+00 0.9000E+01
       23  1    3    3    0    0 -.12717315E+02 -.80293530E+01 0.10902641E+03 0.14292729E+03 0.91188000E+02 0.0000E+00 0.9000E+01
#aMCatNLO 1  0  0  2  1 0.58480089D+03 0.00000000D+00  -5  7  0 0.00000000D+00 0.00000000D+00 0.00000000D+00 0.00000000D+00 0.00000000D+00
  <mgrwgt>
 0.1202226476D-02    5    2    0
 0.387853325778545D+03 0.000000000000000D+00 0.000000000000000D+00 0.387853325778545D+03
 0.387853325778545D+03 0.000000000000000D+00 0.000000000000000D+00 -.387853325778545D+03
 0.334456143029129D+03 -.316304196344349D+03 0.413600749035406D+02 0.602884336708099D+02
 0.626211277631826D+02 0.548014684628488D+02 -.826549579035709D+01 0.291528090582679D+02
 0.282383794861550D+03 0.274220042820902D+03 -.250652261272691D+02 -.625756354734165D+02
 0.962455859032286D+02 -.127173149394014D+02 -.802935298591436D+01 -.268656072556613D+02
 0.000000000000000D+00 -.000000000000000D+00 -.000000000000000D+00 -.000000000000000D+00
 0.569864993563709D+03 0.000000000000000D+00 0.000000000000000D+00 0.569864993563709D+03
 0.150185765873271D+04 0.000000000000000D+00 0.000000000000000D+00 -.150185765873271D+04
 0.278183394719535D+03 -.175806294540679D+03 0.190725553371096D+03 0.602884336708099D+02
 0.102190919116452D+03 0.925981586073500D+02 0.319167463317518D+02 0.291528090582679D+02
 0.481520427916791D+03 0.449407790046173D+03 0.161179560093960D+03 -.625756354734165D+02
 0.109554121085473D+03 0.344791607075635D+02 0.421459455522953D+02 -.268656072556613D+02
 0.110027378945817D+04 -.400678814820408D+03 -.425967805349103D+03 -.931992665169001D+03
0.507645134975D-04 0.000000000000D+00 0.000000000000D+00 0.559832537992D-06 0.000000000000D+00  7 1 -2 -24 -11 11 23 21 0 0.21669093D+00 0.16431136D-01 0.14144444D+06 0.14144444D+06 0.14144444D+06 0.11095703D+01  1  2  2  2  7  2       -2 0.120662158382D-02 0.100000000000D+01
-.281699867477D-05 0.000000000000D+00 -.194949098434D-06 0.559832537992D-06 0.000000000000D+00  7 1 -2 -24 -11 11 23 21 2 0.21669093D+00 0.16431136D-01 0.14144444D+06 0.14144444D+06 0.14144444D+06 0.11095703D+01  1  2  3  2  7  2       -2 -.824341434309D-04 0.100000000000D+01
0.327624110582D-05 0.000000000000D+00 0.000000000000D+00 0.559832537992D-06 0.000000000000D+00  7 1 -2 -24 -11 11 23 21 2 0.21669093D+00 0.16431136D-01 0.14144444D+06 0.14144444D+06 0.14144444D+06 0.11095703D+01  1  2 15  2  7  2       -2 0.958730054263D-04 0.100000000000D+01
-.165809999246D-05 0.000000000000D+00 -.229223598209D-04 0.559832537992D-06 0.000000000000D+00  7 1 -2 -24 -11 11 23 21 2 0.21669093D+00 0.91021341D-01 0.14144444D+06 0.14144444D+06 0.14144444D+06 0.11095703D+01  1  2  5  2  7  2       -2 -.189584724375D-05 0.100000000000D+01
-.145310464559D-05 0.000000000000D+00 -.480350878243D-05 0.559832537992D-06 0.000000000000D+00  7 1 21 -24 -11 11 23 2 2 0.21669093D+00 0.91021341D-01 0.14144444D+06 0.14144444D+06 0.14144444D+06 0.11095703D+01  1  2  5  4  7  2       -2 -.159381227946D-04 0.100000000000D+01
  </mgrwgt>
  </event>
  <event>
  8     66 0.29493621E-05 0.16059410E+03 0.75467711E-02 0.10487256E+00
        1 -1    0    0  501    0 0.00000000E+00 0.00000000E+00 0.41614382E+04 0.41614382E+04 0.32000000E+00 0.0000E+00 0.9000E+01
       -2 -1    0    0    0  501 0.00000000E+00 0.00000000E+00 -.40206290E+02 0.40207564E+02 0.32000000E+00 0.0000E+00 0.9000E+01
       25  2    1    2    0    0 -.13828242E+03 -.98592788E+02 0.38825032E+04 0.38978347E+04 0.30073526E+03 0.0000E+00 0.0000E+00
       23  2    3    3    0    0 0.70671564E+01 -.41617866E+01 0.24856645E+04 0.24873322E+04 0.90698311E+02 0.0000E+00 0.0000E+00
      -24  1    1    2    0    0 0.13828242E+03 0.98592788E+02 0.23872878E+03 0.30381114E+03 0.80419002E+02 0.0000E+00 0.9000E+01
      -11  1    4    4    0    0 -.14094290E+02 0.95222477E+01 0.93476493E+02 0.95011457E+02 0.51099893E-03 0.0000E+00 0.9000E+01
       11  1    4    4    0    0 0.21161446E+02 -.13684034E+02 0.23921880E+04 0.23923207E+04 0.51099893E-03 0.0000E+00 0.9000E+01
       23  1    3    3    0    0 -.14534958E+03 -.94431001E+02 0.13968387E+04 0.14105025E+04 0.91188000E+02 0.0000E+00 0.9000E+01
#aMCatNLO 1  0  0  1  2 0.14202676D+02 0.00000000D+00  -5  7  0 0.00000000D+00 0.00000000D+00 0.00000000D+00 0.00000000D+00 0.00000000D+00
  <mgrwgt>
 0.1095661784D-02    9    2    0
 0.409046079366447D+03 0.000000000000000D+00 0.000000000000000D+00 0.409046079366447D+03
 0.409046079366447D+03 0.000000000000000D+00 0.000000000000000D+00 -.409046079366447D+03
 0.357722715246890D+03 0.138282418643312D+03 0.985927875729788D+02 -.304394086640957D+03
 0.170716478116868D+02 -.140942900815622D+02 0.952224771139298D+01 0.145565951579304D+01
 0.235820349306935D+03 0.211614464994819D+02 -.136840343332087D+02 0.234469992821389D+03
 0.207477446367381D+03 -.145349575061232D+03 -.944310009511631D+02 0.684684343037754D+02
 0.000000000000000D+00 -.000000000000000D+00 0.000000000000000D+00 0.000000000000000D+00
 0.441968984394848D+03 0.000000000000000D+00 0.000000000000000D+00 0.441968984394848D+03
 0.410642319930422D+03 0.000000000000000D+00 0.000000000000000D+00 -.410642319930422D+03
 0.357361066434094D+03 0.141137382947250D+03 0.930816577063451D+02 -.304394086640957D+03
 0.168148827595621D+02 -.139589984728813D+02 0.926108520779264D+01 0.145565951579304D+01
 0.236235811379196D+03 0.230461256416169D+02 -.173221574070814D+02 0.234469992821389D+03
 0.207803673270807D+03 -.143691569659571D+03 -.976315604382025D+02 0.684684343037754D+02
 0.343958704816111D+02 -.653294045641453D+01 0.126109749311461D+02 0.313266644644257D+02
0.397220469638D-03 0.000000000000D+00 0.000000000000D+00 0.450591949933D-05 0.000000000000D+00  7 1 -2 -24 -11 11 23 21 0 0.64022137D+00 0.61856820D-02 0.45363309D+05 0.45363309D+05 0.45363309D+05 0.11510317D+01  1  2  2  1  7  1        1 0.410448130426D-03 0.100000000000D+01
-.106407943642D-04 0.000000000000D+00 -.152543119396D-05 0.450591949933D-05 0.000000000000D+00  7 1 -2 -24 -11 11 23 21 2 0.64022137D+00 0.61856820D-02 0.45363309D+05 0.45363309D+05 0.45363309D+05 0.11510317D+01  1  2  3  1  7  1        1 -.145671725961D-04 0.100000000000D+01
0.247873621101D-04 0.000000000000D+00 0.000000000000D+00 0.450591949933D-05 0.000000000000D+00  7 1 -2 -24 -11 11 23 21 2 0.64022137D+00 0.61856820D-02 0.45363309D+05 0.45363309D+05 0.45363309D+05 0.11510317D+01  1  2 15  1  7  1        1 0.339337242785D-04 0.100000000000D+01
0.262731684365D-02 0.000000000000D+00 0.000000000000D+00 0.450591949933D-05 0.000000000000D+00  7 1 -2 -24 -11 11 23 21 2 0.69294184D+00 0.61856820D-02 0.49107496D+05 0.49107496D+05 0.49107496D+05 0.11479841D+01  1  2 12  1  7  1        1 0.159924840440D-02 0.100000000000D+01
-.283318136742D-02 0.000000000000D+00 0.000000000000D+00 0.450591949933D-05 0.000000000000D+00  7 1 -2 -24 -11 11 23 21 2 0.64022137D+00 0.61856820D-02 0.45363309D+05 0.45363309D+05 0.45363309D+05 0.11510317D+01  1  2  4  1  7  1        1 -.387860535244D-02 0.100000000000D+01
-.359340901251D-02 0.000000000000D+00 -.265261782668D-03 0.450591949933D-05 0.000000000000D+00  7 1 -2 -24 -11 11 23 21 2 0.69215517D+00 0.61856820D-02 0.45363309D+05 0.45363309D+05 0.45363309D+05 0.11510317D+01  1  2  5  1  7  1        1 -.224078866961D-02 0.100000000000D+01
0.378844745890D-02 0.000000000000D+00 0.282608766663D-03 0.450591949933D-05 0.000000000000D+00  7 1 -2 -24 -11 11 23 21 2 0.64022137D+00 0.61856820D-02 0.45363309D+05 0.45363309D+05 0.45363309D+05 0.11510317D+01  1  2  6  1  7  1        1 0.518635790863D-02 0.100000000000D+01
0.374903277594D-04 0.000000000000D+00 0.000000000000D+00 0.450591949933D-05 0.000000000000D+00  7 21 -2 -24 -11 11 23 -1 2 0.69294184D+00 0.61856820D-02 0.49107496D+05 0.49107496D+05 0.49107496D+05 0.11479841D+01  1  2 12  3  7  1        1 0.131729425419D-05 0.100000000000D+01
-.463831007297D-04 0.000000000000D+00 -.346400122656D-05 0.450591949933D-05 0.000000000000D+00  7 21 -2 -24 -11 11 23 -1 2 0.69215517D+00 0.61856820D-02 0.45363309D+05 0.45363309D+05 0.45363309D+05 0.11510317D+01  1  2  5  3  7  1        1 -.168248299821D-05 0.100000000000D+01
  </mgrwgt>
  </event>
  <event>
  8     66 0.29493621E-05 0.23127820E+03 0.75467711E-02 0.93008005E-01
        1 -1    0    0  501    0 0.00000000E+00 0.00000000E+00 0.48918115E+03 0.48918125E+03 0.32000000E+00 0.0000E+00 0.9000E+01
       -2 -1    0    0    0  501 0.00000000E+00 0.00000000E+00 -.43559545E+03 0.43559557E+03 0.32000000E+00 0.0000E+00 0.9000E+01
       25  2    1    2    0    0 -.55709049E+02 -.10689014E+03 -.36170836E+03 0.48492983E+03 0.29965813E+03 0.0000E+00 0.0000E+00
       23  2    3    3    0    0 0.10105373E+02 -.16916860E+03 -.23691309E+03 0.30576718E+03 0.92981822E+02 0.0000E+00 0.0000E+00
      -24  1    1    2    0    0 0.55709049E+02 0.10689014E+03 0.41529406E+03 0.43984699E+03 0.80419002E+02 0.0000E+00 0.9000E+01
      -13  1    4    4    0    0 -.19860657E+02 -.27982634E+01 -.89483711E+01 0.21962707E+02 0.10565837E+00 0.0000E+00 0.9000E+01
       13  1    4    4    0    0 0.29966030E+02 -.16637034E+03 -.22796472E+03 0.28380447E+03 0.10565837E+00 0.0000E+00 0.9000E+01
       23  1    3    3    0    0 -.65814422E+02 0.62278456E+02 -.12479527E+03 0.17916265E+03 0.91188000E+02 0.0000E+00 0.9000E+01
#aMCatNLO 1  0  0  2  2 0.51541723D+03 0.00000000D+00  -5  7  0 0.00000000D+00 0.00000000D+00 0.00000000D+00 0.00000000D+00 0.00000000D+00
  <mgrwgt>
 0.1606781444D-02    5    2    0
 0.461611508123769D+03 0.000000000000000D+00 0.000000000000000D+00 0.461611508123769D+03
 0.461611508123769D+03 0.000000000000000D+00 0.000000000000000D+00 -.461611508123769D+03
 0.416482770059669D+03 0.557090489447466D+02 0.106890143731147D+03 0.390463418057328D+03
 0.225186966023819D+02 -.198607213898699D+02 -.279805228867078D+01 -.102378877672084D+02
 0.297513998898575D+03 0.299660942440143D+02 -.166370547196847D+03 -.244821269014360D+03
 0.186707550686911D+03 -.658144217988909D+02 0.622784557543715D+02 -.135404261275759D+03
 0.000000000000000D+00 0.000000000000000D+00 0.000000000000000D+00 -.000000000000000D+00
 0.713888184402535D+03 0.000000000000000D+00 0.000000000000000D+00 0.713888184402535D+03
 0.887259525500290D+03 0.000000000000000D+00 0.000000000000000D+00 -.887259525500290D+03
 0.412311688581250D+03 0.126821047718904D+02 -.104456670269994D+03 0.390463418057328D+03
 0.295329569367475D+02 -.225629879984155D+02 -.160714894168894D+02 -.102378877672084D+02
 0.428415234261028D+03 -.772059183714243D+01 -.351486204063280D+03 -.244821269014360D+03
 0.187093256287267D+03 -.852203267078364D+02 -.330426564965444D+02 -.135404261275759D+03
 0.543794573836533D+03 0.102821801771504D+03 0.505057020246708D+03 -.173371341097755D+03
0.128370401779D-03 0.000000000000D+00 0.000000000000D+00 0.518504253214D-05 0.000000000000D+00  7 1 -2 -24 -13 13 23 21 0 0.75258655D-01 0.67014701D-01 0.53489608D+05 0.53489608D+05 0.53489608D+05 0.11447271D+01  1  2  2  2  7  2       -2 0.139721007029D-02 0.100000000000D+01
-.299018020920D-05 0.000000000000D+00 -.492976143535D-06 0.518504253214D-05 0.000000000000D+00  7 1 -2 -24 -13 13 23 21 2 0.75258655D-01 0.67014701D-01 0.53489608D+05 0.53489608D+05 0.53489608D+05 0.11447271D+01  1  2  3  2  7  2       -2 -.426479446200D-04 0.100000000000D+01
0.799999827999D-05 0.000000000000D+00 0.000000000000D+00 0.518504253214D-05 0.000000000000D+00  7 1 -2 -24 -13 13 23 21 2 0.75258655D-01 0.67014701D-01 0.53489608D+05 0.53489608D+05 0.53489608D+05 0.11447271D+01  1  2 15  2  7  2       -2 0.114101311538D-03 0.100000000000D+01
0.447724067640D-04 0.000000000000D+00 -.383117774531D-04 0.518504253214D-05 0.000000000000D+00  7 1 -2 -24 -13 13 23 21 2 0.75258655D-01 0.17797087D+00 0.53489608D+05 0.53489608D+05 0.53489608D+05 0.11447271D+01  1  2  5  2  7  2       -2 0.578226759326D-04 0.100000000000D+01
0.712986621151D-05 0.000000000000D+00 -.416149766303D-05 0.518504253214D-05 0.000000000000D+00  7 1 21 -24 -13 13 23 2 2 0.75258655D-01 0.17797087D+00 0.53489608D+05 0.53489608D+05 0.53489608D+05 0.11447271D+01  1  2  5  4  7  2       -2 0.802953309385D-04 0.100000000000D+01
  </mgrwgt>
  </event>
  <event>
  8     66 0.29493621E-05 0.42955389E+03 0.75467711E-02 0.87745778E-01
        1 -1    0    0  501    0 0.00000000E+00 0.00000000E+00 0.45475980E+03 0.45475991E+03 0.32000000E+00 0.0000E+00 0.9000E+01
       -2 -1    0    0    0  501 0.00000000E+00 0.00000000E+00 -.43713906E+03 0.43713917E+03 0.32000000E+00 0.0000E+00 0.9000E+01
       25  2    1    2    0    0 -.36204508E+03 -.14572708E+03 0.36334137E+02 0.49298753E+03 0.29900421E+03 0.0000E+00 0.0000E+00
       23  2    3    3    0    0 -.24157889E+03 0.12432103E+02 0.83409364E+02 0.26925162E+03 0.83811690E+02 0.0000E+00 0.0000E+00
      -24  1    1    2    0    0 0.36204508E+03 0.14572708E+03 -.18713399E+02 0.39891155E+03 0.80419002E+02 0.0000E+00 0.9000E+01
      -11  1    4    4    0    0 -.17621849E+03 0.10018261E+02 0.98501020E+02 0.20212811E+03 0.51099893E-03 0.0000E+00 0.9000E+01
       11  1    4    4    0    0 -.65360397E+02 0.24138420E+01 -.15091656E+02 0.67123514E+02 0.51099893E-03 0.0000E+00 0.9000E+01
       23  1    3    3    0    0 -.12046619E+03 -.15815918E+03 -.47075227E+02 0.22373591E+03 0.91188000E+02 0.0000E+00 0.9000E+01
#aMCatNLO 1  0  0  1  2 0.76685540D+03 0.00000000D+00  -5  7  0 0.00000000D+00 0.00000000D+00 0.00000000D+00 0.00000000D+00 0.00000000D+00
  <mgrwgt>
 0.1801521647D-02    5    2    0
 0.445862502280715D+03 0.000000000000000D+00 0.000000000000000D+00 0.445862502280715D+03
 0.445862502280715D+03 0.000000000000000D+00 0.000000000000000D+00 -.445862502280715D+03
 0.399359206195323D+03 0.362045076343574D+03 0.145727075607219D+03 -.265996569325923D+02
 0.200221159309478D+03 -.176218488953181D+03 0.100182606332262D+02 0.945261405124201D+02
 0.674348332971896D+02 -.653603967495894D+02 0.241384201259576D+01 -.164209818614554D+02
 0.224709805759439D+03 -.120466190640804D+03 -.158159178253041D+03 -.515055017183724D+02
 0.000000000000000D+00 0.000000000000000D+00 0.000000000000000D+00 0.000000000000000D+00
 0.133523636888513D+04 0.000000000000000D+00 0.000000000000000D+00 0.133523636888513D+04
 0.784818463092491D+03 0.000000000000000D+00 0.000000000000000D+00 -.784818463092491D+03
 0.201866513440363D+03 0.182761533434021D+03 0.131739683509288D+02 -.265996569325923D+02
 0.380807492870449D+03 -.349479332414604D+03 -.118081969839369D+03 0.945261405124201D+02
 0.132903268646013D+03 -.125100563417637D+03 -.417549901699167D+02 -.164209818614554D+02
 0.460535254803262D+03 -.324804026176842D+03 -.309236151581212D+03 -.515055017183724D+02
 0.943942302217538D+03 0.616622388575061D+03 0.455899143239569D+03 0.550417905792643D+03
0.151119201935D-03 0.000000000000D+00 0.000000000000D+00 0.509137716943D-07 0.000000000000D+00  7 1 -2 -24 -11 11 23 21 0 0.69963063D-01 0.67252180D-01 0.18451654D+06 0.18451654D+06 0.18451654D+06 0.11005232D+01  1  2  2  1  7  1        1 0.174798026016D-02 0.100000000000D+01
-.838133716973D-05 0.000000000000D+00 -.580337526032D-06 0.509137716943D-07 0.000000000000D+00  7 1 -2 -24 -11 11 23 21 2 0.69963063D-01 0.67252180D-01 0.18451654D+06 0.18451654D+06 0.18451654D+06 0.11005232D+01  1  2  3  1  7  1        1 -.117416358292D-03 0.100000000000D+01
0.953780485797D-05 0.000000000000D+00 0.000000000000D+00 0.509137716943D-07 0.000000000000D+00  7 1 -2 -24 -11 11 23 21 2 0.69963063D-01 0.67252180D-01 0.18451654D+06 0.18451654D+06 0.18451654D+06 0.11005232D+01  1  2 15  1  7  1        1 0.133617618507D-03 0.100000000000D+01
0.335861949258D-04 0.000000000000D+00 -.568173842913D-04 0.509137716943D-07 0.000000000000D+00  7 1 -2 -24 -11 11 23 21 2 0.29368249D+00 0.67252180D-01 0.18451654D+06 0.18451654D+06 0.18451654D+06 0.11005232D+01  1  2  5  1  7  1        1 0.339747357007D-04 0.100000000000D+01
0.598543703072D-05 0.000000000000D+00 -.978450370827D-05 0.509137716943D-07 0.000000000000D+00  7 21 -2 -24 -11 11 23 -1 2 0.29368249D+00 0.67252180D-01 0.18451654D+06 0.18451654D+06 0.18451654D+06 0.11005232D+01  1  2  5  3  7  1        1 0.336539043385D-05 0.100000000000D+01
  </mgrwgt>
  </event>
  <event>
  8     66 0.29493621E-05 0.71414379E+03 0.75467711E-02 0.89526647E-01
        1 -1    0    0  501    0 0.00000000E+00 0.00000000E+00 0.46385724E+04 0.46385724E+04 0.32000000E+00 0.0000E+00 0.9000E+01
       -2 -1    0    0    0  501 0.00000000E+00 0.00000000E+00 -.18350523E+03 0.18350551E+03 0.32000000E+00 0.0000E+00 0.9000E+01
       25  2    1    2    0    0 -.25249830E+03 -.65255792E+03 0.37462590E+04 0.38228465E+04 0.30018590E+03 0.0000E+00 0.0000E+00
       23  2    3    3    0    0 -.16621048E+03 -.48061959E+03 0.30901590E+04 0.31330706E+04 0.91800608E+02 0.0000E+00 0.0000E+00
      -24  1    1    2    0    0 0.25249830E+03 0.65255792E+03 0.70880822E+03 0.99923147E+03 0.80419002E+02 0.0000E+00 0.9000E+01
      -13  1    4    4    0    0 -.10939660E+03 -.23859031E+03 0.13544502E+04 0.13796479E+04 0.10565837E+00 0.0000E+00 0.9000E+01
       13  1    4    4    0    0 -.56813882E+02 -.24202928E+03 0.17357088E+04 0.17534227E+04 0.10565837E+00 0.0000E+00 0.9000E+01
       23  1    3    3    0    0 -.86287825E+02 -.17193833E+03 0.65609995E+03 0.68977588E+03 0.91188000E+02 0.0000E+00 0.9000E+01
#aMCatNLO 1  0  0  2  1 0.17145435D+03 0.00000000D+00  -5  7  0 0.00000000D+00 0.00000000D+00 0.00000000D+00 0.00000000D+00 0.00000000D+00
  <mgrwgt>
 0.3015559369D-03    4    2    0
 0.922606628645090D+03 0.000000000000000D+00 0.000000000000000D+00 0.922606628645090D+03
 0.922606628645090D+03 0.000000000000000D+00 0.000000000000000D+00 -.922606628645090D+03
 0.899941400341219D+03 0.252498303950361D+03 0.652557917484116D+03 -.560214315172979D+03
 0.335247368891992D+03 -.109396667036035D+03 -.238590303952049D+03 0.208561344573915D+03
 0.391521981314991D+03 -.568138118768695D+02 -.242029284454510D+03 0.302462358152670D+03
 0.218502506741978D+03 -.862878250374561D+02 -.171938329077556D+03 0.491906124463947D+02
 0.000000000000000D+00 0.000000000000000D+00 -.000000000000000D+00 0.000000000000000D+00
 0.115832176491598D+04 0.000000000000000D+00 0.000000000000000D+00 0.115832176491598D+04
 0.958293670339734D+03 0.000000000000000D+00 0.000000000000000D+00 -.958293670339734D+03
 0.888863594198732D+03 0.170348609773584D+03 0.663891968140145D+03 -.560214315172979D+03
 0.343731098810315D+03 -.140578307094406D+03 -.234288227218822D+03 0.208561344573915D+03
 0.395364380341649D+03 -.929510510724670D+02 -.237043492313512D+03 0.302462358152670D+03
 0.225202700005315D+03 -.106664695154765D+03 -.169126967691062D+03 0.491906124463947D+02
 0.263453661899699D+03 0.169845443548055D+03 -.234332809167477D+02 0.200028094576242D+03
0.137452639883D-01 0.000000000000D+00 0.000000000000D+00 0.378011189144D-04 0.000000000000D+00  7 1 -2 -24 -13 13 23 21 0 0.71362655D+00 0.28231596D-01 0.51000135D+06 0.51000135D+06 0.51000135D+06 0.10679030D+01  1  2  2  2  7  2       -2 0.319848679152D-03 0.100000000000D+01
-.702721974315D-03 0.000000000000D+00 -.527854329260D-04 0.378011189144D-04 0.000000000000D+00  7 1 -2 -24 -13 13 23 21 2 0.71362655D+00 0.28231596D-01 0.51000135D+06 0.51000135D+06 0.51000135D+06 0.10679030D+01  1  2  3  2  7  2       -2 -.186482743317D-04 0.100000000000D+01
0.867612209284D-03 0.000000000000D+00 0.000000000000D+00 0.378011189144D-04 0.000000000000D+00  7 1 -2 -24 -13 13 23 21 2 0.71362655D+00 0.28231596D-01 0.51000135D+06 0.51000135D+06 0.51000135D+06 0.10679030D+01  1  2 15  2  7  2       -2 0.230239996523D-04 0.100000000000D+01
-.854214710667D-03 0.000000000000D+00 0.000000000000D+00 0.378011189144D-04 0.000000000000D+00  7 1 -2 -24 -13 13 23 21 2 0.71362655D+00 0.28231596D-01 0.51000135D+06 0.51000135D+06 0.51000135D+06 0.10679030D+01  1  2  4  2  7  2       -2 -.226684675376D-04 0.100000000000D+01
  </mgrwgt>
  </event>
  <event>
  8     66 0.29493621E-05 0.37999092E+03 0.75467711E-02 0.91395427E-01
        1 -1    0    0  501    0 0.00000000E+00 0.00000000E+00 0.20406632E+03 0.20406658E+03 0.32000000E+00 0.0000E+00 0.9000E+01
       -2 -1    0    0    0  501 0.00000000E+00 0.00000000E+00 -.15879611E+04 0.15879611E+04 0.32000000E+00 0.0000E+00 0.9000E+01
       25  2    1    2    0    0 0.70221625E+02 0.43197443E+03 -.27491824E+03 0.59710965E+03 0.29904332E+03 0.0000E+00 0.0000E+00
       23  2    3    3    0    0 0.40198306E+02 0.29317574E+03 -.28485472E+03 0.42805208E+03 0.12049254E+03 0.0000E+00 0.0000E+00
      -24  1    1    2    0    0 -.70221625E+02 -.43197443E+03 -.11089765E+04 0.11949180E+04 0.80419002E+02 0.0000E+00 0.9000E+01
      -13  1    4    4    0    0 0.23480657E+02 0.11245171E+01 -.40786625E+02 0.47076170E+02 0.10565837E+00 0.0000E+00 0.9000E+01
       13  1    4    4    0    0 0.16717648E+02 0.29205122E+03 -.24406810E+03 0.38097591E+03 0.10565837E+00 0.0000E+00 0.9000E+01
       23  1    3    3    0    0 0.30023320E+02 0.13879869E+03 0.99364831E+01 0.16905757E+03 0.91188000E+02 0.0000E+00 0.9000E+01
#aMCatNLO 1  0  0  2  1 0.34934637D+03 0.00000000D+00  -5  7  0 0.00000000D+00 0.00000000D+00 0.00000000D+00 0.00000000D+00 0.00000000D+00
  <mgrwgt>
 0.1119977014D-02    9    2    0
 0.569253578875609D+03 0.000000000000000D+00 0.000000000000000D+00 0.569253578875609D+03
 0.569253578875609D+03 0.000000000000000D+00 0.000000000000000D+00 -.569253578875609D+03
 0.532820038917567D+03 -.702216253258222D+02 -.431974434831448D+03 -.293081880890645D+03
 0.245208352985941D+02 0.234806492487232D+02 0.112430837382609D+01 -.697613111113565D+01
 0.302988881385702D+03 0.167176502544542D+02 0.292051413067617D+03 0.789224590249026D+02
 0.278177402149354D+03 0.300233258226448D+02 0.138798713390006D+03 0.221135552976878D+03
 0.000000000000000D+00 -.000000000000000D+00 0.000000000000000D+00 -.000000000000000D+00
 0.687344344213819D+03 0.000000000000000D+00 0.000000000000000D+00 0.687344344213819D+03
 0.927468247896874D+03 0.000000000000000D+00 0.000000000000000D+00 -.927468247896874D+03
 0.596768415791392D+03 0.816396085288839D+02 -.507053558852169D+03 -.293081880890645D+03
 0.319550672510375D+02 0.310732376896656D+02 -.262941385485798D+01 -.697613111113565D+01
 0.281814181398459D+03 0.953382437158983D+02 0.253181945612072D+03 0.789224590249026D+02
 0.280361758055804D+03 0.105113015055332D+03 0.101674900106807D+03 0.221135552976878D+03
 0.423913169614001D+03 -.313164104989779D+03 0.154826126988148D+03 -.240123903683055D+03
0.973173078717D-03 0.000000000000D+00 0.000000000000D+00 0.897359275502D-08 0.000000000000D+00  7 1 -2 -24 -13 13 23 21 0 0.31394841D-01 0.24430173D+00 0.21612016D+06 0.21612016D+06 0.21612016D+06 0.10952491D+01  1  2  2  2  7  2       -2 0.103016977471D-02 0.100000000000D+01
-.513687828326D-04 0.000000000000D+00 -.373724086463D-05 0.897359275502D-08 0.000000000000D+00  7 1 -2 -24 -13 13 23 21 2 0.31394841D-01 0.24430173D+00 0.21612016D+06 0.21612016D+06 0.21612016D+06 0.10952491D+01  1  2  3  2  7  2       -2 -.652294658073D-04 0.100000000000D+01
0.605146392560D-04 0.000000000000D+00 0.000000000000D+00 0.897359275502D-08 0.000000000000D+00  7 1 -2 -24 -13 13 23 21 2 0.31394841D-01 0.24430173D+00 0.21612016D+06 0.21612016D+06 0.21612016D+06 0.10952491D+01  1  2 15  2  7  2       -2 0.768431209486D-04 0.100000000000D+01
0.635879046050D-04 0.000000000000D+00 0.000000000000D+00 0.897359275502D-08 0.000000000000D+00  7 1 -2 -24 -13 13 23 21 2 0.31394841D-01 0.41031707D+00 0.45108145D+06 0.45108145D+06 0.45108145D+06 0.10716850D+01  1  2 12  2  7  2       -2 0.568510238373D-05 0.100000000000D+01
-.468292595880D-03 0.000000000000D+00 0.000000000000D+00 0.897359275502D-08 0.000000000000D+00  7 1 -2 -24 -13 13 23 21 2 0.31394841D-01 0.24430173D+00 0.21612016D+06 0.21612016D+06 0.21612016D+06 0.10952491D+01  1  2  4  2  7  2       -2 -.594650567648D-03 0.100000000000D+01
-.464861490403D-03 0.000000000000D+00 -.263460139982D-03 0.897359275502D-08 0.000000000000D+00  7 1 -2 -24 -13 13 23 21 2 0.31394841D-01 0.42470351D+00 0.21612016D+06 0.21612016D+06 0.21612016D+06 0.10952491D+01  1  2  5  2  7  2       -2 -.356014809109D-04 0.100000000000D+01
0.558653586869D-03 0.000000000000D+00 0.227742458927D-03 0.897359275502D-08 0.000000000000D+00  7 1 -2 -24 -13 13 23 21 2 0.31394841D-01 0.24430173D+00 0.21612016D+06 0.21612016D+06 0.21612016D+06 0.10952491D+01  1  2  6  2  7  2       -2 0.709393390954D-03 0.100000000000D+01
0.369108932237D-05 0.000000000000D+00 0.000000000000D+00 0.897359275502D-08 0.000000000000D+00  7 1 21 -24 -13 13 23 2 2 0.31394841D-01 0.41031707D+00 0.45108145D+06 0.45108145D+06 0.45108145D+06 0.10716850D+01  1  2 12  4  7  2       -2 0.244036926983D-05 0.100000000000D+01
-.152250021842D-04 0.000000000000D+00 -.161232018811D-04 0.897359275502D-08 0.000000000000D+00  7 1 21 -24 -13 13 23 2 2 0.31394841D-01 0.42470351D+00 0.21612016D+06 0.21612016D+06 0.21612016D+06 0.10952491D+01  1  2  5  4  7  2       -2 -.907322940042D-05 0.100000000000D+01
  </mgrwgt>
  </event>
  <event>
  9     66 0.29493621E-05 0.29166054E+03 0.75467711E-02 0.99278015E-01
        1 -1    0    0  502    0 0.00000000E+00 0.00000000E+00 0.13557960E+04 0.13557960E+04 0.32000000E+00 0.0000E+00 0.9000E+01
       -2 -1    0    0    0  501 0.00000000E+00 0.00000000E+00 -.21688061E+03 0.21688084E+03 0.32000000E+00 0.0000E+00 0.9000E+01
       25  2    1    2    0    0 -.25158454E+03 0.91738264E+02 0.79151463E+01 0.40185362E+03 0.29952127E+03 0.0000E+00 0.0000E+00
       23  2    3    3    0    0 -.24985315E+03 0.12260014E+03 0.49122942E+02 0.29712165E+03 0.91710522E+02 0.0000E+00 0.0000E+00
      -24  1    1    2    0    0 0.15267998E+03 -.92071805E+02 0.86989002E+03 0.89160768E+03 0.80419002E+02 0.0000E+00 0.9000E+01
      -13  1    4    4    0    0 -.15109677E+03 0.10860533E+03 0.62919938E+02 0.19642882E+03 0.10565837E+00 0.0000E+00 0.9000E+01
       13  1    4    4    0    0 -.98756384E+02 0.13994807E+02 -.13796995E+02 0.10069283E+03 0.10565837E+00 0.0000E+00 0.9000E+01
       23  1    3    3    0    0 -.17313911E+01 -.30861871E+02 -.41207796E+02 0.10473198E+03 0.91188000E+02 0.0000E+00 0.9000E+01
       21  1    1    2  502  501 0.98904563E+02 0.33354051E+00 0.26111019E+03 0.27921554E+03 0.75000000E+00 0.0000E+00 0.9000E+01
#aMCatNLO 2  0  0  1  2 0.98905125D+02 0.00000000D+00  -5  7  0 0.00000000D+00 0.00000000D+00 0.00000000D+00 0.00000000D+00 0.00000000D+00
  <mgrwgt>
 0.1464378901D-03    2    2    0
 0.472418779274120D+03 0.000000000000000D+00 0.000000000000000D+00 0.472418779274120D+03
 0.472418779274120D+03 0.000000000000000D+00 0.000000000000000D+00 -.472418779274120D+03
 0.428365821603826D+03 0.196449159471175D+03 -.919241998914462D+02 0.360538112245206D+03
 0.194672363022154D+03 -.130010384303573D+03 0.108676564475857D+03 -.958333617880087D+02
 0.140331527189849D+03 -.836099854715609D+02 0.140457603509106D+02 -.111825866726110D+03
 0.181467846732411D+03 0.171712103039592D+02 -.307981249353214D+02 -.152878883731088D+03
 0.000000000000000D+00 0.000000000000000D+00 0.000000000000000D+00 0.000000000000000D+00
 0.593203976056747D+03 0.000000000000000D+00 0.000000000000000D+00 0.593203976056747D+03
 0.495689359675791D+03 0.000000000000000D+00 0.000000000000000D+00 -.495689359675791D+03
 0.410174767484617D+03 0.152679980070359D+03 -.920718047562194D+02 0.360538112245206D+03
 0.209307027909369D+03 -.151096836964303D+03 0.108605453638593D+03 -.958333617880087D+02
 0.149845538219823D+03 -.987563149387189D+02 0.139946816708116D+02 -.111825866726110D+03
 0.180672790524331D+03 -.173139110457493D+01 -.308618710681702D+02 -.152878883731088D+03
 0.138893211594398D+03 0.989045629372384D+02 0.333540514984690D+00 0.975146163809559D+02
-.128366192725D-03 0.000000000000D+00 0.000000000000D+00 0.739535260004D-05 0.000000000000D+00  7 1 -2 -24 -13 13 23 21 2 0.21192113D+00 0.31799796D-01 0.11444757D+06 0.11444757D+06 0.11444757D+06 0.11169442D+01  1  2 13  1  7  1        1 -.131536535384D-02 0.100000000000D+01
0.150288778542D-03 0.000000000000D+00 0.000000000000D+00 0.739535260004D-05 0.519370144059D-08  7 1 -2 -24 -13 13 23 21 2 0.20858360D+00 0.33366202D-01 0.11444757D+06 0.11444757D+06 0.11444757D+06 0.11169442D+01  1  2  1  1  7  1        1 0.146180324391D-02 0.100000000000D+01
  </mgrwgt>
  </event>
  <event>
  8     66 0.29493621E-05 0.10779982E+03 0.75467711E-02 0.10156108E+00
        1 -1    0    0  501    0 0.00000000E+00 0.00000000E+00 0.54175442E+03 0.54175452E+03 0.32000000E+00 0.0000E+00 0.9000E+01
       -2 -1    0    0    0  501 0.00000000E+00 0.00000000E+00 -.12125450E+03 0.12125493E+03 0.32000000E+00 0.0000E+00 0.9000E+01
       25  2    1    2    0    0 0.47901498E+02 0.12548193E+03 0.37803145E+03 0.50080262E+03 0.29975859E+03 0.0000E+00 0.0000E+00
       23  2    3    3    0    0 -.95479753E+02 0.44893676E+02 0.15126103E+03 0.20619657E+03 0.92224178E+02 0.0000E+00 0.0000E+00
      -24  1    1    2    0    0 -.47901498E+02 -.12548193E+03 0.42468469E+02 0.16220683E+03 0.80419002E+02 0.0000E+00 0.9000E+01
      -13  1    4    4    0    0 -.72863666E+02 0.70260670E+02 0.86868544E+02 0.13338602E+03 0.10565837E+00 0.0000E+00 0.9000E+01
       13  1    4    4    0    0 -.22616086E+02 -.25366994E+02 0.64392490E+02 0.72810546E+02 0.10565837E+00 0.0000E+00 0.9000E+01
       23  1    3    3    0    0 0.14338125E+03 0.80588253E+02 0.22677042E+03 0.29460605E+03 0.91188000E+02 0.0000E+00 0.9000E+01
#aMCatNLO 1  0  0  2  1 0.80802428D+02 0.00000000D+00  -5  7  0 0.00000000D+00 0.00000000D+00 0.00000000D+00 0.00000000D+00 0.00000000D+00
  <mgrwgt>
 0.8659897428D-03    9    2    0
 0.256301257716721D+03 0.000000000000000D+00 0.000000000000000D+00 0.256301257716721D+03
 0.256301257716721D+03 0.000000000000000D+00 0.000000000000000D+00 -.256301257716721D+03
 0.174963384640824D+03 -.479014985548166D+02 -.125481929974203D+03 -.781325904904900D+02
 0.101263677281422D+03 -.728637324010781D+02 0.702607936779287D+02 0.293763661600013D+01
 0.413517326284279D+02 -.226160210007373D+02 -.253671183054545D+02 0.235582404764082D+02
 0.195023720882768D+03 0.143381251956632D+03 0.805882546017285D+02 0.516367133980817D+02
 0.000000000000000D+00 0.000000000000000D+00 -.000000000000000D+00 -.000000000000000D+00
 0.297773298593458D+03 0.000000000000000D+00 0.000000000000000D+00 0.297773298593458D+03
 0.302075534191173D+03 0.000000000000000D+00 0.000000000000000D+00 -.302075534191173D+03
 0.168712976283339D+03 -.671683956978136D+02 -.106679695043806D+03 -.781325904904900D+02
 0.118469412352271D+03 -.851822253736556D+02 0.822821999863666D+02 0.293763661600013D+01
 0.416209834870149D+02 -.272675681213264D+02 -.208277531392831D+02 0.235582404764082D+02
 0.190128580199905D+03 0.121789165292906D+03 0.101659602161002D+03 0.516367133980817D+02
 0.809168804621007D+02 0.578290238998894D+02 -.564343539642801D+02 -.430223559771495D+01
0.612286059272D-05 0.000000000000D+00 0.000000000000D+00 0.991544689537D-06 0.000000000000D+00  7 1 -2 -24 -13 13 23 21 0 0.83346874D-01 0.18654579D-01 0.57556377D+05 0.57556377D+05 0.57556377D+05 0.11419575D+01  1  2  2  2  7  2       -2 0.594249140608D-03 0.100000000000D+01
-.338352247163D-06 0.000000000000D+00 -.235133968623D-07 0.991544689537D-06 0.000000000000D+00  7 1 -2 -24 -13 13 23 21 2 0.83346874D-01 0.18654579D-01 0.57556377D+05 0.57556377D+05 0.57556377D+05 0.11419575D+01  1  2  3  2  7  2       -2 -.428235962916D-04 0.100000000000D+01
0.398055155146D-06 0.000000000000D+00 0.000000000000D+00 0.991544689537D-06 0.000000000000D+00  7 1 -2 -24 -13 13 23 21 2 0.83346874D-01 0.18654579D-01 0.57556377D+05 0.57556377D+05 0.57556377D+05 0.11419575D+01  1  2 15  2  7  2       -2 0.503799026273D-04 0.100000000000D+01
0.337706900946D-05 0.000000000000D+00 0.000000000000D+00 0.991544689537D-06 0.000000000000D+00  7 1 -2 -24 -13 13 23 21 2 0.83346874D-01 0.23252652D-01 0.80106050D+05 0.80106050D+05 0.80106050D+05 0.11297142D+01  1  2 12  2  7  2       -2 0.290309456569D-03 0.100000000000D+01
-.317869845408D-05 0.000000000000D+00 0.000000000000D+00 0.991544689537D-06 0.000000000000D+00  7 1 -2 -24 -13 13 23 21 2 0.83346874D-01 0.18654579D-01 0.57556377D+05 0.57556377D+05 0.57556377D+05 0.11419575D+01  1  2  4  2  7  2       -2 -.402312384421D-03 0.100000000000D+01
-.781702777389D-05 0.000000000000D+00 -.311082096613D-05 0.991544689537D-06 0.000000000000D+00  7 1 -2 -24 -13 13 23 21 2 0.83346874D-01 0.25427436D-01 0.57556377D+05 0.57556377D+05 0.57556377D+05 0.11419575D+01  1  2  5  2  7  2       -2 -.591396093088D-03 0.100000000000D+01
0.851244080009D-05 0.000000000000D+00 0.296734035041D-05 0.991544689537D-06 0.000000000000D+00  7 1 -2 -24 -13 13 23 21 2 0.83346874D-01 0.18654579D-01 0.57556377D+05 0.57556377D+05 0.57556377D+05 0.11419575D+01  1  2  6  2  7  2       -2 0.107737818009D-02 0.100000000000D+01
0.104019691864D-06 0.000000000000D+00 0.000000000000D+00 0.991544689537D-06 0.000000000000D+00  7 1 21 -24 -13 13 23 2 2 0.83346874D-01 0.23252652D-01 0.80106050D+05 0.80106050D+05 0.80106050D+05 0.11297142D+01  1  2 12  4  7  2       -2 0.112104349942D-03 0.100000000000D+01
-.235945720561D-06 0.000000000000D+00 -.123054434483D-06 0.991544689537D-06 0.000000000000D+00  7 1 21 -24 -13 13 23 2 2 0.83346874D-01 0.25427436D-01 0.57556377D+05 0.57556377D+05 0.57556377D+05 0.11419575D+01  1  2  5  4  7  2       -2 -.221899213242D-03 0.100000000000D+01
  </mgrwgt>
  </event>
  <event>
  8     66 0.29493621E-05 0.27850023E+03 0.75467711E-02 0.92622418E-01
        1 -1    0    0  501    0 0.00000000E+00 0.00000000E+00 0.18538986E+04 0.18538986E+04 0.32000000E+00 0.0000E+00 0.9000E+01
       -2 -1    0    0    0  501 0.00000000E+00 0.00000000E+00 -.54028540E+02 0.54029488E+02 0.32000000E+00 0.0000E+00 0.9000E+01
       25  2    1    2    0    0 -.50215445E+02 0.19912354E+03 0.72519498E+03 0.81085678E+03 0.29901368E+03 0.0000E+00 0.0000E+00
       23  2    3    3    0    0 0.28821715E+02 0.19303132E+03 0.59649986E+03 0.63433009E+03 0.92036908E+02 0.0000E+00 0.0000E+00
      -24  1    1    2    0    0 0.50215445E+02 -.19912354E+03 0.10746751E+04 0.10970713E+04 0.80419002E+02 0.0000E+00 0.9000E+01
      -13  1    4    4    0    0 0.15433964E+02 -.56967751E+01 0.52220762E+02 0.54751069E+02 0.10565837E+00 0.0000E+00 0.9000E+01
       13  1    4    4    0    0 0.13387751E+02 0.19872809E+03 0.54427910E+03 0.57957902E+03 0.10565837E+00 0.0000E+00 0.9000E+01
       23  1    3    3    0    0 -.79037160E+02 0.60922253E+01 0.12869512E+03 0.17652669E+03 0.91188000E+02 0.0000E+00 0.9000E+01
#aMCatNLO 1  0  0  1  2 0.46725490D+03 0.00000000D+00  -5  7  0 0.00000000D+00 0.00000000D+00 0.00000000D+00 0.00000000D+00 0.00000000D+00
  <mgrwgt>
 0.1396141645D-02    5    2    0
 0.316487543389521D+03 0.000000000000000D+00 0.000000000000000D+00 0.316487543389521D+03
 0.316487543389521D+03 0.000000000000000D+00 0.000000000000000D+00 -.316487543389521D+03
 0.250969986605766D+03 0.502154446292957D+02 -.199123544452160D+03 0.119778718427017D+03
 0.165415145652801D+02 0.154339664810518D+02 -.569704416828733D+01 0.171990421818389D+01
 0.199318425501424D+03 0.133877486133813D+02 0.198728363085333D+03 -.745926516861079D+01
 0.166145160106572D+03 -.790371597237288D+02 0.609222553511482D+01 -.114039357476591D+03
 0.000000000000000D+00 0.000000000000000D+00 -.000000000000000D+00 0.000000000000000D+00
 0.977543492077004D+03 0.000000000000000D+00 0.000000000000000D+00 0.977543492077004D+03
 0.486813333937215D+03 0.000000000000000D+00 0.000000000000000D+00 -.486813333937215D+03
 0.253617261043484D+03 -.114038656856433D+03 -.174650343541576D+03 0.119778718427017D+03
 0.867171883011331D+01 0.722651174214593D+01 -.447416640162636D+01 0.171990421818389D+01
 0.259586765476636D+03 -.135995851868797D+03 0.220985919117591D+03 -.745926516861079D+01
 0.264879997968539D+03 -.219345204342772D+03 0.269975602224892D+02 -.114039357476591D+03
 0.677601082695446D+03 0.462153201325857D+03 -.688589693968782D+02 0.490730158139789D+03
0.386802952683D-04 0.000000000000D+00 0.000000000000D+00 0.782281803245D-06 0.000000000000D+00  7 1 -2 -24 -13 13 23 21 0 0.28521524D+00 0.83121582D-02 0.77562380D+05 0.77562380D+05 0.77562380D+05 0.11308915D+01  1  2  2  1  7  1        1 0.137873365776D-02 0.100000000000D+01
-.210618816283D-05 0.000000000000D+00 -.148542518586D-06 0.782281803245D-06 0.000000000000D+00  7 1 -2 -24 -13 13 23 21 2 0.28521524D+00 0.83121582D-02 0.77562380D+05 0.77562380D+05 0.77562380D+05 0.11308915D+01  1  2  3  1  7  1        1 -.960129153801D-04 0.100000000000D+01
0.248820811535D-05 0.000000000000D+00 0.000000000000D+00 0.782281803245D-06 0.000000000000D+00  7 1 -2 -24 -13 13 23 21 2 0.28521524D+00 0.83121582D-02 0.77562380D+05 0.77562380D+05 0.77562380D+05 0.11308915D+01  1  2 15  1  7  1        1 0.113427717164D-03 0.100000000000D+01
-.291306154188D-05 0.000000000000D+00 -.975467920442D-05 0.782281803245D-06 0.000000000000D+00  7 1 -2 -24 -13 13 23 21 2 0.89936590D+00 0.83121582D-02 0.77562380D+05 0.77562380D+05 0.77562380D+05 0.11308915D+01  1  2  5  1  7  1        1 -.681662187730D-08 0.100000000000D+01
0.536510531600D-07 0.000000000000D+00 -.128664419231D-05 0.782281803245D-06 0.000000000000D+00  7 21 -2 -24 -13 13 23 -1 2 0.89936590D+00 0.83121582D-02 0.77562380D+05 0.77562380D+05 0.77562380D+05 0.11308915D+01  1  2  5  3  7  1        1 0.192656033606D-11 0.100000000000D+01
  </mgrwgt>
  </event>
  <event>
  8     66 0.29493621E-05 0.12444440E+03 0.75467711E-02 0.98695434E-01
        1 -1    0    0  501    0 0.00000000E+00 0.00000000E+00 0.11853461E+03 0.11853504E+03 0.32000000E+00 0.0000E+00 0.9000E+01
       -2 -1    0    0    0  501 0.00000000E+00 0.00000000E+00 -.41719304E+03 0.41719317E+03 0.32000000E+00 0.0000E+00 0.9000E+01
       25  2    1    2    0    0 -.39482022E+02 -.23365870E+02 -.32081311E+03 0.44052926E+03 0.29839602E+03 0.0000E+00 0.0000E+00
       23  2    3    3    0    0 0.19550689E+02 -.92434810E+01 0.62816720E+01 0.95579194E+02 0.92888383E+02 0.0000E+00 0.0000E+00
      -24  1    1    2    0    0 0.39482022E+02 0.23365870E+02 0.22154676E+02 0.95198947E+02 0.80419002E+02 0.0000E+00 0.9000E+01
      -11  1    4    4    0    0 0.28261213E+02 -.18712777E+02 -.37145759E+02 0.50285899E+02 0.51099893E-03 0.0000E+00 0.9000E+01
       11  1    4    4    0    0 -.87105243E+01 0.94692961E+01 0.43427431E+02 0.45293295E+02 0.51099893E-03 0.0000E+00 0.9000E+01
       23  1    3    3    0    0 -.59032711E+02 -.14122389E+02 -.32709478E+03 0.34495007E+03 0.91188000E+02 0.0000E+00 0.9000E+01
#aMCatNLO 1  0  0  2  1 0.30107815D+03 0.00000000D+00  -5  7  0 0.00000000D+00 0.00000000D+00 0.00000000D+00 0.00000000D+00 0.00000000D+00
  <mgrwgt>
 0.9283769133D-03    3    2    0
 0.222377975106543D+03 0.000000000000000D+00 0.000000000000000D+00 0.222377975106543D+03
 0.222377975106543D+03 0.000000000000000D+00 0.000000000000000D+00 -.222377975106543D+03
 0.129548446194587D+03 0.394820215929523D+02 0.233658701253550D+02 0.906134098314372D+02
 0.356278098908972D+02 0.282612134104626D+02 -.187127771199204D+02 -.109761845215168D+02
 0.837197669986232D+02 -.871052424323796D+01 0.946929612539220D+01 0.827251992116148D+02
 0.195859927128978D+03 -.590327107601770D+02 -.141223891308267D+02 -.162362424521535D+03
 0.000000000000000D+00 0.000000000000000D+00 -.000000000000000D+00 0.000000000000000D+00
 0.122012815396042D+04 0.000000000000000D+00 0.000000000000000D+00 0.122012815396042D+04
 0.292355407700874D+03 0.000000000000000D+00 0.000000000000000D+00 -.292355407700874D+03
 0.142695819103353D+03 -.304418485049035D+02 0.689737968617854D+02 0.906134098314372D+02
 0.200789808108420D+02 0.139533476696215D+02 -.938045481639601D+01 -.109761845215168D+02
 0.109539678432489D+03 -.583477437553546D+02 0.418452310921003D+02 0.827251992116148D+02
 0.264766436787063D+03 -.177341090916005D+03 0.630443913534565D+02 -.162362424521535D+03
 0.975402646527543D+03 0.252177335506642D+03 -.164482964490946D+03 0.927772746259544D+03
0.118745924111D-04 0.000000000000D+00 0.000000000000D+00 0.595710549296D-07 0.000000000000D+00  7 1 -2 -24 -11 11 23 21 0 0.18236137D-01 0.64183588D-01 0.15486408D+05 0.15486408D+05 0.15486408D+05 0.11949565D+01  1  2  2  2  7  2       -2 0.891617118690D-03 0.100000000000D+01
-.389390036342D-06 0.000000000000D+00 -.456015615107D-07 0.595710549296D-07 0.000000000000D+00  7 1 -2 -24 -11 11 23 21 2 0.18236137D-01 0.64183588D-01 0.15486408D+05 0.15486408D+05 0.15486408D+05 0.11949565D+01  1  2  3  2  7  2       -2 -.417492521338D-04 0.100000000000D+01
0.732244028802D-06 0.000000000000D+00 0.000000000000D+00 0.595710549296D-07 0.000000000000D+00  7 1 -2 -24 -11 11 23 21 2 0.18236137D-01 0.64183588D-01 0.15486408D+05 0.15486408D+05 0.15486408D+05 0.11949565D+01  1  2 15  2  7  2       -2 0.785090467880D-04 0.100000000000D+01
  </mgrwgt>
  </event>
  <event>
  8     66 0.29493621E-05 0.48111929E+03 0.75467711E-02 0.89117116E-01
        1 -1    0    0  501    0 0.00000000E+00 0.00000000E+00 0.75345337E+03 0.75345344E+03 0.32000000E+00 0.0000E+00 0.9000E+01
       -2 -1    0    0    0  501 0.00000000E+00 0.00000000E+00 -.38259860E+03 0.38259874E+03 0.32000000E+00 0.0000E+00 0.9000E+01
       25  2    1    2    0    0 0.43908033E+03 0.33265198E+02 -.31834273E+02 0.53395269E+03 0.30032306E+03 0.0000E+00 0.0000E+00
       23  2    3    3    0    0 0.11939856E+03 0.11596603E+03 0.29775756E+01 0.18962294E+03 0.90795681E+02 0.0000E+00 0.0000E+00
      -24  1    1    2    0    0 -.43908033E+03 -.33265198E+02 0.40268904E+03 0.60209949E+03 0.80419002E+02 0.0000E+00 0.9000E+01
      -13  1    4    4    0    0 0.10248977E+03 0.72863509E+02 -.34115589E+02 0.13029631E+03 0.10565837E+00 0.0000E+00 0.9000E+01
       13  1    4    4    0    0 0.16908791E+02 0.43102521E+02 0.37093165E+02 0.59326626E+02 0.10565837E+00 0.0000E+00 0.9000E+01
       23  1    3    3    0    0 0.31968177E+03 -.82700832E+02 -.34811848E+02 0.34432975E+03 0.91188000E+02 0.0000E+00 0.9000E+01
#aMCatNLO 1  0  0  1  1 0.56246724D+03 0.00000000D+00  -5  7  0 0.00000000D+00 0.00000000D+00 0.00000000D+00 0.00000000D+00 0.00000000D+00
  <mgrwgt>
 0.1209191188D-02    3    2    0
 0.536908112231052D+03 0.000000000000000D+00 0.000000000000000D+00 0.536908112231052D+03
 0.536908112231052D+03 0.000000000000000D+00 0.000000000000000D+00 -.536908112231052D+03
 0.497922518823983D+03 -.439080331648827D+03 -.332651980703472D+02 0.218086009991806D+03
 0.149630337305555D+03 0.102489889333998D+03 0.728635497407344D+02 -.810923149605334D+02
 0.499543768670707D+02 0.169086748816552D+02 0.431024805597411D+02 0.187540036131208D+02
 0.376308991465495D+03 0.319681767433173D+03 -.827008322301283D+02 -.155747698644393D+03
 0.000000000000000D+00 -.000000000000000D+00 -.000000000000000D+00 -.000000000000000D+00
 0.661766003904247D+03 0.000000000000000D+00 0.000000000000000D+00 0.661766003904247D+03
 0.202705702210234D+04 0.000000000000000D+00 0.000000000000000D+00 -.202705702210234D+04
 0.487847346408495D+03 -.378575132861553D+03 0.201611454208710D+03 0.218086009991806D+03
 0.219266187938715D+03 0.125132250780679D+03 0.160759501871830D+03 -.810923149605334D+02
 0.804652807414155D+02 0.249136541244611D+02 0.741772107283672D+02 0.187540036131208D+02
 0.424630192659009D+03 0.368842313176313D+03 0.108136726191195D+03 -.155747698644393D+03
 0.147661401825895D+04 -.140313085219899D+03 -.544684893000103D+03 -.136529101819809D+04
0.163484202704D-03 0.000000000000D+00 0.000000000000D+00 0.870272889171D-05 0.000000000000D+00  7 1 -2 -24 -13 13 23 21 0 0.11591592D+00 0.58861339D-01 0.23147577D+06 0.23147577D+06 0.23147577D+06 0.10929833D+01  1  2  2  1  7  1        1 0.119450027543D-02 0.100000000000D+01
-.894953555632D-05 0.000000000000D+00 -.627822384763D-06 0.870272889171D-05 0.000000000000D+00  7 1 -2 -24 -13 13 23 21 2 0.11591592D+00 0.58861339D-01 0.23147577D+06 0.23147577D+06 0.23147577D+06 0.10929833D+01  1  2  3  1  7  1        1 -.781156456093D-04 0.100000000000D+01
0.106326407109D-04 0.000000000000D+00 0.000000000000D+00 0.870272889171D-05 0.000000000000D+00  7 1 -2 -24 -13 13 23 21 2 0.11591592D+00 0.58861339D-01 0.23147577D+06 0.23147577D+06 0.23147577D+06 0.10929833D+01  1  2 15  1  7  1        1 0.928065583331D-04 0.100000000000D+01
  </mgrwgt>
  </event>
  <event>
  8     66 -.29493621E-05 0.25994272E+03 0.75467711E-02 0.10195234E+00
        3 -1    0    0  501    0 0.00000000E+00 0.00000000E+00 0.19760504E+04 0.19760504E+04 0.50000000E+00 0.0000E+00 0.9000E+01
       -4 -1    0    0    0  501 0.00000000E+00 0.00000000E+00 -.57684149E+02 0.57704970E+02 0.15500000E+01 0.0000E+00 0.9000E+01
       25  2    1    2    0    0 0.10601599E+03 0.19387903E+03 0.15692976E+04 0.16128700E+04 0.29970976E+03 0.0000E+00 0.0000E+00
       23  2    3    3    0    0 0.80406192E+02 0.31750233E+02 0.28647444E+03 0.31637768E+03 0.10273265E+03 0.0000E+00 0.0000E+00
      -24  1    1    2    0    0 -.10601599E+03 -.19387903E+03 0.34906856E+03 0.42088543E+03 0.80419002E+02 0.0000E+00 0.9000E+01
      -13  1    4    4    0    0 0.54023355E+02 -.28142745E+02 0.85240394E+02 0.10476866E+03 0.10565837E+00 0.0000E+00 0.9000E+01
       13  1    4    4    0    0 0.26382837E+02 0.59892977E+02 0.20123405E+03 0.21160902E+03 0.10565837E+00 0.0000E+00 0.9000E+01
       23  1    3    3    0    0 0.25609794E+02 0.16212880E+03 0.12828232E+04 0.12964923E+04 0.91188000E+02 0.0000E+00 0.9000E+01
#aMCatNLO 1  0  0  2  2 0.19400427D+00 0.00000000D+00  -5  7  0 0.00000000D+00 0.00000000D+00 0.00000000D+00 0.00000000D+00 0.00000000D+00
  <mgrwgt>
 -.2079969873D-04    9    2    0
 0.337650737358505D+03 0.000000000000000D+00 0.000000000000000D+00 0.337650737358505D+03
 0.337650737358505D+03 0.000000000000000D+00 0.000000000000000D+00 -.337650737358505D+03
 0.275931099305389D+03 -.106015986277435D+03 -.193879030801260D+03 -.144368582727326D+03
 0.733769277957737D+02 0.540233830902981D+02 -.281428181884083D+02 -.409100158474582D+02
 0.656304457404389D+02 0.263828068991547D+02 0.598930104554918D+02 0.491225068466134D+01
 0.260363001875409D+03 0.256097962879820D+02 0.162128838534177D+03 0.180366347890123D+03
 0.000000000000000D+00 -.000000000000000D+00 0.000000000000000D+00 -.000000000000000D+00
 0.337697454114478D+03 0.000000000000000D+00 0.000000000000000D+00 0.337697454114478D+03
 0.337852225508684D+03 0.000000000000000D+00 0.000000000000000D+00 -.337852225508684D+03
 0.275983256131401D+03 -.106007558898135D+03 -.193957860083786D+03 -.144368582727326D+03
 0.733866198406905D+02 0.540256240758263D+02 -.281637802544374D+02 -.409100158474582D+02
 0.656141452482140D+02 0.263848109201382D+02 0.598742649439083D+02 0.491225068466134D+01
 0.260317481364006D+03 0.256177467460254D+02 0.162054470349123D+03 0.180366347890123D+03
 0.248177038852010D+00 -.206228438552797D-01 0.192905045191375D+00 -.154771394205733D+00
0.958807889440D-05 0.000000000000D+00 0.000000000000D+00 0.538230191271D-07 0.000000000000D+00  7 3 -4 -24 -13 13 23 21 0 0.30400935D+00 0.88760910D-02 0.75426874D+05 0.75426874D+05 0.75426874D+05 0.11319132D+01  1  2  2  2  7  2       -4 0.462959935213D-05 0.100000000000D+01
-.505039715181D-06 0.000000000000D+00 -.368207475536D-07 0.538230191271D-07 0.000000000000D+00  7 3 -4 -24 -13 13 23 21 2 0.30400935D+00 0.88760910D-02 0.75426874D+05 0.75426874D+05 0.75426874D+05 0.11319132D+01  1  2  3  2  7  2       -4 -.312437802588D-06 0.100000000000D+01
0.604723517973D-06 0.000000000000D+00 0.000000000000D+00 0.538230191271D-07 0.000000000000D+00  7 3 -4 -24 -13 13 23 21 2 0.30400935D+00 0.88760910D-02 0.75426874D+05 0.75426874D+05 0.75426874D+05 0.11319132D+01  1  2 15  2  7  2       -4 0.374106196898D-06 0.100000000000D+01
-.493433675746D-02 0.000000000000D+00 0.000000000000D+00 0.538230191271D-07 0.000000000000D+00  7 3 -4 -24 -13 13 23 21 2 0.30400935D+00 0.88760910D-02 0.75426874D+05 0.75426874D+05 0.75426874D+05 0.11319132D+01  1  2  4  2  7  2       -4 -.305257841589D-02 0.100000000000D+01
-.267428018899D-01 0.000000000000D+00 -.167649803246D-02 0.538230191271D-07 0.000000000000D+00  7 3 -4 -24 -13 13 23 21 2 0.30400935D+00 0.88827141D-02 0.75426874D+05 0.75426874D+05 0.75426874D+05 0.11319132D+01  1  2  5  2  7  2       -4 -.165237313344D-01 0.100000000000D+01
0.267440454119D-01 0.000000000000D+00 0.167649756609D-02 0.538230191271D-07 0.000000000000D+00  7 3 -4 -24 -13 13 23 21 2 0.30400935D+00 0.88760910D-02 0.75426874D+05 0.75426874D+05 0.75426874D+05 0.11319132D+01  1  2  6  2  7  2       -4 0.165449380111D-01 0.100000000000D+01
0.493433739585D-02 0.000000000000D+00 0.000000000000D+00 0.538230191271D-07 0.977127632330D-05  7 3 -4 -24 -13 13 23 21 2 0.30405142D+00 0.88813877D-02 0.75478352D+05 0.75478352D+05 0.75478352D+05 0.11318882D+01  1  2 11  2  7  2       -4 0.304649613275D-02 0.100000000000D+01
-.373560389125D-05 0.000000000000D+00 -.234205767030D-06 0.538230191271D-07 0.000000000000D+00  7 3 21 -24 -13 13 23 4 2 0.30400935D+00 0.88827141D-02 0.75426874D+05 0.75426874D+05 0.75426874D+05 0.11319132D+01  1  2  5  4  7  2       -4 -.485835541229D-04 0.100000000000D+01
0.613153289211D-06 0.000000000000D+00 0.000000000000D+00 0.538230191271D-07 0.109222185451D-08  7 3 21 -24 -13 13 23 4 2 0.30405142D+00 0.88813877D-02 0.75478352D+05 0.75478352D+05 0.75478352D+05 0.11318882D+01  1  2 11  4  7  2       -4 0.796819411276D-05 0.100000000000D+01
  </mgrwgt>
  </event>
  <event>
  8     66 0.29493621E-05 0.17266007E+03 0.75467711E-02 0.10297217E+00
        3 -1    0    0  501    0 0.00000000E+00 0.00000000E+00 0.21546733E+03 0.21546791E+03 0.50000000E+00 0.0000E+00 0.9000E+01
       -4 -1    0    0    0  501 0.00000000E+00 0.00000000E+00 -.32431555E+03 0.32431925E+03 0.15500000E+01 0.0000E+00 0.9000E+01
       25  2    1    2    0    0 0.13944714E+02 -.70390994E+02 -.22389452E+03 0.38214131E+03 0.30125383E+03 0.0000E+00 0.0000E+00
       23  2    3    3    0    0 -.92606971E+02 -.10290372E+03 -.10172796E+03 0.19332854E+03 0.88668604E+02 0.0000E+00 0.0000E+00
      -24  1    1    2    0    0 -.13944714E+02 0.70390994E+02 0.11504631E+03 0.15764586E+03 0.80419002E+02 0.0000E+00 0.9000E+01
      -11  1    4    4    0    0 -.77621838E+02 -.27955767E+02 -.77381813E+02 0.11311330E+03 0.51099893E-03 0.0000E+00 0.9000E+01
       11  1    4    4    0    0 -.14985133E+02 -.74947951E+02 -.24346147E+02 0.80215238E+02 0.51099893E-03 0.0000E+00 0.9000E+01
       23  1    3    3    0    0 0.10655169E+03 0.32512725E+02 -.12216656E+03 0.18881276E+03 0.91188000E+02 0.0000E+00 0.9000E+01
#aMCatNLO 1  0  0  1  2 0.83162016D+02 0.00000000D+00  -5  7  0 0.00000000D+00 0.00000000D+00 0.00000000D+00 0.00000000D+00 0.00000000D+00
  <mgrwgt>
 0.1518208411D-03    9    2    0
 0.264349319489663D+03 0.000000000000000D+00 0.000000000000000D+00 0.264349319489663D+03
 0.264349319489663D+03 0.000000000000000D+00 0.000000000000000D+00 -.264349319489663D+03
 0.184637882393712D+03 -.139447142506154D+02 0.703909935899791D+02 0.149915258150557D+03
 0.995543281987959D+02 -.776218375844871D+02 -.279557669394189D+02 -.557170502445165D+02
 0.768852397019880D+02 -.149851331736541D+02 -.749479511189978D+02 -.834209151617942D+01
 0.167621188684829D+03 0.106551685008757D+03 0.325127244684377D+02 -.858561163898607D+02
 0.000000000000000D+00 0.000000000000000D+00 -.000000000000000D+00 0.000000000000000D+00
 0.319594572896144D+03 0.000000000000000D+00 0.000000000000000D+00 0.319594572896144D+03
 0.300852425448101D+03 0.000000000000000D+00 0.000000000000000D+00 -.300852425448101D+03
 0.198169234699591D+03 -.177467603197941D+02 0.100071461960216D+03 0.149915258150557D+03
 0.979680670120213D+02 -.795836329972485D+02 -.126411164491587D+02 -.557170502445165D+02
 0.664366292782148D+02 -.164086081412073D+02 -.638356702624397D+02 -.834209151617942D+01
 0.172625257896837D+03 0.103172352161968D+03 0.588933047787854D+02 -.858561163898607D+02
 0.852478094575808D+02 0.105666492962819D+02 -.824879800274027D+02 0.187421474480434D+02
0.105546448355D-04 0.000000000000D+00 0.000000000000D+00 0.806294495340D-07 0.000000000000D+00  7 3 -4 -24 -11 11 23 21 0 0.33149150D-01 0.49895029D-01 0.42164089D+05 0.42164089D+05 0.42164089D+05 0.11538643D+01  1  2  2  1  7  1        3 0.114077912864D-03 0.100000000000D+01
-.540875445584D-06 0.000000000000D+00 -.405326152703D-07 0.806294495340D-07 0.000000000000D+00  7 3 -4 -24 -11 11 23 21 2 0.33149150D-01 0.49895029D-01 0.42164089D+05 0.42164089D+05 0.42164089D+05 0.11538643D+01  1  2  3  1  7  1        3 -.778331606793D-05 0.100000000000D+01
0.655909760129D-06 0.000000000000D+00 0.000000000000D+00 0.806294495340D-07 0.000000000000D+00  7 3 -4 -24 -11 11 23 21 2 0.33149150D-01 0.49895029D-01 0.42164089D+05 0.42164089D+05 0.42164089D+05 0.11538643D+01  1  2 15  1  7  1        3 0.943868503702D-05 0.100000000000D+01
0.625378985627D-05 0.000000000000D+00 0.000000000000D+00 0.806294495340D-07 0.000000000000D+00  7 3 -4 -24 -11 11 23 21 2 0.41967919D-01 0.49895029D-01 0.64774279D+05 0.64774279D+05 0.64774279D+05 0.11375353D+01  1  2 12  1  7  1        3 0.565077165735D-04 0.100000000000D+01
-.712472622016D-05 0.000000000000D+00 0.000000000000D+00 0.806294495340D-07 0.000000000000D+00  7 3 -4 -24 -11 11 23 21 2 0.33149150D-01 0.49895029D-01 0.42164089D+05 0.42164089D+05 0.42164089D+05 0.11538643D+01  1  2  4  1  7  1        3 -.102526370021D-03 0.100000000000D+01
-.131476721167D-04 0.000000000000D+00 -.560956544563D-05 0.806294495340D-07 0.000000000000D+00  7 3 -4 -24 -11 11 23 21 2 0.45076985D-01 0.49895029D-01 0.42164089D+05 0.42164089D+05 0.42164089D+05 0.11538643D+01  1  2  5  1  7  1        3 -.105163825874D-03 0.100000000000D+01
0.144393099327D-04 0.000000000000D+00 0.535464949716D-05 0.806294495340D-07 0.000000000000D+00  7 3 -4 -24 -11 11 23 21 2 0.33149150D-01 0.49895029D-01 0.42164089D+05 0.42164089D+05 0.42164089D+05 0.11538643D+01  1  2  6  1  7  1        3 0.207784830920D-03 0.100000000000D+01
0.202728726498D-06 0.000000000000D+00 0.000000000000D+00 0.806294495340D-07 0.000000000000D+00  7 21 -4 -24 -11 11 23 -3 2 0.41967919D-01 0.49895029D-01 0.64774279D+05 0.64774279D+05 0.64774279D+05 0.11375353D+01  1  2 12  3  7  1        3 0.290961612111D-04 0.100000000000D+01
-.386623012468D-06 0.000000000000D+00 -.220664450113D-06 0.806294495340D-07 0.000000000000D+00  7 21 -4 -24 -11 11 23 -3 2 0.45076985D-01 0.49895029D-01 0.42164089D+05 0.42164089D+05 0.42164089D+05 0.11538643D+01  1  2  5  3  7  1        3 -.496109535264D-04 0.100000000000D+01
  </mgrwgt>
  </event>
  <event>
  8     66 0.29493621E-05 0.25376738E+03 0.75467711E-02 0.95697509E-01
        3 -1    0    0  501    0 0.00000000E+00 0.00000000E+00 0.29647102E+03 0.29647144E+03 0.50000000E+00 0.0000E+00 0.9000E+01
       -4 -1    0    0    0  501 0.00000000E+00 0.00000000E+00 -.28970296E+03 0.28970710E+03 0.15500000E+01 0.0000E+00 0.9000E+01
       25  2    1    2    0    0 0.16129963E+03 0.94438199E+02 0.91296438E+02 0.36584151E+03 0.30094655E+03 0.0000E+00 0.0000E+00
       23  2    3    3    0    0 -.33270710E+02 0.79088241E+02 -.14715287E+02 0.12574366E+03 0.90736090E+02 0.0000E+00 0.0000E+00
      -24  1    1    2    0    0 -.16129963E+03 -.94438199E+02 -.84528377E+02 0.22033703E+03 0.80419002E+02 0.0000E+00 0.9000E+01
      -13  1    4    4    0    0 -.26241657E+02 0.33755310E+02 0.37050670E+02 0.56575692E+02 0.10565837E+00 0.0000E+00 0.9000E+01
       13  1    4    4    0    0 -.70290528E+01 0.45332930E+02 -.51765957E+02 0.69167967E+02 0.10565837E+00 0.0000E+00 0.9000E+01
       23  1    3    3    0    0 0.19457034E+03 0.15349958E+02 0.10601173E+03 0.24009785E+03 0.91188000E+02 0.0000E+00 0.9000E+01
#aMCatNLO 1  0  0  2  2 0.31793035D+03 0.00000000D+00  -5  7  0 0.00000000D+00 0.00000000D+00 0.00000000D+00 0.00000000D+00 0.00000000D+00
  <mgrwgt>
 0.1374185811D-03    5    2    0
 0.293069734027924D+03 0.000000000000000D+00 0.000000000000000D+00 0.293069734027924D+03
 0.293069734027924D+03 0.000000000000000D+00 0.000000000000000D+00 -.293069734027924D+03
 0.221327759733991D+03 -.161299636948951D+03 -.944382001123236D+02 -.870782105591161D+02
 0.561516258423251D+02 -.262416820314674D+02 0.337552946587638D+02 0.363999902664255D+02
 0.697703282856911D+02 -.702902535046490D+01 0.453329454077983D+02 -.525681992498241D+02
 0.238889754193842D+03 0.194570344330884D+03 0.153499600457615D+02 0.103246419542515D+03
 0.000000000000000D+00 0.000000000000000D+00 -.000000000000000D+00 -.000000000000000D+00
 0.439912652657709D+03 0.000000000000000D+00 0.000000000000000D+00 0.439912652657709D+03
 0.570668629043316D+03 0.000000000000000D+00 0.000000000000000D+00 -.570668629043316D+03
 0.333695837749902D+03 -.301422362929856D+03 -.802972013761537D+02 -.870782105591161D+02
 0.798803917022231D+02 -.605846851135617D+02 0.372211447539607D+02 0.363999902664255D+02
 0.856355058660537D+02 -.462631934352027D+02 0.492924053556198D+02 -.525681992498241D+02
 0.167600970389271D+03 0.919466204518427D+02 0.257066094722959D+02 0.103246419542515D+03
 0.343768575993575D+03 0.316323621026778D+03 -.319229582057227D+02 -.130755976385606D+03
0.169674804306D-04 0.000000000000D+00 0.000000000000D+00 0.602349489366D-06 0.000000000000D+00  7 3 -4 -24 -13 13 23 21 0 0.45611277D-01 0.44570037D-01 0.64397884D+05 0.64397884D+05 0.64397884D+05 0.11377522D+01  1  2  2  2  7  2       -4 0.128923531044D-03 0.100000000000D+01
-.918874518968D-06 0.000000000000D+00 -.651595924935D-07 0.602349489366D-06 0.000000000000D+00  7 3 -4 -24 -13 13 23 21 2 0.45611277D-01 0.44570037D-01 0.64397884D+05 0.64397884D+05 0.64397884D+05 0.11377522D+01  1  2  3  2  7  2       -4 -.903787599214D-05 0.100000000000D+01
0.108049950229D-05 0.000000000000D+00 0.000000000000D+00 0.602349489366D-06 0.000000000000D+00  7 3 -4 -24 -13 13 23 21 2 0.45611277D-01 0.44570037D-01 0.64397884D+05 0.64397884D+05 0.64397884D+05 0.11377522D+01  1  2 15  2  7  2       -4 0.106275887618D-04 0.100000000000D+01
0.243356243320D-06 0.000000000000D+00 -.520196431549D-05 0.602349489366D-06 0.000000000000D+00  7 3 -4 -24 -13 13 23 21 2 0.45611277D-01 0.12068518D+00 0.64397884D+05 0.64397884D+05 0.64397884D+05 0.11377522D+01  1  2  5  2  7  2       -4 0.196932020421D-06 0.100000000000D+01
0.328969331446D-06 0.000000000000D+00 -.578310076181D-06 0.602349489366D-06 0.000000000000D+00  7 3 21 -24 -13 13 23 4 2 0.45611277D-01 0.12068518D+00 0.64397884D+05 0.64397884D+05 0.64397884D+05 0.11377522D+01  1  2  5  4  7  2       -4 0.670840530868D-05 0.100000000000D+01
  </mgrwgt>
  </event>
  <event>
  8     66 0.29493621E-05 0.22242617E+03 0.75467711E-02 0.96204006E-01
        1 -1    0    0  501    0 0.00000000E+00 0.00000000E+00 0.14569105E+04 0.14569105E+04 0.32000000E+00 0.0000E+00 0.9000E+01
       -2 -1    0    0    0  501 0.00000000E+00 0.00000000E+00 -.24169909E+03 0.24169930E+03 0.32000000E+00 0.0000E+00 0.9000E+01
       25  2    1    2    0    0 -.23076901E+01 -.12184558E+03 -.12725426E+03 0.34822731E+03 0.30036136E+03 0.0000E+00 0.0000E+00
       23  2    3    3    0    0 0.45351395E+02 -.17633612E+03 -.53972027E+02 0.21065499E+03 0.91166713E+02 0.0000E+00 0.0000E+00
      -24  1    1    2    0    0 0.23076901E+01 0.12184558E+03 0.13424657E+04 0.13503825E+04 0.80419002E+02 0.0000E+00 0.9000E+01
      -13  1    4    4    0    0 0.44782548E+02 -.16229463E+03 -.14765753E+02 0.16900610E+03 0.10565837E+00 0.0000E+00 0.9000E+01
       13  1    4    4    0    0 0.56884708E+00 -.14041490E+02 -.39206274E+02 0.41648891E+02 0.10565837E+00 0.0000E+00 0.9000E+01
       23  1    3    3    0    0 -.47659085E+02 0.54490537E+02 -.73282230E+02 0.13757232E+03 0.91188000E+02 0.0000E+00 0.9000E+01
#aMCatNLO 1  0  0  1  2 0.37019872D+03 0.00000000D+00  -5  7  0 0.00000000D+00 0.00000000D+00 0.00000000D+00 0.00000000D+00 0.00000000D+00
  <mgrwgt>
 0.2666550010D-02    3    2    0
 0.593408923993199D+03 0.000000000000000D+00 0.000000000000000D+00 0.593408923993199D+03
 0.593408923993199D+03 0.000000000000000D+00 0.000000000000000D+00 -.593408923993199D+03
 0.558125612243853D+03 0.230769008404221D+01 0.121845583117668D+03 0.538688510671424D+03
 0.257005898726348D+03 0.447826074986520D+02 -.162294828924021D+03 -.194182745243449D+03
 0.997531992659499D+02 0.568787702227569D+00 -.140412910765840D+02 -.987583889563045D+02
 0.271933137750247D+03 -.476590852849218D+02 0.544905368829372D+02 -.245747376471670D+03
 0.000000000000000D+00 -.000000000000000D+00 0.000000000000000D+00 -.000000000000000D+00
 0.700510377085190D+03 0.000000000000000D+00 0.000000000000000D+00 0.700510377085190D+03
 0.105583489444760D+04 0.000000000000000D+00 0.000000000000000D+00 -.105583489444760D+04
 0.548297278635974D+03 0.485603899181419D+02 -.402401143990110D+02 0.538688510671424D+03
 0.321732512006774D+03 0.689760819962891D+02 -.247077256833460D+03 -.194182745243449D+03
 0.108753837446506D+03 0.928517766654753D+01 -.445865814544788D+02 -.987583889563045D+02
 0.264431437671892D+03 -.252369988357550D+02 -.240843254478686D+02 -.245747376471670D+03
 0.513130205771646D+03 -.101584650745223D+03 0.355988278134818D+03 -.355324517362410D+03
0.429786107665D-03 0.000000000000D+00 0.000000000000D+00 0.263355877522D-04 0.000000000000D+00  7 1 -2 -24 -13 13 23 21 0 0.22414010D+00 0.37184494D-01 0.49473400D+05 0.49473400D+05 0.49473400D+05 0.11477001D+01  1  2  2  1  7  1        1 0.243808658824D-02 0.100000000000D+01
0.407769270917D-05 0.000000000000D+00 -.165049181871D-05 0.263355877522D-04 0.000000000000D+00  7 1 -2 -24 -13 13 23 21 2 0.22414010D+00 0.37184494D-01 0.49473400D+05 0.49473400D+05 0.49473400D+05 0.11477001D+01  1  2  3  1  7  1        1 0.304696917728D-04 0.100000000000D+01
0.264970711441D-04 0.000000000000D+00 0.000000000000D+00 0.263355877522D-04 0.000000000000D+00  7 1 -2 -24 -13 13 23 21 2 0.22414010D+00 0.37184494D-01 0.49473400D+05 0.49473400D+05 0.49473400D+05 0.11477001D+01  1  2 15  1  7  1        1 0.197993730334D-03 0.100000000000D+01
  </mgrwgt>
  </event>
  <event>
  8     66 0.29493621E-05 0.30942210E+03 0.75467711E-02 0.95317931E-01
        1 -1    0    0  501    0 0.00000000E+00 0.00000000E+00 0.84007853E+03 0.84007859E+03 0.32000000E+00 0.0000E+00 0.9000E+01
       -2 -1    0    0    0  501 0.00000000E+00 0.00000000E+00 -.24006504E+03 0.24006526E+03 0.32000000E+00 0.0000E+00 0.9000E+01
       25  2    1    2    0    0 -.20003748E+03 0.31108016E+03 0.49613792E+03 0.68766046E+03 0.29989700E+03 0.0000E+00 0.0000E+00
       23  2    3    3    0    0 -.90924616E+02 0.22741521E+03 0.14857228E+03 0.30292345E+03 0.98508526E+02 0.0000E+00 0.0000E+00
      -24  1    1    2    0    0 0.20003748E+03 -.31108016E+03 0.10387557E+03 0.39248339E+03 0.80419002E+02 0.0000E+00 0.9000E+01
      -13  1    4    4    0    0 -.10935239E+03 0.16135908E+03 0.10171012E+03 0.21986282E+03 0.10565837E+00 0.0000E+00 0.9000E+01
       13  1    4    4    0    0 0.18427778E+02 0.66056125E+02 0.46862155E+02 0.83060625E+02 0.10565837E+00 0.0000E+00 0.9000E+01
       23  1    3    3    0    0 -.10911287E+03 0.83664956E+02 0.34756564E+03 0.38473701E+03 0.91188000E+02 0.0000E+00 0.9000E+01
#aMCatNLO 1  0  0  1  2 0.12526414D+03 0.00000000D+00  -5  7  0 0.00000000D+00 0.00000000D+00 0.00000000D+00 0.00000000D+00 0.00000000D+00
  <mgrwgt>
 0.9543651464D-03    9    2    0
 0.449080880256882D+03 0.000000000000000D+00 0.000000000000000D+00 0.449080880256882D+03
 0.449080880256882D+03 0.000000000000000D+00 0.000000000000000D+00 -.449080880256882D+03
 0.402613196581673D+03 0.200037481843108D+03 -.311080164025659D+03 -.137274569804387D+03
 0.196463671956848D+03 -.109352535021244D+03 0.161359192518820D+03 -.245603027845772D+02
 0.685838196307975D+02 0.184279213305827D+02 0.660560146695214D+02 0.868882364645771D+00
 0.230501072344445D+03 -.109112868152447D+03 0.836649568373177D+02 0.160965990224319D+03
 0.000000000000000D+00 0.000000000000000D+00 0.000000000000000D+00 0.000000000000000D+00
 0.705039973051754D+03 0.000000000000000D+00 0.000000000000000D+00 0.705039973051754D+03
 0.469017948672136D+03 0.000000000000000D+00 0.000000000000000D+00 -.469017948672136D+03
 0.439237040155645D+03 0.182103956466627D+03 -.366682155298757D+03 -.137274569804387D+03
 0.181628853128926D+03 -.117406855846243D+03 0.136387176876562D+03 -.245603027845772D+02
 0.596908232404642D+02 0.156953491191568D+02 0.575838122964131D+02 0.868882364645771D+00
 0.226298097116916D+03 -.118843838270409D+03 0.534945745940512D+02 0.160965990224319D+03
 0.267203108081939D+03 0.384513885308677D+02 0.119216591531731D+03 0.236022024379618D+03
0.560713844918D-04 0.000000000000D+00 0.000000000000D+00 0.238358505001D-06 0.000000000000D+00  7 1 -2 -24 -13 13 23 21 0 0.12924287D+00 0.36933105D-01 0.16280241D+06 0.16280241D+06 0.16280241D+06 0.11047558D+01  1  2  2  1  7  1        1 0.861707242609D-03 0.100000000000D+01
-.307166806578D-05 0.000000000000D+00 -.215328880383D-06 0.238358505001D-06 0.000000000000D+00  7 1 -2 -24 -13 13 23 21 2 0.12924287D+00 0.36933105D-01 0.16280241D+06 0.16280241D+06 0.16280241D+06 0.11047558D+01  1  2  3  1  7  1        1 -.576136466205D-04 0.100000000000D+01
0.359455301899D-05 0.000000000000D+00 0.000000000000D+00 0.238358505001D-06 0.000000000000D+00  7 1 -2 -24 -13 13 23 21 2 0.12924287D+00 0.36933105D-01 0.16280241D+06 0.16280241D+06 0.16280241D+06 0.11047558D+01  1  2 15  1  7  1        1 0.674211219962D-04 0.100000000000D+01
0.110495616551D-03 0.000000000000D+00 0.000000000000D+00 0.238358505001D-06 0.000000000000D+00  7 1 -2 -24 -13 13 23 21 2 0.20442382D+00 0.36933105D-01 0.22146730D+06 0.22146730D+06 0.22146730D+06 0.10944407D+01  1  2 12  1  7  1        1 0.873318859827D-03 0.100000000000D+01
-.113106607788D-03 0.000000000000D+00 0.000000000000D+00 0.238358505001D-06 0.000000000000D+00  7 1 -2 -24 -13 13 23 21 2 0.12924287D+00 0.36933105D-01 0.16280241D+06 0.16280241D+06 0.16280241D+06 0.11047558D+01  1  2  4  1  7  1        1 -.212148057407D-02 0.100000000000D+01
-.128204304948D-03 0.000000000000D+00 -.201575199963D-04 0.238358505001D-06 0.000000000000D+00  7 1 -2 -24 -13 13 23 21 2 0.20640469D+00 0.36933105D-01 0.16280241D+06 0.16280241D+06 0.16280241D+06 0.11047558D+01  1  2  5  1  7  1        1 -.102368302326D-02 0.100000000000D+01
0.125643324637D-03 0.000000000000D+00 0.181338538194D-04 0.238358505001D-06 0.000000000000D+00  7 1 -2 -24 -13 13 23 21 2 0.12924287D+00 0.36933105D-01 0.16280241D+06 0.16280241D+06 0.16280241D+06 0.11047558D+01  1  2  6  1  7  1        1 0.235662511405D-02 0.100000000000D+01
0.582427823993D-05 0.000000000000D+00 0.000000000000D+00 0.238358505001D-06 0.000000000000D+00  7 21 -2 -24 -13 13 23 -1 2 0.20442382D+00 0.36933105D-01 0.22146730D+06 0.22146730D+06 0.22146730D+06 0.10944407D+01  1  2 12  3  7  1        1 0.426990497357D-04 0.100000000000D+01
-.602442139683D-05 0.000000000000D+00 -.107960103464D-05 0.238358505001D-06 0.000000000000D+00  7 21 -2 -24 -13 13 23 -1 2 0.20640469D+00 0.36933105D-01 0.16280241D+06 0.16280241D+06 0.16280241D+06 0.11047558D+01  1  2  5  3  7  1        1 -.446289978191D-04 0.100000000000D+01
  </mgrwgt>
  </event>
  <event>
  9     66 -.29493621E-05 0.78547585E+03 0.75467711E-02 0.89294465E-01
        1 -1    0    0  501    0 0.00000000E+00 0.00000000E+00 0.14484457E+04 0.14484457E+04 0.32000000E+00 0.0000E+00 0.9000E+01
       -2 -1    0    0    0  502 0.00000000E+00 0.00000000E+00 -.73210631E+03 0.73210638E+03 0.32000000E+00 0.0000E+00 0.9000E+01
       25  2    1    2    0    0 0.12338087E+03 0.75633119E+03 0.97244608E+03 0.12741367E+04 0.30085419E+03 0.0000E+00 0.0000E+00
       23  2    3    3    0    0 -.35880708E+01 0.21371903E+03 0.15038499E+03 0.27681591E+03 0.91228867E+02 0.0000E+00 0.0000E+00
      -24  1    1    2    0    0 -.19750759E+03 -.76295017E+03 -.25415609E+03 0.83196438E+03 0.80419002E+02 0.0000E+00 0.9000E+01
      -13  1    4    4    0    0 -.13415869E+02 0.73920297E+02 0.10578090E+03 0.12974516E+03 0.10565837E+00 0.0000E+00 0.9000E+01
       13  1    4    4    0    0 0.98277984E+01 0.13979873E+03 0.44604092E+02 0.14707076E+03 0.10565837E+00 0.0000E+00 0.9000E+01
       23  1    3    3    0    0 0.12696894E+03 0.54261216E+03 0.82206109E+03 0.99732079E+03 0.91188000E+02 0.0000E+00 0.9000E+01
       21  1    1    2  501  502 0.74126721E+02 0.66189729E+01 -.19506335E+01 0.74450984E+02 0.75000000E+00 0.0000E+00 0.9000E+01
#aMCatNLO 2  0  0  2  1 0.74421647D+02 0.00000000D+00  -5  7  0 0.00000000D+00 0.00000000D+00 0.00000000D+00 0.00000000D+00 0.00000000D+00
  <mgrwgt>
 -.1914728459D-03    3    2    0
 0.989214674587255D+03 0.000000000000000D+00 0.000000000000000D+00 0.989214674587255D+03
 0.989214674587255D+03 0.000000000000000D+00 0.000000000000000D+00 -.989214674587255D+03
 0.967974080598217D+03 -.161079438764788D+03 -.759697398686179D+03 -.572206153053484D+03
 0.994575543816845D+02 -.968733345668539D+01 0.742531426940349D+02 0.654555688550944D+02
 0.141203497951401D+03 0.150989832920011D+02 0.140269496377730D+03 -.590905434034857D+01
 0.769794216243207D+03 0.155667788929473D+03 0.545174759614413D+03 0.512659638538738D+03
 0.000000000000000D+00 0.000000000000000D+00 0.000000000000000D+00 -.000000000000000D+00
 0.101532303458334D+04 0.000000000000000D+00 0.000000000000000D+00 0.101532303458334D+04
 0.104440915283079D+04 0.000000000000000D+00 0.000000000000000D+00 -.104440915283079D+04
 0.977235539532678D+03 -.197507587939996D+03 -.762950165400868D+03 -.572206153053484D+03
 0.996424366160193D+02 -.134159003410908D+02 0.739202090004576D+02 0.654555688550944D+02
 0.140268362457871D+03 0.982782957494192D+01 0.139798820986664D+03 -.590905434034857D+01
 0.762682257825991D+03 0.126968937645192D+03 0.542612162548108D+03 0.512659638538738D+03
 0.799035909815648D+02 0.741267210609535D+02 0.661897286563909D+01 -.290861182474514D+02
-.347197900433D-02 0.000000000000D+00 0.000000000000D+00 0.221188488831D-04 0.000000000000D+00  7 1 -2 -24 -13 13 23 21 2 0.21710730D+00 0.11398034D+00 0.67779555D+06 0.67779555D+06 0.67779555D+06 0.10592957D+01  1  2 13  2  7  2       -2 -.189699706912D-02 0.100000000000D+01
-.285442536908D-03 0.000000000000D+00 0.000000000000D+00 0.221188488831D-04 0.000000000000D+00  7 1 -2 -24 -13 13 23 21 2 0.21710730D+00 0.10667925D+00 0.61697231D+06 0.61697231D+06 0.61697231D+06 0.10621173D+01  1  2  8  2  7  2       -2 -.186141383012D-03 0.100000000000D+01
0.356365949717D-02 0.000000000000D+00 0.000000000000D+00 0.221188488831D-04 0.239307515860D-07  7 1 -2 -24 -13 13 23 21 2 0.22283742D+00 0.11263155D+00 0.67779555D+06 0.67779555D+06 0.67779555D+06 0.10592957D+01  1  2  1  2  7  2       -2 0.189166560626D-02 0.100000000000D+01
  </mgrwgt>
  </event>
  <event>
  8     66 0.29493621E-05 0.14058081E+03 0.75467711E-02 0.10476042E+00
        1 -1    0    0  501    0 0.00000000E+00 0.00000000E+00 0.18706831E+03 0.18706858E+03 0.32000000E+00 0.0000E+00 0.9000E+01
       -2 -1    0    0    0  501 0.00000000E+00 0.00000000E+00 -.36985134E+03 0.36985147E+03 0.32000000E+00 0.0000E+00 0.9000E+01
       25  2    1    2    0    0 0.15667634E+03 -.12709601E+02 -.65881396E+02 0.34516025E+03 0.30014368E+03 0.0000E+00 0.0000E+00
       23  2    3    3    0    0 0.73893790E+02 -.36980511E+02 0.83898155E+02 0.14973458E+03 0.92486177E+02 0.0000E+00 0.0000E+00
      -24  1    1    2    0    0 -.15667634E+03 0.12709601E+02 -.11690163E+03 0.21175981E+03 0.80419002E+02 0.0000E+00 0.9000E+01
      -13  1    4    4    0    0 -.49555157E+00 0.42507491E+01 0.61680396E+02 0.61828771E+02 0.10565837E+00 0.0000E+00 0.9000E+01
       13  1    4    4    0    0 0.74389342E+02 -.41231260E+02 0.22217758E+02 0.87905807E+02 0.10565837E+00 0.0000E+00 0.9000E+01
       23  1    3    3    0    0 0.82782549E+02 0.24270910E+02 -.14977955E+03 0.19542567E+03 0.91188000E+02 0.0000E+00 0.9000E+01
#aMCatNLO 1  0  0  1  2 0.48103996D+02 0.00000000D+00  -5  7  0 0.00000000D+00 0.00000000D+00 0.00000000D+00 0.00000000D+00 0.00000000D+00
  <mgrwgt>
 0.7532821508D-03    9    2    0
 0.263035318307058D+03 0.000000000000000D+00 0.000000000000000D+00 0.263035318307058D+03
 0.263035318307058D+03 0.000000000000000D+00 0.000000000000000D+00 -.263035318307058D+03
 0.183560237811028D+03 -.156676340244924D+03 0.127096005937923D+02 -.501810264051404D+02
 0.868852944885597D+02 -.495647566705721D+00 0.425080728169092D+01 0.867798327338057D+02
 0.100780278095475D+03 0.743894373451854D+02 -.412313180218450D+02 0.540634301413580D+02
 0.154844826219053D+03 0.827825504664448D+02 0.242709101463618D+02 -.906622364700232D+02
 0.000000000000000D+00 0.000000000000000D+00 -.000000000000000D+00 0.000000000000000D+00
 0.353658525746759D+03 0.000000000000000D+00 0.000000000000000D+00 0.353658525746759D+03
 0.270594494987874D+03 0.000000000000000D+00 0.000000000000000D+00 -.270594494987874D+03
 0.194914264394479D+03 -.168410771958768D+03 0.253777656078810D+02 -.501810264051404D+02
 0.875637310927250D+02 -.590436114265669D+01 0.100899035212857D+02 0.867798327338057D+02
 0.938123662696488D+02 0.683561799288668D+02 -.347179816808761D+02 0.540634301413580D+02
 0.151975015815385D+03 0.732697392629821D+02 0.345406756545766D+02 -.906622364700232D+02
 0.959876431623948D+02 0.326892139095762D+02 -.352903631028673D+02 0.830640307588850D+02
0.126266518134D-04 0.000000000000D+00 0.000000000000D+00 0.842740971277D-06 0.000000000000D+00  7 1 -2 -24 -13 13 23 21 0 0.28779771D-01 0.56900237D-01 0.38303837D+05 0.38303837D+05 0.38303837D+05 0.11576160D+01  1  2  2  1  7  1        1 0.677005008154D-03 0.100000000000D+01
-.626936986232D-06 0.000000000000D+00 -.484896676373D-07 0.842740971277D-06 0.000000000000D+00  7 1 -2 -24 -13 13 23 21 2 0.28779771D-01 0.56900237D-01 0.38303837D+05 0.38303837D+05 0.38303837D+05 0.11576160D+01  1  2  3  1  7  1        1 -.450460418983D-04 0.100000000000D+01
0.816698131028D-06 0.000000000000D+00 0.000000000000D+00 0.842740971277D-06 0.000000000000D+00  7 1 -2 -24 -13 13 23 21 2 0.28779771D-01 0.56900237D-01 0.38303837D+05 0.38303837D+05 0.38303837D+05 0.11576160D+01  1  2 15  1  7  1        1 0.586805676431D-04 0.100000000000D+01
0.378963277271D-04 0.000000000000D+00 0.000000000000D+00 0.842740971277D-06 0.000000000000D+00  7 1 -2 -24 -13 13 23 21 2 0.39004041D-01 0.56900237D-01 0.49902256D+05 0.49902256D+05 0.49902256D+05 0.11473701D+01  1  2 12  1  7  1        1 0.180759045343D-02 0.100000000000D+01
-.387235179471D-04 0.000000000000D+00 0.000000000000D+00 0.842740971277D-06 0.000000000000D+00  7 1 -2 -24 -13 13 23 21 2 0.28779771D-01 0.56900237D-01 0.38303837D+05 0.38303837D+05 0.38303837D+05 0.11576160D+01  1  2  4  1  7  1        1 -.278232302480D-02 0.100000000000D+01
-.445830040043D-04 0.000000000000D+00 -.659427392943D-05 0.842740971277D-06 0.000000000000D+00  7 1 -2 -24 -13 13 23 21 2 0.39491671D-01 0.56900237D-01 0.38303837D+05 0.38303837D+05 0.38303837D+05 0.11576160D+01  1  2  5  1  7  1        1 -.213525157359D-02 0.100000000000D+01
0.447285705547D-04 0.000000000000D+00 0.627739762892D-05 0.842740971277D-06 0.000000000000D+00  7 1 -2 -24 -13 13 23 21 2 0.28779771D-01 0.56900237D-01 0.38303837D+05 0.38303837D+05 0.38303837D+05 0.11576160D+01  1  2  6  1  7  1        1 0.321379198788D-02 0.100000000000D+01
0.147894675695D-05 0.000000000000D+00 0.000000000000D+00 0.842740971277D-06 0.000000000000D+00  7 21 -2 -24 -13 13 23 -1 2 0.39004041D-01 0.56900237D-01 0.49902256D+05 0.49902256D+05 0.49902256D+05 0.11473701D+01  1  2 12  3  7  1        1 0.389347751937D-03 0.100000000000D+01
-.163043891855D-05 0.000000000000D+00 -.264892678692D-06 0.842740971277D-06 0.000000000000D+00  7 21 -2 -24 -13 13 23 -1 2 0.39491671D-01 0.56900237D-01 0.38303837D+05 0.38303837D+05 0.38303837D+05 0.11576160D+01  1  2  5  3  7  1        1 -.430512977908D-03 0.100000000000D+01
  </mgrwgt>
  </event>
  <event>
  8     66 0.29493621E-05 0.16867602E+03 0.75467711E-02 0.10636638E+00
        1 -1    0    0  501    0 0.00000000E+00 0.00000000E+00 0.30366123E+03 0.30366140E+03 0.32000000E+00 0.0000E+00 0.9000E+01
       -2 -1    0    0    0  501 0.00000000E+00 0.00000000E+00 -.34532075E+03 0.34532090E+03 0.32000000E+00 0.0000E+00 0.9000E+01
       25  2    1    2    0    0 0.44519866E+02 0.90746732E+02 0.20071333E+03 0.37433925E+03 0.29937777E+03 0.0000E+00 0.0000E+00
       23  2    3    3    0    0 0.43310658E+02 0.16231649E+02 0.23149079E+03 0.25261636E+03 0.89931952E+02 0.0000E+00 0.0000E+00
      -24  1    1    2    0    0 -.44519866E+02 -.90746732E+02 -.24237285E+03 0.27464305E+03 0.80419002E+02 0.0000E+00 0.9000E+01
      -13  1    4    4    0    0 0.20532259E+02 0.47490573E+02 0.18521172E+03 0.19230267E+03 0.10565837E+00 0.0000E+00 0.9000E+01
       13  1    4    4    0    0 0.22778399E+02 -.31258924E+02 0.46279079E+02 0.60313682E+02 0.10565837E+00 0.0000E+00 0.9000E+01
       23  1    3    3    0    0 0.12092071E+01 0.74515083E+02 -.30777466E+02 0.12172290E+03 0.91188000E+02 0.0000E+00 0.9000E+01
#aMCatNLO 1  0  0  1  2 0.55450193D+02 0.00000000D+00  -5  7  0 0.00000000D+00 0.00000000D+00 0.00000000D+00 0.00000000D+00 0.00000000D+00
  <mgrwgt>
 0.9395600533D-03    4    2    0
 0.323821907140234D+03 0.000000000000000D+00 0.000000000000000D+00 0.323821907140234D+03
 0.323821907140234D+03 0.000000000000000D+00 0.000000000000000D+00 -.323821907140234D+03
 0.259620080225238D+03 -.445198655961936D+02 -.907467316681445D+02 -.225207420749484D+03
 0.204613998537372D+03 0.205322561663514D+02 0.474906816100750D+02 0.197964517058946D+03
 0.634150269576491D+02 0.227784023323009D+02 -.312590329007337D+02 0.502541828441976D+02
 0.119994708560210D+03 0.120920709754131D+01 0.745150829588033D+02 -.230112791536593D+02
 0.000000000000000D+00 -.000000000000000D+00 -.000000000000000D+00 -.000000000000000D+00
 0.335220458317168D+03 0.000000000000000D+00 0.000000000000000D+00 0.335220458317168D+03
 0.400265465812396D+03 0.000000000000000D+00 0.000000000000000D+00 -.400265465812396D+03
 0.252311694825627D+03 -.294529627796023D+02 -.748873555033043D+02 -.225207420749484D+03
 0.209521245501448D+03 0.327208636702288D+02 0.603203728666431D+02 0.197964517058946D+03
 0.630499712041113D+02 0.265004526715562D+02 -.273412140129847D+02 0.502541828441976D+02
 0.125130345282674D+03 0.842359687398269D+01 0.821089277361366D+02 -.230112791536593D+02
 0.854726673157041D+02 -.381919504361654D+02 -.402007310864907D+02 -.650450074952273D+02
0.341584796340D-04 0.000000000000D+00 0.000000000000D+00 0.121420365878D-05 0.000000000000D+00  7 1 -2 -24 -13 13 23 21 0 0.46717137D-01 0.53126294D-01 0.28451599D+05 0.28451599D+05 0.28451599D+05 0.11694773D+01  1  2  2  1  7  1        1 0.112986873161D-02 0.100000000000D+01
-.916199444161D-06 0.000000000000D+00 -.131177555929D-06 0.121420365878D-05 0.000000000000D+00  7 1 -2 -24 -13 13 23 21 2 0.46717137D-01 0.53126294D-01 0.28451599D+05 0.28451599D+05 0.28451599D+05 0.11694773D+01  1  2  3  1  7  1        1 -.414479508102D-04 0.100000000000D+01
0.215996408303D-05 0.000000000000D+00 0.000000000000D+00 0.121420365878D-05 0.000000000000D+00  7 1 -2 -24 -13 13 23 21 2 0.46717137D-01 0.53126294D-01 0.28451599D+05 0.28451599D+05 0.28451599D+05 0.11694773D+01  1  2 15  1  7  1        1 0.977146249493D-04 0.100000000000D+01
-.545050349823D-05 0.000000000000D+00 0.000000000000D+00 0.121420365878D-05 0.000000000000D+00  7 1 -2 -24 -13 13 23 21 2 0.46717137D-01 0.53126294D-01 0.28451599D+05 0.28451599D+05 0.28451599D+05 0.11694773D+01  1  2  4  1  7  1        1 -.246575352479D-03 0.100000000000D+01
  </mgrwgt>
  </event>
  <event>
  8     66 0.29493621E-05 0.20246845E+03 0.75467711E-02 0.10505307E+00
        1 -1    0    0  501    0 0.00000000E+00 0.00000000E+00 0.11211983E+04 0.11211983E+04 0.32000000E+00 0.0000E+00 0.9000E+01
       -2 -1    0    0    0  501 0.00000000E+00 0.00000000E+00 -.64167278E+02 0.64168076E+02 0.32000000E+00 0.0000E+00 0.9000E+01
       25  2    1    2    0    0 0.10055130E+03 -.27563138E+02 0.98540190E+03 0.10354723E+04 0.30052578E+03 0.0000E+00 0.0000E+00
       23  2    3    3    0    0 0.16635244E+03 -.29744503E+02 0.46403847E+03 0.50211538E+03 0.90720956E+02 0.0000E+00 0.0000E+00
      -24  1    1    2    0    0 -.10055130E+03 0.27563138E+02 0.71629109E+02 0.14989408E+03 0.80419002E+02 0.0000E+00 0.9000E+01
      -13  1    4    4    0    0 0.17447166E+03 -.15633480E+02 0.43237951E+03 0.46651561E+03 0.10565837E+00 0.0000E+00 0.9000E+01
       13  1    4    4    0    0 -.81192286E+01 -.14111023E+02 0.31658960E+02 0.35599772E+02 0.10565837E+00 0.0000E+00 0.9000E+01
       23  1    3    3    0    0 -.65801135E+02 0.21813650E+01 0.52136343E+03 0.53335694E+03 0.91188000E+02 0.0000E+00 0.9000E+01
#aMCatNLO 1  0  0  1  1 0.17293986D+01 0.00000000D+00  -5  7  0 0.00000000D+00 0.00000000D+00 0.00000000D+00 0.00000000D+00 0.00000000D+00
  <mgrwgt>
 0.3074318562D-02   10    2    0
 0.268225171265730D+03 0.000000000000000D+00 0.000000000000000D+00 0.268225171265730D+03
 0.268225171265730D+03 0.000000000000000D+00 0.000000000000000D+00 -.268225171265730D+03
 0.190073924107963D+03 -.100551302082277D+03 0.275631382157357D+02 -.137078771998761D+03
 0.178867454825316D+03 0.174471910737986D+03 -.156334820799233D+02 0.361761385056422D+02
 0.162813818212181D+02 -.811947612701898D+01 -.141110207620096D+02 -.191296850978088D+00
 0.151227581776962D+03 -.658011325286901D+02 0.218136462619717D+01 0.101093930344097D+03
 0.000000000000000D+00 0.000000000000000D+00 -.000000000000000D+00 0.000000000000000D+00
 0.270225907396361D+03 0.000000000000000D+00 0.000000000000000D+00 0.270225907396361D+03
 0.268600540499711D+03 0.000000000000000D+00 0.000000000000000D+00 -.268600540499711D+03
 0.190406395704583D+03 -.101107808413308D+03 0.278208719491161D+02 -.137078771998761D+03
 0.178336823225189D+03 0.173949448913142D+03 -.153915153148440D+02 0.361761385056422D+02
 0.162861008626217D+02 -.816711068091187D+01 -.140889598604023D+02 -.191296850978088D+00
 0.151423810333445D+03 -.662438030349800D+02 0.238637778756069D+01 0.101093930344097D+03
 0.237331777023342D+01 0.156927321605752D+01 -.726774561430532D+00 0.162536689665063D+01
0.118459627075D-04 0.000000000000D+00 0.000000000000D+00 0.185101613849D-05 0.000000000000D+00  7 1 -2 -24 -13 13 23 21 0 0.17249211D+00 0.98719539D-02 0.47435637D+05 0.47435637D+05 0.47435637D+05 0.11493121D+01  1  2  2  1  7  1        1 0.100408218426D-02 0.100000000000D+01
-.623403352563D-06 0.000000000000D+00 -.454916159105D-07 0.185101613849D-05 0.000000000000D+00  7 1 -2 -24 -13 13 23 21 2 0.17249211D+00 0.98719539D-02 0.47435637D+05 0.47435637D+05 0.47435637D+05 0.11493121D+01  1  2  3  1  7  1        1 -.697981570762D-04 0.100000000000D+01
0.756186911757D-06 0.000000000000D+00 0.000000000000D+00 0.185101613849D-05 0.000000000000D+00  7 1 -2 -24 -13 13 23 21 2 0.17249211D+00 0.98719539D-02 0.47435637D+05 0.47435637D+05 0.47435637D+05 0.11493121D+01  1  2 15  1  7  1        1 0.846650128344D-04 0.100000000000D+01
-.581167130449D-03 0.000000000000D+00 0.000000000000D+00 0.185101613849D-05 0.000000000000D+00  7 1 -2 -24 -13 13 23 21 2 0.17249211D+00 0.98719539D-02 0.47435637D+05 0.47435637D+05 0.47435637D+05 0.11493121D+01  1  2  4  1  7  1        1 -.650692597206D-01 0.100000000000D+01
-.195609327312D-02 0.000000000000D+00 -.167667149413D-03 0.185101613849D-05 0.000000000000D+00  7 1 -2 -24 -13 13 23 21 2 0.17390384D+00 0.98719539D-02 0.47435637D+05 0.47435637D+05 0.47435637D+05 0.11493121D+01  1  2  5  1  7  1        1 -.215764141659D+00 0.100000000000D+01
0.195740047803D-02 0.000000000000D+00 0.167661579726D-03 0.185101613849D-05 0.000000000000D+00  7 1 -2 -24 -13 13 23 21 2 0.17249211D+00 0.98719539D-02 0.47435637D+05 0.47435637D+05 0.47435637D+05 0.11493121D+01  1  2  6  1  7  1        1 0.219156578907D+00 0.100000000000D+01
0.581188254184D-03 0.000000000000D+00 0.000000000000D+00 0.185101613849D-05 0.435765775246D-05  7 1 -2 -24 -13 13 23 21 2 0.17377876D+00 0.98857692D-02 0.47858108D+05 0.47858108D+05 0.47858108D+05 0.11489717D+01  1  2 11  1  7  1        1 0.640142841199D-01 0.100000000000D+01
0.421756159085D-09 0.000000000000D+00 0.000000000000D+00 0.185101613849D-05 0.000000000000D+00  7 21 -2 -24 -13 13 23 -1 2 0.17389892D+00 0.98719539D-02 0.47858108D+05 0.47858108D+05 0.47858108D+05 0.11489717D+01  1  2 12  3  7  1        1 0.570350426326D-07 0.100000000000D+01
-.294917608837D-05 0.000000000000D+00 -.253143983050D-06 0.185101613849D-05 0.000000000000D+00  7 21 -2 -24 -13 13 23 -1 2 0.17390384D+00 0.98719539D-02 0.47435637D+05 0.47435637D+05 0.47435637D+05 0.11493121D+01  1  2  5  3  7  1        1 -.399204736645D-03 0.100000000000D+01
0.865573469681D-06 0.000000000000D+00 0.000000000000D+00 0.185101613849D-05 0.600012679093D-08  7 21 -2 -24 -13 13 23 -1 2 0.17377876D+00 0.98857692D-02 0.47858108D+05 0.47858108D+05 0.47858108D+05 0.11489717D+01  1  2 11  3  7  1        1 0.117055575803D-03 0.100000000000D+01
  </mgrwgt>
  </event>
  <event>
  8     66 0.29493621E-05 0.19690918E+03 0.75467711E-02 0.97118953E-01
        1 -1    0    0  501    0 0.00000000E+00 0.00000000E+00 0.47674071E+03 0.47674081E+03 0.32000000E+00 0.0000E+00 0.9000E+01
       -2 -1    0    0    0  501 0.00000000E+00 0.00000000E+00 -.36942280E+03 0.36942293E+03 0.32000000E+00 0.0000E+00 0.9000E+01
       25  2    1    2    0    0 0.12483359E+03 0.32153159E+01 0.40155034E+03 0.51656747E+03 0.30000919E+03 0.0000E+00 0.0000E+00
       23  2    3    3    0    0 0.48323883E+02 -.51735353E+02 0.36187835E+03 0.37959145E+03 0.90122064E+02 0.0000E+00 0.0000E+00
      -24  1    1    2    0    0 -.12483359E+03 -.32153159E+01 -.29423243E+03 0.32959627E+03 0.80419002E+02 0.0000E+00 0.9000E+01
      -13  1    4    4    0    0 0.60264369E+02 -.69996487E+02 0.27914002E+03 0.29402460E+03 0.10565837E+00 0.0000E+00 0.9000E+01
       13  1    4    4    0    0 -.11940486E+02 0.18261134E+02 0.82738330E+02 0.85566855E+02 0.10565837E+00 0.0000E+00 0.9000E+01
       23  1    3    3    0    0 0.76509710E+02 0.54950669E+02 0.39671990E+02 0.13697602E+03 0.91188000E+02 0.0000E+00 0.9000E+01
#aMCatNLO 1  0  0  2  1 0.29459253D+03 0.00000000D+00  -5  7  0 0.00000000D+00 0.00000000D+00 0.00000000D+00 0.00000000D+00 0.00000000D+00
  <mgrwgt>
 0.1491596865D-02    3    2    0
 0.419665329053337D+03 0.000000000000000D+00 0.000000000000000D+00 0.419665329053337D+03
 0.419665329053337D+03 0.000000000000000D+00 0.000000000000000D+00 -.419665329053337D+03
 0.369900497385460D+03 -.124833592632064D+03 -.321531589648665D+01 -.338770420647816D+03
 0.260727336702973D+03 0.602644679069515D+02 -.699966082189379D+02 0.243818401376849D+03
 0.756841794776292D+02 -.119405848934702D+02 0.182612554325478D+02 0.724709873372169D+02
 0.133018644540611D+03 0.765097096185827D+02 0.549506686828768D+02 0.224810319337500D+02
 0.000000000000000D+00 0.000000000000000D+00 0.000000000000000D+00 0.000000000000000D+00
 0.673770913999532D+03 0.000000000000000D+00 0.000000000000000D+00 0.673770913999532D+03
 0.539504581706058D+03 0.000000000000000D+00 0.000000000000000D+00 -.539504581706058D+03
 0.435396016556864D+03 -.260071610576409D+03 -.264543899099725D+02 -.338770420647816D+03
 0.259634925971593D+03 -.271229226985705D+02 -.850131107453419D+02 0.243818401376849D+03
 0.832555627540423D+02 -.386322386382123D+02 0.136746064536219D+02 0.724709873372169D+02
 0.111241858955419D+03 0.354896557837826D+02 0.479018514819592D+02 0.224810319337500D+02
 0.323747131467672D+03 0.290337116129409D+03 0.498910427197334D+02 0.134266332293474D+03
0.882868655209D-04 0.000000000000D+00 0.000000000000D+00 0.763691277654D-05 0.000000000000D+00  7 1 -2 -24 -13 13 23 21 0 0.73344743D-01 0.56834295D-01 0.38773223D+05 0.38773223D+05 0.38773223D+05 0.11571380D+01  1  2  2  2  7  2       -2 0.140564222633D-02 0.100000000000D+01
-.148999065379D-05 0.000000000000D+00 -.339044810066D-06 0.763691277654D-05 0.000000000000D+00  7 1 -2 -24 -13 13 23 21 2 0.73344743D-01 0.56834295D-01 0.38773223D+05 0.38773223D+05 0.38773223D+05 0.11571380D+01  1  2  3  2  7  2       -2 -.317638100008D-04 0.100000000000D+01
0.552198833840D-05 0.000000000000D+00 0.000000000000D+00 0.763691277654D-05 0.000000000000D+00  7 1 -2 -24 -13 13 23 21 2 0.73344743D-01 0.56834295D-01 0.38773223D+05 0.38773223D+05 0.38773223D+05 0.11571380D+01  1  2 15  2  7  2       -2 0.117718448744D-03 0.100000000000D+01
  </mgrwgt>
  </event>
  <event>
  8     66 0.29493621E-05 0.26761324E+03 0.75467711E-02 0.98548514E-01
        1 -1    0    0  501    0 0.00000000E+00 0.00000000E+00 0.96598613E+03 0.96598618E+03 0.32000000E+00 0.0000E+00 0.9000E+01
       -2 -1    0    0    0  501 0.00000000E+00 0.00000000E+00 -.14088587E+03 0.14088623E+03 0.32000000E+00 0.0000E+00 0.9000E+01
       25  2    1    2    0    0 0.13421006E+03 -.25279860E+03 0.33062205E+03 0.52990154E+03 0.29927451E+03 0.0000E+00 0.0000E+00
       23  2    3    3    0    0 0.11476268E+03 -.27717539E+03 0.22594801E+03 0.38761895E+03 0.95912885E+02 0.0000E+00 0.0000E+00
      -24  1    1    2    0    0 -.13421006E+03 0.25279860E+03 0.49447821E+03 0.57697087E+03 0.80419002E+02 0.0000E+00 0.9000E+01
      -11  1    4    4    0    0 0.44436862E+02 -.21615336E+03 0.17382398E+03 0.28091224E+03 0.51099893E-03 0.0000E+00 0.9000E+01
       11  1    4    4    0    0 0.70325817E+02 -.61022030E+02 0.52124026E+02 0.10670671E+03 0.51099893E-03 0.0000E+00 0.9000E+01
       23  1    3    3    0    0 0.19447379E+02 0.24376790E+02 0.10467404E+03 0.14228259E+03 0.91188000E+02 0.0000E+00 0.9000E+01
#aMCatNLO 1  0  0  1  2 0.10054849D+02 0.00000000D+00  -5  7  0 0.00000000D+00 0.00000000D+00 0.00000000D+00 0.00000000D+00 0.00000000D+00
  <mgrwgt>
 0.1438679258D-02    9    2    0
 0.368909236037721D+03 0.000000000000000D+00 0.000000000000000D+00 0.368909236037721D+03
 0.368909236037721D+03 0.000000000000000D+00 0.000000000000000D+00 -.368909236037721D+03
 0.312595915957169D+03 -.134210057125565D+03 0.252798597914392D+03 0.965894413360004D+02
 0.227036595642507D+03 0.444368615485951D+02 -.216153358045733D+03 -.533732789156082D+02
 0.101790851364615D+03 0.703258169996765D+02 -.610220300272062D+02 -.411335475764003D+02
 0.963951091111516D+02 0.194473785772934D+02 0.243767901585469D+02 -.208261484399186D+01
 0.000000000000000D+00 0.000000000000000D+00 0.000000000000000D+00 0.000000000000000D+00
 0.375089354818150D+03 0.000000000000000D+00 0.000000000000000D+00 0.375089354818150D+03
 0.373056011887490D+03 0.000000000000000D+00 0.000000000000000D+00 -.373056011887490D+03
 0.309948804663131D+03 -.135570999435508D+03 0.248781087488960D+03 0.965894413360004D+02
 0.229653345502053D+03 0.434384936517317D+02 -.219100546478895D+03 -.533732789156082D+02
 0.102280442723845D+03 0.698796976299819D+02 -.623389772671007D+02 -.411335475764003D+02
 0.960043887794632D+02 0.190267748705745D+02 0.231351653193655D+02 -.208261484399186D+01
 0.102583850371479D+02 0.322603328321989D+01 0.952327093767009D+01 0.203334293066004D+01
0.153892257127D-04 0.000000000000D+00 0.000000000000D+00 0.126099502935D-06 0.000000000000D+00  7 1 -2 -24 -11 11 23 21 0 0.14861328D+00 0.21674781D-01 0.12512315D+06 0.12512315D+06 0.12512315D+06 0.11138208D+01  1  2  2  1  7  1        1 0.479242748261D-03 0.100000000000D+01
-.853121223873D-06 0.000000000000D+00 -.590986788131D-07 0.126099502935D-06 0.000000000000D+00  7 1 -2 -24 -11 11 23 21 2 0.14861328D+00 0.21674781D-01 0.12512315D+06 0.12512315D+06 0.12512315D+06 0.11138208D+01  1  2  3  1  7  1        1 -.329594676099D-04 0.100000000000D+01
0.989517276933D-06 0.000000000000D+00 0.000000000000D+00 0.126099502935D-06 0.000000000000D+00  7 1 -2 -24 -11 11 23 21 2 0.14861328D+00 0.21674781D-01 0.12512315D+06 0.12512315D+06 0.12512315D+06 0.11138208D+01  1  2 15  1  7  1        1 0.382289898854D-04 0.100000000000D+01
0.145542762859D-04 0.000000000000D+00 0.000000000000D+00 0.126099502935D-06 0.000000000000D+00  7 1 -2 -24 -11 11 23 21 2 0.15192647D+00 0.21674781D-01 0.12872337D+06 0.12872337D+06 0.12872337D+06 0.11128329D+01  1  2 12  1  7  1        1 0.540116361602D-03 0.100000000000D+01
-.126178640891D-04 0.000000000000D+00 0.000000000000D+00 0.126099502935D-06 0.000000000000D+00  7 1 -2 -24 -11 11 23 21 2 0.14861328D+00 0.21674781D-01 0.12512315D+06 0.12512315D+06 0.12512315D+06 0.11138208D+01  1  2  4  1  7  1        1 -.487478298645D-03 0.100000000000D+01
-.595706513499D-03 0.000000000000D+00 -.754847237831D-04 0.126099502935D-06 0.000000000000D+00  7 1 -2 -24 -11 11 23 21 2 0.15228445D+00 0.21674781D-01 0.12512315D+06 0.12512315D+06 0.12512315D+06 0.11138208D+01  1  2  5  1  7  1        1 -.220676382661D-01 0.100000000000D+01
0.597393130080D-03 0.000000000000D+00 0.754622542102D-04 0.126099502935D-06 0.000000000000D+00  7 1 -2 -24 -11 11 23 21 2 0.14861328D+00 0.21674781D-01 0.12512315D+06 0.12512315D+06 0.12512315D+06 0.11138208D+01  1  2  6  1  7  1        1 0.230796737559D-01 0.100000000000D+01
0.466662203970D-06 0.000000000000D+00 0.000000000000D+00 0.126099502935D-06 0.000000000000D+00  7 21 -2 -24 -11 11 23 -1 2 0.15192647D+00 0.21674781D-01 0.12872337D+06 0.12872337D+06 0.12872337D+06 0.11128329D+01  1  2 12  3  7  1        1 0.241387303436D-04 0.100000000000D+01
-.261222529223D-05 0.000000000000D+00 -.333078507088D-06 0.126099502935D-06 0.000000000000D+00  7 21 -2 -24 -11 11 23 -1 2 0.15228445D+00 0.21674781D-01 0.12512315D+06 0.12512315D+06 0.12512315D+06 0.11138208D+01  1  2  5  3  7  1        1 -.134645295516D-03 0.100000000000D+01
  </mgrwgt>
  </event>
  <event>
  8     66 0.29493621E-05 0.38151651E+03 0.75467711E-02 0.92162259E-01
        1 -1    0    0  501    0 0.00000000E+00 0.00000000E+00 0.12405691E+04 0.12405691E+04 0.32000000E+00 0.0000E+00 0.9000E+01
       -2 -1    0    0    0  501 0.00000000E+00 0.00000000E+00 -.14146760E+03 0.14146797E+03 0.32000000E+00 0.0000E+00 0.9000E+01
       25  2    1    2    0    0 -.32149938E+03 0.71700502E+02 0.37378393E+03 0.58137763E+03 0.29963763E+03 0.0000E+00 0.0000E+00
       23  2    3    3    0    0 -.27129978E+03 0.12909105E+03 0.32862621E+03 0.45422360E+03 0.89754269E+02 0.0000E+00 0.0000E+00
      -24  1    1    2    0    0 0.32149938E+03 -.71700502E+02 0.72531757E+03 0.80065948E+03 0.80419002E+02 0.0000E+00 0.9000E+01
      -11  1    4    4    0    0 -.57558774E+02 0.52915382E+02 0.42325509E+02 0.88907248E+02 0.51099893E-03 0.0000E+00 0.9000E+01
       11  1    4    4    0    0 -.21374100E+03 0.76175668E+02 0.28630070E+03 0.36531635E+03 0.51099893E-03 0.0000E+00 0.9000E+01
       23  1    3    3    0    0 -.50199601E+02 -.57390548E+02 0.45157720E+02 0.12715402E+03 0.91188000E+02 0.0000E+00 0.9000E+01
#aMCatNLO 1  0  0  1  1 0.39946233D+03 0.00000000D+00  -5  7  0 0.00000000D+00 0.00000000D+00 0.00000000D+00 0.00000000D+00 0.00000000D+00
  <mgrwgt>
 0.1514346979D-02    3    2    0
 0.418927936177856D+03 0.000000000000000D+00 0.000000000000000D+00 0.418927936177856D+03
 0.418927936177856D+03 0.000000000000000D+00 0.000000000000000D+00 -.418927936177856D+03
 0.369208470418857D+03 0.321499376486962D+03 -.717005016070830D+02 0.146098828408884D+03
 0.911291406428414D+02 -.575587739588106D+02 0.529153815419898D+02 -.468131414340776D+02
 0.227016646035836D+03 -.213741001879578D+03 0.761756679773136D+02 -.697203708282519D+01
 0.150501615258177D+03 -.501996006485738D+02 -.573905479122204D+02 -.923136498919814D+02
 0.000000000000000D+00 0.000000000000000D+00 -.000000000000000D+00 -.000000000000000D+00
 0.526271228548010D+03 0.000000000000000D+00 0.000000000000000D+00 0.526271228548010D+03
 0.110580893554307D+04 0.000000000000000D+00 0.000000000000000D+00 -.110580893554307D+04
 0.284871250419634D+03 0.227067842688655D+03 0.421869709216844D+02 0.146098828408884D+03
 0.137893114458271D+03 -.906234327979820D+02 0.927924255097614D+02 -.468131414340776D+02
 0.344500077191125D+03 -.296252657640009D+03 0.175687383510707D+03 -.697203708282519D+01
 0.160944918504493D+03 -.951641102372105D+02 -.316190050421688D+01 -.923136498919814D+02
 0.703870803517555D+03 0.254972357986546D+03 -.307504879437936D+03 -.579537706995058D+03
0.769067281953D-04 0.000000000000D+00 0.000000000000D+00 0.232855322828D-05 0.000000000000D+00  7 1 -2 -24 -11 11 23 21 0 0.19085682D+00 0.21764278D-01 0.14555485D+06 0.14555485D+06 0.14555485D+06 0.11085844D+01  1  2  2  1  7  1        1 0.149676985516D-02 0.100000000000D+01
-.422713777965D-05 0.000000000000D+00 -.295342086277D-06 0.232855322828D-05 0.000000000000D+00  7 1 -2 -24 -11 11 23 21 2 0.19085682D+00 0.21764278D-01 0.14555485D+06 0.14555485D+06 0.14555485D+06 0.11085844D+01  1  2  3  1  7  1        1 -.101105454729D-03 0.100000000000D+01
0.496202320512D-05 0.000000000000D+00 0.000000000000D+00 0.232855322828D-05 0.000000000000D+00  7 1 -2 -24 -11 11 23 21 2 0.19085682D+00 0.21764278D-01 0.14555485D+06 0.14555485D+06 0.14555485D+06 0.11085844D+01  1  2 15  1  7  1        1 0.118682578776D-03 0.100000000000D+01
  </mgrwgt>
  </event>
  <event>
  8     66 0.29493621E-05 0.38951037E+03 0.75467711E-02 0.90784841E-01
        1 -1    0    0  501    0 0.00000000E+00 0.00000000E+00 0.55559221E+03 0.55559230E+03 0.32000000E+00 0.0000E+00 0.9000E+01
       -2 -1    0    0    0  501 0.00000000E+00 0.00000000E+00 -.34060336E+03 0.34060351E+03 0.32000000E+00 0.0000E+00 0.9000E+01
       25  2    1    2    0    0 0.28523934E+02 0.33379465E+03 -.60632429E+02 0.45498522E+03 0.30183236E+03 0.0000E+00 0.0000E+00
       23  2    3    3    0    0 -.96397938E+02 0.86770327E+02 -.34057130E+02 0.16232844E+03 0.91482146E+02 0.0000E+00 0.0000E+00
      -24  1    1    2    0    0 -.28523934E+02 -.33379465E+03 0.27562128E+03 0.44121060E+03 0.80419002E+02 0.0000E+00 0.9000E+01
      -11  1    4    4    0    0 0.79493832E+01 0.13059413E+02 0.18659644E+02 0.24123086E+02 0.51099893E-03 0.0000E+00 0.9000E+01
       11  1    4    4    0    0 -.10434732E+03 0.73710914E+02 -.52716774E+02 0.13820536E+03 0.51099893E-03 0.0000E+00 0.9000E+01
       23  1    3    3    0    0 0.12492187E+03 0.24702432E+03 -.26575299E+02 0.29265677E+03 0.91188000E+02 0.0000E+00 0.9000E+01
#aMCatNLO 1  0  0  2  1 0.50036574D+03 0.00000000D+00  -5  7  0 0.00000000D+00 0.00000000D+00 0.00000000D+00 0.00000000D+00 0.00000000D+00
  <mgrwgt>
 0.1494138768D-02    3    2    0
 0.435013427234431D+03 0.000000000000000D+00 0.000000000000000D+00 0.435013427234431D+03
 0.435013427234431D+03 0.000000000000000D+00 0.000000000000000D+00 -.435013427234431D+03
 0.386373803505307D+03 -.285239342403897D+02 -.333794649364696D+03 0.174885726437970D+03
 0.202377582854216D+02 0.794938322770762D+01 0.130594128584736D+02 0.132599359919317D+02
 0.155388974451429D+03 -.104347320992525D+03 0.737109143795801D+02 -.884537793657007D+02
 0.308026318226704D+03 0.124921872005207D+03 0.247024322126642D+03 -.996918830642005D+02
 0.000000000000000D+00 0.000000000000000D+00 -.000000000000000D+00 0.000000000000000D+00
 0.329513199918577D+04 0.000000000000000D+00 0.000000000000000D+00 0.329513199918577D+04
 0.524232477112211D+03 0.000000000000000D+00 0.000000000000000D+00 -.524232477112211D+03
 0.349629395648294D+03 -.189923373717118D+03 -.221624892896064D+03 0.174885726437970D+03
 0.238780563464580D+02 -.172485156071843D+01 0.197828349704481D+02 0.132599359919317D+02
 0.252726762622336D+03 -.193843740683482D+03 0.135909343532096D+03 -.884537793657007D+02
 0.377415426108943D+03 -.253898568798691D+02 0.351488315794037D+03 -.996918830642005D+02
 0.281571483557196D+04 0.410881822841188D+03 -.285555601400517D+03 0.277089952207356D+04
0.100467102885D-03 0.000000000000D+00 0.000000000000D+00 0.895636453550D-06 0.000000000000D+00  7 1 -2 -24 -11 11 23 21 0 0.85475743D-01 0.52400535D-01 0.15171833D+06 0.15171833D+06 0.15171833D+06 0.11071617D+01  1  2  2  2  7  2       -2 0.147659096441D-02 0.100000000000D+01
-.549866371525D-05 0.000000000000D+00 -.385820128675D-06 0.895636453550D-06 0.000000000000D+00  7 1 -2 -24 -11 11 23 21 2 0.85475743D-01 0.52400535D-01 0.15171833D+06 0.15171833D+06 0.15171833D+06 0.11071617D+01  1  2  3  2  7  2       -2 -.990639463650D-04 0.100000000000D+01
0.647267570851D-05 0.000000000000D+00 0.000000000000D+00 0.895636453550D-06 0.000000000000D+00  7 1 -2 -24 -11 11 23 21 2 0.85475743D-01 0.52400535D-01 0.15171833D+06 0.15171833D+06 0.15171833D+06 0.11071617D+01  1  2 15  2  7  2       -2 0.116611750132D-03 0.100000000000D+01
  </mgrwgt>
  </event>
  <event>
  8     66 0.29493621E-05 0.28425195E+03 0.75467711E-02 0.86091262E-01
        1 -1    0    0  501    0 0.00000000E+00 0.00000000E+00 0.28472567E+03 0.28472584E+03 0.32000000E+00 0.0000E+00 0.9000E+01
       -2 -1    0    0    0  501 0.00000000E+00 0.00000000E+00 -.77639972E+03 0.77639979E+03 0.32000000E+00 0.0000E+00 0.9000E+01
       25  2    1    2    0    0 -.21410730E+02 0.23361138E+03 0.12153656E+03 0.39966727E+03 0.29988347E+03 0.0000E+00 0.0000E+00
       23  2    3    3    0    0 0.10504102E+02 0.21297099E+03 0.17098208E+03 0.28919241E+03 0.94500812E+02 0.0000E+00 0.0000E+00
      -24  1    1    2    0    0 0.21410730E+02 -.23361138E+03 -.61321061E+03 0.66145836E+03 0.80419002E+02 0.0000E+00 0.9000E+01
      -11  1    4    4    0    0 -.25131372E+02 0.10724453E+03 0.12986249E+03 0.17028577E+03 0.51099893E-03 0.0000E+00 0.9000E+01
       11  1    4    4    0    0 0.35635474E+02 0.10572646E+03 0.41119587E+02 0.11890665E+03 0.51099893E-03 0.0000E+00 0.9000E+01
       23  1    3    3    0    0 -.31914832E+02 0.20640396E+02 -.49445522E+02 0.11047485E+03 0.91188000E+02 0.0000E+00 0.9000E+01
#aMCatNLO 1  0  0  1  1 0.10722709D+04 0.00000000D+00  -5  7  0 0.00000000D+00 0.00000000D+00 0.00000000D+00 0.00000000D+00 0.00000000D+00
  <mgrwgt>
 0.8415712583D-03    5    2    0
 0.470171306578601D+03 0.000000000000000D+00 0.000000000000000D+00 0.470171306578601D+03
 0.470171306578601D+03 0.000000000000000D+00 0.000000000000000D+00 -.470171306578601D+03
 0.425792334668457D+03 0.214107299429884D+02 -.233611382579525D+03 -.346120208714596D+03
 0.260059052491303D+03 -.251313719149761D+02 0.107244531537629D+03 0.235579573358175D+03
 0.155679773629113D+03 0.356354741532600D+02 0.105726455148240D+03 0.108573576807948D+03
 0.988114523683301D+02 -.319148321812724D+02 0.206403958936563D+02 0.196705854847293D+01
 0.000000000000000D+00 -.000000000000000D+00 -.000000000000000D+00 0.000000000000000D+00
 0.130591092138163D+04 0.000000000000000D+00 0.000000000000000D+00 0.130591092138163D+04
 0.119796657485633D+04 0.000000000000000D+00 0.000000000000000D+00 -.119796657485633D+04
 0.583384641382006D+03 0.454461469501136D+03 -.868101244341553D+02 -.346120208714596D+03
 0.406544033810701D+03 0.260916532828732D+03 0.204212827560097D+03 0.235579573358175D+03
 0.313303827356197D+03 0.236882331807667D+03 0.173947772427625D+03 0.108573576807948D+03
 0.122954436522628D+03 0.632477453171239D+02 0.528998630391800D+02 0.196705854847293D+01
 0.107769055716643D+04 -.101550807945466D+04 -.344250338592747D+03 0.107944346525298D+03
0.126903448326D-03 0.000000000000D+00 0.000000000000D+00 0.162129028925D-05 0.000000000000D+00  7 1 -2 -24 -11 11 23 21 0 0.43803967D-01 0.11944613D+00 0.80799168D+05 0.80799168D+05 0.80799168D+05 0.11294005D+01  1  2  2  1  7  1        1 0.740112937777D-03 0.100000000000D+01
-.487936037817D-05 0.000000000000D+00 -.487342656017D-06 0.162129028925D-05 0.000000000000D+00  7 1 -2 -24 -11 11 23 21 2 0.43803967D-01 0.11944613D+00 0.80799168D+05 0.80799168D+05 0.80799168D+05 0.11294005D+01  1  2  3  1  7  1        1 -.362980611110D-04 0.100000000000D+01
0.787477798634D-05 0.000000000000D+00 0.000000000000D+00 0.162129028925D-05 0.000000000000D+00  7 1 -2 -24 -11 11 23 21 2 0.43803967D-01 0.11944613D+00 0.80799168D+05 0.80799168D+05 0.80799168D+05 0.11294005D+01  1  2 15  1  7  1        1 0.585812791904D-04 0.100000000000D+01
0.168630595032D-03 0.000000000000D+00 -.618856800341D-04 0.162129028925D-05 0.000000000000D+00  7 1 -2 -24 -11 11 23 21 2 0.26026149D+00 0.11944613D+00 0.80799168D+05 0.80799168D+05 0.80799168D+05 0.11294005D+01  1  2  5  1  7  1        1 0.697171998144D-04 0.100000000000D+01
0.329899668630D-04 0.000000000000D+00 -.135147896668D-04 0.162129028925D-05 0.000000000000D+00  7 21 -2 -24 -11 11 23 -1 2 0.26026149D+00 0.11944613D+00 0.80799168D+05 0.80799168D+05 0.80799168D+05 0.11294005D+01  1  2  5  3  7  1        1 0.945790266325D-05 0.100000000000D+01
  </mgrwgt>
  </event>
  <event>
  8     66 0.29493621E-05 0.20516147E+03 0.75467711E-02 0.99117064E-01
        1 -1    0    0  501    0 0.00000000E+00 0.00000000E+00 0.20019639E+04 0.20019640E+04 0.32000000E+00 0.0000E+00 0.9000E+01
       -2 -1    0    0    0  501 0.00000000E+00 0.00000000E+00 -.45300079E+02 0.45301209E+02 0.32000000E+00 0.0000E+00 0.9000E+01
       25  2    1    2    0    0 0.87556910E+02 0.59751797E+01 0.52364425E+03 0.60931026E+03 0.29892102E+03 0.0000E+00 0.0000E+00
       23  2    3    3    0    0 0.27846550E+02 0.10715410E+03 0.15438285E+03 0.21122518E+03 0.92328653E+02 0.0000E+00 0.0000E+00
      -24  1    1    2    0    0 -.87556910E+02 -.59751797E+01 0.14330196E+04 0.14379549E+04 0.80419002E+02 0.0000E+00 0.9000E+01
      -11  1    4    4    0    0 0.53954536E+02 0.10280142E+03 0.11239935E+03 0.16159467E+03 0.51099893E-03 0.0000E+00 0.9000E+01
       11  1    4    4    0    0 -.26107987E+02 0.43526760E+01 0.41983501E+02 0.49630506E+02 0.51099893E-03 0.0000E+00 0.9000E+01
       23  1    3    3    0    0 0.59710360E+02 -.10117892E+03 0.36926140E+03 0.39808508E+03 0.91188000E+02 0.0000E+00 0.9000E+01
#aMCatNLO 1  0  0  1  1 0.20690000D+03 0.00000000D+00  -5  7  0 0.00000000D+00 0.00000000D+00 0.00000000D+00 0.00000000D+00 0.00000000D+00
  <mgrwgt>
 0.1408118673D-02    5    2    0
 0.301148313935433D+03 0.000000000000000D+00 0.000000000000000D+00 0.301148313935433D+03
 0.301148313935433D+03 0.000000000000000D+00 0.000000000000000D+00 -.301148313935433D+03
 0.232339560174137D+03 -.875569099760450D+02 -.597517973365627D+01 0.199530799652931D+03
 0.184127542685733D+03 0.539545364169308D+02 0.102801420135768D+03 -.142911609023165D+03
 0.323083443611995D+02 -.261079865071553D+02 0.435267601168592D+01 -.185271791549965D+02
 0.153521180649797D+03 0.597103600662695D+02 -.101178916413798D+03 -.380920114747694D+02
 0.000000000000000D+00 0.000000000000000D+00 -.000000000000000D+00 0.000000000000000D+00
 0.607703014990759D+03 0.000000000000000D+00 0.000000000000000D+00 0.607703014990759D+03
 0.355416194246671D+03 0.000000000000000D+00 0.000000000000000D+00 -.355416194246671D+03
 0.260408379335471D+03 -.132582882298280D+03 0.628851920971726D+02 0.199530799652931D+03
 0.214101946582471D+03 0.175654041162806D+02 0.158453059658199D+03 -.142911609023165D+03
 0.403211033680223D+02 -.327446687558720D+02 0.145024714252991D+02 -.185271791549965D+02
 0.122011438896919D+03 0.345329354504910D+02 -.626738774025907D+02 -.380920114747694D+02
 0.326276341054547D+03 0.113229211487380D+03 -.173166845778081D+03 0.252286820744088D+03
0.369953471257D-04 0.000000000000D+00 0.000000000000D+00 0.597025927498D-06 0.000000000000D+00  7 1 -2 -24 -11 11 23 21 0 0.30799454D+00 0.69693318D-02 0.42091228D+05 0.42091228D+05 0.42091228D+05 0.11539315D+01  1  2  2  1  7  1        1 0.139493085545D-02 0.100000000000D+01
-.168718619775D-05 0.000000000000D+00 -.142071874061D-06 0.597025927498D-06 0.000000000000D+00  7 1 -2 -24 -11 11 23 21 2 0.30799454D+00 0.69693318D-02 0.42091228D+05 0.42091228D+05 0.42091228D+05 0.11539315D+01  1  2  3  1  7  1        1 -.847088266138D-04 0.100000000000D+01
0.230237228218D-05 0.000000000000D+00 0.000000000000D+00 0.597025927498D-06 0.000000000000D+00  7 1 -2 -24 -11 11 23 21 2 0.30799454D+00 0.69693318D-02 0.42091228D+05 0.42091228D+05 0.42091228D+05 0.11539315D+01  1  2 15  1  7  1        1 0.115595572505D-03 0.100000000000D+01
-.148814415655D-04 0.000000000000D+00 -.877399507911D-05 0.597025927498D-06 0.000000000000D+00  7 1 -2 -24 -11 11 23 21 2 0.63857325D+00 0.69693318D-02 0.42091228D+05 0.42091228D+05 0.42091228D+05 0.11539315D+01  1  2  5  1  7  1        1 -.176402549302D-04 0.100000000000D+01
-.633679155521D-06 0.000000000000D+00 -.691788236664D-06 0.597025927498D-06 0.000000000000D+00  7 21 -2 -24 -11 11 23 -1 2 0.63857325D+00 0.69693318D-02 0.42091228D+05 0.42091228D+05 0.42091228D+05 0.11539315D+01  1  2  5  3  7  1        1 -.586729677270D-07 0.100000000000D+01
  </mgrwgt>
  </event>
  <event>
  8     66 0.29493621E-05 0.11454336E+03 0.75467711E-02 0.10595548E+00
        1 -1    0    0  501    0 0.00000000E+00 0.00000000E+00 0.45102342E+03 0.45102353E+03 0.32000000E+00 0.0000E+00 0.9000E+01
       -2 -1    0    0    0  501 0.00000000E+00 0.00000000E+00 -.19781687E+03 0.19781712E+03 0.32000000E+00 0.0000E+00 0.9000E+01
       25  2    1    2    0    0 0.38386510E+02 -.29707888E+02 -.70574676E+02 0.31170925E+03 0.29970951E+03 0.0000E+00 0.0000E+00
       23  2    3    3    0    0 0.99683719E+02 0.53847772E+02 0.18718901E+02 0.14730886E+03 0.92266329E+02 0.0000E+00 0.0000E+00
      -24  1    1    2    0    0 -.38386510E+02 0.29707888E+02 0.32378123E+03 0.33713140E+03 0.80419002E+02 0.0000E+00 0.9000E+01
      -13  1    4    4    0    0 -.17955084E+02 0.97710485E+01 0.39312110E+01 0.20816436E+02 0.10565837E+00 0.0000E+00 0.9000E+01
       13  1    4    4    0    0 0.11763880E+03 0.44076723E+02 0.14787690E+02 0.12649242E+03 0.10565837E+00 0.0000E+00 0.9000E+01
       23  1    3    3    0    0 -.61297210E+02 -.83555660E+02 -.89293577E+02 0.16440040E+03 0.91188000E+02 0.0000E+00 0.9000E+01
#aMCatNLO 1  0  0  2  1 0.28639220D+02 0.00000000D+00  -5  7  0 0.00000000D+00 0.00000000D+00 0.00000000D+00 0.00000000D+00 0.00000000D+00
  <mgrwgt>
 0.1428837628D-02    9    2    0
 0.298697439154722D+03 0.000000000000000D+00 0.000000000000000D+00 0.298697439154722D+03
 0.298697439154722D+03 0.000000000000000D+00 0.000000000000000D+00 -.298697439154722D+03
 0.228929034783533D+03 -.383865097870916D+02 0.297078882462578D+02 0.208770697787939D+03
 0.209426885406752D+02 -.179552608136703D+02 0.977100348853067D+01 -.455327390477733D+01
 0.131117916175818D+03 0.117638980544769D+03 0.440767687573559D+02 -.375528514840976D+02
 0.216405238809418D+03 -.612972099440074D+02 -.835556604921444D+02 -.166664572399064D+03
 0.000000000000000D+00 0.000000000000000D+00 0.000000000000000D+00 -.000000000000000D+00
 0.300553691707436D+03 0.000000000000000D+00 0.000000000000000D+00 0.300553691707436D+03
 0.434548191201460D+03 0.000000000000000D+00 0.000000000000000D+00 -.434548191201460D+03
 0.229322213678206D+03 -.455808988247372D+02 0.214158618637784D+02 0.208770697787939D+03
 0.211770329618276D+02 -.186165261428178D+02 0.900884988154361D+01 -.455327390477733D+01
 0.125976547613893D+03 0.113602684739494D+03 0.394246612427777D+02 -.375528514840976D+02
 0.221605174816914D+03 -.681738247459221D+02 -.914814302915332D+02 -.166664572399064D+03
 0.137020913838055D+03 0.187685649739826D+02 0.216320573034334D+02 -.133994499494024D+03
0.262902045996D-04 0.000000000000D+00 0.000000000000D+00 0.287326964958D-05 0.000000000000D+00  7 1 -2 -24 -13 13 23 21 0 0.69388247D-01 0.30433393D-01 0.35727823D+05 0.35727823D+05 0.35727823D+05 0.11603600D+01  1  2  2  2  7  2       -2 0.144182803355D-02 0.100000000000D+01
-.108872921150D-05 0.000000000000D+00 -.100961308032D-06 0.287326964958D-05 0.000000000000D+00  7 1 -2 -24 -13 13 23 21 2 0.69388247D-01 0.30433393D-01 0.35727823D+05 0.35727823D+05 0.35727823D+05 0.11603600D+01  1  2  3  2  7  2       -2 -.803942227582D-04 0.100000000000D+01
0.164713449378D-05 0.000000000000D+00 0.000000000000D+00 0.287326964958D-05 0.000000000000D+00  7 1 -2 -24 -13 13 23 21 2 0.69388247D-01 0.30433393D-01 0.35727823D+05 0.35727823D+05 0.35727823D+05 0.11603600D+01  1  2 15  2  7  2       -2 0.121628129389D-03 0.100000000000D+01
0.360042018319D-03 0.000000000000D+00 0.000000000000D+00 0.287326964958D-05 0.000000000000D+00  7 1 -2 -24 -13 13 23 21 2 0.69388247D-01 0.44335897D-01 0.42129784D+05 0.42129784D+05 0.42129784D+05 0.11538959D+01  1  2 12  2  7  2       -2 0.133009949297D-01 0.100000000000D+01
-.340112295894D-03 0.000000000000D+00 0.000000000000D+00 0.287326964958D-05 0.000000000000D+00  7 1 -2 -24 -13 13 23 21 2 0.69388247D-01 0.30433393D-01 0.35727823D+05 0.35727823D+05 0.35727823D+05 0.11603600D+01  1  2  4  2  7  2       -2 -.251146597245D-01 0.100000000000D+01
-.362575638407D-03 0.000000000000D+00 -.114276219569D-04 0.287326964958D-05 0.000000000000D+00  7 1 -2 -24 -13 13 23 21 2 0.69388247D-01 0.44402028D-01 0.35727823D+05 0.35727823D+05 0.35727823D+05 0.11603600D+01  1  2  5  2  7  2       -2 -.135383596971D-01 0.100000000000D+01
0.342904834693D-03 0.000000000000D+00 0.106581271492D-04 0.287326964958D-05 0.000000000000D+00  7 1 -2 -24 -13 13 23 21 2 0.69388247D-01 0.30433393D-01 0.35727823D+05 0.35727823D+05 0.35727823D+05 0.11603600D+01  1  2  6  2  7  2       -2 0.253208670935D-01 0.100000000000D+01
0.163891756000D-04 0.000000000000D+00 0.000000000000D+00 0.287326964958D-05 0.000000000000D+00  7 1 21 -24 -13 13 23 2 2 0.69388247D-01 0.44335897D-01 0.42129784D+05 0.42129784D+05 0.42129784D+05 0.11538959D+01  1  2 12  4  7  2       -2 0.684159785409D-02 0.100000000000D+01
-.161915570365D-04 0.000000000000D+00 -.521683952533D-06 0.287326964958D-05 0.000000000000D+00  7 1 21 -24 -13 13 23 2 2 0.69388247D-01 0.44402028D-01 0.35727823D+05 0.35727823D+05 0.35727823D+05 0.11603600D+01  1  2  5  4  7  2       -2 -.686466476837D-02 0.100000000000D+01
  </mgrwgt>
  </event>
  <event>
  8     66 0.29493621E-05 0.34661161E+03 0.75467711E-02 0.85078950E-01
        1 -1    0    0  501    0 0.00000000E+00 0.00000000E+00 0.30479469E+04 0.30479469E+04 0.32000000E+00 0.0000E+00 0.9000E+01
       -2 -1    0    0    0  501 0.00000000E+00 0.00000000E+00 -.80568696E+02 0.80569332E+02 0.32000000E+00 0.0000E+00 0.9000E+01
       25  2    1    2    0    0 -.29410222E+03 -.12862609E+03 0.62786973E+03 0.76571962E+03 0.29843820E+03 0.0000E+00 0.0000E+00
       23  2    3    3    0    0 -.18019702E+03 -.10113815E+03 0.55806840E+03 0.60165422E+03 0.88586497E+02 0.0000E+00 0.0000E+00
      -24  1    1    2    0    0 0.29410222E+03 0.12862609E+03 0.23395085E+04 0.23627966E+04 0.80419002E+02 0.0000E+00 0.9000E+01
      -11  1    4    4    0    0 -.39794697E+01 -.18989637E+02 0.13078258E+03 0.13221394E+03 0.51099893E-03 0.0000E+00 0.9000E+01
       11  1    4    4    0    0 -.17621755E+03 -.82148515E+02 0.42728582E+03 0.46944028E+03 0.51099893E-03 0.0000E+00 0.9000E+01
       23  1    3    3    0    0 -.11390519E+03 -.27487940E+02 0.69801331E+02 0.16406540E+03 0.91188000E+02 0.0000E+00 0.9000E+01
#aMCatNLO 1  0  0  2  1 0.12186602D+04 0.00000000D+00  -5  7  0 0.00000000D+00 0.00000000D+00 0.00000000D+00 0.00000000D+00 0.00000000D+00
  <mgrwgt>
 0.1141065127D-02    5    2    0
 0.495550330071899D+03 0.000000000000000D+00 0.000000000000000D+00 0.495550330071899D+03
 0.495550330071899D+03 0.000000000000000D+00 0.000000000000000D+00 -.495550330071899D+03
 0.453880424924679D+03 0.294102215504950D+03 0.128626092338520D+03 0.310643588989438D+03
 0.257815179740026D+02 -.397946968191388D+01 -.189896373366710D+02 0.169777549727949D+02
 0.202535347033612D+03 -.176217554031786D+03 -.821485150277122D+02 -.567411837012743D+02
 0.308903370211504D+03 -.113905191791249D+03 -.274879399741371D+02 -.270880160260959D+03
 0.000000000000000D+00 0.000000000000000D+00 -.000000000000000D+00 -.000000000000000D+00
 0.891534706367661D+03 0.000000000000000D+00 0.000000000000000D+00 0.891534706367661D+03
 0.428362835567610D+04 0.000000000000000D+00 0.000000000000000D+00 -.428362835567610D+04
 0.373334878389421D+03 -.978132949770998D+02 0.163843936150098D+03 0.310643588989438D+03
 0.436449772592268D+02 -.368721400801779D+02 -.160338754501181D+02 0.169777549727949D+02
 0.527766852709137D+03 -.522217873745002D+03 -.510566472845140D+02 -.567411837012743D+02
 0.626053449693689D+03 -.556866145105098D+03 0.123168884932196D+02 -.270880160260959D+03
 0.360436290399228D+04 0.121376945390738D+04 -.109070301908685D+03 -.339209364930844D+04
0.388142180191D-03 0.000000000000D+00 0.000000000000D+00 0.263502035830D-06 0.000000000000D+00  7 1 -2 -24 -11 11 23 21 0 0.46891496D+00 0.12395234D-01 0.12013961D+06 0.12013961D+06 0.12013961D+06 0.11152409D+01  1  2  2  2  7  2       -2 0.111594380984D-02 0.100000000000D+01
-.182133021424D-04 0.000000000000D+00 -.149056817212D-05 0.263502035830D-06 0.000000000000D+00  7 1 -2 -24 -11 11 23 21 2 0.46891496D+00 0.12395234D-01 0.12013961D+06 0.12013961D+06 0.12013961D+06 0.11152409D+01  1  2  3  2  7  2       -2 -.651294762019D-04 0.100000000000D+01
0.242184534969D-04 0.000000000000D+00 0.000000000000D+00 0.263502035830D-06 0.000000000000D+00  7 1 -2 -24 -11 11 23 21 2 0.46891496D+00 0.12395234D-01 0.12013961D+06 0.12013961D+06 0.12013961D+06 0.11152409D+01  1  2 15  2  7  2       -2 0.866034713720D-04 0.100000000000D+01
0.117199672869D-02 0.000000000000D+00 -.715663329125D-03 0.263502035830D-06 0.000000000000D+00  7 1 -2 -24 -11 11 23 21 2 0.46891496D+00 0.33851371D+00 0.12013961D+06 0.12013961D+06 0.12013961D+06 0.11152409D+01  1  2  5  2  7  2       -2 0.166029531466D-05 0.100000000000D+01
0.188790534535D-03 0.000000000000D+00 -.239984116229D-03 0.263502035830D-06 0.000000000000D+00  7 1 21 -24 -11 11 23 2 2 0.46891496D+00 0.33851371D+00 0.12013961D+06 0.12013961D+06 0.12013961D+06 0.11152409D+01  1  2  5  4  7  2       -2 0.198702664924D-05 0.100000000000D+01
  </mgrwgt>
  </event>
  <event>
  7     66 0.29493621E-05 0.30393655E+03 0.75467711E-02 0.87703103E-01
        1 -1    0    0  501    0 0.00000000E+00 0.00000000E+00 0.15038282E+04 0.15038283E+04 0.32000000E+00 0.0000E+00 0.9000E+01
       -2 -1    0    0    0  501 0.00000000E+00 0.00000000E+00 -.97822910E+02 0.97823434E+02 0.32000000E+00 0.0000E+00 0.9000E+01
       25  2    1    2    0    0 0.26949106E+03 -.74086608E+02 0.11230782E+04 0.11959064E+04 0.30128605E+03 0.0000E+00 0.0000E+00
      -24  1    1    2    0    0 -.26949106E+03 0.74086608E+02 0.28292714E+03 0.40574529E+03 0.80419002E+02 0.0000E+00 0.9000E+01
      -11  1    3    3    0    0 0.10269437E+03 0.16612214E+02 0.75315292E+03 0.76030351E+03 0.51099893E-03 0.0000E+00 0.9000E+01
       11  1    3    3    0    0 -.10551711E+01 -.22990830E+01 -.50174816E+01 0.56191006E+01 0.51099893E-03 0.0000E+00 0.9000E+01
       23  1    3    3    0    0 0.16785186E+03 -.88399740E+02 0.37494276E+03 0.42998382E+03 0.91188000E+02 0.0000E+00 0.9000E+01
#aMCatNLO 1  0  0  1  1 0.86660801D+03 0.00000000D+00  -5  7  0 0.00000000D+00 0.00000000D+00 0.00000000D+00 0.00000000D+00 0.00000000D+00
  <mgrwgt>
 0.1577766455D-02    5    2    0
 0.383548304551340D+03 0.000000000000000D+00 0.000000000000000D+00 0.383548304551340D+03
 0.383548304551340D+03 0.000000000000000D+00 0.000000000000000D+00 -.383548304551340D+03
 0.328596902749151D+03 -.269491060767419D+03 0.740866084066316D+02 -.152952447392050D+03
 0.207020062521754D+03 0.102694370218945D+03 0.166122148833439D+02 0.178983817504586D+03
 0.209288466966529D+02 -.105517130446324D+01 -.229908271163240D+01 -.207754050804145D+02
 0.210550797135121D+03 0.167851861852938D+03 -.883997405783431D+02 -.525596503212086D+01
 0.000000000000000D+00 -.000000000000000D+00 -.000000000000000D+00 0.000000000000000D+00
 0.147774738090978D+04 0.000000000000000D+00 0.000000000000000D+00 0.147774738090978D+04
 0.787500682917068D+03 0.000000000000000D+00 0.000000000000000D+00 -.787500682917068D+03
 0.307286400793354D+03 -.437770725506834D+02 0.250293493550746D+03 -.152952447392050D+03
 0.415336440179258D+03 0.323606867110563D+03 0.189070746471129D+03 0.178983817504586D+03
 0.290381401568355D+02 0.166811772032629D+02 0.115470539370893D+02 -.207754050804145D+02
 0.405683677499309D+03 0.386591275470966D+03 0.823623421636118D+02 -.525596503212086D+01
 0.110790340519809D+04 -.683102247234109D+03 -.533273636122576D+03 0.690246697992710D+03
0.650485443935D-04 0.000000000000D+00 0.000000000000D+00 0.152846244165D-08 0.000000000000D+00  7 1 -2 -24 -11 11 23 21 0 0.23135823D+00 0.15049721D-01 0.92377428D+05 0.92377428D+05 0.92377428D+05 0.11245588D+01  1  2  2  1  7  1        1 0.155405174917D-02 0.100000000000D+01
-.337599260644D-05 0.000000000000D+00 -.249803538146D-06 0.152846244165D-08 0.000000000000D+00  7 1 -2 -24 -11 11 23 21 2 0.23135823D+00 0.15049721D-01 0.92377428D+05 0.92377428D+05 0.92377428D+05 0.11245588D+01  1  2  3  1  7  1        1 -.101998477247D-03 0.100000000000D+01
0.416071673545D-05 0.000000000000D+00 0.000000000000D+00 0.152846244165D-08 0.000000000000D+00  7 1 -2 -24 -11 11 23 21 2 0.23135823D+00 0.15049721D-01 0.92377428D+05 0.92377428D+05 0.92377428D+05 0.11245588D+01  1  2 15  1  7  1        1 0.125707257315D-03 0.100000000000D+01
0.165821188355D-04 0.000000000000D+00 -.196332540922D-04 0.152846244165D-08 0.000000000000D+00  7 1 -2 -24 -11 11 23 21 2 0.92232045D+00 0.15049721D-01 0.92377428D+05 0.92377428D+05 0.92377428D+05 0.11245588D+01  1  2  5  1  7  1        1 0.591311607563D-08 0.100000000000D+01
0.297565059043D-05 0.000000000000D+00 -.323883465625D-05 0.152846244165D-08 0.000000000000D+00  7 21 -2 -24 -11 11 23 -1 2 0.92232045D+00 0.15049721D-01 0.92377428D+05 0.92377428D+05 0.92377428D+05 0.11245588D+01  1  2  5  3  7  1        1 0.123166136179D-10 0.100000000000D+01
  </mgrwgt>
  </event>
  <event>
  8     66 0.29493621E-05 0.29191070E+03 0.75467711E-02 0.10115803E+00
        1 -1    0    0  501    0 0.00000000E+00 0.00000000E+00 0.26896066E+03 0.26896085E+03 0.32000000E+00 0.0000E+00 0.9000E+01
       -2 -1    0    0    0  501 0.00000000E+00 0.00000000E+00 -.33007871E+03 0.33007887E+03 0.32000000E+00 0.0000E+00 0.9000E+01
       25  2    1    2    0    0 -.17859631E+03 0.10710320E+03 -.84064733E+02 0.37462602E+03 0.29985002E+03 0.0000E+00 0.0000E+00
       23  2    3    3    0    0 -.24412493E+02 0.14951132E+03 -.69290434E+02 0.18995163E+03 0.91273509E+02 0.0000E+00 0.0000E+00
      -24  1    1    2    0    0 0.17859631E+03 -.10710320E+03 0.22946679E+02 0.22441369E+03 0.80419002E+02 0.0000E+00 0.9000E+01
      -11  1    4    4    0    0 -.59089200E+02 0.96623099E+02 -.50242936E+02 0.12390282E+03 0.51099893E-03 0.0000E+00 0.9000E+01
       11  1    4    4    0    0 0.34676707E+02 0.52888223E+02 -.19047498E+02 0.66048810E+02 0.51099893E-03 0.0000E+00 0.9000E+01
       23  1    3    3    0    0 -.15418382E+03 -.42408117E+02 -.14774299E+02 0.18467439E+03 0.91188000E+02 0.0000E+00 0.9000E+01
#aMCatNLO 1  0  0  1  1 0.86660801D+03 0.00000000D+00  -5  7  0 0.00000000D+00 0.00000000D+00 0.00000000D+00 0.00000000D+00 0.00000000D+00
  <mgrwgt>
 0.5725945498D-05    1    2    0
 0.297956859787779D+03 0.000000000000000D+00 0.000000000000000D+00 0.297956859787779D+03
 0.297956859787779D+03 0.000000000000000D+00 0.000000000000000D+00 -.297956859787779D+03
 0.227944357560486D+03 0.178596311958307D+03 -.107103204624950D+03 0.460833495228945D+02
 0.119399769721275D+03 -.590892004506753D+02 0.966230987821748D+02 -.377987854477297D+02
 0.644417355379772D+02 0.346767071354815D+02 0.528882231075892D+02 -.123733228321464D+02
 0.184127856755819D+03 -.154183818643113D+03 -.424081172648140D+02 0.408875875698161D+01
 0.000000000000000D+00 -.000000000000000D+00 -.000000000000000D+00 -.000000000000000D+00
 0.578504393695589D+03 0.000000000000000D+00 0.000000000000000D+00 0.578504393695589D+03
 0.916915116502804D+03 0.000000000000000D+00 0.000000000000000D+00 -.916915116502804D+03
 0.261234442685611D+03 0.229414209120780D+03 0.837953676591312D+02 0.460833495228945D+02
 0.241370880267634D+03 -.216108678222959D+02 0.237411297228704D+03 -.377987854477297D+02
 0.147486534209456D+03 0.566926837322346D+02 0.135591733768860D+03 -.123733228321464D+02
 0.178060657385166D+03 -.116558192479866D+03 0.989333926543057D+02 0.408875875698161D+01
 0.667266995650526D+03 -.147937832550852D+03 -.555731791311001D+03 -.338410722807215D+03
0.107586276402D-06 0.000000000000D+00 0.000000000000D+00 0.243647793284D-05 0.000000000000D+00  7 1 -2 -24 -11 11 23 21 2 0.41378589D-01 0.50781367D-01 0.85211854D+05 0.85211854D+05 0.85211854D+05 0.11274703D+01  1  2 14  1  7  1        1 0.572594549805D-05 0.100000000000D+01
  </mgrwgt>
  </event>
  <event>
  9     66 0.29493621E-05 0.27151360E+03 0.75467711E-02 0.10075721E+00
        1 -1    0    0  501    0 0.00000000E+00 0.00000000E+00 0.18132801E+04 0.18132801E+04 0.32000000E+00 0.0000E+00 0.9000E+01
       -2 -1    0    0    0  502 0.00000000E+00 0.00000000E+00 -.12663903E+03 0.12663944E+03 0.32000000E+00 0.0000E+00 0.9000E+01
       25  2    1    2    0    0 -.14578255E+02 0.15866229E+03 0.13930095E+03 0.37089783E+03 0.30458857E+03 0.0000E+00 0.0000E+00
       23  2    3    3    0    0 -.72977219E+02 0.19577038E+03 0.10387574E+03 0.25107443E+03 0.92717240E+02 0.0000E+00 0.0000E+00
      -24  1    1    2    0    0 -.28446125E+02 -.18884981E+03 0.12553509E+04 0.12723390E+04 0.80419002E+02 0.0000E+00 0.9000E+01
      -11  1    4    4    0    0 -.21886835E+01 0.13392167E+03 0.70213321E+02 0.15122736E+03 0.51099893E-03 0.0000E+00 0.9000E+01
       11  1    4    4    0    0 -.70788535E+02 0.61848703E+02 0.33662419E+02 0.99847069E+02 0.51099893E-03 0.0000E+00 0.9000E+01
       23  1    3    3    0    0 0.58398964E+02 -.37108087E+02 0.35425213E+02 0.11982340E+03 0.91188000E+02 0.0000E+00 0.9000E+01
       21  1    1    2  501  502 0.43024380E+02 0.30187523E+02 0.29198919E+03 0.29668271E+03 0.75000000E+00 0.0000E+00 0.9000E+01
#aMCatNLO 2  0  0  2  2 0.52558385D+02 0.00000000D+00  -5  7  0 0.00000000D+00 0.00000000D+00 0.00000000D+00 0.00000000D+00 0.00000000D+00
  <mgrwgt>
 0.1119619778D-03    1    2    0
 0.433708165965677D+03 0.000000000000000D+00 0.000000000000000D+00 0.433708165965677D+03
 0.433708165965677D+03 0.000000000000000D+00 0.000000000000000D+00 -.433708165965677D+03
 0.383958710869810D+03 -.923895904634300D+01 -.175373342669073D+03 0.331837170936668D+03
 0.178147245268955D+03 0.651876831624490D+01 0.140031148787665D+03 -.109932815963949D+03
 0.133668744500042D+03 -.641370170445928D+02 0.665156586161701D+02 -.965890442011733D+02
 0.171641631292547D+03 0.668572077746909D+02 -.311734647347614D+02 -.125315310771546D+03
 0.000000000000000D+00 0.000000000000000D+00 0.000000000000000D+00 0.000000000000000D+00
 0.518698484713505D+03 0.000000000000000D+00 0.000000000000000D+00 0.518698484713505D+03
 0.442705938891113D+03 0.000000000000000D+00 0.000000000000000D+00 -.442705938891113D+03
 0.391224433921070D+03 -.284461248081653D+02 -.188849812577715D+03 0.331837170936668D+03
 0.173277317892037D+03 -.218868344243602D+01 0.133921673133528D+03 -.109932815963949D+03
 0.134780274070638D+03 -.707885352476576D+02 0.618487032713810D+02 -.965890442011733D+02
 0.169725152875806D+03 0.583989634834395D+02 -.371080870566847D+02 -.125315310771546D+03
 0.923972448450653D+02 0.430243800148194D+02 0.301875232294905D+02 0.759925458223919D+02
0.896622656506D-05 0.000000000000D+00 0.000000000000D+00 0.636538950989D-07 0.157511931074D-09  7 1 -2 -24 -11 11 23 21 2 0.27896525D+00 0.19482896D-01 0.90657510D+05 0.90657510D+05 0.90657510D+05 0.11252344D+01  1  2  1  2  7  2       -2 0.111961977826D-03 0.100000000000D+01
  </mgrwgt>
  </event>
  <event>
  8     66 0.29493621E-05 0.20802190E+03 0.75467711E-02 0.84078981E-01
        1 -1    0    0  501    0 0.00000000E+00 0.00000000E+00 0.14620696E+03 0.14620731E+03 0.32000000E+00 0.0000E+00 0.9000E+01
       -2 -1    0    0    0  501 0.00000000E+00 0.00000000E+00 -.35769721E+03 0.35769735E+03 0.32000000E+00 0.0000E+00 0.9000E+01
       25  2    1    2    0    0 -.19580373E+02 0.63193736E+02 -.23913370E+03 0.39616323E+03 0.30884226E+03 0.0000E+00 0.0000E+00
       23  2    3    3    0    0 0.60747712E+02 -.71852025E+02 -.70015498E+02 0.14795731E+03 0.90200881E+02 0.0000E+00 0.0000E+00
      -24  1    1    2    0    0 0.19580373E+02 -.63193736E+02 0.27643447E+02 0.10774143E+03 0.80419002E+02 0.0000E+00 0.9000E+01
      -11  1    4    4    0    0 0.80131437E+02 -.75969702E+02 -.61476321E+02 0.12637951E+03 0.51099893E-03 0.0000E+00 0.9000E+01
       11  1    4    4    0    0 -.19383725E+02 0.41176769E+01 -.85391769E+01 0.21577803E+02 0.51099893E-03 0.0000E+00 0.9000E+01
       23  1    3    3    0    0 -.80328085E+02 0.13504576E+03 -.16911820E+03 0.24820592E+03 0.91188000E+02 0.0000E+00 0.9000E+01
#aMCatNLO 1  0  0  2  2 0.13982539D+04 0.00000000D+00  -5  7  0 0.00000000D+00 0.00000000D+00 0.00000000D+00 0.00000000D+00 0.00000000D+00
  <mgrwgt>
 0.1279233556D-02    3    2    0
 0.228687437961148D+03 0.000000000000000D+00 0.000000000000000D+00 0.228687437961148D+03
 0.228687437961148D+03 0.000000000000000D+00 0.000000000000000D+00 -.228687437961148D+03
 0.131484553075015D+03 0.195803748940444D+02 -.631937427372148D+02 0.802753482760266D+02
 0.110809711270116D+03 0.801314322759982D+02 -.759696945895658D+02 -.929253340761491D+01
 0.198244454519988D+02 -.193837254012368D+02 0.411767857871440D+01 0.569693049911999D+00
 0.195256166125167D+03 -.803280817688058D+02 0.135045758748066D+03 -.715525079183237D+02
 0.000000000000000D+00 -.000000000000000D+00 0.000000000000000D+00 0.000000000000000D+00
 0.213459438455930D+04 0.000000000000000D+00 0.000000000000000D+00 0.213459438455930D+04
 0.108495218578359D+04 0.000000000000000D+00 0.000000000000000D+00 -.108495218578359D+04
 0.522166108340345D+03 0.482848792970825D+03 -.163104691320362D+03 0.802753482760266D+02
 0.644851065539676D+03 0.615698507076050D+03 -.191472958756186D+03 -.929253340761491D+01
 0.318527139951922D+01 -.307581697945717D+01 0.600627693633225D+00 0.569693049911999D+00
 0.300955518009684D+03 0.271357023915332D+03 0.591994650219893D+02 -.715525079183237D+02
 0.174838860705367D+04 -.136682850698275D+04 0.294777557360925D+03 0.104964219877570D+04
0.161159320935D-04 0.000000000000D+00 0.000000000000D+00 0.495647882790D-08 0.000000000000D+00  7 1 -2 -24 -11 11 23 21 0 0.22493416D-01 0.55030378D-01 0.43273111D+05 0.43273111D+05 0.43273111D+05 0.11528563D+01  1  2  2  2  7  2       -2 0.126725952248D-02 0.100000000000D+01
-.885564345067D-06 0.000000000000D+00 -.618894226616D-07 0.495647882790D-08 0.000000000000D+00  7 1 -2 -24 -11 11 23 21 2 0.22493416D-01 0.55030378D-01 0.43273111D+05 0.43273111D+05 0.43273111D+05 0.11528563D+01  1  2  3  2  7  2       -2 -.925508860054D-04 0.100000000000D+01
0.100013674694D-05 0.000000000000D+00 0.000000000000D+00 0.495647882790D-08 0.000000000000D+00  7 1 -2 -24 -11 11 23 21 2 0.22493416D-01 0.55030378D-01 0.43273111D+05 0.43273111D+05 0.43273111D+05 0.11528563D+01  1  2 15  2  7  2       -2 0.104524919699D-03 0.100000000000D+01
  </mgrwgt>
  </event>
  <event>
  8     66 0.29493621E-05 0.62382322E+03 0.75467711E-02 0.81604851E-01
        1 -1    0    0  501    0 0.00000000E+00 0.00000000E+00 0.13933110E+04 0.13933110E+04 0.32000000E+00 0.0000E+00 0.9000E+01
       -2 -1    0    0    0  501 0.00000000E+00 0.00000000E+00 -.28252932E+03 0.28252950E+03 0.32000000E+00 0.0000E+00 0.9000E+01
       25  2    1    2    0    0 0.47432459E+03 0.34507779E+03 0.65221696E+03 0.92696718E+03 0.29969768E+03 0.0000E+00 0.0000E+00
       23  2    3    3    0    0 0.40359985E+03 0.16699752E+03 0.43214313E+03 0.62125112E+03 0.91783741E+02 0.0000E+00 0.0000E+00
      -24  1    1    2    0    0 -.47432459E+03 -.34507779E+03 0.45856473E+03 0.74887337E+03 0.80419002E+02 0.0000E+00 0.9000E+01
      -13  1    4    4    0    0 0.13054653E+03 0.93625818E+02 0.19156587E+03 0.25001137E+03 0.10565837E+00 0.0000E+00 0.9000E+01
       13  1    4    4    0    0 0.27305332E+03 0.73371700E+02 0.24057726E+03 0.37123975E+03 0.10565837E+00 0.0000E+00 0.9000E+01
       23  1    3    3    0    0 0.70724738E+02 0.17808027E+03 0.22007383E+03 0.30571606E+03 0.91188000E+02 0.0000E+00 0.9000E+01
#aMCatNLO 1  0  0  2  2 0.16968666D+04 0.00000000D+00  -5  7  0 0.00000000D+00 0.00000000D+00 0.00000000D+00 0.00000000D+00 0.00000000D+00
  <mgrwgt>
 0.1151444609D-02    5    2    0
 0.627416446619892D+03 0.000000000000000D+00 0.000000000000000D+00 0.627416446619892D+03
 0.627416446619892D+03 0.000000000000000D+00 0.000000000000000D+00 -.627416446619892D+03
 0.594204261878359D+03 -.474324588017117D+03 -.345077788100052D+03 -.504875652255364D+02
 0.164317600679975D+03 0.130546340684449D+03 0.936258450302296D+02 0.345272062220322D+02
 0.282834478800980D+03 0.273053509124726D+03 0.733716736507524D+02 -.732946512257649D+01
 0.213476551880468D+03 0.707247382079420D+02 0.178080269419070D+03 0.232898241260806D+02
 0.000000000000000D+00 -.000000000000000D+00 -.000000000000000D+00 -.000000000000000D+00
 0.128874752370096D+04 0.000000000000000D+00 0.000000000000000D+00 0.128874752370096D+04
 0.413768749129571D+04 0.000000000000000D+00 0.000000000000000D+00 -.413768749129571D+04
 0.216660127845318D+03 -.109080332593257D+03 -.161328490486090D+03 -.504875652255364D+02
 0.490958012411778D+03 0.425707475436797D+03 0.242117300784255D+03 0.345272062220322D+02
 0.850126321248978D+03 0.783382275664447D+03 0.330110968003382D+03 -.732946512257649D+01
 0.552696699189714D+03 0.415838399825478D+03 0.351702145677229D+03 0.232898241260806D+02
 0.331599385430088D+04 -.151584781833347D+04 -.762601923978776D+03 -.284893996759475D+04
0.265653208818D-03 0.000000000000D+00 0.000000000000D+00 0.116073011818D-04 0.000000000000D+00  7 1 -2 -24 -13 13 23 21 0 0.21435556D+00 0.43466066D-01 0.38915541D+06 0.38915541D+06 0.38915541D+06 0.10762892D+01  1  2  2  2  7  2       -2 0.113878073512D-02 0.100000000000D+01
-.147579196657D-04 0.000000000000D+00 -.102017826996D-05 0.116073011818D-04 0.000000000000D+00  7 1 -2 -24 -13 13 23 21 2 0.21435556D+00 0.43466066D-01 0.38915541D+06 0.38915541D+06 0.38915541D+06 0.10762892D+01  1  2  3  2  7  2       -2 -.732838291085D-04 0.100000000000D+01
0.170272207353D-04 0.000000000000D+00 0.000000000000D+00 0.116073011818D-04 0.000000000000D+00  7 1 -2 -24 -13 13 23 21 2 0.21435556D+00 0.43466066D-01 0.38915541D+06 0.38915541D+06 0.38915541D+06 0.10762892D+01  1  2 15  2  7  2       -2 0.845525631537D-04 0.100000000000D+01
0.180491825088D-03 0.000000000000D+00 -.181880217606D-03 0.116073011818D-04 0.000000000000D+00  7 1 -2 -24 -13 13 23 21 2 0.21435556D+00 0.41951715D+00 0.38915541D+06 0.38915541D+06 0.38915541D+06 0.10762892D+01  1  2  5  2  7  2       -2 0.743301880064D-06 0.100000000000D+01
0.209576568659D-04 0.000000000000D+00 -.492532141469D-04 0.116073011818D-04 0.000000000000D+00  7 1 21 -24 -13 13 23 2 2 0.21435556D+00 0.41951715D+00 0.38915541D+06 0.38915541D+06 0.38915541D+06 0.10762892D+01  1  2  5  4  7  2       -2 0.651837464405D-06 0.100000000000D+01
  </mgrwgt>
  </event>
  <event>
  8     66 0.29493621E-05 0.26409751E+03 0.75467711E-02 0.95957033E-01
        1 -1    0    0  501    0 0.00000000E+00 0.00000000E+00 0.13855317E+04 0.13855317E+04 0.32000000E+00 0.0000E+00 0.9000E+01
       -2 -1    0    0    0  501 0.00000000E+00 0.00000000E+00 -.89863075E+02 0.89863645E+02 0.32000000E+00 0.0000E+00 0.9000E+01
       25  2    1    2    0    0 0.27581117E+03 -.58712823E+02 0.72012705E+03 0.82945860E+03 0.29983264E+03 0.0000E+00 0.0000E+00
       23  2    3    3    0    0 0.13284441E+02 0.11721189E+02 0.34190941E+03 0.35485871E+03 0.93320906E+02 0.0000E+00 0.0000E+00
      -24  1    1    2    0    0 -.27581117E+03 0.58712823E+02 0.57554157E+03 0.64593677E+03 0.80419002E+02 0.0000E+00 0.9000E+01
      -13  1    4    4    0    0 -.15490433E+02 -.22615036E+02 0.33841962E+02 0.43550924E+02 0.10565837E+00 0.0000E+00 0.9000E+01
       13  1    4    4    0    0 0.28774874E+02 0.34336225E+02 0.30806745E+03 0.31130778E+03 0.10565837E+00 0.0000E+00 0.9000E+01
       23  1    3    3    0    0 0.26252673E+03 -.70434011E+02 0.37821763E+03 0.47459990E+03 0.91188000E+02 0.0000E+00 0.9000E+01
#aMCatNLO 1  0  0  2  1 0.22008479D+03 0.00000000D+00  -5  7  0 0.00000000D+00 0.00000000D+00 0.00000000D+00 0.00000000D+00 0.00000000D+00
  <mgrwgt>
 0.7149048237D-03    7    2    0
 0.352857741310749D+03 0.000000000000000D+00 0.000000000000000D+00 0.352857741310749D+03
 0.352857741310749D+03 0.000000000000000D+00 0.000000000000000D+00 -.352857741310749D+03
 0.293745818580837D+03 -.275811168719154D+03 0.587128227398382D+02 0.173318676157507D+02
 0.289164849411130D+02 -.154904900712142D+02 -.226151080838024D+02 -.920677495441074D+01
 0.852309253926063D+02 0.287749292312485D+02 0.343362972911796D+02 0.725074670592512D+02
 0.297822253706943D+03 0.262526729559120D+03 -.704340119472155D+02 -.806325597205911D+02
 0.000000000000000D+00 0.000000000000000D+00 0.000000000000000D+00 -.000000000000000D+00
 0.409296091745716D+03 0.000000000000000D+00 0.000000000000000D+00 0.409296091745716D+03
 0.674812580486436D+03 0.000000000000000D+00 0.000000000000000D+00 -.674812580486436D+03
 0.351201257233979D+03 -.341115023436770D+03 -.146715465796709D+02 0.173318676157507D+02
 0.387701820197555D+02 -.223440760960020D+02 -.303167374926768D+02 -.920677495441074D+01
 0.753144486351751D+02 0.125189724647962D+02 0.160688743320029D+02 0.725074670592512D+02
 0.273951326461232D+03 0.204632027480659D+03 -.135492440999225D+03 -.806325597205911D+02
 0.344871457882010D+03 0.146308099587316D+03 0.164411850739570D+03 -.265516488740720D+03
0.278886773288D-04 0.000000000000D+00 0.000000000000D+00 0.104464052159D-05 0.000000000000D+00  7 1 -2 -24 -13 13 23 21 0 0.21315877D+00 0.13825135D-01 0.10632305D+06 0.10632305D+06 0.10632305D+06 0.11195435D+01  1  2  2  2  7  2       -2 0.911814215409D-03 0.100000000000D+01
-.153763008937D-05 0.000000000000D+00 -.107099864200D-06 0.104464052159D-05 0.000000000000D+00  7 1 -2 -24 -13 13 23 21 2 0.21315877D+00 0.13825135D-01 0.10632305D+06 0.10632305D+06 0.10632305D+06 0.11195435D+01  1  2  3  2  7  2       -2 -.630104010527D-04 0.100000000000D+01
0.178617792512D-05 0.000000000000D+00 0.000000000000D+00 0.104464052159D-05 0.000000000000D+00  7 1 -2 -24 -13 13 23 21 2 0.21315877D+00 0.13825135D-01 0.10632305D+06 0.10632305D+06 0.10632305D+06 0.11195435D+01  1  2 15  2  7  2       -2 0.731956197992D-04 0.100000000000D+01
0.569681356621D-05 0.000000000000D+00 0.000000000000D+00 0.104464052159D-05 0.000000000000D+00  7 1 -2 -24 -13 13 23 21 2 0.21315877D+00 0.26648514D-01 0.19833902D+06 0.19833902D+06 0.19833902D+06 0.10981037D+01  1  2 12  2  7  2       -2 0.745742087048D-04 0.100000000000D+01
-.188870269572D-04 0.000000000000D+00 -.879750777327D-05 0.104464052159D-05 0.000000000000D+00  7 1 -2 -24 -13 13 23 21 2 0.21315877D+00 0.30531379D-01 0.10632305D+06 0.10632305D+06 0.10632305D+06 0.11195435D+01  1  2  5  2  7  2       -2 -.206918492007D-03 0.100000000000D+01
0.405567758595D-06 0.000000000000D+00 0.000000000000D+00 0.104464052159D-05 0.000000000000D+00  7 1 21 -24 -13 13 23 2 2 0.21315877D+00 0.26648514D-01 0.19833902D+06 0.19833902D+06 0.19833902D+06 0.10981037D+01  1  2 12  4  7  2       -2 0.633534288100D-04 0.100000000000D+01
-.106776542956D-05 0.000000000000D+00 -.755685048992D-06 0.104464052159D-05 0.000000000000D+00  7 1 21 -24 -13 13 23 2 2 0.21315877D+00 0.30531379D-01 0.10632305D+06 0.10632305D+06 0.10632305D+06 0.11195435D+01  1  2  5  4  7  2       -2 -.138103755989D-03 0.100000000000D+01
  </mgrwgt>
  </event>
  <event>
  9     66 0.29493621E-05 0.21944834E+03 0.75467711E-02 0.10449546E+00
       21 -1    0    0  501  502 0.00000000E+00 0.00000000E+00 0.23990890E+04 0.23990891E+04 0.75000000E+00 0.0000E+00 0.9000E+01
       -4 -1    0    0    0  501 0.00000000E+00 0.00000000E+00 -.29997941E+02 0.30037958E+02 0.15500000E+01 0.0000E+00 0.9000E+01
       25  2    1    2    0    0 -.23463903E+02 0.88626240E+02 0.14706188E+04 0.15037502E+04 0.30023319E+03 0.0000E+00 0.0000E+00
       23  2    3    3    0    0 0.73761996E+02 0.12320464E+03 0.95734197E+03 0.97232113E+03 0.91019373E+02 0.0000E+00 0.0000E+00
      -24  1    1    2    0    0 0.17735879E+02 -.10353972E+03 0.89967329E+03 0.90934827E+03 0.80419002E+02 0.0000E+00 0.9000E+01
      -13  1    4    4    0    0 0.70246516E+02 0.30452385E+02 0.47475447E+03 0.48088849E+03 0.10565837E+00 0.0000E+00 0.9000E+01
       13  1    4    4    0    0 0.35154800E+01 0.92752251E+02 0.48258750E+03 0.49143264E+03 0.10565837E+00 0.0000E+00 0.9000E+01
       23  1    3    3    0    0 -.97225899E+02 -.34578396E+02 0.51327680E+03 0.53142908E+03 0.91188000E+02 0.0000E+00 0.9000E+01
       -3  1    1    2    0  502 0.57280238E+01 0.14913479E+02 -.12010355E+01 0.16028556E+02 0.50000000E+00 0.0000E+00 0.9000E+01
#aMCatNLO 2  0  0  1  1 0.15975673D+02 0.00000000D+00  -5  7  0 0.00000000D+00 0.00000000D+00 0.00000000D+00 0.00000000D+00 0.00000000D+00
  <mgrwgt>
 0.7562481676D-05    1    2    0
 0.226110937867074D+03 0.000000000000000D+00 0.000000000000000D+00 0.226110937867074D+03
 0.226110937867074D+03 0.000000000000000D+00 0.000000000000000D+00 -.226110937867074D+03
 0.133597998644672D+03 0.194472145484408D+02 -.990840964320235D+02 0.344290134631778D+02
 0.795650280580965D+02 0.712417926231691D+02 0.330433775354922D+02 0.127802924367944D+02
 0.959826592193352D+02 0.471075111924202D+01 0.958645772858771D+02 -.680085662026950D+00
 0.143076189812044D+03 -.953997582908519D+02 -.298238583893458D+02 -.465292202379453D+02
 0.000000000000000D+00 0.000000000000000D+00 0.000000000000000D+00 -.000000000000000D+00
 0.226952642601937D+03 0.000000000000000D+00 0.000000000000000D+00 0.226952642601937D+03
 0.317317491234703D+03 0.000000000000000D+00 0.000000000000000D+00 -.317317491234703D+03
 0.136702630266875D+03 0.177358801739043D+02 -.103539725486986D+03 0.344290134631778D+02
 0.776225718161881D+02 0.702466024010858D+02 0.304523009260888D+02 0.127802924367944D+02
 0.928214210176229D+02 0.351538981407844D+01 0.927523353758717D+02 -.680085662026950D+00
 0.145357351477574D+03 -.972258962320245D+02 -.345783899350952D+02 -.465292202379453D+02
 0.917661592583805D+02 0.572802384295598D+01 0.149134791201210D+02 -.903648486327660D+02
0.494340140668D-06 0.000000000000D+00 0.000000000000D+00 0.917816525409D-06 0.224242017512D-10  7 21 -4 -24 -13 13 23 -3 2 0.36909259D+00 0.46181413D-02 0.51838863D+05 0.51838863D+05 0.51838863D+05 0.11459183D+01  1  2  1  3  7  1        3 0.756248167596D-05 0.100000000000D+01
  </mgrwgt>
  </event>
  <event>
  8     66 0.29493621E-05 0.61268477E+03 0.75467711E-02 0.91139295E-01
        1 -1    0    0  501    0 0.00000000E+00 0.00000000E+00 0.14075715E+04 0.14075716E+04 0.32000000E+00 0.0000E+00 0.9000E+01
       -2 -1    0    0    0  501 0.00000000E+00 0.00000000E+00 -.31831825E+03 0.31831841E+03 0.32000000E+00 0.0000E+00 0.9000E+01
       25  2    1    2    0    0 -.54104020E+03 -.24534237E+03 0.85168427E+03 0.10810461E+04 0.30062801E+03 0.0000E+00 0.0000E+00
       23  2    3    3    0    0 -.13845881E+03 -.32249758E+02 0.95917692E+02 0.19392795E+03 0.90537054E+02 0.0000E+00 0.0000E+00
      -24  1    1    2    0    0 0.54104020E+03 0.24534237E+03 0.23756900E+03 0.64484387E+03 0.80419002E+02 0.0000E+00 0.9000E+01
      -13  1    4    4    0    0 -.80469135E+02 0.20405351E+02 0.77265554E+02 0.11340916E+03 0.10565837E+00 0.0000E+00 0.9000E+01
       13  1    4    4    0    0 -.57989674E+02 -.52655109E+02 0.18652138E+02 0.80518795E+02 0.10565837E+00 0.0000E+00 0.9000E+01
       23  1    3    3    0    0 -.40258139E+03 -.21309261E+03 0.75576658E+03 0.88711815E+03 0.91188000E+02 0.0000E+00 0.9000E+01
#aMCatNLO 1  0  0  2  1 0.14057753D+03 0.00000000D+00  -5  7  0 0.00000000D+00 0.00000000D+00 0.00000000D+00 0.00000000D+00 0.00000000D+00
  <mgrwgt>
 0.1183092311D-02    4    2    0
 0.669369762126780D+03 0.000000000000000D+00 0.000000000000000D+00 0.669369762126780D+03
 0.669369762126780D+03 0.000000000000000D+00 0.000000000000000D+00 -.669369762126780D+03
 0.638030587378233D+03 0.541040200365681D+03 0.245342366003178D+03 -.218399724148336D+03
 0.833395587650794D+02 -.804691657281291D+02 0.204054509407931D+02 0.733573405187857D+01
 0.886279110376801D+02 -.579896436792745D+02 -.526552087486676D+02 -.414672983504829D+02
 0.528741467072567D+03 -.402581390958277D+03 -.213092608195303D+03 0.252531288446940D+03
 0.000000000000000D+00 0.000000000000000D+00 0.000000000000000D+00 0.000000000000000D+00
 0.130656802019463D+04 0.000000000000000D+00 0.000000000000000D+00 0.130656802019463D+04
 0.680848596199446D+03 0.000000000000000D+00 0.000000000000000D+00 -.680848596199446D+03
 0.579530326971010D+03 0.480451017400914D+03 0.225514000219750D+03 -.218399724148336D+03
 0.911620784722418D+02 -.891528475888223D+02 0.175636364145786D+02 0.733573405187857D+01
 0.966222445135393D+02 -.672082014012456D+02 -.556720663057860D+02 -.414672983504829D+02
 0.578785478022647D+03 -.457694980696536D+03 -.231129035879160D+03 0.252531288446940D+03
 0.641316488414641D+03 0.133605012285690D+03 0.437234655506168D+02 0.625719423995188D+03
0.359379203349D-03 0.000000000000D+00 0.000000000000D+00 0.672423366999D-05 0.000000000000D+00  7 1 -2 -24 -13 13 23 21 0 0.21654948D+00 0.48972054D-01 0.37538263D+06 0.37538263D+06 0.37538263D+06 0.10774219D+01  1  2  2  2  7  2       -2 0.119563943286D-02 0.100000000000D+01
-.197754421891D-04 0.000000000000D+00 -.138011076758D-05 0.672423366999D-05 0.000000000000D+00  7 1 -2 -24 -13 13 23 21 2 0.21654948D+00 0.48972054D-01 0.37538263D+06 0.37538263D+06 0.37538263D+06 0.10774219D+01  1  2  3  2  7  2       -2 -.763739242740D-04 0.100000000000D+01
0.225973161012D-04 0.000000000000D+00 0.000000000000D+00 0.672423366999D-05 0.000000000000D+00  7 1 -2 -24 -13 13 23 21 2 0.21654948D+00 0.48972054D-01 0.37538263D+06 0.37538263D+06 0.37538263D+06 0.10774219D+01  1  2 15  2  7  2       -2 0.872721677829D-04 0.100000000000D+01
-.607069059619D-05 0.000000000000D+00 0.000000000000D+00 0.672423366999D-05 0.000000000000D+00  7 1 -2 -24 -13 13 23 21 2 0.21654948D+00 0.48972054D-01 0.37538263D+06 0.37538263D+06 0.37538263D+06 0.10774219D+01  1  2  4  2  7  2       -2 -.234453651883D-04 0.100000000000D+01
  </mgrwgt>
  </event>
  <event>
  8     66 0.29493621E-05 0.24493773E+03 0.75467711E-02 0.10281810E+00
        1 -1    0    0  501    0 0.00000000E+00 0.00000000E+00 0.92181334E+03 0.92181340E+03 0.32000000E+00 0.0000E+00 0.9000E+01
       -2 -1    0    0    0  501 0.00000000E+00 0.00000000E+00 -.10612222E+03 0.10612270E+03 0.32000000E+00 0.0000E+00 0.9000E+01
       25  2    1    2    0    0 -.14502653E+03 0.26131948E+02 0.79074589E+03 0.85821558E+03 0.29923127E+03 0.0000E+00 0.0000E+00
       23  2    3    3    0    0 -.13806805E+03 -.65375040E+02 0.37036762E+03 0.41838028E+03 0.12055375E+03 0.0000E+00 0.0000E+00
      -24  1    1    2    0    0 0.14502653E+03 -.26131948E+02 0.24945243E+02 0.16972052E+03 0.80419002E+02 0.0000E+00 0.9000E+01
      -13  1    4    4    0    0 -.12148271E+03 0.37483052E+01 0.26142797E+03 0.28829966E+03 0.10565837E+00 0.0000E+00 0.9000E+01
       13  1    4    4    0    0 -.16585332E+02 -.69123346E+02 0.10893965E+03 0.13008062E+03 0.10565837E+00 0.0000E+00 0.9000E+01
       23  1    3    3    0    0 -.69584838E+01 0.91506988E+02 0.42037827E+03 0.43983530E+03 0.91188000E+02 0.0000E+00 0.9000E+01
#aMCatNLO 1  0  0  1  1 0.25331655D+02 0.00000000D+00  -5  7  0 0.00000000D+00 0.00000000D+00 0.00000000D+00 0.00000000D+00 0.00000000D+00
  <mgrwgt>
 0.1069732301D-02    4    2    0
 0.312770124828771D+03 0.000000000000000D+00 0.000000000000000D+00 0.312770124828771D+03
 0.312770124828771D+03 0.000000000000000D+00 0.000000000000000D+00 -.312770124828771D+03
 0.246369811790459D+03 0.145026530299665D+03 -.261319480331058D+02 -.180319979504577D+03
 0.132859517384676D+03 -.121482581229077D+03 0.374788922193143D+01 0.536617847633664D+02
 0.717034519323491D+02 -.165855517050764D+02 -.691232696356130D+02 0.939564199697251D+01
 0.174607468550059D+03 -.695839736551213D+01 0.915073284467874D+02 0.117262552744238D+03
 0.000000000000000D+00 0.000000000000000D+00 -.000000000000000D+00 -.000000000000000D+00
 0.315133622260923D+03 0.000000000000000D+00 0.000000000000000D+00 0.315133622260923D+03
 0.389159362692555D+03 0.000000000000000D+00 0.000000000000000D+00 -.389159362692555D+03
 0.241839259561069D+03 0.138382013499012D+03 -.188184707695329D+02 -.180319979504577D+03
 0.136388851808399D+03 -.125147046757543D+03 0.778128790683578D+01 0.536617847633664D+02
 0.701420524413425D+02 -.185160665033759D+02 -.669983933642541D+02 0.939564199697251D+01
 0.177682786587453D+03 -.117530614885848D+02 0.967847125068458D+02 0.117262552744238D+03
 0.782400345552148D+02 0.170341612504918D+02 -.187491362798945D+02 -.740257404316322D+02
0.212984940410D-04 0.000000000000D+00 0.000000000000D+00 0.272634268889D-08 0.000000000000D+00  7 1 -2 -24 -13 13 23 21 0 0.14181748D+00 0.16326536D-01 0.59994492D+05 0.59994492D+05 0.59994492D+05 0.11403985D+01  1  2  2  1  7  1        1 0.115299331120D-02 0.100000000000D+01
-.109727126079D-05 0.000000000000D+00 -.817918251398D-07 0.272634268889D-08 0.000000000000D+00  7 1 -2 -24 -13 13 23 21 2 0.14181748D+00 0.16326536D-01 0.59994492D+05 0.59994492D+05 0.59994492D+05 0.11403985D+01  1  2  3  1  7  1        1 -.772511935224D-04 0.100000000000D+01
0.134120956311D-05 0.000000000000D+00 0.000000000000D+00 0.272634268889D-08 0.000000000000D+00  7 1 -2 -24 -13 13 23 21 2 0.14181748D+00 0.16326536D-01 0.59994492D+05 0.59994492D+05 0.59994492D+05 0.11403985D+01  1  2 15  1  7  1        1 0.944251829211D-04 0.100000000000D+01
-.142657264032D-05 0.000000000000D+00 0.000000000000D+00 0.272634268889D-08 0.000000000000D+00  7 1 -2 -24 -13 13 23 21 2 0.14181748D+00 0.16326536D-01 0.59994492D+05 0.59994492D+05 0.59994492D+05 0.11403985D+01  1  2  4  1  7  1        1 -.100435000031D-03 0.100000000000D+01
  </mgrwgt>
  </event>
  <event>
  8     66 0.29493621E-05 0.22420056E+03 0.75467711E-02 0.96583261E-01
        1 -1    0    0  501    0 0.00000000E+00 0.00000000E+00 0.15390397E+03 0.15390430E+03 0.32000000E+00 0.0000E+00 0.9000E+01
       -2 -1    0    0    0  501 0.00000000E+00 0.00000000E+00 -.11974390E+04 0.11974390E+04 0.32000000E+00 0.0000E+00 0.9000E+01
       25  2    1    2    0    0 -.21210550E+03 0.30239434E+03 -.50333804E+03 0.69201711E+03 0.29850865E+03 0.0000E+00 0.0000E+00
       23  2    3    3    0    0 -.61273507E+02 0.23712291E+03 -.17855123E+03 0.31676736E+03 0.92083108E+02 0.0000E+00 0.0000E+00
      -24  1    1    2    0    0 0.21210550E+03 -.30239434E+03 -.54019699E+03 0.65932623E+03 0.80419002E+02 0.0000E+00 0.9000E+01
      -13  1    4    4    0    0 -.30286777E+02 0.21647484E+03 -.12580344E+03 0.25220064E+03 0.10565837E+00 0.0000E+00 0.9000E+01
       13  1    4    4    0    0 -.30986730E+02 0.20648068E+02 -.52747792E+02 0.64566717E+02 0.10565837E+00 0.0000E+00 0.9000E+01
       23  1    3    3    0    0 -.15083200E+03 0.65271428E+02 -.32478681E+03 0.37524975E+03 0.91188000E+02 0.0000E+00 0.9000E+01
#aMCatNLO 1  0  0  1  2 0.21727856D+02 0.00000000D+00  -5  7  0 0.00000000D+00 0.00000000D+00 0.00000000D+00 0.00000000D+00 0.00000000D+00
  <mgrwgt>
 0.1405617635D-02    6    2    0
 0.429291123075051D+03 0.000000000000000D+00 0.000000000000000D+00 0.429291123075051D+03
 0.429291123075051D+03 0.000000000000000D+00 0.000000000000000D+00 -.429291123075051D+03
 0.381165159427594D+03 0.212105503073288D+03 -.302394341538746D+03 -.488731069041902D+02
 0.244041381723011D+03 -.302867762710539D+02 0.216475102632259D+03 0.108523901131210D+03
 0.375123065850532D+02 -.309867309254888D+02 0.206478104468372D+02 -.454572058466702D+01
 0.195863398414443D+03 -.150831995876746D+03 0.652714284596501D+02 -.551050736423526D+02
 0.000000000000000D+00 0.000000000000000D+00 -.000000000000000D+00 -.000000000000000D+00
 0.439372521548359D+03 0.000000000000000D+00 0.000000000000000D+00 0.439372521548359D+03
 0.441297578686005D+03 0.000000000000000D+00 0.000000000000000D+00 -.441297578686005D+03
 0.372043655990750D+03 0.207854135927215D+03 -.293866200179734D+03 -.488731069041902D+02
 0.249364292915888D+03 -.330717259847411D+02 0.222061645506590D+03 0.108523901131210D+03
 0.383418128730381D+02 -.314148774165510D+02 0.215066621227070D+02 -.454572058466702D+01
 0.199107370194831D+03 -.153061345447478D+03 0.697434506644176D+02 -.551050736423526D+02
 0.218129682598570D+02 0.969381292155539D+01 -.194455581139809D+02 -.192505713764635D+01
0.215853105548D-03 0.000000000000D+00 0.000000000000D+00 0.787071022707D-06 0.000000000000D+00  7 1 -2 -24 -13 13 23 21 0 0.23677563D-01 0.18422141D+00 0.16883477D+06 0.16883477D+06 0.16883477D+06 0.11035207D+01  1  2  2  1  7  1        1 0.839289231879D-03 0.100000000000D+01
-.119638710469D-04 0.000000000000D+00 -.828932760732D-06 0.787071022707D-06 0.000000000000D+00  7 1 -2 -24 -13 13 23 21 2 0.23677563D-01 0.18422141D+00 0.16883477D+06 0.16883477D+06 0.16883477D+06 0.11035207D+01  1  2  3  1  7  1        1 -.566481907669D-04 0.100000000000D+01
0.140425961161D-04 0.000000000000D+00 0.000000000000D+00 0.787071022707D-06 0.000000000000D+00  7 1 -2 -24 -13 13 23 21 2 0.23677563D-01 0.18422141D+00 0.16883477D+06 0.16883477D+06 0.16883477D+06 0.11035207D+01  1  2 15  1  7  1        1 0.664908256305D-04 0.100000000000D+01
0.353805091334D-03 0.000000000000D+00 0.000000000000D+00 0.787071022707D-06 0.000000000000D+00  7 1 -2 -24 -13 13 23 21 2 0.24556342D-01 0.18422141D+00 0.17827805D+06 0.17827805D+06 0.17827805D+06 0.11016810D+01  1  2 12  1  7  1        1 0.158909547811D-02 0.100000000000D+01
-.250196026959D-03 0.000000000000D+00 0.000000000000D+00 0.787071022707D-06 0.000000000000D+00  7 1 -2 -24 -13 13 23 21 2 0.23677563D-01 0.18422141D+00 0.16883477D+06 0.16883477D+06 0.16883477D+06 0.11035207D+01  1  2  4  1  7  1        1 -.118466274074D-02 0.100000000000D+01
0.466953342695D-05 0.000000000000D+00 0.000000000000D+00 0.787071022707D-06 0.000000000000D+00  7 21 -2 -24 -13 13 23 -1 2 0.24556342D-01 0.18422141D+00 0.17827805D+06 0.17827805D+06 0.17827805D+06 0.11016810D+01  1  2 12  3  7  1        1 0.152053031300D-03 0.100000000000D+01
  </mgrwgt>
  </event>
  <event>
  9     66 0.29493621E-05 0.30243503E+03 0.75467711E-02 0.96747711E-01
        1 -1    0    0  501    0 0.00000000E+00 0.00000000E+00 0.13048070E+04 0.13048070E+04 0.32000000E+00 0.0000E+00 0.9000E+01
       -2 -1    0    0    0  502 0.00000000E+00 0.00000000E+00 -.21709100E+03 0.21709124E+03 0.32000000E+00 0.0000E+00 0.9000E+01
       25  2    1    2    0    0 0.15034149E+03 -.29571256E+03 0.22282917E+03 0.49648717E+03 0.29461532E+03 0.0000E+00 0.0000E+00
       23  2    3    3    0    0 0.34834303E+01 0.58688993E+01 0.29308015E+02 0.98637504E+02 0.93935186E+02 0.0000E+00 0.0000E+00
      -24  1    1    2    0    0 0.11568347E+02 0.16124092E+03 0.77636256E+03 0.79708124E+03 0.80419002E+02 0.0000E+00 0.9000E+01
      -11  1    4    4    0    0 -.29319929E+01 0.49748366E+02 0.15838677E+02 0.52291110E+02 0.51099893E-03 0.0000E+00 0.9000E+01
       11  1    4    4    0    0 0.64154232E+01 -.43879466E+02 0.13469338E+02 0.46346395E+02 0.51099893E-03 0.0000E+00 0.9000E+01
       23  1    3    3    0    0 0.14685806E+03 -.30158146E+03 0.19352115E+03 0.39784966E+03 0.91188000E+02 0.0000E+00 0.9000E+01
       21  1    1    2  501  502 -.16190984E+03 0.13447164E+03 0.88524276E+02 0.22832987E+03 0.75000000E+00 0.0000E+00 0.9000E+01
#aMCatNLO 2  0  0  2  1 0.21046952D+03 0.00000000D+00  -5  7  0 0.00000000D+00 0.00000000D+00 0.00000000D+00 0.00000000D+00 0.00000000D+00
  <mgrwgt>
 0.4844359304D-03    2    2    0
 0.397063503380972D+03 0.000000000000000D+00 0.000000000000000D+00 0.397063503380972D+03
 0.397063503380972D+03 0.000000000000000D+00 0.000000000000000D+00 -.397063503380972D+03
 0.346485339488682D+03 -.543005908510428D+02 0.215947318791371D+03 0.252988291954909D+03
 0.742711364397412D+02 -.166954151913799D+02 0.611793571372291D+02 -.386594242056639D+02
 0.498088042156698D+02 -.424734120811890D+01 -.350236770158319D+02 -.351599078262078D+02
 0.323561726617850D+03 0.752433472505416D+02 -.242102998912768D+03 -.179168959923037D+03
 0.000000000000000D+00 -.000000000000000D+00 0.000000000000000D+00 -.000000000000000D+00
 0.467539416655310D+03 0.000000000000000D+00 0.000000000000000D+00 0.467539416655310D+03
 0.605855723760959D+03 0.000000000000000D+00 0.000000000000000D+00 -.605855723760959D+03
 0.310809833770849D+03 0.115683470473430D+02 0.161240920037756D+03 0.252988291954909D+03
 0.630717650485214D+02 -.293199288591526D+01 0.497483656428968D+02 -.386594242056639D+02
 0.565931474778280D+02 0.641542315330252D+01 -.438794663694060D+02 -.351599078262078D+02
 0.391069605414062D+03 0.146858062746504D+03 -.301581461865863D+03 -.179168959923037D+03
 0.251850788705009D+03 -.161909840061234D+03 0.134471642554616D+03 -.138316307105649D+03
-.133968253030D-04 0.000000000000D+00 0.000000000000D+00 0.198982804696D-07 0.000000000000D+00  7 1 -2 -24 -11 11 23 21 2 0.17048031D+00 0.34516998D-01 0.17339551D+06 0.17339551D+06 0.17339551D+06 0.11026185D+01  1  2 13  2  7  2       -2 -.175422611607D-03 0.100000000000D+01
0.653383102619D-04 0.000000000000D+00 0.000000000000D+00 0.198982804696D-07 0.308928213547D-11  7 1 -2 -24 -11 11 23 21 2 0.20073934D+00 0.33398599D-01 0.17339551D+06 0.17339551D+06 0.17339551D+06 0.11026185D+01  1  2  1  2  7  2       -2 0.659858541997D-03 0.100000000000D+01
  </mgrwgt>
  </event>
  <event>
  8     66 0.29493621E-05 0.28909376E+03 0.75467711E-02 0.10090266E+00
        1 -1    0    0  501    0 0.00000000E+00 0.00000000E+00 0.47715453E+03 0.47715463E+03 0.32000000E+00 0.0000E+00 0.9000E+01
       -2 -1    0    0    0  501 0.00000000E+00 0.00000000E+00 -.19345185E+03 0.19345212E+03 0.32000000E+00 0.0000E+00 0.9000E+01
       25  2    1    2    0    0 -.15002762E+03 -.16031201E+03 0.14949725E+03 0.40100234E+03 0.30040842E+03 0.0000E+00 0.0000E+00
       23  2    3    3    0    0 -.16587141E+02 0.40397699E+02 -.51340069E+01 0.10047476E+03 0.90342193E+02 0.0000E+00 0.0000E+00
      -24  1    1    2    0    0 0.15002762E+03 0.16031201E+03 0.13420543E+03 0.26960441E+03 0.80419002E+02 0.0000E+00 0.9000E+01
      -13  1    4    4    0    0 -.45556768E+02 0.34390530E+02 -.27525852E+02 0.63370430E+02 0.10565837E+00 0.0000E+00 0.9000E+01
       13  1    4    4    0    0 0.28969627E+02 0.60071689E+01 0.22391845E+02 0.37104329E+02 0.10565837E+00 0.0000E+00 0.9000E+01
       23  1    3    3    0    0 -.13344048E+03 -.20070971E+03 0.15463125E+03 0.30052758E+03 0.91188000E+02 0.0000E+00 0.9000E+01
#aMCatNLO 1  0  0  1  1 0.16988305D+02 0.00000000D+00  -5  7  0 0.00000000D+00 0.00000000D+00 0.00000000D+00 0.00000000D+00 0.00000000D+00
  <mgrwgt>
 0.5142839616D-03    4    2    0
 0.303819932412034D+03 0.000000000000000D+00 0.000000000000000D+00 0.303819932412034D+03
 0.303819932412034D+03 0.000000000000000D+00 0.000000000000000D+00 -.303819932412034D+03
 0.234882715262380D+03 0.150027622866361D+03 0.160312008133988D+03 0.222361507409619D+02
 0.827889048237814D+02 -.455568698682988D+02 0.343905688895713D+02 -.599655162670653D+02
 0.304946147613984D+02 0.289697284297248D+02 0.600712996194349D+01 0.738855559459457D+01
 0.259473629976508D+03 -.133440481427787D+03 -.200709706985503D+03 0.303408099315089D+02
 0.000000000000000D+00 0.000000000000000D+00 0.000000000000000D+00 -.000000000000000D+00
 0.305971940720758D+03 0.000000000000000D+00 0.000000000000000D+00 0.305971940720758D+03
 0.339423278353298D+03 0.000000000000000D+00 0.000000000000000D+00 -.339423278353298D+03
 0.228859078311558D+03 0.146025882946073D+03 0.155213584718897D+03 0.222361507409619D+02
 0.828513157864984D+02 -.469862193304490D+02 0.325695038250408D+02 -.599655162670653D+02
 0.298743473409463D+02 0.284487900779547D+02 0.534342758662968D+01 0.738855559459457D+01
 0.266292555253227D+03 -.137977444801212D+03 -.206490032733113D+03 0.303408099315089D+02
 0.375179223818259D+02 0.104889911076330D+02 0.133635166025446D+02 -.334513376325405D+02
0.123493065658D-04 0.000000000000D+00 0.000000000000D+00 0.121508983481D-05 0.000000000000D+00  7 1 -2 -24 -13 13 23 21 0 0.73408417D-01 0.29761852D-01 0.83575205D+05 0.83575205D+05 0.83575205D+05 0.11281731D+01  1  2  2  1  7  1        1 0.649013173982D-03 0.100000000000D+01
-.684013442904D-06 0.000000000000D+00 -.474245888598D-07 0.121508983481D-05 0.000000000000D+00  7 1 -2 -24 -13 13 23 21 2 0.73408417D-01 0.29761852D-01 0.83575205D+05 0.83575205D+05 0.83575205D+05 0.11281731D+01  1  2  3  1  7  1        1 -.457537909851D-04 0.100000000000D+01
0.808662239725D-06 0.000000000000D+00 0.000000000000D+00 0.121508983481D-05 0.000000000000D+00  7 1 -2 -24 -13 13 23 21 2 0.73408417D-01 0.29761852D-01 0.83575205D+05 0.83575205D+05 0.83575205D+05 0.11281731D+01  1  2 15  1  7  1        1 0.540915730207D-04 0.100000000000D+01
-.213883364156D-05 0.000000000000D+00 0.000000000000D+00 0.121508983481D-05 0.000000000000D+00  7 1 -2 -24 -13 13 23 21 2 0.73408417D-01 0.29761852D-01 0.83575205D+05 0.83575205D+05 0.83575205D+05 0.11281731D+01  1  2  4  1  7  1        1 -.143066994374D-03 0.100000000000D+01
  </mgrwgt>
  </event>
  <event>
  8     66 0.29493621E-05 0.53466757E+03 0.75467711E-02 0.89038348E-01
        1 -1    0    0  501    0 0.00000000E+00 0.00000000E+00 0.90239683E+03 0.90239689E+03 0.32000000E+00 0.0000E+00 0.9000E+01
       -2 -1    0    0    0  501 0.00000000E+00 0.00000000E+00 -.67769916E+03 0.67769924E+03 0.32000000E+00 0.0000E+00 0.9000E+01
       25  2    1    2    0    0 -.49504819E+03 -.48800369E+02 0.68473840E+03 0.89777737E+03 0.29947178E+03 0.0000E+00 0.0000E+00
       23  2    3    3    0    0 -.43238265E+03 0.12035713E+02 0.45762920E+03 0.63792772E+03 0.10211604E+03 0.0000E+00 0.0000E+00
      -24  1    1    2    0    0 0.49504819E+03 0.48800369E+02 -.46004073E+03 0.68231875E+03 0.80419002E+02 0.0000E+00 0.9000E+01
      -13  1    4    4    0    0 -.43980046E+02 0.24913549E+02 0.88645670E+02 0.10204409E+03 0.10565837E+00 0.0000E+00 0.9000E+01
       13  1    4    4    0    0 -.38840260E+03 -.12877835E+02 0.36898352E+03 0.53588364E+03 0.10565837E+00 0.0000E+00 0.9000E+01
       23  1    3    3    0    0 -.62665543E+02 -.60836082E+02 0.22710920E+03 0.25984965E+03 0.91188000E+02 0.0000E+00 0.9000E+01
#aMCatNLO 1  0  0  2  2 0.51896025D+03 0.00000000D+00  -5  7  0 0.00000000D+00 0.00000000D+00 0.00000000D+00 0.00000000D+00 0.00000000D+00
  <mgrwgt>
 0.1733542791D-02    3    2    0
 0.782018977193653D+03 0.000000000000000D+00 0.000000000000000D+00 0.782018977193653D+03
 0.782018977193653D+03 0.000000000000000D+00 0.000000000000000D+00 -.782018977193653D+03
 0.755415999471057D+03 0.495048193447201D+03 0.488003691914260D+02 -.562789415708868D+03
 0.903560692821068D+02 -.439796780437444D+02 0.249135884603003D+02 0.748953956215753D+02
 0.488375993837734D+03 -.388402972486457D+03 -.128778745112253D+02 0.295784385437690D+03
 0.229889891796408D+03 -.626655429170002D+02 -.608360831405010D+02 0.192109634649602D+03
 0.000000000000000D+00 -.000000000000000D+00 -.000000000000000D+00 0.000000000000000D+00
 0.126471413432648D+04 0.000000000000000D+00 0.000000000000000D+00 0.126471413432648D+04
 0.976699127174495D+03 0.000000000000000D+00 0.000000000000000D+00 -.976699127174495D+03
 0.943560554095304D+03 0.727376739381216D+03 0.195013988891795D+03 -.562789415708868D+03
 0.872527024677514D+02 -.196923577748722D+02 0.401985677341882D+02 0.748953956215753D+02
 0.403209785059958D+03 -.266482027107939D+03 0.638518388755535D+02 0.295784385437690D+03
 0.213864836559885D+03 -.198378096216443D+01 -.226466302278460D+02 0.192109634649602D+03
 0.593525383318076D+03 -.439218573536241D+03 -.276417765273690D+03 0.288015007151985D+03
0.113060240327D-02 0.000000000000D+00 0.000000000000D+00 0.343408699340D-06 0.000000000000D+00  7 1 -2 -24 -13 13 23 21 0 0.13883029D+00 0.10426142D+00 0.28586941D+06 0.28586941D+06 0.28586941D+06 0.10861055D+01  1  2  2  2  7  2       -2 0.169997691946D-02 0.100000000000D+01
-.517699405261D-04 0.000000000000D+00 -.434181092300D-05 0.343408699340D-06 0.000000000000D+00  7 1 -2 -24 -13 13 23 21 2 0.13883029D+00 0.10426142D+00 0.28586941D+06 0.28586941D+06 0.28586941D+06 0.10861055D+01  1  2  3  2  7  2       -2 -.918237075398D-04 0.100000000000D+01
0.706942818483D-04 0.000000000000D+00 0.000000000000D+00 0.343408699340D-06 0.000000000000D+00  7 1 -2 -24 -13 13 23 21 2 0.13883029D+00 0.10426142D+00 0.28586941D+06 0.28586941D+06 0.28586941D+06 0.10861055D+01  1  2 15  2  7  2       -2 0.125389579266D-03 0.100000000000D+01
  </mgrwgt>
  </event>
  <event>
  8     66 0.29493621E-05 0.86120611E+02 0.75467711E-02 0.10545769E+00
        3 -1    0    0  501    0 0.00000000E+00 0.00000000E+00 0.97217425E+02 0.97218711E+02 0.50000000E+00 0.0000E+00 0.9000E+01
       -4 -1    0    0    0  501 0.00000000E+00 0.00000000E+00 -.54688121E+03 0.54688341E+03 0.15500000E+01 0.0000E+00 0.9000E+01
       25  2    1    2    0    0 0.13923675E+02 -.77432212E+02 -.42942081E+03 0.52979284E+03 0.30014765E+03 0.0000E+00 0.0000E+00
       23  2    3    3    0    0 0.31787199E+02 0.51764663E+02 -.32304242E+03 0.33837040E+03 0.80300176E+02 0.0000E+00 0.0000E+00
      -24  1    1    2    0    0 -.13923675E+02 0.77432212E+02 -.20242978E+02 0.11430928E+03 0.80419002E+02 0.0000E+00 0.9000E+01
      -11  1    4    4    0    0 -.17489027E+02 -.82448640E+01 -.10848715E+03 0.11019667E+03 0.51099893E-03 0.0000E+00 0.9000E+01
       11  1    4    4    0    0 0.49276226E+02 0.60009527E+02 -.21455527E+03 0.22817374E+03 0.51099893E-03 0.0000E+00 0.9000E+01
       23  1    3    3    0    0 -.17863524E+02 -.12919688E+03 -.10637839E+03 0.19142244E+03 0.91188000E+02 0.0000E+00 0.9000E+01
#aMCatNLO 1  0  0  1  2 0.50823601D+02 0.00000000D+00  -5  7  0 0.00000000D+00 0.00000000D+00 0.00000000D+00 0.00000000D+00 0.00000000D+00
  <mgrwgt>
 0.2939740004D-03    9    2    0
 0.230580798716362D+03 0.000000000000000D+00 0.000000000000000D+00 0.230580798716362D+03
 0.230580798716362D+03 0.000000000000000D+00 0.000000000000000D+00 -.230580798716362D+03
 0.139916923721163D+03 -.139236751302136D+02 0.774322123781379D+02 0.831860165311352D+02
 0.481288212431425D+02 -.174890266517941D+02 -.824486394215706D+01 -.440742509817526D+02
 0.109483209568316D+03 0.492762261047841D+02 0.600095268522462D+02 -.771834399675189D+02
 0.163632642900103D+03 -.178635243227764D+02 -.129196875288227D+03 0.380716744181364D+02
 0.000000000000000D+00 0.000000000000000D+00 -.000000000000000D+00 0.000000000000000D+00
 0.265351051279694D+03 0.000000000000000D+00 0.000000000000000D+00 0.265351051279694D+03
 0.251325934141238D+03 0.000000000000000D+00 0.000000000000000D+00 -.251325934141238D+03
 0.146022370862727D+03 -.279028462927557D+02 0.845980771675450D+02 0.831860165311352D+02
 0.497209276714061D+02 -.222727636693971D+02 -.579267187313951D+01 -.440742509817526D+02
 0.108330281969781D+03 0.386276299258191D+02 0.654681051562251D+02 -.771834399675189D+02
 0.159880142835467D+03 -.336796107814408D+02 -.121089389104493D+03 0.380716744181364D+02
 0.527232620815508D+02 0.452275908177745D+02 -.231841213461375D+02 0.140251171384561D+02
0.180237602842D-04 0.000000000000D+00 0.000000000000D+00 0.187907125711D-07 0.000000000000D+00  7 3 -4 -24 -11 11 23 21 0 0.14956795D-01 0.84135839D-01 0.33971682D+05 0.33971682D+05 0.33971682D+05 0.11623590D+01  1  2  2  1  7  1        3 0.226385520586D-03 0.100000000000D+01
-.940254575497D-06 0.000000000000D+00 -.692159852564D-07 0.187907125711D-07 0.000000000000D+00  7 3 -4 -24 -11 11 23 21 2 0.14956795D-01 0.84135839D-01 0.33971682D+05 0.33971682D+05 0.33971682D+05 0.11623590D+01  1  2  3  1  7  1        3 -.159561926215D-04 0.100000000000D+01
0.117120365979D-05 0.000000000000D+00 0.000000000000D+00 0.187907125711D-07 0.000000000000D+00  7 3 -4 -24 -11 11 23 21 2 0.14956795D-01 0.84135839D-01 0.33971682D+05 0.33971682D+05 0.33971682D+05 0.11623590D+01  1  2 15  1  7  1        3 0.198754163836D-04 0.100000000000D+01
0.182021295193D-04 0.000000000000D+00 0.000000000000D+00 0.187907125711D-07 0.000000000000D+00  7 3 -4 -24 -11 11 23 21 2 0.17802631D-01 0.84135839D-01 0.45186758D+05 0.45186758D+05 0.45186758D+05 0.11511822D+01  1  2 12  1  7  1        3 0.227759434918D-03 0.100000000000D+01
-.176395968205D-04 0.000000000000D+00 0.000000000000D+00 0.187907125711D-07 0.000000000000D+00  7 3 -4 -24 -11 11 23 21 2 0.14956795D-01 0.84135839D-01 0.33971682D+05 0.33971682D+05 0.33971682D+05 0.11623590D+01  1  2  4  1  7  1        3 -.299345317712D-03 0.100000000000D+01
-.395595535904D-04 0.000000000000D+00 -.125978274676D-04 0.187907125711D-07 0.000000000000D+00  7 3 -4 -24 -11 11 23 21 2 0.18710075D-01 0.84135839D-01 0.33971682D+05 0.33971682D+05 0.33971682D+05 0.11623590D+01  1  2  5  1  7  1        3 -.458662480823D-03 0.100000000000D+01
0.416413607378D-04 0.000000000000D+00 0.122885289435D-04 0.187907125711D-07 0.000000000000D+00  7 3 -4 -24 -11 11 23 21 2 0.14956795D-01 0.84135839D-01 0.33971682D+05 0.33971682D+05 0.33971682D+05 0.11623590D+01  1  2  6  1  7  1        3 0.706657101457D-03 0.100000000000D+01
0.467835681016D-06 0.000000000000D+00 0.000000000000D+00 0.187907125711D-07 0.000000000000D+00  7 21 -4 -24 -11 11 23 -3 2 0.17802631D-01 0.84135839D-01 0.45186758D+05 0.45186758D+05 0.45186758D+05 0.11511822D+01  1  2 12  3  7  1        3 0.101796674692D-03 0.100000000000D+01
-.105752697879D-05 0.000000000000D+00 -.392754636750D-06 0.187907125711D-07 0.000000000000D+00  7 21 -4 -24 -11 11 23 -3 2 0.18710075D-01 0.84135839D-01 0.33971682D+05 0.33971682D+05 0.33971682D+05 0.11623590D+01  1  2  5  3  7  1        3 -.214536156476D-03 0.100000000000D+01
  </mgrwgt>
  </event>
  <event>
  9     66 0.29493621E-05 0.21745002E+03 0.75467711E-02 0.10206930E+00
        1 -1    0    0  502    0 0.00000000E+00 0.00000000E+00 0.29941896E+03 0.29941913E+03 0.32000000E+00 0.0000E+00 0.9000E+01
       -2 -1    0    0    0  501 0.00000000E+00 0.00000000E+00 -.29071496E+03 0.29071513E+03 0.32000000E+00 0.0000E+00 0.9000E+01
       25  2    1    2    0    0 0.93381090E+02 -.52207203E+02 -.44564780E+02 0.32152671E+03 0.29991296E+03 0.0000E+00 0.0000E+00
       23  2    3    3    0    0 0.17055389E+03 -.27556827E+02 -.18231960E+02 0.19673908E+03 0.92335553E+02 0.0000E+00 0.0000E+00
      -24  1    1    2    0    0 -.88960459E+02 -.46005985E+02 0.97048664E+02 0.16098501E+03 0.80419002E+02 0.0000E+00 0.9000E+01
      -13  1    4    4    0    0 0.61267654E+02 -.55957347E+02 -.79526512E+01 0.83355899E+02 0.10565837E+00 0.0000E+00 0.9000E+01
       13  1    4    4    0    0 0.10928624E+03 0.28400520E+02 -.10279309E+02 0.11338318E+03 0.10565837E+00 0.0000E+00 0.9000E+01
       23  1    3    3    0    0 -.77172800E+02 -.24650375E+02 -.26332820E+02 0.12478762E+03 0.91188000E+02 0.0000E+00 0.9000E+01
       21  1    1    2  502  501 -.44206315E+01 0.98213188E+02 -.43779882E+02 0.10762255E+03 0.75000000E+00 0.0000E+00 0.9000E+01
#aMCatNLO 2  0  0  1  2 0.98312625D+02 0.00000000D+00  -5  7  0 0.00000000D+00 0.00000000D+00 0.00000000D+00 0.00000000D+00 0.00000000D+00
  <mgrwgt>
 0.9713994982D-04    1    2    0
 0.234732626900378D+03 0.000000000000000D+00 0.000000000000000D+00 0.234732626900378D+03
 0.234732626900378D+03 0.000000000000000D+00 0.000000000000000D+00 -.234732626900378D+03
 0.145822356870734D+03 -.903444738136739D+02 -.152573602485950D+02 0.800127041071607D+02
 0.742780474242724D+02 0.605270192799986D+02 -.395041563285160D+02 -.171210367388573D+02
 0.122595725299346D+03 0.108178804086188D+03 0.530058664154733D+02 -.227472269452802D+02
 0.126769124206404D+03 -.783613495525123D+02 0.175565016163767D+01 -.401444404230233D+02
 0.000000000000000D+00 -.000000000000000D+00 0.000000000000000D+00 -.000000000000000D+00
 0.268442214555191D+03 0.000000000000000D+00 0.000000000000000D+00 0.268442214555191D+03
 0.324259378996130D+03 0.000000000000000D+00 0.000000000000000D+00 -.324259378996130D+03
 0.151326676779554D+03 -.889604606530407D+02 -.460059862695255D+02 0.800127041071607D+02
 0.847235759062380D+02 0.612675915663971D+02 -.559574538286002D+02 -.171210367388573D+02
 0.115184752964906D+03 0.109286299901391D+03 0.284006273830279D+02 -.227472269452802D+02
 0.128413820895797D+03 -.771727993154409D+02 -.246503752912391D+02 -.401444404230233D+02
 0.113052767004827D+03 -.442063149930627D+01 0.982131880063370D+02 -.558171644409390D+02
0.162591136803D-05 0.000000000000D+00 0.000000000000D+00 0.822016088569D-06 0.614445661471D-09  7 1 -2 -24 -13 13 23 21 2 0.46064279D-01 0.44725208D-01 0.74154271D+05 0.74154271D+05 0.74154271D+05 0.11325373D+01  1  2  1  1  7  1        1 0.971399498183D-04 0.100000000000D+01
  </mgrwgt>
  </event>
  <event>
  8     66 0.29493621E-05 0.14838877E+03 0.75467711E-02 0.10468878E+00
        1 -1    0    0  501    0 0.00000000E+00 0.00000000E+00 0.17345988E+04 0.17345988E+04 0.32000000E+00 0.0000E+00 0.9000E+01
       -2 -1    0    0    0  501 0.00000000E+00 0.00000000E+00 -.32849711E+02 0.32851269E+02 0.32000000E+00 0.0000E+00 0.9000E+01
       25  2    1    2    0    0 -.73234937E+02 0.88991808E+02 0.93520857E+03 0.98813342E+03 0.29750579E+03 0.0000E+00 0.0000E+00
       23  2    3    3    0    0 -.10973547E+03 -.12049376E+02 0.24624806E+03 0.28490982E+03 0.91369769E+02 0.0000E+00 0.0000E+00
      -24  1    1    2    0    0 0.73234937E+02 -.88991808E+02 0.76654052E+03 0.77931667E+03 0.80419002E+02 0.0000E+00 0.9000E+01
      -11  1    4    4    0    0 -.44219257E+02 -.43644885E+02 0.66527979E+02 0.91028516E+02 0.51099893E-03 0.0000E+00 0.9000E+01
       11  1    4    4    0    0 -.65516209E+02 0.31595509E+02 0.17972008E+03 0.19388130E+03 0.51099893E-03 0.0000E+00 0.9000E+01
       23  1    3    3    0    0 0.36500530E+02 0.10104118E+03 0.68896050E+03 0.70322360E+03 0.91188000E+02 0.0000E+00 0.9000E+01
#aMCatNLO 1  0  0  1  2 0.33962283D+02 0.00000000D+00  -5  7  0 0.00000000D+00 0.00000000D+00 0.00000000D+00 0.00000000D+00 0.00000000D+00
  <mgrwgt>
 0.1666042203D-02    9    2    0
 0.238710016451509D+03 0.000000000000000D+00 0.000000000000000D+00 0.238710016451509D+03
 0.238710016451509D+03 0.000000000000000D+00 0.000000000000000D+00 -.238710016451509D+03
 0.152787273607126D+03 0.732349367329754D+02 -.889918079882592D+02 0.599486211236442D+02
 0.998584651662206D+02 -.442192572627961D+02 -.436448852425933D+02 -.781760471285214D+02
 0.771585412697593D+02 -.655162090802582D+02 0.315955093865269D+02 -.257447203370889D+02
 0.147615752859911D+03 0.365005296100790D+02 0.101041183844326D+03 0.439721463419662D+02
 0.000000000000000D+00 -.000000000000000D+00 -.000000000000000D+00 0.000000000000000D+00
 0.340638292974126D+03 0.000000000000000D+00 0.000000000000000D+00 0.340638292974126D+03
 0.242159131357948D+03 0.000000000000000D+00 0.000000000000000D+00 -.242159131357948D+03
 0.149025871750190D+03 0.769297032102130D+02 -.789270428047049D+02 0.599486211236442D+02
 0.961122007147930D+02 -.418202038817319D+02 -.371097201402845D+02 -.781760471285214D+02
 0.778573480861733D+02 -.636185199959959D+02 0.367649281149265D+02 -.257447203370889D+02
 0.155631077319838D+03 0.402128471141765D+02 0.111153759076272D+03 0.439721463419662D+02
 0.104170926461080D+03 -.117038264466618D+02 -.318819242462094D+02 0.984791616161772D+02
0.141678493941D-04 0.000000000000D+00 0.000000000000D+00 0.653648493497D-07 0.000000000000D+00  7 1 -2 -24 -11 11 23 21 0 0.26686147D+00 0.50539238D-02 0.43329958D+05 0.43329958D+05 0.43329958D+05 0.11528054D+01  1  2  2  1  7  1        1 0.127978651479D-02 0.100000000000D+01
-.769153951075D-06 0.000000000000D+00 -.544082721537D-07 0.653648493497D-07 0.000000000000D+00  7 1 -2 -24 -11 11 23 21 2 0.26686147D+00 0.50539238D-02 0.43329958D+05 0.43329958D+05 0.43329958D+05 0.11528054D+01  1  2  3  1  7  1        1 -.923334041867D-04 0.100000000000D+01
0.917734302237D-06 0.000000000000D+00 0.000000000000D+00 0.653648493497D-07 0.000000000000D+00  7 1 -2 -24 -11 11 23 21 2 0.26686147D+00 0.50539238D-02 0.43329958D+05 0.43329958D+05 0.43329958D+05 0.11528054D+01  1  2 15  1  7  1        1 0.110169793896D-03 0.100000000000D+01
0.674319881477D-04 0.000000000000D+00 0.000000000000D+00 0.653648493497D-07 0.000000000000D+00  7 1 -2 -24 -11 11 23 21 2 0.38210701D+00 0.50539238D-02 0.50417640D+05 0.50417640D+05 0.50417640D+05 0.11469778D+01  1  2 12  1  7  1        1 0.258258388718D-02 0.100000000000D+01
-.648156883380D-04 0.000000000000D+00 0.000000000000D+00 0.653648493497D-07 0.000000000000D+00  7 1 -2 -24 -11 11 23 21 2 0.26686147D+00 0.50539238D-02 0.43329958D+05 0.43329958D+05 0.43329958D+05 0.11528054D+01  1  2  4  1  7  1        1 -.778082611497D-02 0.100000000000D+01
-.720714785650D-04 0.000000000000D+00 -.508873902744D-05 0.653648493497D-07 0.000000000000D+00  7 1 -2 -24 -11 11 23 21 2 0.38227500D+00 0.50539238D-02 0.43329958D+05 0.43329958D+05 0.43329958D+05 0.11528054D+01  1  2  5  1  7  1        1 -.279443702257D-02 0.100000000000D+01
0.696641774065D-04 0.000000000000D+00 0.477687486211D-05 0.653648493497D-07 0.000000000000D+00  7 1 -2 -24 -11 11 23 21 2 0.26686147D+00 0.50539238D-02 0.43329958D+05 0.43329958D+05 0.43329958D+05 0.11528054D+01  1  2  6  1  7  1        1 0.836286499059D-02 0.100000000000D+01
0.296670267159D-05 0.000000000000D+00 0.000000000000D+00 0.653648493497D-07 0.000000000000D+00  7 21 -2 -24 -11 11 23 -1 2 0.38210701D+00 0.50539238D-02 0.50417640D+05 0.50417640D+05 0.50417640D+05 0.11469778D+01  1  2 12  3  7  1        1 0.431129347934D-04 0.100000000000D+01
-.302407667679D-05 0.000000000000D+00 -.224079641151D-06 0.653648493497D-07 0.000000000000D+00  7 21 -2 -24 -11 11 23 -1 2 0.38227500D+00 0.50539238D-02 0.43329958D+05 0.43329958D+05 0.43329958D+05 0.11528054D+01  1  2  5  3  7  1        1 -.448793760989D-04 0.100000000000D+01
  </mgrwgt>
  </event>
  <event>
  8     66 0.29493621E-05 0.52684470E+03 0.75467711E-02 0.93528792E-01
        1 -1    0    0  501    0 0.00000000E+00 0.00000000E+00 0.70357079E+03 0.70357086E+03 0.32000000E+00 0.0000E+00 0.9000E+01
       -2 -1    0    0    0  501 0.00000000E+00 0.00000000E+00 -.47955073E+03 0.47955084E+03 0.32000000E+00 0.0000E+00 0.9000E+01
       25  2    1    2    0    0 -.42389761E+03 -.22735972E+03 -.12834479E+03 0.58144917E+03 0.30038163E+03 0.0000E+00 0.0000E+00
       23  2    3    3    0    0 -.10119171E+02 -.15752686E+02 -.20224144E+02 0.95655531E+02 0.91599235E+02 0.0000E+00 0.0000E+00
      -24  1    1    2    0    0 0.42389761E+03 0.22735972E+03 0.35236484E+03 0.60167253E+03 0.80419002E+02 0.0000E+00 0.9000E+01
      -13  1    4    4    0    0 0.37280395E+02 0.97826035E+01 -.12277241E+01 0.38562231E+02 0.10565837E+00 0.0000E+00 0.9000E+01
       13  1    4    4    0    0 -.47399566E+02 -.25535290E+02 -.18996420E+02 0.57093301E+02 0.10565837E+00 0.0000E+00 0.9000E+01
       23  1    3    3    0    0 -.41377844E+03 -.21160704E+03 -.10812065E+03 0.48579364E+03 0.91188000E+02 0.0000E+00 0.9000E+01
#aMCatNLO 1  0  0  1  2 0.48228166D+02 0.00000000D+00  -5  7  0 0.00000000D+00 0.00000000D+00 0.00000000D+00 0.00000000D+00 0.00000000D+00
  <mgrwgt>
 0.1373523853D-02    4    2    0
 0.580859699567547D+03 0.000000000000000D+00 0.000000000000000D+00 0.580859699567547D+03
 0.580859699567547D+03 0.000000000000000D+00 0.000000000000000D+00 -.580859699567547D+03
 0.544808864272561D+03 0.423897609913225D+03 0.227359724173971D+03 0.242832977103560D+03
 0.395093788911847D+02 0.372805072440092D+02 0.978265052824877D+01 -.868645777280496D+01
 0.618083302691370D+02 -.473996781370822D+02 -.255353368680283D+02 -.303560006291349D+02
 0.515592825702211D+03 -.413778439020152D+03 -.211607037834192D+03 -.203790518701620D+03
 0.000000000000000D+00 0.000000000000000D+00 -.000000000000000D+00 -.000000000000000D+00
 0.588045660921784D+03 0.000000000000000D+00 0.000000000000000D+00 0.588045660921784D+03
 0.668335904774568D+03 0.000000000000000D+00 0.000000000000000D+00 -.668335904774568D+03
 0.535356380193678D+03 0.404891732436143D+03 0.239236427191990D+03 0.242832977103560D+03
 0.384461371899429D+02 0.359088532356146D+02 0.106397920793727D+02 -.868645777280496D+01
 0.629685372626585D+02 -.495951698624759D+02 -.241633821538900D+02 -.303560006291349D+02
 0.525948996913517D+03 -.432104724159676D+03 -.200155009571455D+03 -.203790518701620D+03
 0.936615141365560D+02 0.408993083503952D+02 -.255578275460172D+02 -.802902438527846D+02
0.334810751620D-03 0.000000000000D+00 0.000000000000D+00 0.155557492738D-04 0.000000000000D+00  7 1 -2 -24 -13 13 23 21 0 0.10824167D+00 0.73777049D-01 0.27756533D+06 0.27756533D+06 0.27756533D+06 0.10870582D+01  1  2  2  1  7  1        1 0.167139887740D-02 0.100000000000D+01
-.183851512298D-04 0.000000000000D+00 -.128576144392D-05 0.155557492738D-04 0.000000000000D+00  7 1 -2 -24 -13 13 23 21 2 0.10824167D+00 0.73777049D-01 0.27756533D+06 0.27756533D+06 0.27756533D+06 0.10870582D+01  1  2  3  1  7  1        1 -.108455972445D-03 0.100000000000D+01
0.214887534698D-04 0.000000000000D+00 0.000000000000D+00 0.155557492738D-04 0.000000000000D+00  7 1 -2 -24 -13 13 23 21 2 0.10824167D+00 0.73777049D-01 0.27756533D+06 0.27756533D+06 0.27756533D+06 0.10870582D+01  1  2 15  1  7  1        1 0.126764453829D-03 0.100000000000D+01
-.535985380682D-04 0.000000000000D+00 0.000000000000D+00 0.155557492738D-04 0.000000000000D+00  7 1 -2 -24 -13 13 23 21 2 0.10824167D+00 0.73777049D-01 0.27756533D+06 0.27756533D+06 0.27756533D+06 0.10870582D+01  1  2  4  1  7  1        1 -.316183505654D-03 0.100000000000D+01
  </mgrwgt>
  </event>
  <event>
  8     66 0.29493621E-05 0.17819946E+03 0.75467711E-02 0.94764173E-01
        1 -1    0    0  501    0 0.00000000E+00 0.00000000E+00 0.10745099E+03 0.10745147E+03 0.32000000E+00 0.0000E+00 0.9000E+01
       -2 -1    0    0    0  501 0.00000000E+00 0.00000000E+00 -.11598670E+04 0.11598670E+04 0.32000000E+00 0.0000E+00 0.9000E+01
       25  2    1    2    0    0 0.18791055E+03 0.21132975E+03 -.59046100E+03 0.71974177E+03 0.29902070E+03 0.0000E+00 0.0000E+00
       23  2    3    3    0    0 0.51236605E+02 0.20752779E+02 -.39298207E+02 0.11385809E+03 0.91451895E+02 0.0000E+00 0.0000E+00
      -24  1    1    2    0    0 -.18791055E+03 -.21132975E+03 -.46195498E+03 0.54757671E+03 0.80419002E+02 0.0000E+00 0.9000E+01
      -13  1    4    4    0    0 0.60502872E+02 0.93477701E+01 -.61795482E+02 0.86986614E+02 0.10565837E+00 0.0000E+00 0.9000E+01
       13  1    4    4    0    0 -.92662671E+01 0.11405009E+02 0.22497275E+02 0.26871480E+02 0.10565837E+00 0.0000E+00 0.9000E+01
       23  1    3    3    0    0 0.13667395E+03 0.19057697E+03 -.55116279E+03 0.60588367E+03 0.91188000E+02 0.0000E+00 0.9000E+01
#aMCatNLO 1  0  0  1  2 0.28653943D+03 0.00000000D+00  -5  7  0 0.00000000D+00 0.00000000D+00 0.00000000D+00 0.00000000D+00 0.00000000D+00
  <mgrwgt>
 0.5755724572D-03    7    2    0
 0.353028587785287D+03 0.000000000000000D+00 0.000000000000000D+00 0.353028587785287D+03
 0.353028587785287D+03 0.000000000000000D+00 0.000000000000000D+00 -.353028587785287D+03
 0.294289602033105D+03 -.187910551164848D+03 -.211329747864959D+03 -.129813843132622D+02
 0.640248071915079D+02 0.605029650751609D+02 0.934776732517946D+01 0.187399679577615D+02
 0.817656608163762D+02 -.926636001971940D+01 0.114050114939699D+02 0.804343432468124D+02
 0.265977105529584D+03 0.136673946109407D+03 0.190576969045810D+03 -.861929268913117D+02
 0.000000000000000D+00 -.000000000000000D+00 -.000000000000000D+00 0.000000000000000D+00
 0.101007338566037D+04 0.000000000000000D+00 0.000000000000000D+00 0.101007338566037D+04
 0.413621541379108D+03 0.000000000000000D+00 0.000000000000000D+00 -.413621541379108D+03
 0.210785007684754D+03 -.153882172425912D+03 -.118805993876929D+03 -.129813843132622D+02
 0.811321957388826D+02 0.702826241142155D+02 0.359388304480588D+02 0.187399679577615D+02
 0.912884391215218D+02 0.239280942121151D+01 0.431064961087249D+02 0.804343432468124D+02
 0.378779645418840D+03 0.180113126170379D+03 0.308688855604902D+03 -.861929268913117D+02
 0.661709639075478D+03 -.989063872798940D+02 -.268928188284758D+03 0.596451844281260D+03
0.128495680363D-03 0.000000000000D+00 0.000000000000D+00 0.104185458744D-05 0.000000000000D+00  7 1 -2 -24 -13 13 23 21 0 0.16530962D-01 0.17844111D+00 0.96578860D+05 0.96578860D+05 0.96578860D+05 0.11229648D+01  1  2  2  1  7  1        1 0.892738362265D-03 0.100000000000D+01
-.699757077515D-05 0.000000000000D+00 -.493457246285D-06 0.104185458744D-05 0.000000000000D+00  7 1 -2 -24 -13 13 23 21 2 0.16530962D-01 0.17844111D+00 0.96578860D+05 0.96578860D+05 0.96578860D+05 0.11229648D+01  1  2  3  1  7  1        1 -.613077282657D-04 0.100000000000D+01
0.827182703714D-05 0.000000000000D+00 0.000000000000D+00 0.104185458744D-05 0.000000000000D+00  7 1 -2 -24 -13 13 23 21 2 0.16530962D-01 0.17844111D+00 0.96578860D+05 0.96578860D+05 0.96578860D+05 0.11229648D+01  1  2 15  1  7  1        1 0.724718535260D-04 0.100000000000D+01
0.157711334901D-05 0.000000000000D+00 0.000000000000D+00 0.104185458744D-05 0.000000000000D+00  7 1 -2 -24 -13 13 23 21 2 0.45912701D-01 0.17844111D+00 0.24397570D+06 0.24397570D+06 0.24397570D+06 0.10912569D+01  1  2 12  1  7  1        1 0.331961276189D-05 0.100000000000D+01
-.117912944271D-03 0.000000000000D+00 -.451218280396D-04 0.104185458744D-05 0.000000000000D+00  7 1 -2 -24 -13 13 23 21 2 0.53842985D-01 0.17844111D+00 0.96578860D+05 0.96578860D+05 0.96578860D+05 0.11229648D+01  1  2  5  1  7  1        1 -.221398054428D-03 0.100000000000D+01
0.180645092088D-06 0.000000000000D+00 0.000000000000D+00 0.104185458744D-05 0.000000000000D+00  7 21 -2 -24 -13 13 23 -1 2 0.45912701D-01 0.17844111D+00 0.24397570D+06 0.24397570D+06 0.24397570D+06 0.10912569D+01  1  2 12  3  7  1        1 0.176793147922D-05 0.100000000000D+01
-.142285433349D-04 0.000000000000D+00 -.615590753570D-05 0.104185458744D-05 0.000000000000D+00  7 21 -2 -24 -13 13 23 -1 2 0.53842985D-01 0.17844111D+00 0.96578860D+05 0.96578860D+05 0.96578860D+05 0.11229648D+01  1  2  5  3  7  1        1 -.112019520162D-03 0.100000000000D+01
  </mgrwgt>
  </event>
  <event>
  8     66 0.29493621E-05 0.33422990E+03 0.75467711E-02 0.99153088E-01
        3 -1    0    0  501    0 0.00000000E+00 0.00000000E+00 0.51252173E+03 0.51252198E+03 0.50000000E+00 0.0000E+00 0.9000E+01
       -4 -1    0    0    0  501 0.00000000E+00 0.00000000E+00 -.34873331E+03 0.34873675E+03 0.15500000E+01 0.0000E+00 0.9000E+01
       25  2    1    2    0    0 0.15140452E+02 -.30137206E+03 -.11676494E+03 0.44145907E+03 0.30032933E+03 0.0000E+00 0.0000E+00
       23  2    3    3    0    0 -.51801741E+02 -.12420538E+03 -.15873990E+03 0.22710786E+03 0.90935309E+02 0.0000E+00 0.0000E+00
      -24  1    1    2    0    0 -.15140452E+02 0.30137206E+03 0.28055336E+03 0.41979966E+03 0.80419002E+02 0.0000E+00 0.9000E+01
      -11  1    4    4    0    0 -.53264593E+02 -.54333898E+02 -.13184464E+03 0.15222450E+03 0.51099893E-03 0.0000E+00 0.9000E+01
       11  1    4    4    0    0 0.14628515E+01 -.69871479E+02 -.26895261E+02 0.74883366E+02 0.51099893E-03 0.0000E+00 0.9000E+01
       23  1    3    3    0    0 0.66942193E+02 -.17716668E+03 0.41974960E+02 0.21435120E+03 0.91188000E+02 0.0000E+00 0.9000E+01
#aMCatNLO 1  0  0  1  2 0.15125267D+02 0.00000000D+00  -5  7  0 0.00000000D+00 0.00000000D+00 0.00000000D+00 0.00000000D+00 0.00000000D+00
  <mgrwgt>
 0.2968358601D-04    4    2    0
 0.422770607864475D+03 0.000000000000000D+00 0.000000000000000D+00 0.422770607864475D+03
 0.422770607864475D+03 0.000000000000000D+00 0.000000000000000D+00 -.422770607864475D+03
 0.373257651440066D+03 -.151404520642367D+02 0.301372057761227D+03 0.204449768687172D+03
 0.180593563128603D+03 -.532645926878381D+02 -.543338975392718D+02 -.163782617476567D+03
 0.814851884304904D+02 0.146285148207516D+01 -.698714789374349D+02 -.419007449837053D+02
 0.210204812729789D+03 0.669421932699996D+02 -.177166681284520D+03 0.123359377310069D+01
 0.000000000000000D+00 0.000000000000000D+00 -.000000000000000D+00 -.000000000000000D+00
 0.427908123800963D+03 0.000000000000000D+00 0.000000000000000D+00 0.427908123800963D+03
 0.434119264294003D+03 0.000000000000000D+00 0.000000000000000D+00 -.434119264294003D+03
 0.378702362976826D+03 -.159398240179052D+02 0.308049473078435D+03 0.204449768687172D+03
 0.179770661212036D+03 -.536476782888282D+02 -.511338582482838D+02 -.163782617476567D+03
 0.802540955338135D+02 0.129091435120558D+01 -.684352318612190D+02 -.419007449837053D+02
 0.206949367585970D+03 0.664987370413348D+02 -.173462346399855D+03 0.123359377310069D+01
 0.163509007863200D+02 0.179785091419288D+01 -.150180365690769D+02 -.621114049304043D+01
0.536257522972D-04 0.000000000000D+00 0.000000000000D+00 0.785740869987D-05 0.000000000000D+00  7 3 -4 -24 -11 11 23 21 0 0.78849781D-01 0.53651562D-01 0.11170962D+06 0.11170962D+06 0.11170962D+06 0.11177969D+01  1  2  2  1  7  1        3 0.869036643598D-04 0.100000000000D+01
-.277916674769D-05 0.000000000000D+00 -.205937008806D-06 0.785740869987D-05 0.000000000000D+00  7 3 -4 -24 -11 11 23 21 2 0.78849781D-01 0.53651562D-01 0.11170962D+06 0.11170962D+06 0.11170962D+06 0.11177969D+01  1  2  3  1  7  1        3 -.562736506584D-05 0.100000000000D+01
0.344473209728D-05 0.000000000000D+00 0.000000000000D+00 0.785740869987D-05 0.000000000000D+00  7 3 -4 -24 -11 11 23 21 2 0.78849781D-01 0.53651562D-01 0.11170962D+06 0.11170962D+06 0.11170962D+06 0.11177969D+01  1  2 15  1  7  1        3 0.697502770624D-05 0.100000000000D+01
-.289246416998D-04 0.000000000000D+00 0.000000000000D+00 0.785740869987D-05 0.000000000000D+00  7 3 -4 -24 -11 11 23 21 2 0.78849781D-01 0.53651562D-01 0.11170962D+06 0.11170962D+06 0.11170962D+06 0.11177969D+01  1  2  4  1  7  1        3 -.585677409888D-04 0.100000000000D+01
  </mgrwgt>
  </event>
  <event>
  8     66 0.29493621E-05 0.27886832E+03 0.75467711E-02 0.96766562E-01
        1 -1    0    0  501    0 0.00000000E+00 0.00000000E+00 0.34724260E+03 0.34724275E+03 0.32000000E+00 0.0000E+00 0.9000E+01
       -2 -1    0    0    0  501 0.00000000E+00 0.00000000E+00 -.53836831E+03 0.53836841E+03 0.32000000E+00 0.0000E+00 0.9000E+01
       25  2    1    2    0    0 0.10883679E+03 0.34947975E+03 -.18381123E+02 0.47294973E+03 0.29893485E+03 0.0000E+00 0.0000E+00
       23  2    3    3    0    0 0.13707808E+03 0.12990954E+03 0.63916055E+02 0.21977642E+03 0.92463645E+02 0.0000E+00 0.0000E+00
      -24  1    1    2    0    0 -.10883679E+03 -.34947975E+03 -.17274459E+03 0.41266142E+03 0.80419002E+02 0.0000E+00 0.9000E+01
      -11  1    4    4    0    0 0.13730044E+03 0.14189636E+03 0.64654689E+02 0.20776481E+03 0.51099893E-03 0.0000E+00 0.9000E+01
       11  1    4    4    0    0 -.22235718E+00 -.11986820E+02 -.73863355E+00 0.12011615E+02 0.51099893E-03 0.0000E+00 0.9000E+01
       23  1    3    3    0    0 -.28241295E+02 0.21957021E+03 -.82297178E+02 0.25317331E+03 0.91188000E+02 0.0000E+00 0.9000E+01
#aMCatNLO 1  0  0  1  2 0.76696356D+01 0.00000000D+00  -5  7  0 0.00000000D+00 0.00000000D+00 0.00000000D+00 0.00000000D+00 0.00000000D+00
  <mgrwgt>
 0.1136793458D-02   11    2    0
 0.432370811342889D+03 0.000000000000000D+00 0.000000000000000D+00 0.432370811342889D+03
 0.432370811342889D+03 0.000000000000000D+00 0.000000000000000D+00 -.432370811342889D+03
 0.384440409044225D+03 -.108836786735201D+03 -.349479745539243D+03 -.857069044050868D+02
 0.227068989699456D+03 0.137300439405769D+03 0.141896359992458D+03 0.112135357684387D+03
 0.121382475524953D+02 -.222357183752599D+00 -.119868202850489D+02 0.189835465138417D+01
 0.241093976389601D+03 -.282412954868161D+02 0.219570205831835D+03 -.283268079306840D+02
 0.000000000000000D+00 -.000000000000000D+00 -.000000000000000D+00 0.000000000000000D+00
 0.436672261639630D+03 0.000000000000000D+00 0.000000000000000D+00 0.436672261639630D+03
 0.435820193667877D+03 0.000000000000000D+00 0.000000000000000D+00 -.435820193667877D+03
 0.381210038679145D+03 -.107748082824492D+03 -.346263707050462D+03 -.857069044050868D+02
 0.228660458956109D+03 0.137948456310157D+03 0.143810606175824D+03 0.112135357684387D+03
 0.120373917277447D+02 -.187981035855665D+00 -.118852729188228D+02 0.189835465138417D+01
 0.242867744726626D+03 -.275531341724990D+02 0.221603038865283D+03 -.283268079306840D+02
 0.771682121788212D+01 -.245925827731088D+01 -.726466507182164D+01 0.852067971753566D+00
0.488623793269D-04 0.000000000000D+00 0.000000000000D+00 0.891724101288D-06 0.000000000000D+00  7 1 -2 -24 -11 11 23 21 0 0.53421957D-01 0.82825913D-01 0.16959020D+06 0.16959020D+06 0.16959020D+06 0.11033694D+01  1  2  2  1  7  1        1 0.515923429625D-03 0.100000000000D+01
-.270674446251D-05 0.000000000000D+00 -.187644402375D-06 0.891724101288D-06 0.000000000000D+00  7 1 -2 -24 -11 11 23 21 2 0.53421957D-01 0.82825913D-01 0.16959020D+06 0.16959020D+06 0.16959020D+06 0.11033694D+01  1  2  3  1  7  1        1 -.347936345634D-04 0.100000000000D+01
0.318011800075D-05 0.000000000000D+00 0.000000000000D+00 0.891724101288D-06 0.000000000000D+00  7 1 -2 -24 -11 11 23 21 2 0.53421957D-01 0.82825913D-01 0.16959020D+06 0.16959020D+06 0.16959020D+06 0.11033694D+01  1  2 15  1  7  1        1 0.408785776120D-04 0.100000000000D+01
0.239308318275D-04 0.000000000000D+00 0.000000000000D+00 0.891724101288D-06 0.000000000000D+00  7 1 -2 -24 -11 11 23 21 2 0.54164616D-01 0.82825913D-01 0.17284550D+06 0.17284550D+06 0.17284550D+06 0.11027259D+01  1  2 12  1  7  1        1 0.301509829307D-03 0.100000000000D+01
-.245622428061D-04 0.000000000000D+00 0.000000000000D+00 0.891724101288D-06 0.000000000000D+00  7 1 -2 -24 -11 11 23 21 2 0.53421957D-01 0.82825913D-01 0.16959020D+06 0.16959020D+06 0.16959020D+06 0.11033694D+01  1  2  4  1  7  1        1 -.315733425186D-03 0.100000000000D+01
-.323665306551D-02 0.000000000000D+00 -.381511490438D-03 0.891724101288D-06 0.000000000000D+00  7 1 -2 -24 -11 11 23 21 2 0.54336732D-01 0.82825913D-01 0.16959020D+06 0.16959020D+06 0.16959020D+06 0.11033694D+01  1  2  5  1  7  1        1 -.406737885500D-01 0.100000000000D+01
0.324271818062D-02 0.000000000000D+00 0.381456507220D-03 0.891724101288D-06 0.000000000000D+00  7 1 -2 -24 -11 11 23 21 2 0.53421957D-01 0.82825913D-01 0.16959020D+06 0.16959020D+06 0.16959020D+06 0.11033694D+01  1  2  6  1  7  1        1 0.416832667181D-01 0.100000000000D+01
0.495837965078D-05 0.000000000000D+00 0.000000000000D+00 0.891724101288D-06 0.983272947358D-07  7 1 -2 -24 -11 11 23 21 2 0.53953426D-01 0.83486684D-01 0.17284550D+06 0.17284550D+06 0.17284550D+06 0.11027259D+01  1  2 11  1  7  1        1 0.616777958733D-04 0.100000000000D+01
0.137498001234D-05 0.000000000000D+00 0.000000000000D+00 0.891724101288D-06 0.000000000000D+00  7 21 -2 -24 -11 11 23 -1 2 0.54164616D-01 0.82825913D-01 0.17284550D+06 0.17284550D+06 0.17284550D+06 0.11027259D+01  1  2 12  3  7  1        1 0.709528948192D-04 0.100000000000D+01
-.100059965916D-04 0.000000000000D+00 -.118418785387D-05 0.891724101288D-06 0.000000000000D+00  7 21 -2 -24 -11 11 23 -1 2 0.54336732D-01 0.82825913D-01 0.16959020D+06 0.16959020D+06 0.16959020D+06 0.11033694D+01  1  2  5  3  7  1        1 -.513903474764D-03 0.100000000000D+01
0.157145358850D-07 0.000000000000D+00 0.000000000000D+00 0.891724101288D-06 0.181267787916D-09  7 21 -2 -24 -11 11 23 -1 2 0.53953426D-01 0.83486684D-01 0.17284550D+06 0.17284550D+06 0.17284550D+06 0.11027259D+01  1  2 11  3  7  1        1 0.803296945785D-06 0.100000000000D+01
  </mgrwgt>
  </event>
  <event>
  9     66 0.29493621E-05 0.30283946E+03 0.75467711E-02 0.96675139E-01
        1 -1    0    0  502    0 0.00000000E+00 0.00000000E+00 0.16115978E+04 0.16115978E+04 0.32000000E+00 0.0000E+00 0.9000E+01
       -2 -1    0    0    0  501 0.00000000E+00 0.00000000E+00 -.11557603E+03 0.11557647E+03 0.32000000E+00 0.0000E+00 0.9000E+01
       25  2    1    2    0    0 0.12061818E+03 -.44516119E+01 0.68533697E+03 0.75819235E+03 0.30099887E+03 0.0000E+00 0.0000E+00
       23  2    3    3    0    0 -.42698483E+02 0.58257426E+02 0.35490432E+03 0.37334726E+03 0.90631200E+02 0.0000E+00 0.0000E+00
      -24  1    1    2    0    0 -.31034085E+03 0.73185419E+02 0.49153979E+03 0.59139338E+03 0.80419002E+02 0.0000E+00 0.9000E+01
      -13  1    4    4    0    0 -.67981483E+02 0.44269183E+02 0.20099833E+03 0.21675235E+03 0.10565837E+00 0.0000E+00 0.9000E+01
       13  1    4    4    0    0 0.25283000E+02 0.13988243E+02 0.15390599E+03 0.15659491E+03 0.10565837E+00 0.0000E+00 0.9000E+01
       23  1    3    3    0    0 0.16331666E+03 -.62709038E+02 0.33043265E+03 0.38484509E+03 0.91188000E+02 0.0000E+00 0.9000E+01
       21  1    1    2  502  501 0.18972267E+03 -.68733807E+02 0.31914497E+03 0.37758853E+03 0.75000000E+00 0.0000E+00 0.9000E+01
#aMCatNLO 2  0  0  1  2 0.20178956D+03 0.00000000D+00  -5  7  0 0.00000000D+00 0.00000000D+00 0.00000000D+00 0.00000000D+00 0.00000000D+00
  <mgrwgt>
 0.1277453474D-03    1    2    0
 0.314493127121492D+03 0.000000000000000D+00 0.000000000000000D+00 0.314493127121492D+03
 0.314493127121492D+03 0.000000000000000D+00 0.000000000000000D+00 -.314493127121492D+03
 0.247613206541628D+03 -.224988821999461D+03 0.422636020709048D+02 -.493852408594228D+02
 0.636503701513488D+02 -.461500166987045D+02 0.363599505238499D+02 0.244846804556684D+02
 0.541270321299520D+02 0.399749400742483D+02 0.866556781930777D+01 0.354492271795323D+02
 0.263595645420056D+03 0.231163898623917D+03 -.872891204140624D+02 -.105486667757779D+02
 0.000000000000000D+00 0.000000000000000D+00 -.000000000000000D+00 -.000000000000000D+00
 0.421363622632352D+03 0.000000000000000D+00 0.000000000000000D+00 0.421363622632352D+03
 0.442045471663386D+03 0.000000000000000D+00 0.000000000000000D+00 -.442045471663386D+03
 0.332526187808529D+03 -.310340848074007D+03 0.731854194909427D+02 -.493852408594228D+02
 0.847393809744305D+02 -.679816075726013D+02 0.442692234261943D+02 0.244846804556684D+02
 0.457335105796605D+02 0.252831268166492D+02 0.139882014815010D+02 0.354492271795323D+02
 0.197563358997079D+03 0.163316660955093D+03 -.627090372908221D+02 -.105486667757779D+02
 0.202846655936039D+03 0.189722667874866D+03 -.687338071078160D+02 -.206818490310331D+02
0.691398428367D-05 0.000000000000D+00 0.000000000000D+00 0.732398492765D-06 0.136638616507D-09  7 1 -2 -24 -13 13 23 21 2 0.24793775D+00 0.17780936D-01 0.17553139D+06 0.17553139D+06 0.17553139D+06 0.11022049D+01  1  2  1  1  7  1        1 0.127745347360D-03 0.100000000000D+01
  </mgrwgt>
  </event>
  <event>
  8     66 0.29493621E-05 0.16291300E+03 0.75467711E-02 0.98718622E-01
        1 -1    0    0  501    0 0.00000000E+00 0.00000000E+00 0.18181960E+04 0.18181960E+04 0.32000000E+00 0.0000E+00 0.9000E+01
       -2 -1    0    0    0  501 0.00000000E+00 0.00000000E+00 -.94294778E+02 0.94295321E+02 0.32000000E+00 0.0000E+00 0.9000E+01
       25  2    1    2    0    0 -.28427377E+03 -.72352820E+02 0.14260160E+04 0.14867575E+04 0.30146243E+03 0.0000E+00 0.0000E+00
       23  2    3    3    0    0 -.31069194E+02 -.10162398E+03 0.65096582E+03 0.66579010E+03 0.90704127E+02 0.0000E+00 0.0000E+00
      -24  1    1    2    0    0 0.28427377E+03 0.72352820E+02 0.29788515E+03 0.42573382E+03 0.80419002E+02 0.0000E+00 0.9000E+01
      -11  1    4    4    0    0 0.95902846E+01 0.40464582E+01 0.21852518E+03 0.21877295E+03 0.51099893E-03 0.0000E+00 0.9000E+01
       11  1    4    4    0    0 -.40659479E+02 -.10567044E+03 0.43244063E+03 0.44701716E+03 0.51099893E-03 0.0000E+00 0.9000E+01
       23  1    3    3    0    0 -.25320458E+03 0.29271161E+02 0.77505021E+03 0.82096738E+03 0.91188000E+02 0.0000E+00 0.9000E+01
#aMCatNLO 1  0  0  1  2 0.93291498D+01 0.00000000D+00  -5  7  0 0.00000000D+00 0.00000000D+00 0.00000000D+00 0.00000000D+00 0.00000000D+00
  <mgrwgt>
 0.2243050010D-02   11    2    0
 0.414061506355666D+03 0.000000000000000D+00 0.000000000000000D+00 0.414061506355666D+03
 0.414061506355666D+03 0.000000000000000D+00 0.000000000000000D+00 -.414061506355666D+03
 0.363095418255895D+03 0.284273772959946D+03 0.723528202068921D+02 -.198304206257152D+03
 0.503373780568577D+02 0.959028461944848D+01 0.404645821920858D+01 0.492494085897200D+02
 0.132144020482775D+03 -.406594786197506D+02 -.105670439634049D+03 0.681366798080802D+02
 0.282546195915805D+03 -.253204578959644D+03 0.292711612079484D+02 0.809181178593518D+02
 0.000000000000000D+00 0.000000000000000D+00 0.000000000000000D+00 0.000000000000000D+00
 0.426538341936949D+03 0.000000000000000D+00 0.000000000000000D+00 0.426538341936949D+03
 0.415835352134501D+03 0.000000000000000D+00 0.000000000000000D+00 -.415835352134501D+03
 0.362250308023508D+03 0.284205932008403D+03 0.682678526153574D+02 -.198304206257152D+03
 0.502931993564578D+02 0.958087272953345D+01 0.347973171547721D+01 0.492494085897200D+02
 0.133350268602491D+03 -.406843100684630D+02 -.107165637754556D+03 0.681366798080802D+02
 0.282281783436553D+03 -.253257406826672D+03 0.260901898354671D+02 0.809181178593518D+02
 0.141981346524407D+02 0.154912157199338D+00 0.932786358825450D+01 0.107029898024480D+02
0.357121729433D-04 0.000000000000D+00 0.000000000000D+00 0.843163388547D-06 0.000000000000D+00  7 1 -2 -24 -11 11 23 21 0 0.27972250D+00 0.14506933D-01 0.12197694D+06 0.12197694D+06 0.12197694D+06 0.11147100D+01  1  2  2  1  7  1        1 0.558169980023D-03 0.100000000000D+01
-.191411382679D-05 0.000000000000D+00 -.137144147333D-06 0.843163388547D-06 0.000000000000D+00  7 1 -2 -24 -11 11 23 21 2 0.27972250D+00 0.14506933D-01 0.12197694D+06 0.12197694D+06 0.12197694D+06 0.11147100D+01  1  2  3  1  7  1        1 -.371742089560D-04 0.100000000000D+01
0.226975600998D-05 0.000000000000D+00 0.000000000000D+00 0.843163388547D-06 0.000000000000D+00  7 1 -2 -24 -11 11 23 21 2 0.27972250D+00 0.14506933D-01 0.12197694D+06 0.12197694D+06 0.12197694D+06 0.11147100D+01  1  2 15  1  7  1        1 0.440811737595D-04 0.100000000000D+01
0.983102638337D-04 0.000000000000D+00 0.000000000000D+00 0.843163388547D-06 0.000000000000D+00  7 1 -2 -24 -11 11 23 21 2 0.28873984D+00 0.14506933D-01 0.12522309D+06 0.12522309D+06 0.12522309D+06 0.11137930D+01  1  2 12  1  7  1        1 0.174331873003D-02 0.100000000000D+01
-.100119577945D-03 0.000000000000D+00 0.000000000000D+00 0.843163388547D-06 0.000000000000D+00  7 1 -2 -24 -11 11 23 21 2 0.27972250D+00 0.14506933D-01 0.12197694D+06 0.12197694D+06 0.12197694D+06 0.11147100D+01  1  2  4  1  7  1        1 -.194443301074D-02 0.100000000000D+01
-.114124085119D-02 0.000000000000D+00 -.115713037727D-03 0.843163388547D-06 0.000000000000D+00  7 1 -2 -24 -11 11 23 21 2 0.28863567D+00 0.14506933D-01 0.12197694D+06 0.12197694D+06 0.12197694D+06 0.11147100D+01  1  2  5  1  7  1        1 -.203086756309D-01 0.100000000000D+01
0.114436432932D-02 0.000000000000D+00 0.115656135986D-03 0.843163388547D-06 0.000000000000D+00  7 1 -2 -24 -11 11 23 21 2 0.27972250D+00 0.14506933D-01 0.12197694D+06 0.12197694D+06 0.12197694D+06 0.11147100D+01  1  2  6  1  7  1        1 0.222248217972D-01 0.100000000000D+01
0.166174091272D-07 0.000000000000D+00 0.000000000000D+00 0.843163388547D-06 0.641207347115D-07  7 1 -2 -24 -11 11 23 21 2 0.28815132D+00 0.14569081D-01 0.12522309D+06 0.12522309D+06 0.12522309D+06 0.11137930D+01  1  2 11  1  7  1        1 0.294362270242D-06 0.100000000000D+01
0.277812556989D-05 0.000000000000D+00 0.000000000000D+00 0.843163388547D-06 0.000000000000D+00  7 21 -2 -24 -11 11 23 -1 2 0.28873984D+00 0.14506933D-01 0.12522309D+06 0.12522309D+06 0.12522309D+06 0.11137930D+01  1  2 12  3  7  1        1 0.286489867094D-04 0.100000000000D+01
-.636611605085D-05 0.000000000000D+00 -.649636202597D-06 0.843163388547D-06 0.000000000000D+00  7 21 -2 -24 -11 11 23 -1 2 0.28863567D+00 0.14506933D-01 0.12197694D+06 0.12197694D+06 0.12197694D+06 0.11147100D+01  1  2  5  3  7  1        1 -.660031379314D-04 0.100000000000D+01
0.937597235818D-10 0.000000000000D+00 0.000000000000D+00 0.843163388547D-06 0.343045502919D-09  7 21 -2 -24 -11 11 23 -1 2 0.28815132D+00 0.14569081D-01 0.12522309D+06 0.12522309D+06 0.12522309D+06 0.11137930D+01  1  2 11  3  7  1        1 0.968884926179D-09 0.100000000000D+01
  </mgrwgt>
  </event>
  <event>
  8     66 0.29493621E-05 0.25319855E+03 0.75467711E-02 0.10053561E+00
        1 -1    0    0  501    0 0.00000000E+00 0.00000000E+00 0.12974738E+04 0.12974738E+04 0.32000000E+00 0.0000E+00 0.9000E+01
       -2 -1    0    0    0  501 0.00000000E+00 0.00000000E+00 -.13863792E+03 0.13863829E+03 0.32000000E+00 0.0000E+00 0.9000E+01
       25  2    1    2    0    0 0.94838114E+02 0.14055663E+03 0.94683936E+02 0.35553959E+03 0.29781357E+03 0.0000E+00 0.0000E+00
       23  2    3    3    0    0 0.73127816E+02 0.18224352E+03 0.12344801E+03 0.24899496E+03 0.90546685E+02 0.0000E+00 0.0000E+00
      -24  1    1    2    0    0 -.94838114E+02 -.14055663E+03 0.10641519E+04 0.10805725E+04 0.80419002E+02 0.0000E+00 0.9000E+01
      -11  1    4    4    0    0 -.30427393E+01 0.11350003E+03 0.61188817E+02 0.12897901E+03 0.51099893E-03 0.0000E+00 0.9000E+01
       11  1    4    4    0    0 0.76170556E+02 0.68743498E+02 0.62259192E+02 0.12001595E+03 0.51099893E-03 0.0000E+00 0.9000E+01
       23  1    3    3    0    0 0.21710298E+02 -.41686897E+02 -.28764072E+02 0.10654463E+03 0.91188000E+02 0.0000E+00 0.9000E+01
#aMCatNLO 1  0  0  2  1 0.10760234D+03 0.00000000D+00  -5  7  0 0.00000000D+00 0.00000000D+00 0.00000000D+00 0.00000000D+00 0.00000000D+00
  <mgrwgt>
 0.1808649046D-02    4    2    0
 0.424121866525939D+03 0.000000000000000D+00 0.000000000000000D+00 0.424121866525939D+03
 0.424121866525939D+03 0.000000000000000D+00 0.000000000000000D+00 -.424121866525939D+03
 0.375653660248491D+03 -.948381141916066D+02 -.140556625768121D+03 0.325419765154144D+03
 0.134773201470104D+03 -.304273925427754D+01 0.113500025383336D+03 -.726106177519092D+02
 0.118136066887483D+03 0.761705555203906D+02 0.687434977262988D+02 -.585534652408665D+02
 0.219680804445800D+03 0.217102979254935D+02 -.416868973415137D+02 -.194255682161368D+03
 0.000000000000000D+00 -.000000000000000D+00 -.000000000000000D+00 0.000000000000000D+00
 0.554423893593841D+03 0.000000000000000D+00 0.000000000000000D+00 0.554423893593841D+03
 0.450329906914238D+03 0.000000000000000D+00 0.000000000000000D+00 -.450329906914238D+03
 0.363073166641644D+03 -.492671914839381D+02 -.130497619407893D+03 0.325419765154144D+03
 0.138579703331224D+03 0.138199813660887D+02 0.117222184248960D+03 -.726106177519092D+02
 0.130397740970288D+03 0.915022241912150D+02 0.721277029060367D+02 -.585534652408665D+02
 0.222990729216745D+03 0.490180245588206D+02 -.356591809915488D+02 -.194255682161368D+03
 0.149712460348178D+03 -.105073038632186D+03 -.231930867555543D+02 0.104093986679603D+03
0.111880859156D-03 0.000000000000D+00 0.000000000000D+00 0.471548718823D-06 0.000000000000D+00  7 1 -2 -24 -11 11 23 21 0 0.19961138D+00 0.21328942D-01 0.64109504D+05 0.64109504D+05 0.64109504D+05 0.11379193D+01  1  2  2  2  7  2       -2 0.210148320897D-02 0.100000000000D+01
-.420462946929D-05 0.000000000000D+00 -.429651958066D-06 0.471548718823D-06 0.000000000000D+00  7 1 -2 -24 -11 11 23 21 2 0.19961138D+00 0.21328942D-01 0.64109504D+05 0.64109504D+05 0.64109504D+05 0.11379193D+01  1  2  3  2  7  2       -2 -.102263529979D-03 0.100000000000D+01
0.688699655831D-05 0.000000000000D+00 0.000000000000D+00 0.471548718823D-06 0.000000000000D+00  7 1 -2 -24 -11 11 23 21 2 0.19961138D+00 0.21328942D-01 0.64109504D+05 0.64109504D+05 0.64109504D+05 0.11379193D+01  1  2 15  2  7  2       -2 0.167503125817D-03 0.100000000000D+01
-.147224281894D-04 0.000000000000D+00 0.000000000000D+00 0.471548718823D-06 0.000000000000D+00  7 1 -2 -24 -11 11 23 21 2 0.19961138D+00 0.21328942D-01 0.64109504D+05 0.64109504D+05 0.64109504D+05 0.11379193D+01  1  2  4  2  7  2       -2 -.358073758346D-03 0.100000000000D+01
  </mgrwgt>
  </event>
  <event>
  9     66 0.29493621E-05 0.25875728E+03 0.75467711E-02 0.10252343E+00
        1 -1    0    0  501    0 0.00000000E+00 0.00000000E+00 0.57133638E+03 0.57133647E+03 0.32000000E+00 0.0000E+00 0.9000E+01
       21 -1    0    0  502  501 0.00000000E+00 0.00000000E+00 -.13535352E+03 0.13535560E+03 0.75000000E+00 0.0000E+00 0.9000E+01
       25  2    1    2    0    0 0.17869806E+03 -.14111724E+02 0.34231907E+03 0.48432978E+03 0.29199462E+03 0.0000E+00 0.0000E+00
       23  2    3    3    0    0 0.20136673E+03 0.47335861E+02 0.25820061E+03 0.34404136E+03 0.94380405E+02 0.0000E+00 0.0000E+00
      -24  1    1    2    0    0 -.17324330E+03 0.72988866E+01 0.82485323E+02 0.20817675E+03 0.80419002E+02 0.0000E+00 0.9000E+01
      -13  1    4    4    0    0 0.13489689E+03 0.58071080E+02 0.22569958E+03 0.26927631E+03 0.10565837E+00 0.0000E+00 0.9000E+01
       13  1    4    4    0    0 0.66469838E+02 -.10735219E+02 0.32501028E+02 0.74765047E+02 0.10565837E+00 0.0000E+00 0.9000E+01
       23  1    3    3    0    0 -.22668671E+02 -.61447585E+02 0.84118465E+02 0.14028842E+03 0.91188000E+02 0.0000E+00 0.9000E+01
        2  1    1    2  502    0 -.54547593E+01 0.68128373E+01 0.11178455E+02 0.14185535E+02 0.32000000E+00 0.0000E+00 0.9000E+01
#aMCatNLO 2  0  0  2  1 0.87274939D+01 0.00000000D+00  -5  7  0 0.00000000D+00 0.00000000D+00 0.00000000D+00 0.00000000D+00 0.00000000D+00
  <mgrwgt>
 0.5478182359D-03    1    2    0
 0.273418339839289D+03 0.000000000000000D+00 0.000000000000000D+00 0.273418339839289D+03
 0.273418339839289D+03 0.000000000000000D+00 0.000000000000000D+00 -.273418339839289D+03
 0.201373396632299D+03 -.175242699175754D+03 0.979607520250771D+01 -.572543641400519D+02
 0.165053479121149D+03 0.133247658994035D+03 0.601311161781031D+02 0.766287231381318D+02
 0.686364385917697D+02 0.657812090616772D+02 -.987533110741588D+01 -.169195470525836D+02
 0.111773365333361D+03 -.237861688799585D+02 -.600518602731949D+02 -.245481194549629D+01
 0.000000000000000D+00 -.000000000000000D+00 0.000000000000000D+00 0.000000000000000D+00
 0.279658019195094D+03 0.000000000000000D+00 0.000000000000000D+00 0.279658019195094D+03
 0.276522091828288D+03 0.000000000000000D+00 0.000000000000000D+00 -.276522091828288D+03
 0.199528930026777D+03 -.173243302905040D+03 0.729888681448643D+01 -.572543641400519D+02
 0.165654508387911D+03 0.134896979222309D+03 0.580711626898915D+02 0.766287231381318D+02
 0.694243878937582D+02 0.664697515899961D+02 -.107353009050805D+02 -.169195470525836D+02
 0.112298494181904D+03 -.226686686548535D+02 -.614475858862809D+02 -.245481194549629D+01
 0.927379053303230D+01 -.545475925241091D+01 0.681283728698352D+01 0.313592736680620D+01
0.440079165676D-06 0.000000000000D+00 0.000000000000D+00 0.133775204050D-08 0.253246935852D-12  7 1 21 -24 -13 13 23 2 2 0.87897197D-01 0.20823579D-01 0.69256780D+05 0.69256780D+05 0.69256780D+05 0.11350539D+01  1  2  1  4  7  2       -2 0.547818235914D-03 0.100000000000D+01
  </mgrwgt>
  </event>
  <event>
  8     66 0.29493621E-05 0.13338091E+04 0.75467711E-02 0.83846295E-01
        1 -1    0    0  501    0 0.00000000E+00 0.00000000E+00 0.19068792E+04 0.19068793E+04 0.32000000E+00 0.0000E+00 0.9000E+01
       -2 -1    0    0    0  501 0.00000000E+00 0.00000000E+00 -.11814788E+04 0.11814789E+04 0.32000000E+00 0.0000E+00 0.9000E+01
       25  2    1    2    0    0 -.11830580E+04 0.58100128E+03 -.33746162E+03 0.13932677E+04 0.30020994E+03 0.0000E+00 0.0000E+00
       23  2    3    3    0    0 -.62947982E+03 0.19292522E+03 -.11317049E+03 0.67516360E+03 0.97843453E+02 0.0000E+00 0.0000E+00
      -24  1    1    2    0    0 0.11830580E+04 -.58100128E+03 0.10628620E+04 0.16950904E+04 0.80419002E+02 0.0000E+00 0.9000E+01
      -13  1    4    4    0    0 -.26453664E+03 0.33249719E+02 -.30812661E+02 0.26839264E+03 0.10565837E+00 0.0000E+00 0.9000E+01
       13  1    4    4    0    0 -.36494318E+03 0.15967550E+03 -.82357829E+02 0.40677095E+03 0.10565837E+00 0.0000E+00 0.9000E+01
       23  1    3    3    0    0 -.55357815E+03 0.38807606E+03 -.22429113E+03 0.71810414E+03 0.91188000E+02 0.0000E+00 0.9000E+01
#aMCatNLO 1  0  0  2  1 0.25107945D+03 0.00000000D+00  -5  7  0 0.00000000D+00 0.00000000D+00 0.00000000D+00 0.00000000D+00 0.00000000D+00
  <mgrwgt>
 0.9391518330D-03    4    2    0
 0.150097887588576D+04 0.000000000000000D+00 0.000000000000000D+00 0.150097887588576D+04
 0.150097887588576D+04 0.000000000000000D+00 0.000000000000000D+00 -.150097887588576D+04
 0.148704483696365D+04 0.118305796258543D+04 -.581001280540906D+03 0.683846839839819D+03
 0.283562809162496D+03 -.264536523761435D+03 0.332495711071904D+02 -.965544424536198D+02
 0.438379699564437D+03 -.364943292679986D+03 0.159675646437210D+03 -.183021425119998D+03
 0.792970406080935D+03 -.553578146144007D+03 0.388076062996505D+03 -.404270972266201D+03
 0.000000000000000D+00 -.000000000000000D+00 -.000000000000000D+00 0.000000000000000D+00
 0.224826284518643D+04 0.000000000000000D+00 0.000000000000000D+00 0.224826284518643D+04
 0.152745866563334D+04 0.000000000000000D+00 0.000000000000000D+00 -.152745866563334D+04
 0.156681305795404D+04 0.130185853828493D+04 -.534746471289573D+03 0.683846839839819D+03
 0.264944050635365D+03 -.243198618409796D+03 0.415574495501333D+02 -.965544424536198D+02
 0.416312328351288D+03 -.331694232489222D+03 0.172621113476023D+03 -.183021425119998D+03
 0.764369978974806D+03 -.492994798564997D+03 0.411664089986901D+03 -.404270972266201D+03
 0.763282094904272D+03 -.233970888820912D+03 -.910961817234847D+02 0.720804179553093D+03
0.166787765523D-01 0.000000000000D+00 0.000000000000D+00 0.394647012455D-05 0.000000000000D+00  7 1 -2 -24 -13 13 23 21 0 0.29336604D+00 0.18176598D+00 0.17790467D+07 0.17790467D+07 0.17790467D+07 0.10316050D+01  1  2  2  2  7  2       -2 0.961087778631D-03 0.100000000000D+01
-.910890873667D-03 0.000000000000D+00 -.640508935835D-04 0.394647012455D-05 0.000000000000D+00  7 1 -2 -24 -13 13 23 21 2 0.29336604D+00 0.18176598D+00 0.17790467D+07 0.17790467D+07 0.17790467D+07 0.10316050D+01  1  2  3  2  7  2       -2 -.558588645235D-04 0.100000000000D+01
0.106436396005D-02 0.000000000000D+00 0.000000000000D+00 0.394647012455D-05 0.000000000000D+00  7 1 -2 -24 -13 13 23 21 2 0.29336604D+00 0.18176598D+00 0.17790467D+07 0.17790467D+07 0.17790467D+07 0.10316050D+01  1  2 15  2  7  2       -2 0.652703457319D-04 0.100000000000D+01
-.511182696765D-03 0.000000000000D+00 0.000000000000D+00 0.394647012455D-05 0.000000000000D+00  7 1 -2 -24 -13 13 23 21 2 0.29336604D+00 0.18176598D+00 0.17790467D+07 0.17790467D+07 0.17790467D+07 0.10316050D+01  1  2  4  2  7  2       -2 -.313474268223D-04 0.100000000000D+01
  </mgrwgt>
  </event>
  <event>
  8     66 0.29493621E-05 0.22767083E+03 0.75467711E-02 0.85993561E-01
        1 -1    0    0  501    0 0.00000000E+00 0.00000000E+00 0.21597903E+04 0.21597903E+04 0.32000000E+00 0.0000E+00 0.9000E+01
       -2 -1    0    0    0  501 0.00000000E+00 0.00000000E+00 -.22135272E+03 0.22135295E+03 0.32000000E+00 0.0000E+00 0.9000E+01
       25  2    1    2    0    0 0.63219883E+02 -.13552255E+03 0.21119558E+04 0.21383698E+04 0.29984145E+03 0.0000E+00 0.0000E+00
       23  2    3    3    0    0 0.11806144E+03 -.13380737E+03 0.90971669E+03 0.93142957E+03 0.90186882E+02 0.0000E+00 0.0000E+00
      -24  1    1    2    0    0 -.63219883E+02 0.13552255E+03 -.17351830E+03 0.24277341E+03 0.80419002E+02 0.0000E+00 0.9000E+01
      -11  1    4    4    0    0 0.83734881E+02 -.10507999E+03 0.82244740E+03 0.83335050E+03 0.51099893E-03 0.0000E+00 0.9000E+01
       11  1    4    4    0    0 0.34326557E+02 -.28727376E+02 0.87269298E+02 0.98079075E+02 0.51099893E-03 0.0000E+00 0.9000E+01
       23  1    3    3    0    0 -.54841555E+02 -.17151789E+01 0.12022392E+04 0.12069403E+04 0.91188000E+02 0.0000E+00 0.9000E+01
#aMCatNLO 1  0  0  2  1 0.11087943D+04 0.00000000D+00  -5  7  0 0.00000000D+00 0.00000000D+00 0.00000000D+00 0.00000000D+00 0.00000000D+00
  <mgrwgt>
 0.1642411537D-02    3    2    0
 0.691430220557015D+03 0.000000000000000D+00 0.000000000000000D+00 0.691430220557015D+03
 0.691430220557015D+03 0.000000000000000D+00 0.000000000000000D+00 -.691430220557015D+03
 0.661261709379787D+03 -.632198833089888D+02 0.135522547881150D+03 -.639090539522928D+03
 0.282070397104506D+03 0.837348811622520D+02 -.105079993208532D+03 0.248012849721002D+03
 0.465515108013623D+02 0.343265567607187D+02 -.287273757692001D+02 0.127854816200911D+02
 0.392976823828375D+03 -.548415546139819D+02 -.171517890341842D+01 0.378292208181835D+03
 0.000000000000000D+00 -.000000000000000D+00 -.000000000000000D+00 0.000000000000000D+00
 0.180485648857400D+04 0.000000000000000D+00 0.000000000000000D+00 0.180485648857400D+04
 0.122083416499339D+04 0.000000000000000D+00 0.000000000000000D+00 -.122083416499339D+04
 0.948415250019937D+03 0.130354348548154D+02 0.696001171153072D+03 -.639090539522928D+03
 0.287111845942911D+03 0.110698783939959D+03 0.931054117021570D+02 0.248012849721002D+03
 0.405545585560385D+02 0.384530375393987D+02 0.160236806354430D+01 0.127854816200911D+02
 0.496410329021519D+03 -.127085664294086D+02 0.307963408513858D+03 0.378292208181835D+03
 0.125319867002698D+04 -.149478689904764D+03 -.109867235943263D+04 0.584022323580604D+03
0.634033662714D-03 0.000000000000D+00 0.000000000000D+00 0.204318453096D-04 0.000000000000D+00  7 1 -2 -24 -11 11 23 21 0 0.33227545D+00 0.34054284D-01 0.51834008D+05 0.51834008D+05 0.51834008D+05 0.11459218D+01  1  2  2  2  7  2       -2 0.146836323348D-02 0.100000000000D+01
0.176254264658D-04 0.000000000000D+00 -.243485620972D-05 0.204318453096D-04 0.000000000000D+00  7 1 -2 -24 -11 11 23 21 2 0.33227545D+00 0.34054284D-01 0.51834008D+05 0.51834008D+05 0.51834008D+05 0.11459218D+01  1  2  3  2  7  2       -2 0.536007412685D-04 0.100000000000D+01
0.396065353823D-04 0.000000000000D+00 0.000000000000D+00 0.204318453096D-04 0.000000000000D+00  7 1 -2 -24 -11 11 23 21 2 0.33227545D+00 0.34054284D-01 0.51834008D+05 0.51834008D+05 0.51834008D+05 0.11459218D+01  1  2 15  2  7  2       -2 0.120447562485D-03 0.100000000000D+01
  </mgrwgt>
  </event>
  <event>
  8     66 0.29493621E-05 0.21650502E+03 0.75467711E-02 0.99545679E-01
        1 -1    0    0  501    0 0.00000000E+00 0.00000000E+00 0.15751957E+03 0.15751989E+03 0.32000000E+00 0.0000E+00 0.9000E+01
       -2 -1    0    0    0  501 0.00000000E+00 0.00000000E+00 -.33930194E+03 0.33930209E+03 0.32000000E+00 0.0000E+00 0.9000E+01
       25  2    1    2    0    0 0.80942883E+02 -.73085903E+02 -.85683150E+02 0.33070282E+03 0.30021568E+03 0.0000E+00 0.0000E+00
       23  2    3    3    0    0 0.14289246E+03 -.10975311E+03 -.61153230E+02 0.21196276E+03 0.93404999E+02 0.0000E+00 0.0000E+00
      -24  1    1    2    0    0 -.80942883E+02 0.73085903E+02 -.96099225E+02 0.16611916E+03 0.80419002E+02 0.0000E+00 0.9000E+01
      -11  1    4    4    0    0 0.95101736E+02 -.60568759E+02 -.82979219E+02 0.13999452E+03 0.51099893E-03 0.0000E+00 0.9000E+01
       11  1    4    4    0    0 0.47790723E+02 -.49184355E+02 0.21825990E+02 0.71968241E+02 0.51099893E-03 0.0000E+00 0.9000E+01
       23  1    3    3    0    0 -.61949576E+02 0.36667210E+02 -.24529920E+02 0.11874006E+03 0.91188000E+02 0.0000E+00 0.9000E+01
#aMCatNLO 1  0  0  2  1 0.19181253D+03 0.00000000D+00  -5  7  0 0.00000000D+00 0.00000000D+00 0.00000000D+00 0.00000000D+00 0.00000000D+00
  <mgrwgt>
 0.8375682244D-03    3    2    0
 0.231185670106814D+03 0.000000000000000D+00 0.000000000000000D+00 0.231185670106814D+03
 0.231185670106814D+03 0.000000000000000D+00 0.000000000000000D+00 -.231185670106814D+03
 0.140714837541236D+03 -.809428834815314D+02 0.730859034097416D+02 -.379493067968705D+02
 0.117801843459349D+03 0.951017363737737D+02 -.605687586527137D+02 -.341227129106614D+02
 0.859114341830509D+02 0.477907229404891D+02 -.491843545535547D+02 0.517466964294758D+02
 0.117943225029992D+03 -.619495758327314D+02 0.366672097965267D+02 0.203253232780561D+02
 0.000000000000000D+00 -.000000000000000D+00 -.000000000000000D+00 0.000000000000000D+00
 0.410559575811632D+03 0.000000000000000D+00 0.000000000000000D+00 0.410559575811632D+03
 0.307680176143356D+03 0.000000000000000D+00 0.000000000000000D+00 -.307680176143356D+03
 0.171030265835733D+03 -.620813123295520D+02 0.132249372968451D+03 -.379493067968705D+02
 0.115580147241977D+03 0.109222089750682D+03 -.162771622400114D+02 -.341227129106614D+02
 0.795926672069282D+02 0.578042479341334D+02 -.177747293233322D+02 0.517466964294758D+02
 0.134375887049008D+03 -.466834663287516D+02 0.845527224953905D+02 0.203253232780561D+02
 0.217660784621342D+03 -.582615590265120D+02 -.182750203900498D+03 0.102879399668276D+03
0.104142489462D-04 0.000000000000D+00 0.000000000000D+00 0.256753235179D-06 0.000000000000D+00  7 1 -2 -24 -11 11 23 21 0 0.24233816D-01 0.52200336D-01 0.46874423D+05 0.46874423D+05 0.46874423D+05 0.11497694D+01  1  2  2  2  7  2       -2 0.826006770163D-03 0.100000000000D+01
-.575541475960D-06 0.000000000000D+00 -.399934580880D-07 0.256753235179D-06 0.000000000000D+00  7 1 -2 -24 -11 11 23 21 2 0.24233816D-01 0.52200336D-01 0.46874423D+05 0.46874423D+05 0.46874423D+05 0.11497694D+01  1  2  3  2  7  2       -2 -.603467385727D-04 0.100000000000D+01
0.685805867451D-06 0.000000000000D+00 0.000000000000D+00 0.256753235179D-06 0.000000000000D+00  7 1 -2 -24 -11 11 23 21 2 0.24233816D-01 0.52200336D-01 0.46874423D+05 0.46874423D+05 0.46874423D+05 0.11497694D+01  1  2 15  2  7  2       -2 0.719081927600D-04 0.100000000000D+01
  </mgrwgt>
  </event>
  <event>
  8     66 0.29493621E-05 0.40178029E+03 0.75467711E-02 0.90859690E-01
        1 -1    0    0  501    0 0.00000000E+00 0.00000000E+00 0.67653280E+03 0.67653288E+03 0.32000000E+00 0.0000E+00 0.9000E+01
       -2 -1    0    0    0  501 0.00000000E+00 0.00000000E+00 -.75434966E+03 0.75434973E+03 0.32000000E+00 0.0000E+00 0.9000E+01
       25  2    1    2    0    0 -.16420066E+03 -.59960788E+03 0.23712981E+03 0.72934851E+03 0.29870931E+03 0.0000E+00 0.0000E+00
       23  2    3    3    0    0 -.23715575E+02 -.44841407E+03 0.20336212E+03 0.50120134E+03 0.90603670E+02 0.0000E+00 0.0000E+00
      -24  1    1    2    0    0 0.16420066E+03 0.59960788E+03 -.31494666E+03 0.70153409E+03 0.80419002E+02 0.0000E+00 0.9000E+01
      -13  1    4    4    0    0 0.30750088E+02 -.25369156E+03 0.10385077E+03 0.27584410E+03 0.10565837E+00 0.0000E+00 0.9000E+01
       13  1    4    4    0    0 -.54465663E+02 -.19472251E+03 0.99511353E+02 0.22535724E+03 0.10565837E+00 0.0000E+00 0.9000E+01
       23  1    3    3    0    0 -.14048508E+03 -.15119380E+03 0.33767688E+02 0.22814717E+03 0.91188000E+02 0.0000E+00 0.9000E+01
#aMCatNLO 1  0  0  2  1 0.10006163D+03 0.00000000D+00  -5  7  0 0.00000000D+00 0.00000000D+00 0.00000000D+00 0.00000000D+00 0.00000000D+00
  <mgrwgt>
 0.1352381691D-02    9    2    0
 0.714382523334500D+03 0.000000000000000D+00 0.000000000000000D+00 0.714382523334500D+03
 0.714382523334500D+03 0.000000000000000D+00 0.000000000000000D+00 -.714382523334500D+03
 0.685420436557792D+03 0.164200657313223D+03 0.599607875048653D+03 -.277204796521000D+03
 0.281909170476600D+03 0.307502036799386D+02 -.253691643748587D+03 0.119028380080495D+03
 0.231110995038915D+03 -.544657788476447D+02 -.194722428274371D+03 0.111932778440139D+03
 0.230324444595692D+03 -.140485082145517D+03 -.151193803025694D+03 0.462436380003658D+02
 0.000000000000000D+00 0.000000000000000D+00 -.000000000000000D+00 -.000000000000000D+00
 0.732553698178777D+03 0.000000000000000D+00 0.000000000000000D+00 0.732553698178777D+03
 0.868560401661214D+03 0.000000000000000D+00 0.000000000000000D+00 -.868560401661214D+03
 0.694625544257386D+03 0.120553362736823D+03 0.620211107848848D+03 -.277204796521000D+03
 0.273067989664956D+03 0.131977076554481D+02 -.245406178055311D+03 0.119028380080495D+03
 0.229305220402974D+03 -.690275561090610D+02 -.187848698990271D+03 0.111932778440139D+03
 0.235265847040596D+03 -.155210502090552D+03 -.144242827984684D+03 0.462436380003658D+02
 0.168849498474079D+03 0.904869878073419D+02 -.427134028185814D+02 -.136006703482437D+03
0.516833245813D-03 0.000000000000D+00 0.000000000000D+00 0.305801412068D-05 0.000000000000D+00  7 1 -2 -24 -13 13 23 21 0 0.10408198D+00 0.11605380D+00 0.42918439D+06 0.42918439D+06 0.42918439D+06 0.10732298D+01  1  2  2  2  7  2       -2 0.923257597853D-03 0.100000000000D+01
-.284511571865D-04 0.000000000000D+00 -.198477574924D-05 0.305801412068D-05 0.000000000000D+00  7 1 -2 -24 -13 13 23 21 2 0.10408198D+00 0.11605380D+00 0.42918439D+06 0.42918439D+06 0.42918439D+06 0.10732298D+01  1  2  3  2  7  2       -2 -.585406861749D-04 0.100000000000D+01
0.330557360287D-04 0.000000000000D+00 0.000000000000D+00 0.305801412068D-05 0.000000000000D+00  7 1 -2 -24 -13 13 23 21 2 0.10408198D+00 0.11605380D+00 0.42918439D+06 0.42918439D+06 0.42918439D+06 0.10732298D+01  1  2 15  2  7  2       -2 0.680150004602D-04 0.100000000000D+01
0.150344575653D-02 0.000000000000D+00 0.000000000000D+00 0.305801412068D-05 0.000000000000D+00  7 1 -2 -24 -13 13 23 21 2 0.10408198D+00 0.14235921D+00 0.49952711D+06 0.49952711D+06 0.49952711D+06 0.10685394D+01  1  2 12  2  7  2       -2 0.177922676448D-02 0.100000000000D+01
-.152249965849D-02 0.000000000000D+00 0.000000000000D+00 0.305801412068D-05 0.000000000000D+00  7 1 -2 -24 -13 13 23 21 2 0.10408198D+00 0.11605380D+00 0.42918439D+06 0.42918439D+06 0.42918439D+06 0.10732298D+01  1  2  4  2  7  2       -2 -.313267309743D-02 0.100000000000D+01
-.217680692176D-02 0.000000000000D+00 -.326744492034D-03 0.305801412068D-05 0.000000000000D+00  7 1 -2 -24 -13 13 23 21 2 0.10408198D+00 0.14290909D+00 0.42918439D+06 0.42918439D+06 0.42918439D+06 0.10732298D+01  1  2  5  2  7  2       -2 -.259065509655D-02 0.100000000000D+01
0.220385599547D-02 0.000000000000D+00 0.319791413358D-03 0.305801412068D-05 0.000000000000D+00  7 1 -2 -24 -13 13 23 21 2 0.10408198D+00 0.11605380D+00 0.42918439D+06 0.42918439D+06 0.42918439D+06 0.10732298D+01  1  2  6  2  7  2       -2 0.453462196140D-02 0.100000000000D+01
0.437300406070D-04 0.000000000000D+00 0.000000000000D+00 0.305801412068D-05 0.000000000000D+00  7 1 21 -24 -13 13 23 2 2 0.10408198D+00 0.14235921D+00 0.49952711D+06 0.49952711D+06 0.49952711D+06 0.10685394D+01  1  2 12  4  7  2       -2 0.438144674037D-03 0.100000000000D+01
-.601951853992D-04 0.000000000000D+00 -.964032625667D-05 0.305801412068D-05 0.000000000000D+00  7 1 21 -24 -13 13 23 2 2 0.10408198D+00 0.14290909D+00 0.42918439D+06 0.42918439D+06 0.42918439D+06 0.10732298D+01  1  2  5  4  7  2       -2 -.609015427390D-03 0.100000000000D+01
  </mgrwgt>
  </event>
  <event>
  8     66 0.29493621E-05 0.19781961E+03 0.75467711E-02 0.95899202E-01
        1 -1    0    0  501    0 0.00000000E+00 0.00000000E+00 0.10548144E+04 0.10548145E+04 0.32000000E+00 0.0000E+00 0.9000E+01
       -2 -1    0    0    0  501 0.00000000E+00 0.00000000E+00 -.74803201E+02 0.74803885E+02 0.32000000E+00 0.0000E+00 0.9000E+01
       25  2    1    2    0    0 0.64668723E+02 -.38057539E+02 0.26761069E+03 0.40877708E+03 0.29975456E+03 0.0000E+00 0.0000E+00
       23  2    3    3    0    0 -.73889805E+02 0.62358146E+01 0.18339999E+03 0.21755192E+03 0.90524545E+02 0.0000E+00 0.0000E+00
      -24  1    1    2    0    0 -.64668723E+02 0.38057539E+02 0.71240054E+03 0.72084129E+03 0.80419002E+02 0.0000E+00 0.9000E+01
      -11  1    4    4    0    0 0.79318434E+01 -.25119064E+02 0.23900744E+02 0.35568625E+02 0.51099893E-03 0.0000E+00 0.9000E+01
       11  1    4    4    0    0 -.81821648E+02 0.31354878E+02 0.15949925E+03 0.18198330E+03 0.51099893E-03 0.0000E+00 0.9000E+01
       23  1    3    3    0    0 0.13855853E+03 -.44293354E+02 0.84210702E+02 0.19122516E+03 0.91188000E+02 0.0000E+00 0.9000E+01
#aMCatNLO 1  0  0  2  1 0.35992711D+03 0.00000000D+00  -5  7  0 0.00000000D+00 0.00000000D+00 0.00000000D+00 0.00000000D+00 0.00000000D+00
  <mgrwgt>
 0.1742799889D-02    3    2    0
 0.280898397703192D+03 0.000000000000000D+00 0.000000000000000D+00 0.280898397703192D+03
 0.280898397703192D+03 0.000000000000000D+00 0.000000000000000D+00 -.280898397703192D+03
 0.206685104579623D+03 -.646687225086639D+02 0.380575389417237D+02 0.174988846957501D+03
 0.298256850407340D+02 0.793184339887738D+01 -.251190637560303D+02 -.139889236349778D+02
 0.876840548521918D+02 -.818216484314640D+02 0.313548783975804D+02 0.325314062915038D+01
 0.237601950933836D+03 0.138558527541251D+03 -.442933535832739D+02 -.164253063951674D+03
 0.000000000000000D+00 -.000000000000000D+00 -.000000000000000D+00 0.000000000000000D+00
 0.613454458591805D+03 0.000000000000000D+00 0.000000000000000D+00 0.613454458591805D+03
 0.449331469336197D+03 0.000000000000000D+00 0.000000000000000D+00 -.449331469336197D+03
 0.217893692266587D+03 0.484540767964503D+02 0.896746957479283D+02 0.174988846957501D+03
 0.333644209809109D+02 0.247679212592248D+02 -.174368769974169D+02 -.139889236349778D+02
 0.647843494313389D+02 -.411986761439801D+02 0.498908618012582D+02 0.325314062915038D+01
 0.351163027656065D+03 0.295426329244099D+03 0.272843475351467D+02 -.164253063951674D+03
 0.395580437593101D+03 -.327449651155794D+03 -.149413028086916D+03 0.164122989255609D+03
0.228178410450D-04 0.000000000000D+00 0.000000000000D+00 0.334919094947D-05 0.000000000000D+00  7 1 -2 -24 -11 11 23 21 0 0.16227920D+00 0.11508241D-01 0.39132598D+05 0.39132598D+05 0.39132598D+05 0.11567764D+01  1  2  2  2  7  2       -2 0.170645545388D-02 0.100000000000D+01
-.107816176202D-05 0.000000000000D+00 -.876265176882D-07 0.334919094947D-05 0.000000000000D+00  7 1 -2 -24 -11 11 23 21 2 0.16227920D+00 0.11508241D-01 0.39132598D+05 0.39132598D+05 0.39132598D+05 0.11567764D+01  1  2  3  2  7  2       -2 -.107895457787D-03 0.100000000000D+01
0.144133905230D-05 0.000000000000D+00 0.000000000000D+00 0.334919094947D-05 0.000000000000D+00  7 1 -2 -24 -11 11 23 21 2 0.16227920D+00 0.11508241D-01 0.39132598D+05 0.39132598D+05 0.39132598D+05 0.11567764D+01  1  2 15  2  7  2       -2 0.144239892706D-03 0.100000000000D+01
  </mgrwgt>
  </event>
  <event>
  8     66 0.29493621E-05 0.13356993E+03 0.75467711E-02 0.10224890E+00
        1 -1    0    0  501    0 0.00000000E+00 0.00000000E+00 0.60014992E+03 0.60015000E+03 0.32000000E+00 0.0000E+00 0.9000E+01
       -2 -1    0    0    0  501 0.00000000E+00 0.00000000E+00 -.40065208E+03 0.40065220E+03 0.32000000E+00 0.0000E+00 0.9000E+01
       25  2    1    2    0    0 -.13358199E+03 0.34969579E+02 -.31842624E+03 0.45878782E+03 0.30003996E+03 0.0000E+00 0.0000E+00
       23  2    3    3    0    0 -.10216908E+03 -.65559243E+02 -.27267332E+03 0.31215428E+03 0.91394868E+02 0.0000E+00 0.0000E+00
      -24  1    1    2    0    0 0.13358199E+03 -.34969579E+02 0.51792408E+03 0.54201438E+03 0.80419002E+02 0.0000E+00 0.9000E+01
      -11  1    4    4    0    0 -.97926842E+02 -.27319873E+02 -.24349596E+03 0.26386801E+03 0.51099893E-03 0.0000E+00 0.9000E+01
       11  1    4    4    0    0 -.42422373E+01 -.38239370E+02 -.29177350E+02 0.48286269E+02 0.51099893E-03 0.0000E+00 0.9000E+01
       23  1    3    3    0    0 -.31412910E+02 0.10052882E+03 -.45752928E+02 0.14663355E+03 0.91188000E+02 0.0000E+00 0.9000E+01
#aMCatNLO 1  0  0  2  1 0.10011655D+03 0.00000000D+00  -5  7  0 0.00000000D+00 0.00000000D+00 0.00000000D+00 0.00000000D+00 0.00000000D+00
  <mgrwgt>
 0.1112787165D-02    9    2    0
 0.490358457311563D+03 0.000000000000000D+00 0.000000000000000D+00 0.490358457311563D+03
 0.490358457311563D+03 0.000000000000000D+00 0.000000000000000D+00 -.490358457311563D+03
 0.447758620816709D+03 0.133581989534648D+03 -.349695792113309D+02 0.418274487822361D+03
 0.318804132289045D+03 -.979268418819183D+02 -.273198732733146D+02 -.302158953082537D+03
 0.552104502074050D+02 -.424223732608801D+01 -.382393696418066D+02 -.395973211716496D+02
 0.158943711309967D+03 -.314129103266414D+02 0.100528822126452D+03 -.765182135681743D+02
 0.000000000000000D+00 0.000000000000000D+00 -.000000000000000D+00 -.000000000000000D+00
 0.522113829409557D+03 0.000000000000000D+00 0.000000000000000D+00 0.522113829409557D+03
 0.578702802904624D+03 0.000000000000000D+00 0.000000000000000D+00 -.578702802904624D+03
 0.437279228923218D+03 0.987499589558312D+02 -.638799941118570D+01 0.418274487822361D+03
 0.326420035646830D+03 -.123320634875447D+03 -.648288189462884D+01 -.302158953082537D+03
 0.533559389550178D+02 -.851503513721942D+01 -.347333061255726D+02 -.395973211716496D+02
 0.168758668183753D+03 -.443101432603859D+02 0.111111704782770D+03 -.765182135681743D+02
 0.115002760605362D+03 0.773958543172216D+02 -.635075173513825D+02 -.565889734950671D+02
0.119259105980D-03 0.000000000000D+00 0.000000000000D+00 0.188407876069D-04 0.000000000000D+00  7 1 -2 -24 -11 11 23 21 0 0.92330773D-01 0.61638797D-01 0.48234587D+05 0.48234587D+05 0.48234587D+05 0.11486711D+01  1  2  2  2  7  2       -2 0.116544320823D-02 0.100000000000D+01
-.142829306611D-05 0.000000000000D+00 -.457986368606D-06 0.188407876069D-04 0.000000000000D+00  7 1 -2 -24 -11 11 23 21 2 0.92330773D-01 0.61638797D-01 0.48234587D+05 0.48234587D+05 0.48234587D+05 0.11486711D+01  1  2  3  2  7  2       -2 -.184165502357D-04 0.100000000000D+01
0.723534661848D-05 0.000000000000D+00 0.000000000000D+00 0.188407876069D-04 0.000000000000D+00  7 1 -2 -24 -11 11 23 21 2 0.92330773D-01 0.61638797D-01 0.48234587D+05 0.48234587D+05 0.48234587D+05 0.11486711D+01  1  2 15  2  7  2       -2 0.932932656704D-04 0.100000000000D+01
0.110844840633D-03 0.000000000000D+00 0.000000000000D+00 0.188407876069D-04 0.000000000000D+00  7 1 -2 -24 -11 11 23 21 2 0.92330773D-01 0.74472864D-01 0.72171910D+05 0.72171910D+05 0.72171910D+05 0.11335332D+01  1  2 12  2  7  2       -2 0.922324574687D-03 0.100000000000D+01
-.155241142070D-03 0.000000000000D+00 0.000000000000D+00 0.188407876069D-04 0.000000000000D+00  7 1 -2 -24 -11 11 23 21 2 0.92330773D-01 0.61638797D-01 0.48234587D+05 0.48234587D+05 0.48234587D+05 0.11486711D+01  1  2  4  2  7  2       -2 -.200169444171D-02 0.100000000000D+01
-.200237673883D-03 0.000000000000D+00 -.778350705267D-04 0.188407876069D-04 0.000000000000D+00  7 1 -2 -24 -11 11 23 21 2 0.92330773D-01 0.76428934D-01 0.48234587D+05 0.48234587D+05 0.48234587D+05 0.11486711D+01  1  2  5  2  7  2       -2 -.163861091521D-02 0.100000000000D+01
0.213780431042D-03 0.000000000000D+00 0.760689916587D-04 0.188407876069D-04 0.000000000000D+00  7 1 -2 -24 -11 11 23 21 2 0.92330773D-01 0.61638797D-01 0.48234587D+05 0.48234587D+05 0.48234587D+05 0.11486711D+01  1  2  6  2  7  2       -2 0.275650574879D-02 0.100000000000D+01
0.303842004341D-05 0.000000000000D+00 0.000000000000D+00 0.188407876069D-04 0.000000000000D+00  7 1 21 -24 -11 11 23 2 2 0.92330773D-01 0.74472864D-01 0.72171910D+05 0.72171910D+05 0.72171910D+05 0.11335332D+01  1  2 12  4  7  2       -2 0.256599080461D-03 0.100000000000D+01
-.504139518591D-05 0.000000000000D+00 -.235413284916D-05 0.188407876069D-04 0.000000000000D+00  7 1 21 -24 -11 11 23 2 2 0.92330773D-01 0.76428934D-01 0.48234587D+05 0.48234587D+05 0.48234587D+05 0.11486711D+01  1  2  5  4  7  2       -2 -.422656806010D-03 0.100000000000D+01
  </mgrwgt>
  </event>
  <event>
  9     66 0.29493621E-05 0.24876588E+03 0.75467711E-02 0.10000035E+00
        1 -1    0    0  501    0 0.00000000E+00 0.00000000E+00 0.27351505E+04 0.27351505E+04 0.32000000E+00 0.0000E+00 0.9000E+01
       21 -1    0    0  502  501 0.00000000E+00 0.00000000E+00 -.45910142E+02 0.45916267E+02 0.75000000E+00 0.0000E+00 0.9000E+01
       25  2    1    2    0    0 0.13452008E+03 -.38488465E+02 0.86197326E+03 0.92342035E+03 0.30021699E+03 0.0000E+00 0.0000E+00
       23  2    3    3    0    0 0.13163464E+03 0.81727317E+02 0.43923001E+03 0.47454703E+03 0.90911198E+02 0.0000E+00 0.0000E+00
      -24  1    1    2    0    0 -.15456437E+03 -.84837493E+02 0.13691459E+04 0.13827926E+04 0.80419002E+02 0.0000E+00 0.9000E+01
      -11  1    4    4    0    0 0.71918412E+02 0.50966042E+01 0.11199955E+03 0.13319960E+03 0.51099893E-03 0.0000E+00 0.9000E+01
       11  1    4    4    0    0 0.59716224E+02 0.76630713E+02 0.32723046E+03 0.34134743E+03 0.51099893E-03 0.0000E+00 0.9000E+01
       23  1    3    3    0    0 0.28854389E+01 -.12021578E+03 0.42274325E+03 0.44887333E+03 0.91188000E+02 0.0000E+00 0.9000E+01
        2  1    1    2  502    0 0.20044297E+02 0.12332596E+03 0.45812120E+03 0.47485387E+03 0.32000000E+00 0.0000E+00 0.9000E+01
#aMCatNLO 2  0  0  2  1 0.12494425D+03 0.00000000D+00  -5  7  0 0.00000000D+00 0.00000000D+00 0.00000000D+00 0.00000000D+00 0.00000000D+00
  <mgrwgt>
 0.1246556070D-03    1    2    0
 0.285093944711358D+03 0.000000000000000D+00 0.000000000000000D+00 0.285093944711358D+03
 0.285093944711358D+03 0.000000000000000D+00 0.000000000000000D+00 -.285093944711358D+03
 0.211729510421096D+03 -.146890219643540D+03 -.376209601296553D+02 0.123976192717723D+03
 0.104127753938843D+03 0.754324591146155D+02 0.267173784836815D+02 -.666236815196358D+02
 0.118868231675556D+03 0.634811897943620D+02 0.997953058101898D+02 -.118613651076268D+02
 0.135462393387221D+03 0.797657073456214D+01 -.888917241642160D+02 -.454911460904608D+02
 0.000000000000000D+00 0.000000000000000D+00 0.000000000000000D+00 -.000000000000000D+00
 0.351870686300815D+03 0.000000000000000D+00 0.000000000000000D+00 0.351870686300815D+03
 0.356891183581500D+03 0.000000000000000D+00 0.000000000000000D+00 -.356891183581500D+03
 0.230054032195274D+03 -.154564372247788D+03 -.848374931607412D+02 0.123976192717723D+03
 0.981679596431436D+02 0.719184120135861D+02 0.509660423341622D+01 -.666236815196358D+02
 0.978722918491100D+02 0.597162241661666D+02 0.766307125173522D+02 -.118613651076268D+02
 0.157622509787727D+03 0.288543886567056D+01 -.120215781483593D+03 -.454911460904608D+02
 0.125045076407061D+03 0.200442972023652D+02 0.123325957893566D+03 -.502049728068476D+01
0.553628875589D-06 0.000000000000D+00 0.000000000000D+00 0.253002492601D-05 0.420746858540D-10  7 1 21 -24 -11 11 23 2 2 0.42079261D+00 0.70635673D-02 0.10204819D+06 0.10204819D+06 0.10204819D+06 0.11210002D+01  1  2  1  4  7  2       -2 0.124655606951D-03 0.100000000000D+01
  </mgrwgt>
  </event>
  <event>
  8     66 0.29493621E-05 0.28499497E+03 0.75467711E-02 0.94245235E-01
        1 -1    0    0  501    0 0.00000000E+00 0.00000000E+00 0.48906077E+03 0.48906088E+03 0.32000000E+00 0.0000E+00 0.9000E+01
       -2 -1    0    0    0  501 0.00000000E+00 0.00000000E+00 -.23647304E+03 0.23647325E+03 0.32000000E+00 0.0000E+00 0.9000E+01
       25  2    1    2    0    0 0.12205730E+03 -.18702671E+03 -.10628496E+02 0.37109518E+03 0.29617848E+03 0.0000E+00 0.0000E+00
       23  2    3    3    0    0 0.27178296E+02 -.18401583E+03 0.67414113E+02 0.21806906E+03 0.91700430E+02 0.0000E+00 0.0000E+00
      -24  1    1    2    0    0 -.12205730E+03 0.18702671E+03 0.26321623E+03 0.35443896E+03 0.80419002E+02 0.0000E+00 0.9000E+01
      -11  1    4    4    0    0 -.19010845E+02 -.12301917E+03 0.15121225E+02 0.12539450E+03 0.51099893E-03 0.0000E+00 0.9000E+01
       11  1    4    4    0    0 0.46189141E+02 -.60996657E+02 0.52292888E+02 0.92674566E+02 0.51099893E-03 0.0000E+00 0.9000E+01
       23  1    3    3    0    0 0.94879004E+02 -.30108794E+01 -.78042609E+02 0.15302611E+03 0.91188000E+02 0.0000E+00 0.9000E+01
#aMCatNLO 1  0  0  2  1 0.37178570D+03 0.00000000D+00  -5  7  0 0.00000000D+00 0.00000000D+00 0.00000000D+00 0.00000000D+00 0.00000000D+00
  <mgrwgt>
 0.2068417194D-02    5    2    0
 0.340073232388602D+03 0.000000000000000D+00 0.000000000000000D+00 0.340073232388602D+03
 0.340073232388602D+03 0.000000000000000D+00 0.000000000000000D+00 -.340073232388602D+03
 0.280340161209126D+03 -.122057300697625D+03 0.187026707185118D+03 0.149152325420322D+03
 0.128146739778206D+03 -.190108445621585D+02 -.123019170666084D+03 -.304377783920873D+02
 0.794387989189859D+02 0.461891410005222D+02 -.609966571319102D+02 0.213657166052803D+02
 0.192220764870885D+03 0.948790042592616D+02 -.301087938712456D+01 -.140080263633515D+03
 0.000000000000000D+00 0.000000000000000D+00 0.000000000000000D+00 -.000000000000000D+00
 0.455991649650412D+03 0.000000000000000D+00 0.000000000000000D+00 0.455991649650412D+03
 0.892567857798309D+03 0.000000000000000D+00 0.000000000000000D+00 -.892567857798309D+03
 0.362408528908074D+03 -.282342369684573D+03 0.151357510462988D+03 0.149152325420322D+03
 0.170793211238213D+03 -.935588155006673D+02 -.139608777280395D+03 -.304377783920873D+02
 0.731297433316942D+02 0.814245230882018D+01 -.694634147166760D+02 0.213657166052803D+02
 0.168796778052578D+03 0.485047108180085D+01 -.230454682656004D+02 -.140080263633515D+03
 0.573431245918161D+03 0.362908261794620D+03 0.807601497996835D+02 -.436576208147897D+03
0.587315532623D-04 0.000000000000D+00 0.000000000000D+00 0.754352578441D-07 0.000000000000D+00  7 1 -2 -24 -11 11 23 21 0 0.75240144D-01 0.36380492D-01 0.81222131D+05 0.81222131D+05 0.81222131D+05 0.11292105D+01  1  2  2  2  7  2       -2 0.208689602470D-02 0.100000000000D+01
-.313901241755D-05 0.000000000000D+00 -.225544628900D-06 0.754352578441D-07 0.000000000000D+00  7 1 -2 -24 -11 11 23 21 2 0.75240144D-01 0.36380492D-01 0.81222131D+05 0.81222131D+05 0.81222131D+05 0.11292105D+01  1  2  3  2  7  2       -2 -.142223775619D-03 0.100000000000D+01
0.373127005421D-05 0.000000000000D+00 0.000000000000D+00 0.754352578441D-07 0.000000000000D+00  7 1 -2 -24 -11 11 23 21 2 0.75240144D-01 0.36380492D-01 0.81222131D+05 0.81222131D+05 0.81222131D+05 0.11292105D+01  1  2 15  2  7  2       -2 0.169058048958D-03 0.100000000000D+01
-.863087603392D-05 0.000000000000D+00 -.191498621436D-04 0.754352578441D-07 0.000000000000D+00  7 1 -2 -24 -11 11 23 21 2 0.75240144D-01 0.11858374D+00 0.81222131D+05 0.81222131D+05 0.81222131D+05 0.11292105D+01  1  2  5  2  7  2       -2 -.318267621909D-04 0.100000000000D+01
-.391508447726D-06 0.000000000000D+00 -.261460190134D-05 0.754352578441D-07 0.000000000000D+00  7 1 21 -24 -11 11 23 2 2 0.75240144D-01 0.11858374D+00 0.81222131D+05 0.81222131D+05 0.81222131D+05 0.11292105D+01  1  2  5  4  7  2       -2 -.134863415173D-04 0.100000000000D+01
  </mgrwgt>
  </event>
  <event>
  8     66 0.29493621E-05 0.23008433E+03 0.75467711E-02 0.99064258E-01
        1 -1    0    0  501    0 0.00000000E+00 0.00000000E+00 0.12698013E+03 0.12698053E+03 0.32000000E+00 0.0000E+00 0.9000E+01
       -2 -1    0    0    0  501 0.00000000E+00 0.00000000E+00 -.66650811E+03 0.66650819E+03 0.32000000E+00 0.0000E+00 0.9000E+01
       25  2    1    2    0    0 -.12218577E+03 -.69857968E+02 -.53732894E+03 0.63137287E+03 0.30016630E+03 0.0000E+00 0.0000E+00
       23  2    3    3    0    0 0.46224602E+02 -.74120274E+02 -.14121373E+03 0.19136977E+03 0.95134326E+02 0.0000E+00 0.0000E+00
      -24  1    1    2    0    0 0.12218577E+03 0.69857968E+02 -.21990406E+01 0.16211586E+03 0.80419002E+02 0.0000E+00 0.9000E+01
      -11  1    4    4    0    0 0.60373065E+02 -.49331309E+02 -.14289224E+03 0.16277800E+03 0.51099893E-03 0.0000E+00 0.9000E+01
       11  1    4    4    0    0 -.14148463E+02 -.24788964E+02 0.16785057E+01 0.28591767E+02 0.51099893E-03 0.0000E+00 0.9000E+01
       23  1    3    3    0    0 -.16841038E+03 0.42623059E+01 -.39611521E+03 0.44000310E+03 0.91188000E+02 0.0000E+00 0.9000E+01
#aMCatNLO 1  0  0  2  2 0.19578412D+03 0.00000000D+00  -5  7  0 0.00000000D+00 0.00000000D+00 0.00000000D+00 0.00000000D+00 0.00000000D+00
  <mgrwgt>
 0.5081996887D-03    4    2    0
 0.290918335736248D+03 0.000000000000000D+00 0.000000000000000D+00 0.290918335736248D+03
 0.290918335736248D+03 0.000000000000000D+00 0.000000000000000D+00 -.290918335736248D+03
 0.219048859292444D+03 0.122185773505524D+03 0.698579676396647D+02 0.147328503396535D+03
 0.894892812732837D+02 0.603730645771114D+02 -.493313093607865D+02 -.439300176772922D+02
 0.405489139804123D+02 -.141484624910270D+02 -.247889641977350D+02 0.288017827249337D+02
 0.232749616926355D+03 -.168410375591608D+03 0.426230591885685D+01 -.132200268444177D+03
 0.000000000000000D+00 0.000000000000000D+00 0.000000000000000D+00 0.000000000000000D+00
 0.411922194532035D+03 0.000000000000000D+00 0.000000000000000D+00 0.411922194532035D+03
 0.398233462496757D+03 0.000000000000000D+00 0.000000000000000D+00 -.398233462496757D+03
 0.194715397024105D+03 0.984904333260942D+02 0.638878032643062D+01 0.147328503396535D+03
 0.102865670912098D+03 0.493573328950022D+02 -.788375132063453D+02 -.439300176772922D+02
 0.522626290065891D+02 -.194635689800039D+02 -.390257502824316D+02 0.288017827249337D+02
 0.264049886883571D+03 -.196860955998298D+03 -.719440369033489D+02 -.132200268444177D+03
 0.196262073202430D+03 0.684767587572056D+02 0.183418520065695D+03 0.136887320352780D+02
0.303018500141D-04 0.000000000000D+00 0.000000000000D+00 0.304458950270D-06 0.000000000000D+00  7 1 -2 -24 -11 11 23 21 0 0.19535442D-01 0.10253975D+00 0.52938799D+05 0.52938799D+05 0.52938799D+05 0.11451200D+01  1  2  2  2  7  2       -2 0.737130592270D-03 0.100000000000D+01
-.157078851317D-05 0.000000000000D+00 -.116367082715D-06 0.304458950270D-06 0.000000000000D+00  7 1 -2 -24 -11 11 23 21 2 0.19535442D-01 0.10253975D+00 0.52938799D+05 0.52938799D+05 0.52938799D+05 0.11451200D+01  1  2  3  2  7  2       -2 -.501066088122D-04 0.100000000000D+01
0.192467679595D-05 0.000000000000D+00 0.000000000000D+00 0.304458950270D-06 0.000000000000D+00  7 1 -2 -24 -11 11 23 21 2 0.19535442D-01 0.10253975D+00 0.52938799D+05 0.52938799D+05 0.52938799D+05 0.11451200D+01  1  2 15  2  7  2       -2 0.613952970092D-04 0.100000000000D+01
-.753062688258D-05 0.000000000000D+00 0.000000000000D+00 0.304458950270D-06 0.000000000000D+00  7 1 -2 -24 -11 11 23 21 2 0.19535442D-01 0.10253975D+00 0.52938799D+05 0.52938799D+05 0.52938799D+05 0.11451200D+01  1  2  4  2  7  2       -2 -.240219591723D-03 0.100000000000D+01
  </mgrwgt>
  </event>
  <event>
  8     66 0.29493621E-05 0.82895581E+02 0.75467711E-02 0.10219888E+00
        1 -1    0    0  501    0 0.00000000E+00 0.00000000E+00 0.56679459E+03 0.56679468E+03 0.32000000E+00 0.0000E+00 0.9000E+01
       -2 -1    0    0    0  501 0.00000000E+00 0.00000000E+00 -.11721550E+03 0.11721593E+03 0.32000000E+00 0.0000E+00 0.9000E+01
       25  2    1    2    0    0 -.13794085E+02 0.64015917E+02 0.48499491E+03 0.57442133E+03 0.30075155E+03 0.0000E+00 0.0000E+00
       23  2    3    3    0    0 0.54530064E+02 -.75076344E+02 0.19962630E+03 0.23713015E+03 0.88147969E+02 0.0000E+00 0.0000E+00
      -24  1    1    2    0    0 0.13794085E+02 -.64015917E+02 -.35415816E+02 0.10958928E+03 0.80419002E+02 0.0000E+00 0.9000E+01
      -13  1    4    4    0    0 -.22513658E+02 -.20994427E+02 0.29165310E+02 0.42405863E+02 0.10565837E+00 0.0000E+00 0.9000E+01
       13  1    4    4    0    0 0.77043722E+02 -.54081917E+02 0.17046099E+03 0.19472429E+03 0.10565837E+00 0.0000E+00 0.9000E+01
       23  1    3    3    0    0 -.68324149E+02 0.13909226E+03 0.28536861E+03 0.33729118E+03 0.91188000E+02 0.0000E+00 0.9000E+01
#aMCatNLO 1  0  0  1  2 0.12072869D+03 0.00000000D+00  -5  7  0 0.00000000D+00 0.00000000D+00 0.00000000D+00 0.00000000D+00 0.00000000D+00
  <mgrwgt>
 0.9339045237D-03    9    2    0
 0.257754320625097D+03 0.000000000000000D+00 0.000000000000000D+00 0.257754320625097D+03
 0.257754320625097D+03 0.000000000000000D+00 0.000000000000000D+00 -.257754320625097D+03
 0.176296644053875D+03 0.137940855745426D+02 -.640159188828485D+02 -.142565690413350D+03
 0.308314672479163D+02 -.225138005270218D+02 -.209943779606177D+02 0.171588243639757D+01
 0.109712691246929D+03 0.770438626974360D+02 -.540819622425140D+02 0.563583108450032D+02
 0.198667838701472D+03 -.683241477449568D+02 0.139092259085980D+03 0.844914971319491D+02
 0.000000000000000D+00 0.000000000000000D+00 -.000000000000000D+00 0.000000000000000D+00
 0.345633746848372D+03 0.000000000000000D+00 0.000000000000000D+00 0.345633746848372D+03
 0.309766937933696D+03 0.000000000000000D+00 0.000000000000000D+00 -.309766937933696D+03
 0.172588314353311D+03 -.237344161506088D+02 -.493073189689049D+02 -.142565690413350D+03
 0.347805421978052D+02 -.295714863066438D+02 -.182282489738797D+02 0.171588243639757D+01
 0.912604647041808D+02 0.554257870307350D+02 -.456091586059712D+02 0.563583108450032D+02
 0.230827547610711D+03 -.114523669844587D+03 0.157199304545869D+03 0.844914971319491D+02
 0.125943815916059D+03 0.112403785271105D+03 -.440545779971137D+02 0.358668089146761D+02
0.883767874549D-05 0.000000000000D+00 0.000000000000D+00 0.145682191358D-06 0.000000000000D+00  7 1 -2 -24 -13 13 23 21 0 0.87199208D-01 0.18033194D-01 0.41703586D+05 0.41703586D+05 0.41703586D+05 0.11542915D+01  1  2  2  1  7  1        1 0.850557275397D-03 0.100000000000D+01
-.458619338547D-06 0.000000000000D+00 -.339390133969D-07 0.145682191358D-06 0.000000000000D+00  7 1 -2 -24 -13 13 23 21 2 0.87199208D-01 0.18033194D-01 0.41703586D+05 0.41703586D+05 0.41703586D+05 0.11542915D+01  1  2  3  1  7  1        1 -.588096632457D-04 0.100000000000D+01
0.552186097127D-06 0.000000000000D+00 0.000000000000D+00 0.145682191358D-06 0.000000000000D+00  7 1 -2 -24 -13 13 23 21 2 0.87199208D-01 0.18033194D-01 0.41703586D+05 0.41703586D+05 0.41703586D+05 0.11542915D+01  1  2 15  1  7  1        1 0.708079134297D-04 0.100000000000D+01
0.201230521570D-05 0.000000000000D+00 0.000000000000D+00 0.145682191358D-06 0.000000000000D+00  7 1 -2 -24 -13 13 23 21 2 0.12328272D+00 0.18033194D-01 0.72717994D+05 0.72717994D+05 0.72717994D+05 0.11332559D+01  1  2 12  1  7  1        1 0.149002560765D-03 0.100000000000D+01
-.453709343895D-05 0.000000000000D+00 0.000000000000D+00 0.145682191358D-06 0.000000000000D+00  7 1 -2 -24 -13 13 23 21 2 0.87199208D-01 0.18033194D-01 0.41703586D+05 0.41703586D+05 0.41703586D+05 0.11542915D+01  1  2  4  1  7  1        1 -.581800449376D-03 0.100000000000D+01
-.602872193987D-05 0.000000000000D+00 -.349691176261D-05 0.145682191358D-06 0.000000000000D+00  7 1 -2 -24 -13 13 23 21 2 0.13428176D+00 0.18033194D-01 0.41703586D+05 0.41703586D+05 0.41703586D+05 0.11542915D+01  1  2  5  1  7  1        1 -.406432482296D-03 0.100000000000D+01
0.716285872911D-05 0.000000000000D+00 0.319452251553D-05 0.145682191358D-06 0.000000000000D+00  7 1 -2 -24 -13 13 23 21 2 0.87199208D-01 0.18033194D-01 0.41703586D+05 0.41703586D+05 0.41703586D+05 0.11542915D+01  1  2  6  1  7  1        1 0.918507516648D-03 0.100000000000D+01
0.862624094853D-07 0.000000000000D+00 0.000000000000D+00 0.145682191358D-06 0.000000000000D+00  7 21 -2 -24 -13 13 23 -1 2 0.12328272D+00 0.18033194D-01 0.72717994D+05 0.72717994D+05 0.72717994D+05 0.11332559D+01  1  2 12  3  7  1        1 0.117135331153D-04 0.100000000000D+01
-.171622279992D-06 0.000000000000D+00 -.176137903657D-06 0.145682191358D-06 0.000000000000D+00  7 21 -2 -24 -13 13 23 -1 2 0.13428176D+00 0.18033194D-01 0.41703586D+05 0.41703586D+05 0.41703586D+05 0.11542915D+01  1  2  5  3  7  1        1 -.196416807409D-04 0.100000000000D+01
  </mgrwgt>
  </event>
  <event>
  8     66 0.29493621E-05 0.10080861E+03 0.75467711E-02 0.10770609E+00
        1 -1    0    0  501    0 0.00000000E+00 0.00000000E+00 0.46253178E+03 0.46253189E+03 0.32000000E+00 0.0000E+00 0.9000E+01
       -2 -1    0    0    0  501 0.00000000E+00 0.00000000E+00 -.14932120E+03 0.14932154E+03 0.32000000E+00 0.0000E+00 0.9000E+01
       25  2    1    2    0    0 0.93431292E+02 -.14185694E+02 0.46728759E+02 0.31789695E+03 0.29990707E+03 0.0000E+00 0.0000E+00
       23  2    3    3    0    0 0.29703229E+02 0.12661819E+02 -.95038339E+02 0.13570140E+03 0.91323497E+02 0.0000E+00 0.0000E+00
      -24  1    1    2    0    0 -.93431292E+02 0.14185694E+02 0.26648181E+03 0.29395648E+03 0.80419002E+02 0.0000E+00 0.9000E+01
      -13  1    4    4    0    0 0.33257376E+02 -.43472165E+01 0.52236093E+01 0.33944787E+02 0.10565837E+00 0.0000E+00 0.9000E+01
       13  1    4    4    0    0 -.35541462E+01 0.17009035E+02 -.10026195E+03 0.10175662E+03 0.10565837E+00 0.0000E+00 0.9000E+01
       23  1    3    3    0    0 0.63728063E+02 -.26847513E+02 0.14176710E+03 0.18219554E+03 0.91188000E+02 0.0000E+00 0.9000E+01
#aMCatNLO 1  0  0  1  2 0.69451928D+02 0.00000000D+00  -5  7  0 0.00000000D+00 0.00000000D+00 0.00000000D+00 0.00000000D+00 0.00000000D+00
  <mgrwgt>
 0.9816037838D-03    9    2    0
 0.262803993735721D+03 0.000000000000000D+00 0.000000000000000D+00 0.262803993735721D+03
 0.262803993735721D+03 0.000000000000000D+00 0.000000000000000D+00 -.262803993735721D+03
 0.183394017851581D+03 -.934312928883414D+02 0.141856944753762D+02 0.135038918134143D+03
 0.364017392658959D+02 0.332574243979556D+02 -.434724495960143D+01 -.141467948757928D+02
 0.178199986346052D+03 -.355419486619800D+01 0.170090634493935D+02 -.177350767106209D+03
 0.127612244007912D+03 0.637280633565838D+02 -.268475129651683D+02 0.564586438478585D+02
 0.000000000000000D+00 -.000000000000000D+00 0.000000000000000D+00 0.000000000000000D+00
 0.307330324893839D+03 0.000000000000000D+00 0.000000000000000D+00 0.307330324893839D+03
 0.293635603507808D+03 0.000000000000000D+00 0.000000000000000D+00 -.293635603507808D+03
 0.172524813900959D+03 -.705447653010942D+02 0.924781784874189D+01 0.135038918134143D+03
 0.411349701639306D+02 0.382432410535460D+02 -.542295849606829D+01 -.141467948757928D+02
 0.178815861855454D+03 0.194028737966627D+02 0.120559672518932D+02 -.177350767106209D+03
 0.137701048035012D+03 0.807884137395766D+02 -.305283642903520D+02 0.564586438478585D+02
 0.707892344462916D+02 -.678897632886911D+02 0.146475376857851D+02 0.136947213860319D+02
0.962403770401D-05 0.000000000000D+00 0.000000000000D+00 0.364155890459D-05 0.000000000000D+00  7 1 -2 -24 -13 13 23 21 0 0.71158770D-01 0.22972527D-01 0.20945086D+05 0.20945086D+05 0.20945086D+05 0.11820964D+01  1  2  2  1  7  1        1 0.822172031380D-03 0.100000000000D+01
-.303301471917D-06 0.000000000000D+00 -.369588388507D-07 0.364155890459D-05 0.000000000000D+00  7 1 -2 -24 -13 13 23 21 2 0.71158770D-01 0.22972527D-01 0.20945086D+05 0.20945086D+05 0.20945086D+05 0.11820964D+01  1  2  3  1  7  1        1 -.362064283043D-04 0.100000000000D+01
0.596341712120D-06 0.000000000000D+00 0.000000000000D+00 0.364155890459D-05 0.000000000000D+00  7 1 -2 -24 -13 13 23 21 2 0.71158770D-01 0.22972527D-01 0.20945086D+05 0.20945086D+05 0.20945086D+05 0.11820964D+01  1  2 15  1  7  1        1 0.711879283284D-04 0.100000000000D+01
0.535358622216D-05 0.000000000000D+00 0.000000000000D+00 0.364155890459D-05 0.000000000000D+00  7 1 -2 -24 -13 13 23 21 2 0.86793901D-01 0.22972527D-01 0.33104029D+05 0.33104029D+05 0.33104029D+05 0.11633893D+01  1  2 12  1  7  1        1 0.472405326517D-03 0.100000000000D+01
-.730450112311D-05 0.000000000000D+00 0.000000000000D+00 0.364155890459D-05 0.000000000000D+00  7 1 -2 -24 -13 13 23 21 2 0.71158770D-01 0.22972527D-01 0.20945086D+05 0.20945086D+05 0.20945086D+05 0.11820964D+01  1  2  4  1  7  1        1 -.871970368429D-03 0.100000000000D+01
-.120952711172D-04 0.000000000000D+00 -.582826845503D-05 0.364155890459D-05 0.000000000000D+00  7 1 -2 -24 -13 13 23 21 2 0.91174628D-01 0.22972527D-01 0.20945086D+05 0.20945086D+05 0.20945086D+05 0.11820964D+01  1  2  5  1  7  1        1 -.103044259799D-02 0.100000000000D+01
0.133036856933D-04 0.000000000000D+00 0.565370662499D-05 0.364155890459D-05 0.000000000000D+00  7 1 -2 -24 -13 13 23 21 2 0.71158770D-01 0.22972527D-01 0.20945086D+05 0.20945086D+05 0.20945086D+05 0.11820964D+01  1  2  6  1  7  1        1 0.158811936913D-02 0.100000000000D+01
0.152392295818D-06 0.000000000000D+00 0.000000000000D+00 0.364155890459D-05 0.000000000000D+00  7 21 -2 -24 -13 13 23 -1 2 0.86793901D-01 0.22972527D-01 0.33104029D+05 0.33104029D+05 0.33104029D+05 0.11633893D+01  1  2 12  3  7  1        1 0.374061156154D-04 0.100000000000D+01
-.310447959775D-06 0.000000000000D+00 -.196001467320D-06 0.364155890459D-05 0.000000000000D+00  7 21 -2 -24 -13 13 23 -1 2 0.91174628D-01 0.22972527D-01 0.20945086D+05 0.20945086D+05 0.20945086D+05 0.11820964D+01  1  2  5  3  7  1        1 -.710675924478D-04 0.100000000000D+01
  </mgrwgt>
  </event>
  <event>
  8     66 0.29493621E-05 0.15352751E+03 0.75467711E-02 0.83707923E-01
        1 -1    0    0  501    0 0.00000000E+00 0.00000000E+00 0.12864653E+03 0.12864693E+03 0.32000000E+00 0.0000E+00 0.9000E+01
       -2 -1    0    0    0  501 0.00000000E+00 0.00000000E+00 -.36277069E+03 0.36277083E+03 0.32000000E+00 0.0000E+00 0.9000E+01
       25  2    1    2    0    0 0.44090769E+02 0.57702811E+02 -.11009243E+03 0.32672200E+03 0.29892024E+03 0.0000E+00 0.0000E+00
       23  2    3    3    0    0 0.55411441E+01 0.27555697E+02 -.17847995E+03 0.20267755E+03 0.91831774E+02 0.0000E+00 0.0000E+00
      -24  1    1    2    0    0 -.44090769E+02 -.57702811E+02 -.12403172E+03 0.16469576E+03 0.80419002E+02 0.0000E+00 0.9000E+01
      -13  1    4    4    0    0 0.59028729E+01 -.33568946E+02 -.51595042E+02 0.61836701E+02 0.10565837E+00 0.0000E+00 0.9000E+01
       13  1    4    4    0    0 -.36172886E+00 0.61124643E+02 -.12688491E+03 0.14084085E+03 0.10565837E+00 0.0000E+00 0.9000E+01
       23  1    3    3    0    0 0.38549625E+02 0.30147113E+02 0.68387518E+02 0.12404445E+03 0.91188000E+02 0.0000E+00 0.9000E+01
#aMCatNLO 1  0  0  2  2 0.14755877D+04 0.00000000D+00  -5  7  0 0.00000000D+00 0.00000000D+00 0.00000000D+00 0.00000000D+00 0.00000000D+00
  <mgrwgt>
 0.9217110128D-03    5    2    0
 0.216030841250322D+03 0.000000000000000D+00 0.000000000000000D+00 0.216030841250322D+03
 0.216030841250322D+03 0.000000000000000D+00 0.000000000000000D+00 -.216030841250322D+03
 0.120111567387562D+03 -.440907770164439D+02 -.577028204347708D+02 -.518262535968522D+02
 0.423735259409647D+02 0.590288237497561D+01 -.335690667428704D+02 -.251751750410900D+02
 0.914334674577910D+02 -.361734491459728D+00 0.611247679085369D+02 -.679978739935309D+02
 0.178143121714327D+03 0.385496291329281D+02 0.301471192691043D+02 0.144999302631473D+03
 0.000000000000000D+00 0.000000000000000D+00 0.000000000000000D+00 -.000000000000000D+00
 0.128240761273761D+04 0.000000000000000D+00 0.000000000000000D+00 0.128240761273761D+04
 0.182854753995032D+04 0.000000000000000D+00 0.000000000000000D+00 -.182854753995032D+04
 0.649909849402350D+03 -.560861965821390D+03 -.314107451565375D+03 -.518262535968522D+02
 0.183688234402338D+03 -.145810046757514D+03 -.108843963011598D+03 -.251751750410900D+02
 0.233699344682155D+03 -.218562509412109D+03 -.471391802719380D+02 -.679978739935309D+02
 0.470244896923950D+03 -.396591835627141D+03 -.185755564894561D+03 0.144999302631473D+03
 0.157341282727714D+04 0.132182635761816D+04 0.655846159743473D+03 -.546139927212712D+03
0.100307929016D-04 0.000000000000D+00 0.000000000000D+00 0.169180414418D-06 0.000000000000D+00  7 1 -2 -24 -13 13 23 21 0 0.19791816D-01 0.55810917D-01 0.23570696D+05 0.23570696D+05 0.23570696D+05 0.11771813D+01  1  2  2  2  7  2       -2 0.901373559116D-03 0.100000000000D+01
-.478229166684D-06 0.000000000000D+00 -.385208859106D-07 0.169180414418D-06 0.000000000000D+00  7 1 -2 -24 -13 13 23 21 2 0.19791816D-01 0.55810917D-01 0.23570696D+05 0.23570696D+05 0.23570696D+05 0.11771813D+01  1  2  3  2  7  2       -2 -.595514425589D-04 0.100000000000D+01
0.640415428582D-06 0.000000000000D+00 0.000000000000D+00 0.169180414418D-06 0.000000000000D+00  7 1 -2 -24 -13 13 23 21 2 0.19791816D-01 0.55810917D-01 0.23570696D+05 0.23570696D+05 0.23570696D+05 0.11771813D+01  1  2 15  2  7  2       -2 0.797476717564D-04 0.100000000000D+01
0.336555576817D-04 0.000000000000D+00 -.956210150359D-05 0.169180414418D-06 0.000000000000D+00  7 1 -2 -24 -13 13 23 21 2 0.19791816D-01 0.79246992D+00 0.23570696D+05 0.23570696D+05 0.23570696D+05 0.11771813D+01  1  2  5  2  7  2       -2 0.133740453018D-06 0.100000000000D+01
0.810132874742D-05 0.000000000000D+00 -.288252255580D-05 0.169180414418D-06 0.000000000000D+00  7 1 21 -24 -13 13 23 2 2 0.19791816D-01 0.79246992D+00 0.23570696D+05 0.23570696D+05 0.23570696D+05 0.11771813D+01  1  2  5  4  7  2       -2 0.748404208861D-08 0.100000000000D+01
  </mgrwgt>
  </event>
  <event>
  8     66 0.29493621E-05 0.16284634E+03 0.75467711E-02 0.10353640E+00
        1 -1    0    0  501    0 0.00000000E+00 0.00000000E+00 0.29452720E+03 0.29452738E+03 0.32000000E+00 0.0000E+00 0.9000E+01
       -2 -1    0    0    0  501 0.00000000E+00 0.00000000E+00 -.20400352E+03 0.20400377E+03 0.32000000E+00 0.0000E+00 0.9000E+01
       25  2    1    2    0    0 0.13766444E+03 -.12211182E+02 0.67229551E+02 0.33694388E+03 0.29985122E+03 0.0000E+00 0.0000E+00
       23  2    3    3    0    0 0.10888129E+03 -.11278538E+03 -.14551278E+01 0.18210049E+03 0.92643371E+02 0.0000E+00 0.0000E+00
      -24  1    1    2    0    0 -.13766444E+03 0.12211182E+02 0.23294135E+02 0.16158726E+03 0.80419002E+02 0.0000E+00 0.9000E+01
      -11  1    4    4    0    0 0.11335007E+03 -.12481156E+03 -.53723925E+01 0.16868617E+03 0.51099893E-03 0.0000E+00 0.9000E+01
       11  1    4    4    0    0 -.44687733E+01 0.12026181E+02 0.39172647E+01 0.13414318E+02 0.51099893E-03 0.0000E+00 0.9000E+01
       23  1    3    3    0    0 0.28783148E+02 0.10057420E+03 0.68684678E+02 0.15484339E+03 0.91188000E+02 0.0000E+00 0.9000E+01
#aMCatNLO 1  0  0  1  2 0.81436650D+01 0.00000000D+00  -5  7  0 0.00000000D+00 0.00000000D+00 0.00000000D+00 0.00000000D+00 0.00000000D+00
  <mgrwgt>
 0.1126473460D-02   11    2    0
 0.245121787848635D+03 0.000000000000000D+00 0.000000000000000D+00 0.245121787848635D+03
 0.245121787848635D+03 0.000000000000000D+00 0.000000000000000D+00 -.245121787848635D+03
 0.160017625264563D+03 -.137664441246287D+03 0.122111818905945D+02 -.614923524690459D+01
 0.172529827900528D+03 0.113350066213534D+03 -.124811558026897D+03 -.366111866465965D+02
 0.129177620714717D+02 -.446877329862065D+01 0.120261805977761D+02 0.150652659132250D+01
 0.144778360460708D+03 0.287831483313743D+02 0.100574195538526D+03 0.412538953021785D+02
 0.000000000000000D+00 0.000000000000000D+00 0.000000000000000D+00 0.000000000000000D+00
 0.254990976229849D+03 0.000000000000000D+00 0.000000000000000D+00 0.254990976229849D+03
 0.246841339085713D+03 0.000000000000000D+00 0.000000000000000D+00 -.246841339085713D+03
 0.161829114182876D+03 -.139887668525977D+03 0.107272243888252D+02 -.614923524690459D+01
 0.172138572354265D+03 0.110969193282495D+03 -.126400740688989D+03 -.366111866465965D+02
 0.128703792768403D+02 -.464691056804430D+01 0.119072777128930D+02 0.150652659132250D+01
 0.143473144328389D+03 0.267919875386346D+02 0.992451375413490D+02 0.412538953021785D+02
 0.115211051731918D+02 0.677339827289255D+01 0.452110104592230D+01 0.814963714413609D+01
0.626772788999D-05 0.000000000000D+00 0.000000000000D+00 0.891443779741D-06 0.000000000000D+00  7 1 -2 -24 -11 11 23 21 0 0.45311910D-01 0.31385189D-01 0.57625453D+05 0.57625453D+05 0.57625453D+05 0.11419123D+01  1  2  2  1  7  1        1 0.569934642884D-03 0.100000000000D+01
-.348022255318D-06 0.000000000000D+00 -.240697254282D-07 0.891443779741D-06 0.000000000000D+00  7 1 -2 -24 -11 11 23 21 2 0.45311910D-01 0.31385189D-01 0.57625453D+05 0.57625453D+05 0.57625453D+05 0.11419123D+01  1  2  3  1  7  1        1 -.412655338376D-04 0.100000000000D+01
0.410334878298D-06 0.000000000000D+00 0.000000000000D+00 0.891443779741D-06 0.000000000000D+00  7 1 -2 -24 -11 11 23 21 2 0.45311910D-01 0.31385189D-01 0.57625453D+05 0.57625453D+05 0.57625453D+05 0.11419123D+01  1  2 15  1  7  1        1 0.486540373394D-04 0.100000000000D+01
0.276817919795D-04 0.000000000000D+00 0.000000000000D+00 0.891443779741D-06 0.000000000000D+00  7 1 -2 -24 -11 11 23 21 2 0.47291301D-01 0.31385189D-01 0.59597554D+05 0.59597554D+05 0.59597554D+05 0.11406475D+01  1  2 12  1  7  1        1 0.309778036707D-02 0.100000000000D+01
-.283610397132D-04 0.000000000000D+00 0.000000000000D+00 0.891443779741D-06 0.000000000000D+00  7 1 -2 -24 -11 11 23 21 2 0.45311910D-01 0.31385189D-01 0.57625453D+05 0.57625453D+05 0.57625453D+05 0.11419123D+01  1  2  4  1  7  1        1 -.336281207904D-02 0.100000000000D+01
-.166972788043D-03 0.000000000000D+00 -.189775451897D-04 0.891443779741D-06 0.000000000000D+00  7 1 -2 -24 -11 11 23 21 2 0.47388622D-01 0.31385189D-01 0.57625453D+05 0.57625453D+05 0.57625453D+05 0.11419123D+01  1  2  5  1  7  1        1 -.186764742437D-01 0.100000000000D+01
0.167673869056D-03 0.000000000000D+00 0.189585063598D-04 0.891443779741D-06 0.000000000000D+00  7 1 -2 -24 -11 11 23 21 2 0.45311910D-01 0.31385189D-01 0.57625453D+05 0.57625453D+05 0.57625453D+05 0.11419123D+01  1  2  6  1  7  1        1 0.198813484239D-01 0.100000000000D+01
0.239535643502D-06 0.000000000000D+00 0.000000000000D+00 0.891443779741D-06 0.933598725169D-07  7 1 -2 -24 -11 11 23 21 2 0.47136276D-01 0.31605359D-01 0.59597554D+05 0.59597554D+05 0.59597554D+05 0.11406475D+01  1  2 11  1  7  1        1 0.265913156100D-04 0.100000000000D+01
0.509697949868D-06 0.000000000000D+00 0.000000000000D+00 0.891443779741D-06 0.000000000000D+00  7 21 -2 -24 -11 11 23 -1 2 0.47291301D-01 0.31385189D-01 0.59597554D+05 0.59597554D+05 0.59597554D+05 0.11406475D+01  1  2 12  3  7  1        1 0.270277960785D-03 0.100000000000D+01
-.129979304546D-05 0.000000000000D+00 -.149264722338D-06 0.891443779741D-06 0.000000000000D+00  7 21 -2 -24 -11 11 23 -1 2 0.47388622D-01 0.31385189D-01 0.57625453D+05 0.57625453D+05 0.57625453D+05 0.11419123D+01  1  2  5  3  7  1        1 -.688513151604D-03 0.100000000000D+01
0.180451669594D-08 0.000000000000D+00 0.000000000000D+00 0.891443779741D-06 0.654552492202D-09  7 21 -2 -24 -11 11 23 -1 2 0.47136276D-01 0.31605359D-01 0.59597554D+05 0.59597554D+05 0.59597554D+05 0.11406475D+01  1  2 11  3  7  1        1 0.951720177979D-06 0.100000000000D+01
  </mgrwgt>
  </event>
  <event>
  8     66 0.29493621E-05 0.24912509E+03 0.75467711E-02 0.95288571E-01
        1 -1    0    0  501    0 0.00000000E+00 0.00000000E+00 0.15184241E+04 0.15184242E+04 0.32000000E+00 0.0000E+00 0.9000E+01
       -2 -1    0    0    0  501 0.00000000E+00 0.00000000E+00 -.20479722E+03 0.20479747E+03 0.32000000E+00 0.0000E+00 0.9000E+01
       25  2    1    2    0    0 0.17765347E+03 -.35090053E+03 0.18858264E+03 0.52869923E+03 0.29877671E+03 0.0000E+00 0.0000E+00
       23  2    3    3    0    0 0.10504595E+03 -.35065842E+03 0.13825553E+03 0.40173474E+03 0.90995778E+02 0.0000E+00 0.0000E+00
      -24  1    1    2    0    0 -.17765347E+03 0.35090053E+03 0.11250443E+04 0.11945224E+04 0.80419002E+02 0.0000E+00 0.9000E+01
      -13  1    4    4    0    0 -.99016084E+01 -.20334633E+01 0.37601421E+01 0.10785484E+02 0.10565837E+00 0.0000E+00 0.9000E+01
       13  1    4    4    0    0 0.11494756E+03 -.34862496E+03 0.13449538E+03 0.39094926E+03 0.10565837E+00 0.0000E+00 0.9000E+01
       23  1    3    3    0    0 0.72607521E+02 -.24210946E+00 0.50327114E+02 0.12696449E+03 0.91188000E+02 0.0000E+00 0.9000E+01
#aMCatNLO 1  0  0  2  1 0.46713048D+02 0.00000000D+00  -5  7  0 0.00000000D+00 0.00000000D+00 0.00000000D+00 0.00000000D+00 0.00000000D+00
  <mgrwgt>
 0.1201718658D-02    9    2    0
 0.557646196100861D+03 0.000000000000000D+00 0.000000000000000D+00 0.557646196100861D+03
 0.557646196100861D+03 0.000000000000000D+00 0.000000000000000D+00 -.557646196100861D+03
 0.520525748625498D+03 -.177653471622902D+03 0.350900531264927D+03 0.331342572281449D+03
 0.122350901269053D+02 -.990177672230541D+01 -.203299604686958D+01 -.689341535296693D+01
 0.445637501040399D+03 0.114947727705469D+03 -.348625425727583D+03 -.252666014266150D+03
 0.136894052408920D+03 0.726075206397381D+02 -.242109490474036D+00 -.717831426623320D+02
 0.000000000000000D+00 -.000000000000000D+00 -.000000000000000D+00 -.000000000000000D+00
 0.568037956916852D+03 0.000000000000000D+00 0.000000000000000D+00 0.568037956916852D+03
 0.613223064836421D+03 0.000000000000000D+00 0.000000000000000D+00 -.613223064836421D+03
 0.528946537734716D+03 -.165294089441444D+03 0.369062579540122D+03 0.331342572281449D+03
 0.119420969522731D+02 -.961704781705673D+01 -.161458839132929D+01 -.689341535296693D+01
 0.436664992700980D+03 0.125338391529116D+03 -.333356398910083D+03 -.252666014266150D+03
 0.138716603777650D+03 0.758533209122791D+02 0.452757724435104D+01 -.717831426623320D+02
 0.649907905876534D+02 -.262805751828946D+02 -.386191694830606D+02 -.451851079195689D+02
0.158299879672D-03 0.000000000000D+00 0.000000000000D+00 0.398559375584D-05 0.000000000000D+00  7 1 -2 -24 -13 13 23 21 0 0.23360373D+00 0.31507286D-01 0.20034816D+06 0.20034816D+06 0.20034816D+06 0.10977674D+01  1  2  2  2  7  2       -2 0.104094479431D-02 0.100000000000D+01
-.827776094132D-05 0.000000000000D+00 -.607913219256D-06 0.398559375584D-05 0.000000000000D+00  7 1 -2 -24 -13 13 23 21 2 0.23360373D+00 0.31507286D-01 0.20034816D+06 0.20034816D+06 0.20034816D+06 0.10977674D+01  1  2  3  2  7  2       -2 -.655964944972D-04 0.100000000000D+01
0.101146173966D-04 0.000000000000D+00 0.000000000000D+00 0.398559375584D-05 0.000000000000D+00  7 1 -2 -24 -13 13 23 21 2 0.23360373D+00 0.31507286D-01 0.20034816D+06 0.20034816D+06 0.20034816D+06 0.10977674D+01  1  2 15  2  7  2       -2 0.801525254352D-04 0.100000000000D+01
0.639965876330D-03 0.000000000000D+00 0.000000000000D+00 0.398559375584D-05 0.000000000000D+00  7 1 -2 -24 -13 13 23 21 2 0.23360373D+00 0.34922009D-01 0.22260036D+06 0.22260036D+06 0.22260036D+06 0.10942721D+01  1  2 12  2  7  2       -2 0.416750294027D-02 0.100000000000D+01
-.649604818864D-03 0.000000000000D+00 0.000000000000D+00 0.398559375584D-05 0.000000000000D+00  7 1 -2 -24 -13 13 23 21 2 0.23360373D+00 0.31507286D-01 0.20034816D+06 0.20034816D+06 0.20034816D+06 0.10977674D+01  1  2  4  2  7  2       -2 -.514774456862D-02 0.100000000000D+01
-.122313027489D-02 0.000000000000D+00 -.193136559956D-03 0.398559375584D-05 0.000000000000D+00  7 1 -2 -24 -13 13 23 21 2 0.23360373D+00 0.35206084D-01 0.20034816D+06 0.20034816D+06 0.20034816D+06 0.10977674D+01  1  2  5  2  7  2       -2 -.793306875061D-02 0.100000000000D+01
0.123811692611D-02 0.000000000000D+00 0.191952817998D-03 0.398559375584D-05 0.000000000000D+00  7 1 -2 -24 -13 13 23 21 2 0.23360373D+00 0.31507286D-01 0.20034816D+06 0.20034816D+06 0.20034816D+06 0.10977674D+01  1  2  6  2  7  2       -2 0.981136453520D-02 0.100000000000D+01
0.106537488518D-04 0.000000000000D+00 0.000000000000D+00 0.398559375584D-05 0.000000000000D+00  7 1 21 -24 -13 13 23 2 2 0.23360373D+00 0.34922009D-01 0.22260036D+06 0.22260036D+06 0.22260036D+06 0.10942721D+01  1  2 12  4  7  2       -2 0.782276816871D-03 0.100000000000D+01
-.209527340901D-04 0.000000000000D+00 -.343064946445D-05 0.398559375584D-05 0.000000000000D+00  7 1 21 -24 -13 13 23 2 2 0.23360373D+00 0.35206084D-01 0.20034816D+06 0.20034816D+06 0.20034816D+06 0.10977674D+01  1  2  5  4  7  2       -2 -.153411314068D-02 0.100000000000D+01
  </mgrwgt>
  </event>
  <event>
  8     66 0.29493621E-05 0.61426978E+03 0.75467711E-02 0.88149241E-01
        1 -1    0    0  501    0 0.00000000E+00 0.00000000E+00 0.69924927E+03 0.69924935E+03 0.32000000E+00 0.0000E+00 0.9000E+01
       -2 -1    0    0    0  501 0.00000000E+00 0.00000000E+00 -.58992141E+03 0.58992150E+03 0.32000000E+00 0.0000E+00 0.9000E+01
       25  2    1    2    0    0 -.27631497E+02 -.57438701E+03 -.12939317E+03 0.66136604E+03 0.29996418E+03 0.0000E+00 0.0000E+00
       23  2    3    3    0    0 0.27382817E+01 -.53788405E+03 -.10939001E+03 0.55662747E+03 0.92418699E+02 0.0000E+00 0.0000E+00
      -24  1    1    2    0    0 0.27631497E+02 0.57438701E+03 0.23872103E+03 0.62780481E+03 0.80419002E+02 0.0000E+00 0.9000E+01
      -13  1    4    4    0    0 -.42465257E+02 -.29286105E+03 -.73326180E+02 0.30487314E+03 0.10565837E+00 0.0000E+00 0.9000E+01
       13  1    4    4    0    0 0.45203539E+02 -.24502300E+03 -.36063826E+02 0.25175433E+03 0.10565837E+00 0.0000E+00 0.9000E+01
       23  1    3    3    0    0 -.30369779E+02 -.36502955E+02 -.20003163E+02 0.10473857E+03 0.91188000E+02 0.0000E+00 0.9000E+01
#aMCatNLO 1  0  0  1  1 0.51581056D+03 0.00000000D+00  -5  7  0 0.00000000D+00 0.00000000D+00 0.00000000D+00 0.00000000D+00 0.00000000D+00
  <mgrwgt>
 0.8351888203D-03    3    2    0
 0.642263360288784D+03 0.000000000000000D+00 0.000000000000000D+00 0.642263360288784D+03
 0.642263360288784D+03 0.000000000000000D+00 0.000000000000000D+00 -.642263360288784D+03
 0.609756721491288D+03 0.276314969798718D+02 0.574387008628649D+03 0.186150767236446D+03
 0.312216358726607D+03 -.424653714221736D+02 -.292861112193997D+03 -.995395190412981D+02
 0.255733902232670D+03 0.452036531640889D+02 -.245022941790972D+03 -.576213197338227D+02
 0.106819738127003D+03 -.303697787217871D+02 -.365029546436796D+02 -.289899284613248D+02
 0.000000000000000D+00 0.000000000000000D+00 0.000000000000000D+00 -.000000000000000D+00
 0.923577242099402D+03 0.000000000000000D+00 0.000000000000000D+00 0.923577242099402D+03
 0.979474842155267D+03 0.000000000000000D+00 0.000000000000000D+00 -.979474842155267D+03
 0.590751462078147D+03 -.197567682448118D+03 0.518492986165155D+03 0.186150767236446D+03
 0.381326943563639D+03 -.172564761589728D+03 -.325151541737225D+03 -.995395190412981D+02
 0.281665907317103D+03 -.556053190626024D+02 -.270043543431140D+03 -.576213197338227D+02
 0.130477283801875D+03 -.748835066167525D+02 -.475511800999834D+02 -.289899284613248D+02
 0.518830487493905D+03 0.500621269717200D+03 0.124253279103192D+03 -.558976000558654D+02
0.265766887525D-03 0.000000000000D+00 0.000000000000D+00 0.897943522843D-05 0.000000000000D+00  7 1 -2 -24 -13 13 23 21 0 0.10757682D+00 0.90757153D-01 0.37732737D+06 0.37732737D+06 0.37732737D+06 0.10772593D+01  1  2  2  1  7  1        1 0.827379536885D-03 0.100000000000D+01
-.147291751982D-04 0.000000000000D+00 -.102061482612D-05 0.897943522843D-05 0.000000000000D+00  7 1 -2 -24 -13 13 23 21 2 0.10757682D+00 0.90757153D-01 0.37732737D+06 0.37732737D+06 0.37732737D+06 0.10772593D+01  1  2  3  1  7  1        1 -.532136199882D-04 0.100000000000D+01
0.168907327740D-04 0.000000000000D+00 0.000000000000D+00 0.897943522843D-05 0.000000000000D+00  7 1 -2 -24 -13 13 23 21 2 0.10757682D+00 0.90757153D-01 0.37732737D+06 0.37732737D+06 0.37732737D+06 0.10772593D+01  1  2 15  1  7  1        1 0.610229033916D-04 0.100000000000D+01
  </mgrwgt>
  </event>
  <event>
  8     66 0.29493621E-05 0.24926157E+03 0.75467711E-02 0.94270587E-01
        1 -1    0    0  501    0 0.00000000E+00 0.00000000E+00 0.79555113E+03 0.79555119E+03 0.32000000E+00 0.0000E+00 0.9000E+01
       -2 -1    0    0    0  501 0.00000000E+00 0.00000000E+00 -.96234770E+02 0.96235302E+02 0.32000000E+00 0.0000E+00 0.9000E+01
       25  2    1    2    0    0 0.16860952E+03 -.71111693E+02 0.48032437E+03 0.59528902E+03 0.30028566E+03 0.0000E+00 0.0000E+00
       23  2    3    3    0    0 0.17901900E+03 -.83537761E+01 0.42701464E+03 0.47198415E+03 0.91158894E+02 0.0000E+00 0.0000E+00
      -24  1    1    2    0    0 -.16860952E+03 0.71111693E+02 0.21899199E+03 0.29649747E+03 0.80419002E+02 0.0000E+00 0.9000E+01
      -13  1    4    4    0    0 0.38741458E+02 -.25129163E+02 0.44158183E+02 0.63893127E+02 0.10565837E+00 0.0000E+00 0.9000E+01
       13  1    4    4    0    0 0.14027754E+03 0.16775387E+02 0.38285646E+03 0.40809102E+03 0.10565837E+00 0.0000E+00 0.9000E+01
       23  1    3    3    0    0 -.10409483E+02 -.62757917E+02 0.53309724E+02 0.12330487E+03 0.91188000E+02 0.0000E+00 0.9000E+01
#aMCatNLO 1  0  0  2  2 0.39014853D+03 0.00000000D+00  -5  7  0 0.00000000D+00 0.00000000D+00 0.00000000D+00 0.00000000D+00 0.00000000D+00
  <mgrwgt>
 0.1267296467D-02    5    2    0
 0.276694678547278D+03 0.000000000000000D+00 0.000000000000000D+00 0.276694678547278D+03
 0.276694678547278D+03 0.000000000000000D+00 0.000000000000000D+00 -.276694678547278D+03
 0.201065953563821D+03 -.168609518075053D+03 0.711116934496063D+02 -.217774929086402D+02
 0.471609966548443D+02 0.387413213948069D+02 -.251292189981122D+02 -.958081283646803D+01
 0.173824034718708D+03 0.140277679034415D+03 0.167754425800613D+02 0.101269700981346D+03
 0.131338372157183D+03 -.104094823541694D+02 -.627579170315553D+02 -.699113952362377D+02
 0.000000000000000D+00 -.000000000000000D+00 0.000000000000000D+00 -.000000000000000D+00
 0.434002734514717D+03 0.000000000000000D+00 0.000000000000000D+00 0.434002734514717D+03
 0.737201469048048D+03 0.000000000000000D+00 0.000000000000000D+00 -.737201469048048D+03
 0.117750352690647D+03 -.717782494723995D+02 0.420898243010499D+02 -.217774929086402D+02
 0.889531105233955D+02 0.800820602912250D+02 -.375196950506341D+02 -.958081283646803D+01
 0.304019571390641D+03 0.285408908728493D+03 -.267226920445554D+02 0.101269700981346D+03
 0.166370502773920D+03 0.800110120443769D+02 -.898583753303170D+02 -.699113952362377D+02
 0.494110666184162D+03 -.373723731591696D+03 0.112010938124457D+03 -.303198734533332D+03
0.146817419087D-04 0.000000000000D+00 0.000000000000D+00 0.225560777806D-05 0.000000000000D+00  7 1 -2 -24 -13 13 23 21 0 0.12239253D+00 0.14805395D-01 0.62131329D+05 0.62131329D+05 0.62131329D+05 0.11390885D+01  1  2  2  2  7  2       -2 0.117623973913D-02 0.100000000000D+01
-.804840825498D-06 0.000000000000D+00 -.563817547209D-07 0.225560777806D-05 0.000000000000D+00  7 1 -2 -24 -13 13 23 21 2 0.12239253D+00 0.14805395D-01 0.62131329D+05 0.62131329D+05 0.62131329D+05 0.11390885D+01  1  2  3  2  7  2       -2 -.836648861808D-04 0.100000000000D+01
0.947488294066D-06 0.000000000000D+00 0.000000000000D+00 0.225560777806D-05 0.000000000000D+00  7 1 -2 -24 -13 13 23 21 2 0.12239253D+00 0.14805395D-01 0.62131329D+05 0.62131329D+05 0.62131329D+05 0.11390885D+01  1  2 15  2  7  2       -2 0.984933887166D-04 0.100000000000D+01
0.297734974071D-05 0.000000000000D+00 -.544052057863D-05 0.225560777806D-05 0.000000000000D+00  7 1 -2 -24 -13 13 23 21 2 0.12239253D+00 0.60209199D-01 0.62131329D+05 0.62131329D+05 0.62131329D+05 0.11390885D+01  1  2  5  2  7  2       -2 0.258661288180D-04 0.100000000000D+01
0.548098096116D-06 0.000000000000D+00 -.912741160183D-06 0.225560777806D-05 0.000000000000D+00  7 1 21 -24 -13 13 23 2 2 0.12239253D+00 0.60209199D-01 0.62131329D+05 0.62131329D+05 0.62131329D+05 0.11390885D+01  1  2  5  4  7  2       -2 0.503620964749D-04 0.100000000000D+01
  </mgrwgt>
  </event>
  <event>
  8     66 0.29493621E-05 0.24202208E+03 0.75467711E-02 0.10002787E+00
        1 -1    0    0  501    0 0.00000000E+00 0.00000000E+00 0.91060848E+03 0.91060854E+03 0.32000000E+00 0.0000E+00 0.9000E+01
       -2 -1    0    0    0  501 0.00000000E+00 0.00000000E+00 -.95425055E+02 0.95425591E+02 0.32000000E+00 0.0000E+00 0.9000E+01
       25  2    1    2    0    0 -.12045888E+03 0.98468543E+02 0.26482472E+03 0.42848040E+03 0.29875897E+03 0.0000E+00 0.0000E+00
       23  2    3    3    0    0 -.15756937E+03 0.18965733E+02 0.23660620E+03 0.29882924E+03 0.90158843E+02 0.0000E+00 0.0000E+00
      -24  1    1    2    0    0 0.12045888E+03 -.98468543E+02 0.55035870E+03 0.57755373E+03 0.80419002E+02 0.0000E+00 0.9000E+01
      -11  1    4    4    0    0 -.77239785E+02 0.54492421E+02 0.12899512E+03 0.15992233E+03 0.51099893E-03 0.0000E+00 0.9000E+01
       11  1    4    4    0    0 -.80329589E+02 -.35526687E+02 0.10761107E+03 0.13890691E+03 0.51099893E-03 0.0000E+00 0.9000E+01
       23  1    3    3    0    0 0.37110498E+02 0.79502810E+02 0.28218528E+02 0.12965116E+03 0.91188000E+02 0.0000E+00 0.9000E+01
#aMCatNLO 1  0  0  2  2 0.12757193D+03 0.00000000D+00  -5  7  0 0.00000000D+00 0.00000000D+00 0.00000000D+00 0.00000000D+00 0.00000000D+00
  <mgrwgt>
 0.7016561686D-03    7    2    0
 0.294779854095678D+03 0.000000000000000D+00 0.000000000000000D+00 0.294779854095678D+03
 0.294779854095678D+03 0.000000000000000D+00 0.000000000000000D+00 -.294779854095678D+03
 0.224566688883774D+03 0.120458875540381D+03 -.984685431569156D+02 0.140558127171476D+03
 0.945326313350286D+02 -.772397848080269D+02 0.544924207676347D+02 -.100504169921848D+01
 0.882392990101191D+02 -.803295889035874D+02 -.355266872690812D+02 -.843715165578709D+01
 0.182221088962435D+03 0.371104981712329D+02 0.795028096583621D+02 -.131115933816470D+03
 0.000000000000000D+00 -.000000000000000D+00 -.000000000000000D+00 -.000000000000000D+00
 0.363638353716685D+03 0.000000000000000D+00 0.000000000000000D+00 0.363638353716685D+03
 0.367187075056013D+03 0.000000000000000D+00 0.000000000000000D+00 -.367187075056013D+03
 0.251145624665127D+03 0.170350979458879D+03 -.884921777193582D+02 0.140558127171476D+03
 0.826433555095722D+02 -.586577920873268D+02 0.582080538113439D+02 -.100504169921848D+01
 0.717294156547624D+02 -.635522730585809D+02 -.321719152553667D+02 -.843715165578709D+01
 0.197685754388025D+03 0.769546459217640D+02 0.874699977961219D+02 -.131115933816470D+03
 0.127621278555211D+03 -.125095560234735D+03 -.250139586327409D+02 -.354872133932861D+01
0.110265954570D-04 0.000000000000D+00 0.000000000000D+00 0.299449130302D-06 0.000000000000D+00  7 1 -2 -24 -11 11 23 21 0 0.14009366D+00 0.14680823D-01 0.58574685D+05 0.58574685D+05 0.58574685D+05 0.11412977D+01  1  2  2  2  7  2       -2 0.721650089776D-03 0.100000000000D+01
-.583624291946D-06 0.000000000000D+00 -.423450299242D-07 0.299449130302D-06 0.000000000000D+00  7 1 -2 -24 -11 11 23 21 2 0.14009366D+00 0.14680823D-01 0.58574685D+05 0.58574685D+05 0.58574685D+05 0.11412977D+01  1  2  3  2  7  2       -2 -.497526787608D-04 0.100000000000D+01
0.715872497953D-06 0.000000000000D+00 0.000000000000D+00 0.299449130302D-06 0.000000000000D+00  7 1 -2 -24 -11 11 23 21 2 0.14009366D+00 0.14680823D-01 0.58574685D+05 0.58574685D+05 0.58574685D+05 0.11412977D+01  1  2 15  2  7  2       -2 0.610265455291D-04 0.100000000000D+01
-.421799169266D-05 0.000000000000D+00 0.000000000000D+00 0.299449130302D-06 0.000000000000D+00  7 1 -2 -24 -11 11 23 21 2 0.14009366D+00 0.14680823D-01 0.58574685D+05 0.58574685D+05 0.58574685D+05 0.11412977D+01  1  2  4  2  7  2       -2 -.359574453286D-03 0.100000000000D+01
-.675204731904D-05 0.000000000000D+00 -.446138618666D-05 0.299449130302D-06 0.000000000000D+00  7 1 -2 -24 -11 11 23 21 2 0.14009366D+00 0.22609235D-01 0.58574685D+05 0.58574685D+05 0.58574685D+05 0.11412977D+01  1  2  5  2  7  2       -2 -.285398676951D-03 0.100000000000D+01
0.828038256353D-05 0.000000000000D+00 0.407547741482D-05 0.299449130302D-06 0.000000000000D+00  7 1 -2 -24 -11 11 23 21 2 0.14009366D+00 0.14680823D-01 0.58574685D+05 0.58574685D+05 0.58574685D+05 0.11412977D+01  1  2  6  2  7  2       -2 0.705884281008D-03 0.100000000000D+01
-.171643956103D-06 0.000000000000D+00 -.224745842150D-06 0.299449130302D-06 0.000000000000D+00  7 1 21 -24 -11 11 23 2 2 0.14009366D+00 0.22609235D-01 0.58574685D+05 0.58574685D+05 0.58574685D+05 0.11412977D+01  1  2  5  4  7  2       -2 -.921789387394D-04 0.100000000000D+01
  </mgrwgt>
  </event>
  <event>
  8     66 0.29493621E-05 0.23639152E+03 0.75467711E-02 0.96719304E-01
        1 -1    0    0  501    0 0.00000000E+00 0.00000000E+00 0.95569036E+02 0.95569572E+02 0.32000000E+00 0.0000E+00 0.9000E+01
       -2 -1    0    0    0  501 0.00000000E+00 0.00000000E+00 -.10129554E+04 0.10129554E+04 0.32000000E+00 0.0000E+00 0.9000E+01
       25  2    1    2    0    0 0.12000967E+03 -.49356473E+02 -.21907922E+03 0.39372543E+03 0.30030921E+03 0.0000E+00 0.0000E+00
       23  2    3    3    0    0 0.19240845E+01 -.12376011E+03 -.65916797E+02 0.16733177E+03 0.91294201E+02 0.0000E+00 0.0000E+00
      -24  1    1    2    0    0 -.12000967E+03 0.49356473E+02 -.69830712E+03 0.71479957E+03 0.80419002E+02 0.0000E+00 0.9000E+01
      -11  1    4    4    0    0 0.23366839E+02 -.12918688E+03 -.52045174E+02 0.14122308E+03 0.51099893E-03 0.0000E+00 0.9000E+01
       11  1    4    4    0    0 -.21442755E+02 0.54267729E+01 -.13871623E+02 0.26108687E+02 0.51099893E-03 0.0000E+00 0.9000E+01
       23  1    3    3    0    0 0.11808559E+03 0.74403636E+02 -.15316242E+03 0.22639365E+03 0.91188000E+02 0.0000E+00 0.9000E+01
#aMCatNLO 1  0  0  2  2 0.29511955D+03 0.00000000D+00  -5  7  0 0.00000000D+00 0.00000000D+00 0.00000000D+00 0.00000000D+00 0.00000000D+00
  <mgrwgt>
 0.1157292159D-02    5    2    0
 0.311139026454727D+03 0.000000000000000D+00 0.000000000000000D+00 0.311139026454727D+03
 0.311139026454727D+03 0.000000000000000D+00 0.000000000000000D+00 -.311139026454727D+03
 0.243871342472635D+03 -.120009671107144D+03 0.493564730235335D+02 -.190177898654042D+03
 0.174847542333023D+03 0.233668394941139D+02 -.129186881674979D+03 0.115483347176333D+03
 0.260598849724467D+02 -.214427549585942D+02 0.542677285962209D+01 0.137795500976233D+02
 0.177499283131349D+03 0.118085586571624D+03 0.744036357918238D+02 0.609150013800861D+02
 0.000000000000000D+00 -.000000000000000D+00 0.000000000000000D+00 -.000000000000000D+00
 0.423843923145839D+03 0.000000000000000D+00 0.000000000000000D+00 0.423843923145839D+03
 0.618285088955378D+03 0.000000000000000D+00 0.000000000000000D+00 -.618285088955378D+03
 0.223304175411034D+03 -.724806804041749D+02 -.444573574710883D+02 -.190177898654042D+03
 0.253176551369731D+03 0.669126855230375D+02 -.215138688302490D+03 0.115483347176333D+03
 0.219502682308140D+02 -.165583506225474D+02 -.421417835082439D+01 0.137795500976233D+02
 0.190281951929700D+03 0.155502510688559D+03 0.549238195348394D+00 0.609150013800861D+02
 0.353416065159937D+03 -.133376165184874D+03 0.263260985929054D+03 -.194441165809539D+03
0.953193623084D-04 0.000000000000D+00 0.000000000000D+00 0.442173527123D-05 0.000000000000D+00  7 1 -2 -24 -11 11 23 21 0 0.14702974D-01 0.15583933D+00 0.55880952D+05 0.55880952D+05 0.55880952D+05 0.11430716D+01  1  2  2  2  7  2       -2 0.114594786529D-02 0.100000000000D+01
-.480948591542D-05 0.000000000000D+00 -.366051449429D-06 0.442173527123D-05 0.000000000000D+00  7 1 -2 -24 -11 11 23 21 2 0.14702974D-01 0.15583933D+00 0.55880952D+05 0.55880952D+05 0.55880952D+05 0.11430716D+01  1  2  3  2  7  2       -2 -.755490887531D-04 0.100000000000D+01
0.599001259498D-05 0.000000000000D+00 0.000000000000D+00 0.442173527123D-05 0.000000000000D+00  7 1 -2 -24 -11 11 23 21 2 0.14702974D-01 0.15583933D+00 0.55880952D+05 0.55880952D+05 0.55880952D+05 0.11430716D+01  1  2 15  2  7  2       -2 0.940932151852D-04 0.100000000000D+01
-.128919082333D-04 0.000000000000D+00 -.256261102732D-04 0.442173527123D-05 0.000000000000D+00  7 1 -2 -24 -11 11 23 21 2 0.14702974D-01 0.35550079D+00 0.55880952D+05 0.55880952D+05 0.55880952D+05 0.11430716D+01  1  2  5  2  7  2       -2 -.997031481692D-05 0.100000000000D+01
0.465113612491D-06 0.000000000000D+00 -.229800517175D-05 0.442173527123D-05 0.000000000000D+00  7 1 21 -24 -11 11 23 2 2 0.14702974D-01 0.35550079D+00 0.55880952D+05 0.55880952D+05 0.55880952D+05 0.11430716D+01  1  2  5  4  7  2       -2 0.277048246308D-05 0.100000000000D+01
  </mgrwgt>
  </event>
  <event>
  8     66 0.29493621E-05 0.70138149E+02 0.75467711E-02 0.99973382E-01
        1 -1    0    0  501    0 0.00000000E+00 0.00000000E+00 0.39919719E+03 0.39919731E+03 0.32000000E+00 0.0000E+00 0.9000E+01
       -2 -1    0    0    0  501 0.00000000E+00 0.00000000E+00 -.27771694E+03 0.27771713E+03 0.32000000E+00 0.0000E+00 0.9000E+01
       25  2    1    2    0    0 0.11860954E+03 0.15576070E+03 -.99103512E+02 0.37121193E+03 0.29941138E+03 0.0000E+00 0.0000E+00
       23  2    3    3    0    0 -.51751267E+02 0.11110001E+03 -.78221979E+02 0.17179109E+03 0.91499152E+02 0.0000E+00 0.0000E+00
      -24  1    1    2    0    0 -.11860954E+03 -.15576070E+03 0.22058375E+03 0.30570251E+03 0.80419002E+02 0.0000E+00 0.9000E+01
      -13  1    4    4    0    0 -.73889966E+02 0.54105306E+02 -.51442954E+02 0.10504047E+03 0.10565837E+00 0.0000E+00 0.9000E+01
       13  1    4    4    0    0 0.22138699E+02 0.56994701E+02 -.26779025E+02 0.66750620E+02 0.10565837E+00 0.0000E+00 0.9000E+01
       23  1    3    3    0    0 0.17036081E+03 0.44660690E+02 -.20881532E+02 0.19942084E+03 0.91188000E+02 0.0000E+00 0.9000E+01
#aMCatNLO 1  0  0  2  1 0.74311790D+02 0.00000000D+00  -5  7  0 0.00000000D+00 0.00000000D+00 0.00000000D+00 0.00000000D+00 0.00000000D+00
  <mgrwgt>
 0.1001147624D-02    9    2    0
 0.332962352296407D+03 0.000000000000000D+00 0.000000000000000D+00 0.332962352296407D+03
 0.332962352296407D+03 0.000000000000000D+00 0.000000000000000D+00 -.332962352296407D+03
 0.270507876639981D+03 -.118609541076927D+03 -.155760696462431D+03 0.168456752826830D+03
 0.116158403849486D+03 -.738900941450136D+02 0.541053017767352D+02 -.714537969022614D+02
 0.727372660687482D+02 0.221388269005507D+02 0.569947045159901D+02 -.393977902395338D+02
 0.206521158034599D+03 0.170360808321390D+03 0.446606901697059D+02 -.576051656850348D+02
 0.000000000000000D+00 -.000000000000000D+00 0.000000000000000D+00 -.000000000000000D+00
 0.339907098151216D+03 0.000000000000000D+00 0.000000000000000D+00 0.339907098151216D+03
 0.618046131440241D+03 0.000000000000000D+00 0.000000000000000D+00 -.618046131440241D+03
 0.278628531447589D+03 -.100844742645570D+03 -.180608147352379D+03 0.168456752826830D+03
 0.107172287574741D+03 -.666652504481553D+02 0.439999831242945D+02 -.714537969022614D+02
 0.694517742463216D+02 0.267387033668411D+02 0.505609020139456D+02 -.393977902395338D+02
 0.214805579080884D+03 0.183990909054765D+03 0.255964007601615D+02 -.576051656850348D+02
 0.287895057241920D+03 -.432196193278805D+02 0.604508614539778D+02 -.278139033289025D+03
0.294352902896D-04 0.000000000000D+00 0.000000000000D+00 0.256681643225D-05 0.000000000000D+00  7 1 -2 -24 -13 13 23 21 0 0.61414976D-01 0.42725708D-01 0.79158367D+05 0.79158367D+05 0.79158367D+05 0.11301480D+01  1  2  2  2  7  2       -2 0.102252502613D-02 0.100000000000D+01
-.157889140170D-05 0.000000000000D+00 -.113039265202D-06 0.256681643225D-05 0.000000000000D+00  7 1 -2 -24 -13 13 23 21 2 0.61414976D-01 0.42725708D-01 0.79158367D+05 0.79158367D+05 0.79158367D+05 0.11301480D+01  1  2  3  2  7  2       -2 -.700532829246D-04 0.100000000000D+01
0.185943434366D-05 0.000000000000D+00 0.000000000000D+00 0.256681643225D-05 0.000000000000D+00  7 1 -2 -24 -13 13 23 21 2 0.61414976D-01 0.42725708D-01 0.79158367D+05 0.79158367D+05 0.79158367D+05 0.11301480D+01  1  2 15  2  7  2       -2 0.825005950476D-04 0.100000000000D+01
0.150546189963D-03 0.000000000000D+00 0.000000000000D+00 0.256681643225D-05 0.000000000000D+00  7 1 -2 -24 -13 13 23 21 2 0.61414976D-01 0.79395127D-01 0.10248284D+06 0.10248284D+06 0.10248284D+06 0.11208490D+01  1  2 12  2  7  2       -2 0.184622392573D-02 0.100000000000D+01
-.134230269785D-03 0.000000000000D+00 0.000000000000D+00 0.256681643225D-05 0.000000000000D+00  7 1 -2 -24 -13 13 23 21 2 0.61414976D-01 0.42725708D-01 0.79158367D+05 0.79158367D+05 0.79158367D+05 0.11301480D+01  1  2  4  2  7  2       -2 -.595561610897D-02 0.100000000000D+01
-.154621203101D-03 0.000000000000D+00 -.957104998705D-05 0.256681643225D-05 0.000000000000D+00  7 1 -2 -24 -13 13 23 21 2 0.61414976D-01 0.80012023D-01 0.79158367D+05 0.79158367D+05 0.79158367D+05 0.11301480D+01  1  2  5  2  7  2       -2 -.190769123477D-02 0.100000000000D+01
0.134827287061D-03 0.000000000000D+00 0.795373210755D-05 0.256681643225D-05 0.000000000000D+00  7 1 -2 -24 -13 13 23 21 2 0.61414976D-01 0.42725708D-01 0.79158367D+05 0.79158367D+05 0.79158367D+05 0.11301480D+01  1  2  6  2  7  2       -2 0.598210496066D-02 0.100000000000D+01
0.101682834013D-04 0.000000000000D+00 0.000000000000D+00 0.256681643225D-05 0.000000000000D+00  7 1 21 -24 -13 13 23 2 2 0.61414976D-01 0.79395127D-01 0.10248284D+06 0.10248284D+06 0.10248284D+06 0.11208490D+01  1  2 12  4  7  2       -2 0.123756566782D-02 0.100000000000D+01
-.100239717984D-04 0.000000000000D+00 -.653739826249D-06 0.256681643225D-05 0.000000000000D+00  7 1 21 -24 -13 13 23 2 2 0.61414976D-01 0.80012023D-01 0.79158367D+05 0.79158367D+05 0.79158367D+05 0.11301480D+01  1  2  5  4  7  2       -2 -.123641192432D-02 0.100000000000D+01
  </mgrwgt>
  </event>
  <event>
  9     66 0.29493621E-05 0.19423581E+03 0.75467711E-02 0.10552395E+00
        1 -1    0    0  501    0 0.00000000E+00 0.00000000E+00 0.10404214E+04 0.10404214E+04 0.32000000E+00 0.0000E+00 0.9000E+01
       21 -1    0    0  502  501 0.00000000E+00 0.00000000E+00 -.50297262E+02 0.50302853E+02 0.75000000E+00 0.0000E+00 0.9000E+01
       25  2    1    2    0    0 0.33928428E+02 -.27755153E+02 0.57335631E+03 0.64898133E+03 0.30086180E+03 0.0000E+00 0.0000E+00
       23  2    3    3    0    0 -.44410431E+02 0.83467709E+02 0.33260279E+03 0.35780267E+03 0.91972776E+02 0.0000E+00 0.0000E+00
      -24  1    1    2    0    0 -.62467219E+02 0.44101595E+02 0.35239555E+03 0.36945492E+03 0.80419002E+02 0.0000E+00 0.9000E+01
      -13  1    4    4    0    0 -.61447447E+02 0.55647217E+02 0.30164403E+03 0.31282829E+03 0.10565837E+00 0.0000E+00 0.9000E+01
       13  1    4    4    0    0 0.17037016E+02 0.27820492E+02 0.30958754E+02 0.44974385E+02 0.10565837E+00 0.0000E+00 0.9000E+01
       23  1    3    3    0    0 0.78338860E+02 -.11122286E+03 0.24075353E+03 0.29117866E+03 0.91188000E+02 0.0000E+00 0.9000E+01
        2  1    1    2  502    0 0.28538791E+02 -.16346442E+02 0.64372275E+02 0.72288042E+02 0.32000000E+00 0.0000E+00 0.9000E+01
#aMCatNLO 2  0  0  2  1 0.32888733D+02 0.00000000D+00  -5  7  0 0.00000000D+00 0.00000000D+00 0.00000000D+00 0.00000000D+00 0.00000000D+00
  <mgrwgt>
 0.3764708464D-04    2    2    0
 0.211609448496941D+03 0.000000000000000D+00 0.000000000000000D+00 0.211609448496941D+03
 0.211609448496941D+03 0.000000000000000D+00 0.000000000000000D+00 -.211609448496941D+03
 0.112310306175134D+03 -.547181132455649D+02 0.396630739162160D+02 0.397386155916914D+02
 0.866806007990086D+02 -.554087498897551D+02 0.521883239895208D+02 0.414701800055950D+02
 0.405814714585873D+02 0.197629316940059D+02 0.262591583904176D+02 -.238062797855765D+02
 0.183646518561151D+03 0.903639314413141D+02 -.118110556296154D+03 -.574025158117099D+02
 0.000000000000000D+00 0.000000000000000D+00 -.000000000000000D+00 -.000000000000000D+00
 0.227165907009010D+03 0.000000000000000D+00 0.000000000000000D+00 0.227165907009010D+03
 0.230373779429905D+03 0.000000000000000D+00 0.000000000000000D+00 -.230373779429905D+03
 0.117870655783061D+03 -.624672928980267D+02 0.441016472391490D+02 0.397386155916914D+02
 0.926940259446668D+02 -.614475039027064D+02 0.556472001116049D+02 0.414701800055950D+02
 0.403853907084022D+02 0.170371338891376D+02 0.278204402244959D+02 -.238062797855765D+02
 0.173544808015874D+03 0.783388719559461D+02 -.111222845514862D+03 -.574025158117099D+02
 0.330448059869114D+02 0.285387909556493D+02 -.163464420603881D+02 -.320787242089482D+01
-.112008991899D-06 0.000000000000D+00 0.000000000000D+00 0.224225840987D-06 0.000000000000D+00  7 1 21 -24 -13 13 23 2 2 0.14910339D+00 0.79789499D-02 0.44765655D+05 0.44765655D+05 0.44765655D+05 0.11515438D+01  1  2 13  4  7  2       -2 -.345498055205D-03 0.100000000000D+01
0.133320962148D-06 0.000000000000D+00 0.000000000000D+00 0.224225840987D-06 0.216379808496D-10  7 1 21 -24 -13 13 23 2 2 0.16006472D+00 0.77384479D-02 0.44765655D+05 0.44765655D+05 0.44765655D+05 0.11515438D+01  1  2  1  4  7  2       -2 0.383145139849D-03 0.100000000000D+01
  </mgrwgt>
  </event>
  <event>
  8     66 0.29493621E-05 0.26651653E+03 0.75467711E-02 0.10014581E+00
        1 -1    0    0  501    0 0.00000000E+00 0.00000000E+00 0.11529812E+04 0.11529812E+04 0.32000000E+00 0.0000E+00 0.9000E+01
       -2 -1    0    0    0  501 0.00000000E+00 0.00000000E+00 -.21043333E+03 0.21043358E+03 0.32000000E+00 0.0000E+00 0.9000E+01
       25  2    1    2    0    0 0.14098724E+03 -.13943760E+03 0.10601873E+04 0.11192294E+04 0.29892653E+03 0.0000E+00 0.0000E+00
       23  2    3    3    0    0 0.13074802E+03 -.58216619E+01 0.27710871E+03 0.31955108E+03 0.90524700E+02 0.0000E+00 0.0000E+00
      -24  1    1    2    0    0 -.14098724E+03 0.13943760E+03 -.11763947E+03 0.24418540E+03 0.80419002E+02 0.0000E+00 0.9000E+01
      -11  1    4    4    0    0 0.12828048E+03 0.21034244E+02 0.20698310E+03 0.24441833E+03 0.51099893E-03 0.0000E+00 0.9000E+01
       11  1    4    4    0    0 0.24675464E+01 -.26855906E+02 0.70125611E+02 0.75132748E+02 0.51099893E-03 0.0000E+00 0.9000E+01
       23  1    3    3    0    0 0.10239218E+02 -.13361594E+03 0.78307860E+03 0.79967832E+03 0.91188000E+02 0.0000E+00 0.9000E+01
#aMCatNLO 1  0  0  1  2 0.89868173D+02 0.00000000D+00  -5  7  0 0.00000000D+00 0.00000000D+00 0.00000000D+00 0.00000000D+00 0.00000000D+00
  <mgrwgt>
 0.1234326044D-02    4    2    0
 0.492570671323069D+03 0.000000000000000D+00 0.000000000000000D+00 0.492570671323069D+03
 0.492570671323069D+03 0.000000000000000D+00 0.000000000000000D+00 -.492570671323069D+03
 0.450500641430428D+03 -.140987239317236D+03 0.139437604204885D+03 -.396438349378769D+03
 0.140235817471343D+03 0.128280475054255D+03 0.210342443376590D+02 0.526095503388319D+02
 0.368884697934109D+02 0.246754643568022D+01 -.268559062831926D+02 0.251680495071734D+02
 0.357516413950957D+03 0.102392178273008D+02 -.133615942259351D+03 0.318660749532763D+03
 0.000000000000000D+00 0.000000000000000D+00 0.000000000000000D+00 -.000000000000000D+00
 0.518765458785942D+03 0.000000000000000D+00 0.000000000000000D+00 0.518765458785942D+03
 0.578223123725711D+03 0.000000000000000D+00 0.000000000000000D+00 -.578223123725711D+03
 0.441812751820389D+03 -.147321700655945D+03 0.993188973680819D+02 -.396438349378769D+03
 0.137097685395978D+03 0.126311706721145D+03 0.856523784093559D+01 0.526095503388319D+02
 0.394264481587972D+02 0.192579294302682D+01 -.302870503674983D+02 0.251680495071734D+02
 0.370895015408278D+03 0.506828340801535D+01 -.166365562305484D+03 0.318660749532763D+03
 0.107756681728211D+03 0.140159175837578D+02 0.887684774639653D+02 -.594576649397691D+02
0.163611871963D-03 0.000000000000D+00 0.000000000000D+00 0.375031063052D-05 0.000000000000D+00  7 1 -2 -24 -11 11 23 21 0 0.17738174D+00 0.32374381D-01 0.71031062D+05 0.71031062D+05 0.71031062D+05 0.11341202D+01  1  2  2  1  7  1        1 0.188718139591D-02 0.100000000000D+01
-.492041504204D-05 0.000000000000D+00 -.628312668334D-06 0.375031063052D-05 0.000000000000D+00  7 1 -2 -24 -11 11 23 21 2 0.17738174D+00 0.32374381D-01 0.71031062D+05 0.71031062D+05 0.71031062D+05 0.11341202D+01  1  2  3  1  7  1        1 -.729993051607D-04 0.100000000000D+01
0.102176415392D-04 0.000000000000D+00 0.000000000000D+00 0.375031063052D-05 0.000000000000D+00  7 1 -2 -24 -11 11 23 21 2 0.17738174D+00 0.32374381D-01 0.71031062D+05 0.71031062D+05 0.71031062D+05 0.11341202D+01  1  2 15  1  7  1        1 0.151588987183D-03 0.100000000000D+01
-.493020192367D-04 0.000000000000D+00 0.000000000000D+00 0.375031063052D-05 0.000000000000D+00  7 1 -2 -24 -11 11 23 21 2 0.17738174D+00 0.32374381D-01 0.71031062D+05 0.71031062D+05 0.71031062D+05 0.11341202D+01  1  2  4  1  7  1        1 -.731445033915D-03 0.100000000000D+01
  </mgrwgt>
  </event>
  <event>
  8     66 0.29493621E-05 0.26715160E+03 0.75467711E-02 0.97331609E-01
        1 -1    0    0  501    0 0.00000000E+00 0.00000000E+00 0.59863625E+03 0.59863634E+03 0.32000000E+00 0.0000E+00 0.9000E+01
       -2 -1    0    0    0  501 0.00000000E+00 0.00000000E+00 -.41161091E+03 0.41161103E+03 0.32000000E+00 0.0000E+00 0.9000E+01
       25  2    1    2    0    0 -.87813979E+02 -.34723815E+03 0.37383472E+03 0.59836076E+03 0.29999596E+03 0.0000E+00 0.0000E+00
       23  2    3    3    0    0 -.48171288E+02 -.22610572E+03 0.36461680E+03 0.44137404E+03 0.91767994E+02 0.0000E+00 0.0000E+00
      -24  1    1    2    0    0 0.87813979E+02 0.34723815E+03 -.18680937E+03 0.41188661E+03 0.80419002E+02 0.0000E+00 0.9000E+01
      -13  1    4    4    0    0 0.90918366E+01 -.22872121E+02 0.61926157E+01 0.25380210E+02 0.10565837E+00 0.0000E+00 0.9000E+01
       13  1    4    4    0    0 -.57263125E+02 -.20323360E+03 0.35842418E+03 0.41599383E+03 0.10565837E+00 0.0000E+00 0.9000E+01
       23  1    3    3    0    0 -.39642691E+02 -.12113243E+03 0.92179172E+01 0.15698672E+03 0.91188000E+02 0.0000E+00 0.9000E+01
#aMCatNLO 1  0  0  2  1 0.32048652D+02 0.00000000D+00  -5  7  0 0.00000000D+00 0.00000000D+00 0.00000000D+00 0.00000000D+00 0.00000000D+00
  <mgrwgt>
 0.1445377274D-02    9    2    0
 0.496392303482152D+03 0.000000000000000D+00 0.000000000000000D+00 0.496392303482152D+03
 0.496392303482152D+03 0.000000000000000D+00 0.000000000000000D+00 -.496392303482152D+03
 0.454323580555730D+03 0.878139790585953D+02 0.347238146324160D+03 -.267688391070412D+03
 0.246596073254303D+02 0.909192458343830D+01 -.228718817374653D+02 0.151992322203771D+01
 0.355789867382506D+03 -.572632127521983D+02 -.203233834489675D+03 0.286362292762125D+03
 0.158011551700639D+03 -.396426908898353D+02 -.121132430097020D+03 -.201938249137507D+02
 0.000000000000000D+00 0.000000000000000D+00 0.000000000000000D+00 -.000000000000000D+00
 0.504641687396739D+03 0.000000000000000D+00 0.000000000000000D+00 0.504641687396739D+03
 0.528785189353657D+03 0.000000000000000D+00 0.000000000000000D+00 -.528785189353657D+03
 0.450597613064242D+03 0.732877030162335D+02 0.345749664956541D+03 -.267688391070412D+03
 0.244557423562636D+02 0.830349888137320D+01 -.229526703004703D+02 0.151992322203771D+01
 0.358482883596003D+03 -.687290986474604D+02 -.204408723185758D+03 0.286362292762125D+03
 0.159765523747916D+03 -.447438174304064D+02 -.121655133354714D+03 -.201938249137507D+02
 0.401251139859719D+02 0.318817141802601D+02 0.326686188440135D+01 -.241435019569177D+02
0.107364751970D-03 0.000000000000D+00 0.000000000000D+00 0.162030810995D-04 0.000000000000D+00  7 1 -2 -24 -13 13 23 21 0 0.92097901D-01 0.63324771D-01 0.14423383D+06 0.14423383D+06 0.14423383D+06 0.11088979D+01  1  2  2  2  7  2       -2 0.965077821279D-03 0.100000000000D+01
-.544471498561D-05 0.000000000000D+00 -.412308917353D-06 0.162030810995D-04 0.000000000000D+00  7 1 -2 -24 -13 13 23 21 2 0.92097901D-01 0.63324771D-01 0.14423383D+06 0.14423383D+06 0.14423383D+06 0.11088979D+01  1  2  3  2  7  2       -2 -.601809232333D-04 0.100000000000D+01
0.683927477274D-05 0.000000000000D+00 0.000000000000D+00 0.162030810995D-04 0.000000000000D+00  7 1 -2 -24 -13 13 23 21 2 0.92097901D-01 0.63324771D-01 0.14423383D+06 0.14423383D+06 0.14423383D+06 0.11088979D+01  1  2 15  2  7  2       -2 0.755951176797D-04 0.100000000000D+01
0.445384993889D-03 0.000000000000D+00 0.000000000000D+00 0.162030810995D-04 0.000000000000D+00  7 1 -2 -24 -13 13 23 21 2 0.92097901D-01 0.67960662D-01 0.15723627D+06 0.15723627D+06 0.15723627D+06 0.11059408D+01  1  2 12  2  7  2       -2 0.420700734459D-02 0.100000000000D+01
-.447187978179D-03 0.000000000000D+00 0.000000000000D+00 0.162030810995D-04 0.000000000000D+00  7 1 -2 -24 -13 13 23 21 2 0.92097901D-01 0.63324771D-01 0.14423383D+06 0.14423383D+06 0.14423383D+06 0.11088979D+01  1  2  4  2  7  2       -2 -.494280884431D-02 0.100000000000D+01
-.115710067082D-02 0.000000000000D+00 -.182182887035D-03 0.162030810995D-04 0.000000000000D+00  7 1 -2 -24 -13 13 23 21 2 0.92097901D-01 0.68298164D-01 0.14423383D+06 0.14423383D+06 0.14423383D+06 0.11088979D+01  1  2  5  2  7  2       -2 -.109014567623D-01 0.100000000000D+01
0.116805424280D-02 0.000000000000D+00 0.181663417165D-03 0.162030810995D-04 0.000000000000D+00  7 1 -2 -24 -13 13 23 21 2 0.92097901D-01 0.63324771D-01 0.14423383D+06 0.14423383D+06 0.14423383D+06 0.11088979D+01  1  2  6  2  7  2       -2 0.129106083429D-01 0.100000000000D+01
0.581962098338D-05 0.000000000000D+00 0.000000000000D+00 0.162030810995D-04 0.000000000000D+00  7 1 21 -24 -13 13 23 2 2 0.92097901D-01 0.67960662D-01 0.15723627D+06 0.15723627D+06 0.15723627D+06 0.11059408D+01  1  2 12  4  7  2       -2 0.552831806788D-03 0.100000000000D+01
-.143417752164D-04 0.000000000000D+00 -.231391646544D-05 0.162030810995D-04 0.000000000000D+00  7 1 21 -24 -13 13 23 2 2 0.92097901D-01 0.68298164D-01 0.14423383D+06 0.14423383D+06 0.14423383D+06 0.11088979D+01  1  2  5  4  7  2       -2 -.136129662949D-02 0.100000000000D+01
  </mgrwgt>
  </event>
  <event>
  8     66 0.29493621E-05 0.55843788E+03 0.75467711E-02 0.85996665E-01
        1 -1    0    0  501    0 0.00000000E+00 0.00000000E+00 0.26687455E+04 0.26687455E+04 0.32000000E+00 0.0000E+00 0.9000E+01
       -2 -1    0    0    0  501 0.00000000E+00 0.00000000E+00 -.55094429E+03 0.55094438E+03 0.32000000E+00 0.0000E+00 0.9000E+01
       25  2    1    2    0    0 0.10202901E+04 0.17429050E+03 0.18605127E+04 0.21500948E+04 0.30005162E+03 0.0000E+00 0.0000E+00
       23  2    3    3    0    0 0.78167081E+03 0.21814900E+03 0.13606897E+04 0.15870664E+04 0.93299941E+02 0.0000E+00 0.0000E+00
      -24  1    1    2    0    0 -.10202901E+04 -.17429050E+03 0.25728847E+03 0.10695951E+04 0.80419002E+02 0.0000E+00 0.9000E+01
      -13  1    4    4    0    0 0.76197457E+03 0.20297229E+03 0.12877099E+04 0.15099668E+04 0.10565837E+00 0.0000E+00 0.9000E+01
       13  1    4    4    0    0 0.19696246E+02 0.15176714E+02 0.72979816E+02 0.77099542E+02 0.10565837E+00 0.0000E+00 0.9000E+01
       23  1    3    3    0    0 0.23861929E+03 -.43858497E+02 0.49982300E+03 0.56302843E+03 0.91188000E+02 0.0000E+00 0.9000E+01
#aMCatNLO 1  0  0  1  2 0.19383013D+03 0.00000000D+00  -5  7  0 0.00000000D+00 0.00000000D+00 0.00000000D+00 0.00000000D+00 0.00000000D+00
  <mgrwgt>
 0.2031514903D-02    9    2    0
 0.121257174979143D+04 0.000000000000000D+00 0.000000000000000D+00 0.121257174979143D+04
 0.121257174979143D+04 0.000000000000000D+00 0.000000000000000D+00 -.121257174979143D+04
 0.119534312851053D+04 -.102029010053557D+04 -.174290503355662D+03 -.592460049380649D+03
 0.880159843764033D+03 0.761975518626857D+03 0.202972526729642D+03 0.390994645719149D+03
 0.386275113538704D+02 0.196952943524620D+02 0.151764731927927D+02 0.295610330535267D+02
 0.311013015954433D+03 0.238619287556248D+03 -.438584965667732D+02 0.171904370607974D+03
 0.000000000000000D+00 0.000000000000000D+00 -.000000000000000D+00 0.000000000000000D+00
 0.148817471174462D+04 0.000000000000000D+00 0.000000000000000D+00 0.148817471174462D+04
 0.125100345083167D+04 0.000000000000000D+00 0.000000000000000D+00 -.125100345083167D+04
 0.121028796644353D+04 -.104903726058725D+04 -.827143370348959D+02 -.592460049380649D+03
 0.880204368381473D+03 0.740939262543390D+03 0.269985048397949D+03 0.390994645719149D+03
 0.394365267441356D+02 0.187624333655088D+02 0.181481696226936D+02 0.295610330535267D+02
 0.302948264679049D+03 0.231282483822321D+03 -.204865753824589D+02 0.171904370607974D+03
 0.306301036328098D+03 0.580530808560324D+02 -.184932305603288D+03 0.237171260912957D+03
0.952570597128D-02 0.000000000000D+00 0.000000000000D+00 0.293174828096D-04 0.000000000000D+00  7 1 -2 -24 -13 13 23 21 0 0.41057623D+00 0.84760668D-01 0.11138546D+07 0.11138546D+07 0.11138546D+07 0.10447609D+01  1  2  2  1  7  1        1 0.126314424037D-02 0.100000000000D+01
-.516804386890D-03 0.000000000000D+00 -.365812191057D-04 0.293174828096D-04 0.000000000000D+00  7 1 -2 -24 -13 13 23 21 2 0.41057623D+00 0.84760668D-01 0.11138546D+07 0.11138546D+07 0.11138546D+07 0.10447609D+01  1  2  3  1  7  1        1 -.748024431733D-04 0.100000000000D+01
0.609747461496D-03 0.000000000000D+00 0.000000000000D+00 0.293174828096D-04 0.000000000000D+00  7 1 -2 -24 -13 13 23 21 2 0.41057623D+00 0.84760668D-01 0.11138546D+07 0.11138546D+07 0.11138546D+07 0.10447609D+01  1  2 15  1  7  1        1 0.882550554827D-04 0.100000000000D+01
0.165449867376D-01 0.000000000000D+00 0.000000000000D+00 0.293174828096D-04 0.000000000000D+00  7 1 -2 -24 -13 13 23 21 2 0.50937551D+00 0.84760668D-01 0.13378890D+07 0.13378890D+07 0.13378890D+07 0.10395508D+01  1  2 12  1  7  1        1 0.762803406270D-03 0.100000000000D+01
-.168517595255D-01 0.000000000000D+00 0.000000000000D+00 0.293174828096D-04 0.000000000000D+00  7 1 -2 -24 -13 13 23 21 2 0.41057623D+00 0.84760668D-01 0.11138546D+07 0.11138546D+07 0.11138546D+07 0.10447609D+01  1  2  4  1  7  1        1 -.243912941967D-02 0.100000000000D+01
-.246059841851D-01 0.000000000000D+00 -.416612427457D-02 0.293174828096D-04 0.000000000000D+00  7 1 -2 -24 -13 13 23 21 2 0.50773668D+00 0.84760668D-01 0.11138546D+07 0.11138546D+07 0.11138546D+07 0.10447609D+01  1  2  5  1  7  1        1 -.118807568025D-02 0.100000000000D+01
0.250166856062D-01 0.000000000000D+00 0.407388302260D-02 0.293174828096D-04 0.000000000000D+00  7 1 -2 -24 -13 13 23 21 2 0.41057623D+00 0.84760668D-01 0.11138546D+07 0.11138546D+07 0.11138546D+07 0.10447609D+01  1  2  6  1  7  1        1 0.362092360459D-02 0.100000000000D+01
0.501380386706D-03 0.000000000000D+00 0.000000000000D+00 0.293174828096D-04 0.000000000000D+00  7 21 -2 -24 -13 13 23 -1 2 0.50937551D+00 0.84760668D-01 0.13378890D+07 0.13378890D+07 0.13378890D+07 0.10395508D+01  1  2 12  3  7  1        1 0.352637463986D-05 0.100000000000D+01
-.684026767683D-03 0.000000000000D+00 -.124818840003D-03 0.293174828096D-04 0.000000000000D+00  7 21 -2 -24 -13 13 23 -1 2 0.50773668D+00 0.84760668D-01 0.11138546D+07 0.11138546D+07 0.11138546D+07 0.10447609D+01  1  2  5  3  7  1        1 -.513023536442D-05 0.100000000000D+01
  </mgrwgt>
  </event>
  <event>
  9     66 0.29493621E-05 0.29641576E+03 0.75467711E-02 0.99592458E-01
        3 -1    0    0  501    0 0.00000000E+00 0.00000000E+00 0.13188374E+04 0.13188375E+04 0.50000000E+00 0.0000E+00 0.9000E+01
       21 -1    0    0  502  501 0.00000000E+00 0.00000000E+00 -.99625215E+02 0.99628038E+02 0.75000000E+00 0.0000E+00 0.9000E+01
       25  2    1    2    0    0 -.16652419E+03 0.88431232E+02 0.38730188E+03 0.52503563E+03 0.30018207E+03 0.0000E+00 0.0000E+00
       23  2    3    3    0    0 0.43125459E+02 -.17515823E+02 0.10503848E+03 0.14666328E+03 0.91161544E+02 0.0000E+00 0.0000E+00
      -24  1    1    2    0    0 0.22142296E+03 -.57258490E+02 0.50132389E+03 0.55686580E+03 0.80419002E+02 0.0000E+00 0.9000E+01
      -11  1    4    4    0    0 0.41092055E+02 -.52835257E+02 0.70789062E+02 0.97422855E+02 0.51099893E-03 0.0000E+00 0.9000E+01
       11  1    4    4    0    0 0.20334049E+01 0.35319434E+02 0.34249418E+02 0.49240429E+02 0.51099893E-03 0.0000E+00 0.9000E+01
       23  1    3    3    0    0 -.20964965E+03 0.10594705E+03 0.28226340E+03 0.37837235E+03 0.91188000E+02 0.0000E+00 0.9000E+01
        4  1    1    2  502    0 -.54898777E+02 -.31172742E+02 0.33058640E+03 0.33656409E+03 0.15500000E+01 0.0000E+00 0.9000E+01
#aMCatNLO 2  0  0  2  2 0.63131732D+02 0.00000000D+00  -5  7  0 0.00000000D+00 0.00000000D+00 0.00000000D+00 0.00000000D+00 0.00000000D+00
  <mgrwgt>
 0.1657342474D-04    1    2    0
 0.306948419724820D+03 0.000000000000000D+00 0.000000000000000D+00 0.306948419724820D+03
 0.306948419724820D+03 0.000000000000000D+00 0.000000000000000D+00 -.306948419724820D+03
 0.238824546916270D+03 0.199428282547800D+03 -.697475570782145D+02 0.770297777294415D+02
 0.682330561339686D+02 0.349782087652423D+02 -.563068341568053D+02 -.161807072835047D+02
 0.352269927228572D+02 -.118793070333131D+01 0.334902884217443D+02 -.108595772647327D+02
 0.271612243676543D+03 -.233218560609711D+03 0.925641028132755D+02 -.499894931812041D+02
 0.000000000000000D+00 -.000000000000000D+00 -.000000000000000D+00 0.000000000000000D+00
 0.413030456690945D+03 0.000000000000000D+00 0.000000000000000D+00 0.413030456690945D+03
 0.318105553373517D+03 0.000000000000000D+00 0.000000000000000D+00 -.318105553373517D+03
 0.254376622527223D+03 0.221422963643694D+03 -.572584897476588D+02 0.770297777294415D+02
 0.688617210215201D+02 0.410920545755634D+02 -.528352570222775D+02 -.161807072835047D+02
 0.370071287949383D+02 0.203340486004266D+01 0.353194341397425D+02 -.108595772647327D+02
 0.256888990333004D+03 -.209649646298452D+03 0.105947054648679D+03 -.499894931812041D+02
 0.114001547387777D+03 -.548987767808479D+02 -.311727420184853D+02 0.949249033174282D+02
0.441837312429D-06 0.000000000000D+00 0.000000000000D+00 0.362480491076D-05 0.469435363152D-10  7 3 21 -24 -11 11 23 4 2 0.20289501D+00 0.15326933D-01 0.10885209D+06 0.10885209D+06 0.10885209D+06 0.11187116D+01  1  2  1  4  7  2       -4 0.165734247385D-04 0.100000000000D+01
  </mgrwgt>
  </event>
  <event>
  8     66 0.29493621E-05 0.14181288E+03 0.75467711E-02 0.10404723E+00
        1 -1    0    0  501    0 0.00000000E+00 0.00000000E+00 0.10194150E+03 0.10194200E+03 0.32000000E+00 0.0000E+00 0.9000E+01
       -2 -1    0    0    0  501 0.00000000E+00 0.00000000E+00 -.13660161E+04 0.13660162E+04 0.32000000E+00 0.0000E+00 0.9000E+01
       25  2    1    2    0    0 0.41804944E+02 0.54267940E+02 -.14074729E+03 0.33967442E+03 0.30145688E+03 0.0000E+00 0.0000E+00
       23  2    3    3    0    0 0.38531163E+02 0.46842865E+02 0.54992669E+02 0.12358363E+03 0.92573295E+02 0.0000E+00 0.0000E+00
      -24  1    1    2    0    0 -.41804944E+02 -.54267940E+02 -.11233273E+04 0.11282837E+04 0.80419002E+02 0.0000E+00 0.9000E+01
      -11  1    4    4    0    0 -.15517183E+02 0.22077173E+02 -.15696006E+02 0.31217769E+02 0.51099893E-03 0.0000E+00 0.9000E+01
       11  1    4    4    0    0 0.54048345E+02 0.24765692E+02 0.70688674E+02 0.92365859E+02 0.51099893E-03 0.0000E+00 0.9000E+01
       23  1    3    3    0    0 0.32737814E+01 0.74250745E+01 -.19573996E+03 0.21609080E+03 0.91188000E+02 0.0000E+00 0.9000E+01
#aMCatNLO 1  0  0  1  1 0.14743641D+03 0.00000000D+00  -5  7  0 0.00000000D+00 0.00000000D+00 0.00000000D+00 0.00000000D+00 0.00000000D+00
  <mgrwgt>
 0.1266590079D-02    4    2    0
 0.373167686967246D+03 0.000000000000000D+00 0.000000000000000D+00 0.373167686967246D+03
 0.373167686967246D+03 0.000000000000000D+00 0.000000000000000D+00 -.373167686967246D+03
 0.316618688129262D+03 -.418049439765382D+02 -.542679397970794D+02 -.298475317384241D+03
 0.348173991626011D+02 -.155171826144737D+02 0.220771731217602D+02 0.220015171092540D+02
 0.301399321122510D+03 0.540483451662367D+02 0.247656921298810D+02 0.295477558625404D+03
 0.934999655201197D+02 0.327378142477525D+01 0.742507454543817D+01 -.190037583504177D+02
 0.000000000000000D+00 -.000000000000000D+00 -.000000000000000D+00 -.000000000000000D+00
 0.426418191240915D+03 0.000000000000000D+00 0.000000000000000D+00 0.426418191240915D+03
 0.498418465341502D+03 0.000000000000000D+00 0.000000000000000D+00 -.498418465341502D+03
 0.309266597396151D+03 0.141383944275617D-01 -.954447605190308D+01 -.298475317384241D+03
 0.365822387843305D+02 -.107465522615756D+02 0.271791290120600D+02 0.220015171092540D+02
 0.318089970123477D+03 0.954400734871851D+02 0.690321216151287D+02 0.295477558625404D+03
 0.968200164885090D+02 0.159901804015913D+02 0.210246414504184D+02 -.190037583504177D+02
 0.164077833789950D+03 -.100697840021628D+03 -.107691416025704D+03 -.720002741005874D+02
0.328678337931D-03 0.000000000000D+00 0.000000000000D+00 0.661117151303D-06 0.000000000000D+00  7 1 -2 -24 -11 11 23 21 0 0.15683349D-01 0.21015637D+00 0.20110894D+05 0.20110894D+05 0.20110894D+05 0.11838026D+01  1  2  2  1  7  1        1 0.155247543978D-02 0.100000000000D+01
0.252267239250D-05 0.000000000000D+00 -.126221136065D-05 0.661117151303D-06 0.000000000000D+00  7 1 -2 -24 -11 11 23 21 2 0.15683349D-01 0.21015637D+00 0.20110894D+05 0.20110894D+05 0.20110894D+05 0.11838026D+01  1  2  3  1  7  1        1 0.166983309806D-04 0.100000000000D+01
0.205631411904D-04 0.000000000000D+00 0.000000000000D+00 0.661117151303D-06 0.000000000000D+00  7 1 -2 -24 -11 11 23 21 2 0.15683349D-01 0.21015637D+00 0.20110894D+05 0.20110894D+05 0.20110894D+05 0.11838026D+01  1  2 15  1  7  1        1 0.136113646234D-03 0.100000000000D+01
-.662754657160D-04 0.000000000000D+00 0.000000000000D+00 0.661117151303D-06 0.000000000000D+00  7 1 -2 -24 -11 11 23 21 2 0.15683349D-01 0.21015637D+00 0.20110894D+05 0.20110894D+05 0.20110894D+05 0.11838026D+01  1  2  4  1  7  1        1 -.438697337675D-03 0.100000000000D+01
  </mgrwgt>
  </event>
  <event>
  8     66 0.29493621E-05 0.24613434E+03 0.75467711E-02 0.10105006E+00
        1 -1    0    0  501    0 0.00000000E+00 0.00000000E+00 0.18483134E+04 0.18483134E+04 0.32000000E+00 0.0000E+00 0.9000E+01
       -2 -1    0    0    0  501 0.00000000E+00 0.00000000E+00 -.63017076E+02 0.63017889E+02 0.32000000E+00 0.0000E+00 0.9000E+01
       25  2    1    2    0    0 -.12823658E+03 0.57454149E+02 0.41286481E+03 0.52938303E+03 0.30007239E+03 0.0000E+00 0.0000E+00
       23  2    3    3    0    0 -.58992462E+02 -.97546284E+02 0.15995436E+03 0.21142261E+03 0.78222330E+02 0.0000E+00 0.0000E+00
      -24  1    1    2    0    0 0.12823658E+03 -.57454149E+02 0.13724315E+04 0.13819483E+04 0.80419002E+02 0.0000E+00 0.9000E+01
      -13  1    4    4    0    0 -.31192918E+02 -.10445643E+03 0.11830679E+03 0.16087465E+03 0.10565837E+00 0.0000E+00 0.9000E+01
       13  1    4    4    0    0 -.27799544E+02 0.69101487E+01 0.41647575E+02 0.50547962E+02 0.10565837E+00 0.0000E+00 0.9000E+01
       23  1    3    3    0    0 -.69244121E+02 0.15500043E+03 0.25291045E+03 0.31796042E+03 0.91188000E+02 0.0000E+00 0.9000E+01
#aMCatNLO 1  0  0  2  1 0.99101710D+02 0.00000000D+00  -5  7  0 0.00000000D+00 0.00000000D+00 0.00000000D+00 0.00000000D+00 0.00000000D+00
  <mgrwgt>
 0.4444071498D-02    4    2    0
 0.341285962605817D+03 0.000000000000000D+00 0.000000000000000D+00 0.341285962605817D+03
 0.341285962605817D+03 0.000000000000000D+00 0.000000000000000D+00 -.341285962605817D+03
 0.280064413556378D+03 0.128236583258789D+03 -.574541487967242D+02 0.228524089072603D+03
 0.141043317266153D+03 -.311929241754254D+02 -.104456635554962D+03 -.894931847425525D+02
 0.326126874871918D+02 -.277995374614091D+02 0.691035108985339D+01 -.155891035625501D+02
 0.228851506901910D+03 -.692441216219543D+02 0.155000433261833D+03 -.123441800767501D+03
 0.000000000000000D+00 0.000000000000000D+00 -.000000000000000D+00 0.000000000000000D+00
 0.413444647643409D+03 0.000000000000000D+00 0.000000000000000D+00 0.413444647643409D+03
 0.380665938059780D+03 0.000000000000000D+00 0.000000000000000D+00 -.380665938059780D+03
 0.263519207753705D+03 0.892623805314216D+02 -.527648086907393D+02 0.228524089072603D+03
 0.145206889936096D+03 -.517166728111247D+02 -.101987237058839D+03 -.894931847425525D+02
 0.370817568945381D+02 -.327965338715626D+02 0.751158508659507D+01 -.155891035625501D+02
 0.243920774735588D+03 -.103141248073284D+03 0.159078904235512D+03 -.123441800767501D+03
 0.104381956383262D+03 0.983920742245501D+02 -.118384435725285D+02 0.327787095836295D+02
0.241291922778D-03 0.000000000000D+00 0.000000000000D+00 0.709544318799D-07 0.000000000000D+00  7 1 -2 -24 -13 13 23 21 0 0.28435597D+00 0.96949994D-02 0.60582112D+05 0.60582112D+05 0.60582112D+05 0.11400332D+01  1  2  2  2  7  2       -2 0.689713817663D-02 0.100000000000D+01
-.116639783130D-04 0.000000000000D+00 -.926624517089D-06 0.709544318799D-07 0.000000000000D+00  7 1 -2 -24 -13 13 23 21 2 0.28435597D+00 0.96949994D-02 0.60582112D+05 0.60582112D+05 0.60582112D+05 0.11400332D+01  1  2  3  2  7  2       -2 -.433319136636D-03 0.100000000000D+01
0.148464379321D-04 0.000000000000D+00 0.000000000000D+00 0.709544318799D-07 0.000000000000D+00  7 1 -2 -24 -13 13 23 21 2 0.28435597D+00 0.96949994D-02 0.60582112D+05 0.60582112D+05 0.60582112D+05 0.11400332D+01  1  2 15  2  7  2       -2 0.551548150573D-03 0.100000000000D+01
-.692135072262D-04 0.000000000000D+00 0.000000000000D+00 0.709544318799D-07 0.000000000000D+00  7 1 -2 -24 -13 13 23 21 2 0.28435597D+00 0.96949994D-02 0.60582112D+05 0.60582112D+05 0.60582112D+05 0.11400332D+01  1  2  4  2  7  2       -2 -.257129569260D-02 0.100000000000D+01
  </mgrwgt>
  </event>
  <event>
  8     66 0.29493621E-05 0.16499610E+03 0.75467711E-02 0.10701087E+00
        1 -1    0    0  501    0 0.00000000E+00 0.00000000E+00 0.16226859E+04 0.16226859E+04 0.32000000E+00 0.0000E+00 0.9000E+01
       -2 -1    0    0    0  501 0.00000000E+00 0.00000000E+00 -.51302667E+02 0.51303665E+02 0.32000000E+00 0.0000E+00 0.9000E+01
       25  2    1    2    0    0 0.58865248E+02 0.12904888E+03 0.13944765E+04 0.14334030E+04 0.29993419E+03 0.0000E+00 0.0000E+00
       23  2    3    3    0    0 0.24966677E+02 0.38456618E+02 0.10326026E+03 0.13536183E+03 0.74551302E+02 0.0000E+00 0.0000E+00
      -24  1    1    2    0    0 -.58865248E+02 -.12904888E+03 0.17690669E+03 0.24058662E+03 0.80419002E+02 0.0000E+00 0.9000E+01
      -13  1    4    4    0    0 -.89426582E+01 -.11927663E+02 0.57276367E+02 0.59184742E+02 0.10565837E+00 0.0000E+00 0.9000E+01
       13  1    4    4    0    0 0.33909336E+02 0.50384281E+02 0.45983891E+02 0.76177085E+02 0.10565837E+00 0.0000E+00 0.9000E+01
       23  1    3    3    0    0 0.33898571E+02 0.90592260E+02 0.12912163E+04 0.12980411E+04 0.91188000E+02 0.0000E+00 0.9000E+01
#aMCatNLO 1  0  0  1  2 0.10700612D+02 0.00000000D+00  -5  7  0 0.00000000D+00 0.00000000D+00 0.00000000D+00 0.00000000D+00 0.00000000D+00
  <mgrwgt>
 0.6490755995D-02    9    2    0
 0.288528984982417D+03 0.000000000000000D+00 0.000000000000000D+00 0.288528984982417D+03
 0.288528984982417D+03 0.000000000000000D+00 0.000000000000000D+00 -.288528984982417D+03
 0.216185036325686D+03 -.588652485685440D+02 -.129048878099902D+03 -.141950778613179D+03
 0.157201285433621D+02 -.894274346551960D+01 -.119277872352346D+02 0.498775223930673D+01
 0.957640757566463D+02 0.339094205078308D+02 0.503844040596166D+02 -.740426987211101D+02
 0.249388729339140D+03 0.338985715262328D+02 0.905922612755199D+02 0.211005725094983D+03
 0.000000000000000D+00 0.000000000000000D+00 0.000000000000000D+00 0.000000000000000D+00
 0.305793660418864D+03 0.000000000000000D+00 0.000000000000000D+00 0.305793660418864D+03
 0.290241419120551D+03 0.000000000000000D+00 0.000000000000000D+00 -.290241419120551D+03
 0.218013173520610D+03 -.626849496837077D+02 -.130319228851388D+03 -.141950778613179D+03
 0.159499868449850D+02 -.922134980779139D+01 -.120204457353640D+02 0.498775223930673D+01
 0.948890274178517D+02 0.322322190493935D+02 0.498266027896007D+02 -.740426987211101D+02
 0.248304986475282D+03 0.295202917494016D+02 0.891361392290503D+02 0.211005725094983D+03
 0.188779052806863D+02 0.101537886927041D+02 0.337693256810118D+01 0.155522412983138D+02
0.447220387828D-04 0.000000000000D+00 0.000000000000D+00 0.208325686955D-07 0.000000000000D+00  7 1 -2 -24 -13 13 23 21 0 0.24964406D+00 0.78927971D-02 0.34526449D+05 0.34526449D+05 0.34526449D+05 0.11617154D+01  1  2  2  1  7  1        1 0.246601725347D-02 0.100000000000D+01
-.189957279377D-05 0.000000000000D+00 -.171744404509D-06 0.208325686955D-07 0.000000000000D+00  7 1 -2 -24 -13 13 23 21 2 0.24964406D+00 0.78927971D-02 0.34526449D+05 0.34526449D+05 0.34526449D+05 0.11617154D+01  1  2  3  1  7  1        1 -.141361110064D-03 0.100000000000D+01
0.288176474337D-05 0.000000000000D+00 0.000000000000D+00 0.208325686955D-07 0.000000000000D+00  7 1 -2 -24 -13 13 23 21 2 0.24964406D+00 0.78927971D-02 0.34526449D+05 0.34526449D+05 0.34526449D+05 0.11617154D+01  1  2 15  1  7  1        1 0.214453199374D-03 0.100000000000D+01
0.327557350570D-03 0.000000000000D+00 0.000000000000D+00 0.208325686955D-07 0.000000000000D+00  7 1 -2 -24 -13 13 23 21 2 0.26529674D+00 0.78927971D-02 0.36395303D+05 0.36395303D+05 0.36395303D+05 0.11596285D+01  1  2 12  1  7  1        1 0.208702413701D-01 0.100000000000D+01
-.333791070922D-03 0.000000000000D+00 0.000000000000D+00 0.208325686955D-07 0.000000000000D+00  7 1 -2 -24 -13 13 23 21 2 0.24964406D+00 0.78927971D-02 0.34526449D+05 0.34526449D+05 0.34526449D+05 0.11617154D+01  1  2  4  1  7  1        1 -.248398358147D-01 0.100000000000D+01
-.752116025509D-03 0.000000000000D+00 -.795889820312D-04 0.208325686955D-07 0.000000000000D+00  7 1 -2 -24 -13 13 23 21 2 0.26519775D+00 0.78927971D-02 0.34526449D+05 0.34526449D+05 0.34526449D+05 0.11617154D+01  1  2  5  1  7  1        1 -.481778442405D-01 0.100000000000D+01
0.755690829151D-03 0.000000000000D+00 0.794438358558D-04 0.208325686955D-07 0.000000000000D+00  7 1 -2 -24 -13 13 23 21 2 0.24964406D+00 0.78927971D-02 0.34526449D+05 0.34526449D+05 0.34526449D+05 0.11617154D+01  1  2  6  1  7  1        1 0.562364837109D-01 0.100000000000D+01
0.469772327684D-05 0.000000000000D+00 0.000000000000D+00 0.208325686955D-07 0.000000000000D+00  7 21 -2 -24 -13 13 23 -1 2 0.26529674D+00 0.78927971D-02 0.36395303D+05 0.36395303D+05 0.36395303D+05 0.11596285D+01  1  2 12  3  7  1        1 0.210286491557D-03 0.100000000000D+01
-.770075718410D-05 0.000000000000D+00 -.825579381192D-06 0.208325686955D-07 0.000000000000D+00  7 21 -2 -24 -13 13 23 -1 2 0.26519775D+00 0.78927971D-02 0.34526449D+05 0.34526449D+05 0.34526449D+05 0.11617154D+01  1  2  5  3  7  1        1 -.347684865491D-03 0.100000000000D+01
  </mgrwgt>
  </event>
  <event>
  8     66 0.29493621E-05 0.49739214E+03 0.75467711E-02 0.86806245E-01
        1 -1    0    0  501    0 0.00000000E+00 0.00000000E+00 0.43469847E+03 0.43469859E+03 0.32000000E+00 0.0000E+00 0.9000E+01
       -2 -1    0    0    0  501 0.00000000E+00 0.00000000E+00 -.83244407E+03 0.83244413E+03 0.32000000E+00 0.0000E+00 0.9000E+01
       25  2    1    2    0    0 0.45451740E+03 -.63982291E+02 0.12951729E+03 0.56347151E+03 0.30007602E+03 0.0000E+00 0.0000E+00
       23  2    3    3    0    0 0.29255166E+03 -.12950543E+03 0.93861182E+01 0.33266221E+03 0.90652748E+02 0.0000E+00 0.0000E+00
      -24  1    1    2    0    0 -.45451740E+03 0.63982291E+02 -.52726289E+03 0.70367121E+03 0.80419002E+02 0.0000E+00 0.9000E+01
      -13  1    4    4    0    0 0.25349514E+03 -.14218519E+03 0.50161605E+00 0.29064872E+03 0.10565837E+00 0.0000E+00 0.9000E+01
       13  1    4    4    0    0 0.39056520E+02 0.12679767E+02 0.88845021E+01 0.42013496E+02 0.10565837E+00 0.0000E+00 0.9000E+01
       23  1    3    3    0    0 0.16196574E+03 0.65523136E+02 0.12013117E+03 0.23080930E+03 0.91188000E+02 0.0000E+00 0.9000E+01
#aMCatNLO 1  0  0  1  2 0.86320669D+03 0.00000000D+00  -5  7  0 0.00000000D+00 0.00000000D+00 0.00000000D+00 0.00000000D+00 0.00000000D+00
  <mgrwgt>
 0.1256921624D-02    5    2    0
 0.601549893817633D+03 0.000000000000000D+00 0.000000000000000D+00 0.601549893817633D+03
 0.601549893817633D+03 0.000000000000000D+00 0.000000000000000D+00 -.601549893817633D+03
 0.566815285134509D+03 -.454517395381215D+03 0.639822909658226D+02 -.322695762671878D+03
 0.306286599828173D+03 0.253495428047475D+03 -.142185404244560D+03 0.966170793035159D+02
 0.471868117092299D+02 0.390562289486515D+02 0.126799777097176D+02 0.232470287321604D+02
 0.282811090963354D+03 0.161965738385088D+03 0.655231355690194D+02 0.202831654636202D+03
 0.000000000000000D+00 -.000000000000000D+00 -.000000000000000D+00 0.000000000000000D+00
 0.128607808200642D+04 0.000000000000000D+00 0.000000000000000D+00 0.128607808200642D+04
 0.108172290952697D+04 0.000000000000000D+00 0.000000000000000D+00 -.108172290952697D+04
 0.400748027203459D+03 -.157947962769069D+03 0.158277134052299D+03 -.322695762671878D+03
 0.519384856124081D+03 0.506573352864733D+03 -.617187728756293D+02 0.966170793035159D+02
 0.875375053635932D+02 0.803508024032823D+02 0.258096697684396D+02 0.232470287321604D+02
 0.473064188046739D+03 0.393650321464102D+03 0.139187711228650D+03 0.202831654636202D+03
 0.887066414795516D+03 -.822626513963048D+03 -.261555742173760D+03 0.204355172479454D+03
0.441500001288D-03 0.000000000000D+00 0.000000000000D+00 0.243839400202D-04 0.000000000000D+00  7 1 -2 -24 -13 13 23 21 0 0.66876701D-01 0.12806833D+00 0.24739895D+06 0.24739895D+06 0.24739895D+06 0.10908010D+01  1  2  2  1  7  1        1 0.117905684144D-02 0.100000000000D+01
-.234497142182D-04 0.000000000000D+00 -.169547625457D-05 0.243839400202D-04 0.000000000000D+00  7 1 -2 -24 -13 13 23 21 2 0.66876701D-01 0.12806833D+00 0.24739895D+06 0.24739895D+06 0.24739895D+06 0.10908010D+01  1  2  3  1  7  1        1 -.745130987363D-04 0.100000000000D+01
0.284595600838D-04 0.000000000000D+00 0.000000000000D+00 0.243839400202D-04 0.000000000000D+00  7 1 -2 -24 -13 13 23 21 2 0.66876701D-01 0.12806833D+00 0.24739895D+06 0.24739895D+06 0.24739895D+06 0.10908010D+01  1  2 15  1  7  1        1 0.904322325969D-04 0.100000000000D+01
0.123566749164D-03 0.000000000000D+00 -.148249779223D-03 0.243839400202D-04 0.000000000000D+00  7 1 -2 -24 -13 13 23 21 2 0.22217843D+00 0.12806833D+00 0.24739895D+06 0.24739895D+06 0.24739895D+06 0.10908010D+01  1  2  5  1  7  1        1 0.537253217270D-04 0.100000000000D+01
0.229495528446D-04 0.000000000000D+00 -.206376452022D-04 0.243839400202D-04 0.000000000000D+00  7 21 -2 -24 -13 13 23 -1 2 0.22217843D+00 0.12806833D+00 0.24739895D+06 0.24739895D+06 0.24739895D+06 0.10908010D+01  1  2  5  3  7  1        1 0.822032725201D-05 0.100000000000D+01
  </mgrwgt>
  </event>
  <event>
  8     66 0.29493621E-05 0.45838571E+03 0.75467711E-02 0.86293640E-01
        1 -1    0    0  501    0 0.00000000E+00 0.00000000E+00 0.14528151E+04 0.14528151E+04 0.32000000E+00 0.0000E+00 0.9000E+01
       -2 -1    0    0    0  501 0.00000000E+00 0.00000000E+00 -.75954305E+03 0.75954311E+03 0.32000000E+00 0.0000E+00 0.9000E+01
       25  2    1    2    0    0 -.65446722E+03 -.77800341E+03 0.50341728E+03 0.11749920E+04 0.30587683E+03 0.0000E+00 0.0000E+00
       23  2    3    3    0    0 -.37954147E+03 -.54810548E+03 0.21686047E+03 0.70715949E+03 0.92599799E+02 0.0000E+00 0.0000E+00
      -24  1    1    2    0    0 0.65446722E+03 0.77800341E+03 0.18985478E+03 0.10373662E+04 0.80419002E+02 0.0000E+00 0.9000E+01
      -13  1    4    4    0    0 -.35737545E+03 -.47550674E+03 0.21052972E+03 0.63098863E+03 0.10565837E+00 0.0000E+00 0.9000E+01
       13  1    4    4    0    0 -.22166017E+02 -.72598747E+02 0.63307583E+01 0.76170861E+02 0.10565837E+00 0.0000E+00 0.9000E+01
       23  1    3    3    0    0 -.27492575E+03 -.22989793E+03 0.28655681E+03 0.46783253E+03 0.91188000E+02 0.0000E+00 0.9000E+01
#aMCatNLO 1  0  0  1  2 0.17478476D+03 0.00000000D+00  -5  7  0 0.00000000D+00 0.00000000D+00 0.00000000D+00 0.00000000D+00 0.00000000D+00
  <mgrwgt>
 0.1856709846D-02    9    2    0
 0.105046452746387D+04 0.000000000000000D+00 0.000000000000000D+00 0.105046452746387D+04
 0.105046452746387D+04 0.000000000000000D+00 0.000000000000000D+00 -.105046452746387D+04
 0.102973716886456D+04 0.654467222904894D+03 0.778003409393565D+03 -.142389501375512D+03
 0.594984364126131D+03 -.357375891529995D+03 -.475507261914294D+03 0.134799693800736D+02
 0.781210957825779D+02 -.221655807620196D+02 -.725982218771877D+02 -.184686441306266D+02
 0.398086426154474D+03 -.274925750612879D+03 -.229897925602083D+03 0.147378176126065D+03
 0.000000000000000D+00 -.000000000000000D+00 0.000000000000000D+00 0.000000000000000D+00
 0.118964531852296D+04 0.000000000000000D+00 0.000000000000000D+00 0.118964531852296D+04
 0.111043676506530D+04 0.000000000000000D+00 0.000000000000000D+00 -.111043676506530D+04
 0.108754193674343D+04 0.742387427570870D+03 0.777731563911359D+03 -.142389501375512D+03
 0.567430746594980D+03 -.309106499851435D+03 -.475656508792262D+03 0.134799693800736D+02
 0.765656166111247D+02 -.157422011628260D+02 -.726180826899687D+02 -.184686441306266D+02
 0.376648742447884D+03 -.242754803284757D+03 -.229997396784193D+03 0.147378176126065D+03
 0.191895041190850D+03 -.174783923271852D+03 0.540424355064437D+00 0.792085534576542D+02
0.239936981711D-02 0.000000000000D+00 0.000000000000D+00 0.198820068057D-06 0.000000000000D+00  7 1 -2 -24 -13 13 23 21 0 0.22351002D+00 0.11685278D+00 0.10612954D+07 0.10612954D+07 0.10612954D+07 0.10461484D+01  1  2  2  1  7  1        1 0.998620243356D-03 0.100000000000D+01
-.133236775529D-03 0.000000000000D+00 -.921421186628D-05 0.198820068057D-06 0.000000000000D+00  7 1 -2 -24 -13 13 23 21 2 0.22351002D+00 0.11685278D+00 0.10612954D+07 0.10612954D+07 0.10612954D+07 0.10461484D+01  1  2  3  1  7  1        1 -.606895492384D-04 0.100000000000D+01
0.150215831407D-03 0.000000000000D+00 0.000000000000D+00 0.198820068057D-06 0.000000000000D+00  7 1 -2 -24 -13 13 23 21 2 0.22351002D+00 0.11685278D+00 0.10612954D+07 0.10612954D+07 0.10612954D+07 0.10461484D+01  1  2 15  1  7  1        1 0.684235344208D-04 0.100000000000D+01
0.341185188362D-02 0.000000000000D+00 0.000000000000D+00 0.198820068057D-06 0.000000000000D+00  7 1 -2 -24 -13 13 23 21 2 0.25886731D+00 0.11685278D+00 0.12556976D+07 0.12556976D+07 0.12556976D+07 0.10413443D+01  1  2 12  1  7  1        1 0.106136129797D-02 0.100000000000D+01
-.330590253700D-02 0.000000000000D+00 0.000000000000D+00 0.198820068057D-06 0.000000000000D+00  7 1 -2 -24 -13 13 23 21 2 0.22351002D+00 0.11685278D+00 0.10612954D+07 0.10612954D+07 0.10612954D+07 0.10461484D+01  1  2  4  1  7  1        1 -.150584351805D-02 0.100000000000D+01
-.857812005511D-02 0.000000000000D+00 -.184964002466D-02 0.198820068057D-06 0.000000000000D+00  7 1 -2 -24 -13 13 23 21 2 0.26034534D+00 0.11685278D+00 0.10612954D+07 0.10612954D+07 0.10612954D+07 0.10461484D+01  1  2  5  1  7  1        1 -.268308176894D-02 0.100000000000D+01
0.877924856666D-02 0.000000000000D+00 0.182832405475D-02 0.198820068057D-06 0.000000000000D+00  7 1 -2 -24 -13 13 23 21 2 0.22351002D+00 0.11685278D+00 0.10612954D+07 0.10612954D+07 0.10612954D+07 0.10461484D+01  1  2  6  1  7  1        1 0.399896076775D-02 0.100000000000D+01
0.765033603850D-04 0.000000000000D+00 0.000000000000D+00 0.198820068057D-06 0.000000000000D+00  7 21 -2 -24 -13 13 23 -1 2 0.25886731D+00 0.11685278D+00 0.12556976D+07 0.12556976D+07 0.12556976D+07 0.10413443D+01  1  2 12  3  7  1        1 0.147213343894D-04 0.100000000000D+01
-.185130272075D-03 0.000000000000D+00 -.427714957145D-04 0.198820068057D-06 0.000000000000D+00  7 21 -2 -24 -13 13 23 -1 2 0.26034534D+00 0.11685278D+00 0.10612954D+07 0.10612954D+07 0.10612954D+07 0.10461484D+01  1  2  5  3  7  1        1 -.357624953224D-04 0.100000000000D+01
  </mgrwgt>
  </event>
  <event>
  9     66 0.29493621E-05 0.42425232E+03 0.75467711E-02 0.94850194E-01
        1 -1    0    0  501    0 0.00000000E+00 0.00000000E+00 0.10784341E+04 0.10784341E+04 0.32000000E+00 0.0000E+00 0.9000E+01
       21 -1    0    0  502  501 0.00000000E+00 0.00000000E+00 -.52424643E+03 0.52424696E+03 0.75000000E+00 0.0000E+00 0.9000E+01
       25  2    1    2    0    0 -.35052858E+03 -.18401094E+03 0.76913630E+03 0.91454393E+03 0.29679900E+03 0.0000E+00 0.0000E+00
       23  2    3    3    0    0 -.29394903E+03 -.42609829E+02 0.41247332E+03 0.51614809E+03 0.89738385E+02 0.0000E+00 0.0000E+00
      -24  1    1    2    0    0 0.24515777E+03 0.25731486E+03 -.34756820E+03 0.50357139E+03 0.80419002E+02 0.0000E+00 0.9000E+01
      -13  1    4    4    0    0 -.12089963E+03 -.62307647E+02 0.18750351E+03 0.23163882E+03 0.10565837E+00 0.0000E+00 0.9000E+01
       13  1    4    4    0    0 -.17304940E+03 0.19697818E+02 0.22496981E+03 0.28450927E+03 0.10565837E+00 0.0000E+00 0.9000E+01
       23  1    3    3    0    0 -.56579553E+02 -.14140111E+03 0.35666298E+03 0.39839585E+03 0.91188000E+02 0.0000E+00 0.9000E+01
        2  1    1    2  502    0 0.10537081E+03 -.73303928E+02 0.13261956E+03 0.18456577E+03 0.32000000E+00 0.0000E+00 0.9000E+01
#aMCatNLO 2  0  0  2  2 0.12836072D+03 0.00000000D+00  -5  7  0 0.00000000D+00 0.00000000D+00 0.00000000D+00 0.00000000D+00 0.00000000D+00
  <mgrwgt>
 0.4128960586D-03    1    2    0
 0.673953805131322D+03 0.000000000000000D+00 0.000000000000000D+00 0.673953805131322D+03
 0.673953805131322D+03 0.000000000000000D+00 0.000000000000000D+00 -.673953805131322D+03
 0.643676347542772D+03 0.295048894959222D+03 0.222606812532851D+03 -.520811271987213D+03
 0.178998244897803D+03 -.106734269977594D+03 -.721622097110774D+02 0.124260946312421D+03
 0.214368281878883D+03 -.155800216277424D+03 0.769804358952676D+01 0.147040106802551D+03
 0.310864735943187D+03 -.325144087042038D+02 -.158142646411300D+03 0.249510218872241D+03
 0.000000000000000D+00 0.000000000000000D+00 -.000000000000000D+00 0.000000000000000D+00
 0.793726750052866D+03 0.000000000000000D+00 0.000000000000000D+00 0.793726750052866D+03
 0.712292259254635D+03 0.000000000000000D+00 0.000000000000000D+00 -.712292259254635D+03
 0.635629504827213D+03 0.245157768797641D+03 0.257314863196321D+03 -.520811271987213D+03
 0.184227422545441D+03 -.120899559353832D+03 -.623077602496464D+02 0.124260946312421D+03
 0.227936219515192D+03 -.173049468784169D+03 0.196979316652570D+02 0.147040106802551D+03
 0.306212539860830D+03 -.565795532210906D+02 -.141401106995839D+03 0.249510218872241D+03
 0.152013322558823D+03 0.105370812561450D+03 -.733039276160927D+02 0.814344907982312D+02
0.177368667352D-04 0.000000000000D+00 0.000000000000D+00 0.362347307696D-06 0.147154139974D-11  7 1 21 -24 -13 13 23 2 2 0.16591294D+00 0.80653323D-01 0.24031656D+06 0.24031656D+06 0.24031656D+06 0.10917521D+01  1  2  1  4  7  2       -2 0.412896058627D-03 0.100000000000D+01
  </mgrwgt>
  </event>
  <event>
  8     66 0.29493621E-05 0.20267392E+03 0.75467711E-02 0.10240794E+00
        1 -1    0    0  501    0 0.00000000E+00 0.00000000E+00 0.83437668E+03 0.83437674E+03 0.32000000E+00 0.0000E+00 0.9000E+01
       -2 -1    0    0    0  501 0.00000000E+00 0.00000000E+00 -.62829309E+02 0.62830124E+02 0.32000000E+00 0.0000E+00 0.9000E+01
       25  2    1    2    0    0 0.32396951E+02 0.87007262E+02 0.66228527E+03 0.73281329E+03 0.29962261E+03 0.0000E+00 0.0000E+00
       23  2    3    3    0    0 -.87021430E+02 0.74886955E+02 0.44443517E+03 0.46789525E+03 0.90678307E+02 0.0000E+00 0.0000E+00
      -24  1    1    2    0    0 -.32396951E+02 -.87007262E+02 0.10926210E+03 0.16439358E+03 0.80419002E+02 0.0000E+00 0.9000E+01
      -11  1    4    4    0    0 -.58239685E+02 0.83436878E+02 0.40891812E+03 0.42138771E+03 0.51099893E-03 0.0000E+00 0.9000E+01
       11  1    4    4    0    0 -.28781745E+02 -.85499230E+01 0.35517051E+02 0.46507536E+02 0.51099893E-03 0.0000E+00 0.9000E+01
       23  1    3    3    0    0 0.11941838E+03 0.12120306E+02 0.21785010E+03 0.26491804E+03 0.91188000E+02 0.0000E+00 0.9000E+01
#aMCatNLO 1  0  0  1  2 0.11581879D+03 0.00000000D+00  -5  7  0 0.00000000D+00 0.00000000D+00 0.00000000D+00 0.00000000D+00 0.00000000D+00
  <mgrwgt>
 0.1077623059D-02    3    2    0
 0.228962231810119D+03 0.000000000000000D+00 0.000000000000000D+00 0.228962231810119D+03
 0.228962231810119D+03 0.000000000000000D+00 0.000000000000000D+00 -.228962231810119D+03
 0.138001275839304D+03 -.323969507021022D+02 -.870072615813119D+02 -.629071553659184D+02
 0.136643161645225D+03 -.582396845469037D+02 0.834368782904731D+02 0.912018646159229D+02
 0.312798174921292D+02 -.287817449784180D+02 -.854992299165059D+01 -.877137133948078D+01
 0.152000208643579D+03 0.119418380227424D+03 0.121203062824894D+02 -.195233379105237D+02
 0.000000000000000D+00 -.000000000000000D+00 0.000000000000000D+00 -.000000000000000D+00
 0.250504512201571D+03 0.000000000000000D+00 0.000000000000000D+00 0.250504512201571D+03
 0.470149920754834D+03 0.000000000000000D+00 0.000000000000000D+00 -.470149920754834D+03
 0.164094962611834D+03 -.312598613728037D+02 -.124601170423595D+03 -.629071553659184D+02
 0.119407252471595D+03 -.572759115613563D+02 0.515730723169552D+02 0.912018646159229D+02
 0.342061687478361D+02 -.285352559239570D+02 -.166992273649007D+02 -.877137133948078D+01
 0.154635564592246D+03 0.120572556351944D+03 -.260385180905430D+02 -.195233379105237D+02
 0.248310484532894D+03 -.350152749382706D+01 0.115765843562084D+03 -.219645408553262D+03
0.736961623364D-05 0.000000000000D+00 0.000000000000D+00 0.876018281497D-06 0.000000000000D+00  7 1 -2 -24 -11 11 23 21 0 0.12836571D+00 0.96661150D-02 0.41076716D+05 0.41076716D+05 0.41076716D+05 0.11548814D+01  1  2  2  1  7  1        1 0.106265588174D-02 0.100000000000D+01
-.402018902058D-06 0.000000000000D+00 -.283012668017D-07 0.876018281497D-06 0.000000000000D+00  7 1 -2 -24 -11 11 23 21 2 0.12836571D+00 0.96661150D-02 0.41076716D+05 0.41076716D+05 0.41076716D+05 0.11548814D+01  1  2  3  1  7  1        1 -.773159435533D-04 0.100000000000D+01
0.479843578675D-06 0.000000000000D+00 0.000000000000D+00 0.876018281497D-06 0.000000000000D+00  7 1 -2 -24 -11 11 23 21 2 0.12836571D+00 0.96661150D-02 0.41076716D+05 0.41076716D+05 0.41076716D+05 0.11548814D+01  1  2 15  1  7  1        1 0.922831211501D-04 0.100000000000D+01
  </mgrwgt>
  </event>
  <event>
  8     66 0.29493621E-05 0.96480811E+02 0.75467711E-02 0.10327989E+00
        1 -1    0    0  501    0 0.00000000E+00 0.00000000E+00 0.39094934E+03 0.39094947E+03 0.32000000E+00 0.0000E+00 0.9000E+01
       -2 -1    0    0    0  501 0.00000000E+00 0.00000000E+00 -.14210642E+03 0.14210678E+03 0.32000000E+00 0.0000E+00 0.9000E+01
       25  2    1    2    0    0 -.44822548E+02 0.11323453E+03 0.15473065E+03 0.35940299E+03 0.30066230E+03 0.0000E+00 0.0000E+00
       23  2    3    3    0    0 0.35735602E+02 0.14118993E+03 0.16539624E+03 0.23410285E+03 0.78972141E+02 0.0000E+00 0.0000E+00
      -24  1    1    2    0    0 0.44822548E+02 -.11323453E+03 0.94112265E+02 0.17365326E+03 0.80419002E+02 0.0000E+00 0.9000E+01
      -11  1    4    4    0    0 0.14666503E+02 0.10572852E+03 0.16023520E+03 0.19253297E+03 0.51099893E-03 0.0000E+00 0.9000E+01
       11  1    4    4    0    0 0.21069099E+02 0.35461410E+02 0.51610407E+01 0.41569879E+02 0.51099893E-03 0.0000E+00 0.9000E+01
       23  1    3    3    0    0 -.80558150E+02 -.27955396E+02 -.10665588E+02 0.12530014E+03 0.91188000E+02 0.0000E+00 0.9000E+01
#aMCatNLO 1  0  0  2  1 0.73827205D+02 0.00000000D+00  -5  7  0 0.00000000D+00 0.00000000D+00 0.00000000D+00 0.00000000D+00 0.00000000D+00
  <mgrwgt>
 0.3212389301D-02    9    2    0
 0.235704353817407D+03 0.000000000000000D+00 0.000000000000000D+00 0.235704353817407D+03
 0.235704353817407D+03 0.000000000000000D+00 0.000000000000000D+00 -.235704353817407D+03
 0.146683300121967D+03 0.448225483289349D+02 -.113234532100941D+03 0.147531176868397D+02
 0.133127597956295D+03 0.146665029272366D+02 0.105728518070037D+03 0.795570958256528D+02
 0.442817351175007D+02 0.210690987322713D+02 0.354614100069859D+02 -.161075617007275D+02
 0.147316074439051D+03 -.805581499884427D+02 -.279553959760816D+02 -.782026518117650D+02
 0.000000000000000D+00 -.000000000000000D+00 -.000000000000000D+00 -.000000000000000D+00
 0.248665631711662D+03 0.000000000000000D+00 0.000000000000000D+00 0.248665631711662D+03
 0.373646477726369D+03 0.000000000000000D+00 0.000000000000000D+00 -.373646477726369D+03
 0.154733549925312D+03 0.682609374665196D+02 -.112241015020485D+03 0.147531176868397D+02
 0.137746393291460D+03 0.357298575907855D+02 0.106621361110875D+03 0.795570958256528D+02
 0.483533497521828D+02 0.282724689706248D+02 0.357667497351833D+02 -.161075617007275D+02
 0.136321425949240D+03 -.585022957551116D+02 -.270204824128567D+02 -.782026518117650D+02
 0.145157390519835D+03 -.737609682728182D+02 -.312661341271652D+01 -.124980846014706D+03
0.256181690416D-04 0.000000000000D+00 0.000000000000D+00 0.534299534290D-08 0.000000000000D+00  7 1 -2 -24 -11 11 23 21 0 0.60146089D-01 0.21862564D-01 0.43842930D+05 0.43842930D+05 0.43842930D+05 0.11523494D+01  1  2  2  2  7  2       -2 0.297538275178D-02 0.100000000000D+01
-.139897580242D-05 0.000000000000D+00 -.983805145387D-07 0.534299534290D-08 0.000000000000D+00  7 1 -2 -24 -11 11 23 21 2 0.60146089D-01 0.21862564D-01 0.43842930D+05 0.43842930D+05 0.43842930D+05 0.11523494D+01  1  2  3  2  7  2       -2 -.215761170997D-03 0.100000000000D+01
0.169405283403D-05 0.000000000000D+00 0.000000000000D+00 0.534299534290D-08 0.000000000000D+00  7 1 -2 -24 -11 11 23 21 2 0.60146089D-01 0.21862564D-01 0.43842930D+05 0.43842930D+05 0.43842930D+05 0.11523494D+01  1  2 15  2  7  2       -2 0.261270296861D-03 0.100000000000D+01
0.410943109443D-04 0.000000000000D+00 0.000000000000D+00 0.534299534290D-08 0.000000000000D+00  7 1 -2 -24 -11 11 23 21 2 0.60146089D-01 0.34966192D-01 0.61890464D+05 0.61890464D+05 0.61890464D+05 0.11392337D+01  1  2 12  2  7  2       -2 0.275962568964D-02 0.100000000000D+01
-.443357578022D-04 0.000000000000D+00 0.000000000000D+00 0.534299534290D-08 0.000000000000D+00  7 1 -2 -24 -11 11 23 21 2 0.60146089D-01 0.21862564D-01 0.43842930D+05 0.43842930D+05 0.43842930D+05 0.11523494D+01  1  2  4  2  7  2       -2 -.683781306575D-02 0.100000000000D+01
-.496287308658D-04 0.000000000000D+00 -.942253051459D-05 0.534299534290D-08 0.000000000000D+00  7 1 -2 -24 -11 11 23 21 2 0.60146089D-01 0.36130008D-01 0.43842930D+05 0.43842930D+05 0.43842930D+05 0.11523494D+01  1  2  5  2  7  2       -2 -.322217424536D-02 0.100000000000D+01
0.491097354302D-04 0.000000000000D+00 0.834699810923D-05 0.534299534290D-08 0.000000000000D+00  7 1 -2 -24 -11 11 23 21 2 0.60146089D-01 0.21862564D-01 0.43842930D+05 0.43842930D+05 0.43842930D+05 0.11523494D+01  1  2  6  2  7  2       -2 0.757409385169D-02 0.100000000000D+01
0.220622464077D-05 0.000000000000D+00 0.000000000000D+00 0.534299534290D-08 0.000000000000D+00  7 1 21 -24 -11 11 23 2 2 0.60146089D-01 0.34966192D-01 0.61890464D+05 0.61890464D+05 0.61890464D+05 0.11392337D+01  1  2 12  4  7  2       -2 0.172960918896D-02 0.100000000000D+01
-.238137189262D-05 0.000000000000D+00 -.533244741245D-06 0.534299534290D-08 0.000000000000D+00  7 1 21 -24 -11 11 23 2 2 0.60146089D-01 0.36130008D-01 0.43842930D+05 0.43842930D+05 0.43842930D+05 0.11523494D+01  1  2  5  4  7  2       -2 -.181184399597D-02 0.100000000000D+01
  </mgrwgt>
  </event>
  <event>
  8     66 0.29493621E-05 0.24921730E+03 0.75467711E-02 0.92702072E-01
        1 -1    0    0  501    0 0.00000000E+00 0.00000000E+00 0.15205650E+04 0.15205651E+04 0.32000000E+00 0.0000E+00 0.9000E+01
       -2 -1    0    0    0  501 0.00000000E+00 0.00000000E+00 -.11072448E+03 0.11072494E+03 0.32000000E+00 0.0000E+00 0.9000E+01
       25  2    1    2    0    0 0.46856364E+00 0.20290918E+03 0.22513653E+03 0.42664766E+03 0.30028222E+03 0.0000E+00 0.0000E+00
       23  2    3    3    0    0 0.23764111E+02 -.22540499E+02 0.67040143E+02 0.13564944E+03 0.11328541E+03 0.0000E+00 0.0000E+00
      -24  1    1    2    0    0 -.46856364E+00 -.20290918E+03 0.11847040E+04 0.12046423E+04 0.80419002E+02 0.0000E+00 0.9000E+01
      -13  1    4    4    0    0 0.17921622E+02 -.69639159E+01 0.98340470E+02 0.10020249E+03 0.10565837E+00 0.0000E+00 0.9000E+01
       13  1    4    4    0    0 0.58424887E+01 -.15576583E+02 -.31300327E+02 0.35446949E+02 0.10565837E+00 0.0000E+00 0.9000E+01
       23  1    3    3    0    0 -.23295547E+02 0.22544968E+03 0.15809639E+03 0.29099821E+03 0.91188000E+02 0.0000E+00 0.9000E+01
#aMCatNLO 1  0  0  2  2 0.47851226D+03 0.00000000D+00  -5  7  0 0.00000000D+00 0.00000000D+00 0.00000000D+00 0.00000000D+00 0.00000000D+00
  <mgrwgt>
 0.1204023989D-02    5    2    0
 0.410322036198354D+03 0.000000000000000D+00 0.000000000000000D+00 0.410322036198354D+03
 0.410322036198354D+03 0.000000000000000D+00 0.000000000000000D+00 -.410322036198354D+03
 0.359324169750302D+03 -.468563636648093D+00 -.202909180903353D+03 0.285437011905643D+03
 0.302382675268487D+02 0.179216235729983D+02 -.696394675973391D+01 0.233382020957189D+02
 0.124234979355771D+03 0.584250188294223D+01 -.155766709014694D+02 -.123116053343599D+03
 0.306846655763788D+03 -.232955618192925D+02 0.225449798564556D+03 -.185659160657763D+03
 0.000000000000000D+00 0.000000000000000D+00 0.000000000000000D+00 -.000000000000000D+00
 0.621929406230542D+03 0.000000000000000D+00 0.000000000000000D+00 0.621929406230542D+03
 0.864532026622411D+03 0.000000000000000D+00 0.000000000000000D+00 -.864532026622411D+03
 0.483088680585262D+03 -.188223163615867D+03 -.331670333717158D+03 0.285437011905643D+03
 0.286818083884647D+02 0.478968324253177D+01 -.159697648638983D+02 0.233382020957189D+02
 0.146139674714213D+03 -.544178383993886D+02 -.569029067676690D+02 -.123116053343599D+03
 0.292053350695917D+03 -.156776706006020D+03 0.133909106585285D+03 -.185659160657763D+03
 0.536497918469097D+03 0.394628024778743D+03 0.270633898763441D+03 -.242602620391869D+03
0.519956251160D-04 0.000000000000D+00 0.000000000000D+00 0.251962541154D-07 0.000000000000D+00  7 1 -2 -24 -13 13 23 21 0 0.23393312D+00 0.17034573D-01 0.62109260D+05 0.62109260D+05 0.62109260D+05 0.11391018D+01  1  2  2  2  7  2       -2 0.100272682996D-02 0.100000000000D+01
-.201545299630D-05 0.000000000000D+00 -.199676891208D-06 0.251962541154D-07 0.000000000000D+00  7 1 -2 -24 -13 13 23 21 2 0.23393312D+00 0.17034573D-01 0.62109260D+05 0.62109260D+05 0.62109260D+05 0.11391018D+01  1  2  3  2  7  2       -2 -.504328593876D-04 0.100000000000D+01
0.320264917389D-05 0.000000000000D+00 0.000000000000D+00 0.251962541154D-07 0.000000000000D+00  7 1 -2 -24 -13 13 23 21 2 0.23393312D+00 0.17034573D-01 0.62109260D+05 0.62109260D+05 0.62109260D+05 0.11391018D+01  1  2 15  2  7  2       -2 0.801401748148D-04 0.100000000000D+01
0.198853362360D-04 0.000000000000D+00 -.173545288998D-04 0.251962541154D-07 0.000000000000D+00  7 1 -2 -24 -13 13 23 21 2 0.23393312D+00 0.56025640D-01 0.62109260D+05 0.62109260D+05 0.62109260D+05 0.11391018D+01  1  2  5  2  7  2       -2 0.602124261301D-04 0.100000000000D+01
0.343443588789D-05 0.000000000000D+00 -.239134601189D-05 0.251962541154D-07 0.000000000000D+00  7 1 21 -24 -13 13 23 2 2 0.23393312D+00 0.56025640D-01 0.62109260D+05 0.62109260D+05 0.62109260D+05 0.11391018D+01  1  2  5  4  7  2       -2 0.111377417058D-03 0.100000000000D+01
  </mgrwgt>
  </event>
  <event>
  8     66 0.29493621E-05 0.19471298E+03 0.75467711E-02 0.95187786E-01
        1 -1    0    0  501    0 0.00000000E+00 0.00000000E+00 0.11956325E+04 0.11956326E+04 0.32000000E+00 0.0000E+00 0.9000E+01
       -2 -1    0    0    0  501 0.00000000E+00 0.00000000E+00 -.18345522E+03 0.18345550E+03 0.32000000E+00 0.0000E+00 0.9000E+01
       25  2    1    2    0    0 -.86572392E+02 0.37848445E+03 0.33759303E+03 0.59660714E+03 0.30203602E+03 0.0000E+00 0.0000E+00
       23  2    3    3    0    0 0.26087835E+01 0.14075871E+03 0.52968829E+01 0.16858518E+03 0.92590966E+02 0.0000E+00 0.0000E+00
      -24  1    1    2    0    0 0.86572392E+02 -.37848445E+03 0.67458428E+03 0.78248094E+03 0.80419002E+02 0.0000E+00 0.9000E+01
      -11  1    4    4    0    0 0.24152980E+02 0.14294865E+03 -.39732818E+01 0.14502920E+03 0.51099893E-03 0.0000E+00 0.9000E+01
       11  1    4    4    0    0 -.21544197E+02 -.21899400E+01 0.92701647E+01 0.23555980E+02 0.51099893E-03 0.0000E+00 0.9000E+01
       23  1    3    3    0    0 -.89181176E+02 0.23772575E+03 0.33229615E+03 0.42802195E+03 0.91188000E+02 0.0000E+00 0.9000E+01
#aMCatNLO 1  0  0  1  2 0.10857245D+03 0.00000000D+00  -5  7  0 0.00000000D+00 0.00000000D+00 0.00000000D+00 0.00000000D+00 0.00000000D+00
  <mgrwgt>
 0.1567057705D-02    9    2    0
 0.468343096513908D+03 0.000000000000000D+00 0.000000000000000D+00 0.468343096513908D+03
 0.468343096513908D+03 0.000000000000000D+00 0.000000000000000D+00 -.468343096513908D+03
 0.423099265388244D+03 0.865723920832103D+02 -.378484453856317D+03 0.147649962870898D+03
 0.217820770992638D+03 0.241529800875576D+02 0.142948647881143D+03 -.162567542571296D+03
 0.246643125134650D+02 -.215441966282090D+02 -.218994004143996D+01 -.118059335091230D+02
 0.271101844133470D+03 -.891811755425589D+02 0.237725746016615D+03 0.267235132095211D+02
 0.000000000000000D+00 0.000000000000000D+00 -.000000000000000D+00 0.000000000000000D+00
 0.649016661992546D+03 0.000000000000000D+00 0.000000000000000D+00 0.649016661992546D+03
 0.488078034358520D+03 0.000000000000000D+00 0.000000000000000D+00 -.488078034358520D+03
 0.381358277614110D+03 0.700645485999282D+02 -.335048306135311D+03 0.147649962870898D+03
 0.233773076389438D+03 0.148860639955363D+02 0.167332156041906D+03 -.162567542571296D+03
 0.254793208131482D+02 -.225731673400125D+02 0.517531948087264D+00 -.118059335091230D+02
 0.302346907210342D+03 -.100948611021549D+03 0.268688728327446D+03 0.267235132095211D+02
 0.194137114324026D+03 0.385711657660970D+02 -.101490110182129D+03 0.160938627634026D+03
0.917817761681D-04 0.000000000000D+00 0.000000000000D+00 0.344396874439D-06 0.000000000000D+00  7 1 -2 -24 -11 11 23 21 0 0.18394349D+00 0.28223905D-01 0.17343551D+06 0.17343551D+06 0.17343551D+06 0.11026107D+01  1  2  2  1  7  1        1 0.122469182610D-02 0.100000000000D+01
-.501350963095D-05 0.000000000000D+00 -.352466187182D-06 0.344396874439D-06 0.000000000000D+00  7 1 -2 -24 -11 11 23 21 2 0.18394349D+00 0.28223905D-01 0.17343551D+06 0.17343551D+06 0.17343551D+06 0.11026107D+01  1  2  3  1  7  1        1 -.813310983087D-04 0.100000000000D+01
0.575830194579D-05 0.000000000000D+00 0.000000000000D+00 0.344396874439D-06 0.000000000000D+00  7 1 -2 -24 -11 11 23 21 2 0.18394349D+00 0.28223905D-01 0.17343551D+06 0.17343551D+06 0.17343551D+06 0.11026107D+01  1  2 15  1  7  1        1 0.934134081947D-04 0.100000000000D+01
0.170257300530D-03 0.000000000000D+00 0.000000000000D+00 0.344396874439D-06 0.000000000000D+00  7 1 -2 -24 -11 11 23 21 2 0.25764778D+00 0.28223905D-01 0.22653976D+06 0.22653976D+06 0.22653976D+06 0.10936933D+01  1  2 12  1  7  1        1 0.127455722753D-02 0.100000000000D+01
-.174871932263D-03 0.000000000000D+00 0.000000000000D+00 0.344396874439D-06 0.000000000000D+00  7 1 -2 -24 -11 11 23 21 2 0.18394349D+00 0.28223905D-01 0.17343551D+06 0.17343551D+06 0.17343551D+06 0.11026107D+01  1  2  4  1  7  1        1 -.283684032969D-02 0.100000000000D+01
-.215766063836D-03 0.000000000000D+00 -.380256416345D-04 0.344396874439D-06 0.000000000000D+00  7 1 -2 -24 -11 11 23 21 2 0.25894183D+00 0.28223905D-01 0.17343551D+06 0.17343551D+06 0.17343551D+06 0.11026107D+01  1  2  5  1  7  1        1 -.163852559943D-02 0.100000000000D+01
0.218017019170D-03 0.000000000000D+00 0.359055793585D-04 0.344396874439D-06 0.000000000000D+00  7 1 -2 -24 -11 11 23 21 2 0.18394349D+00 0.28223905D-01 0.17343551D+06 0.17343551D+06 0.17343551D+06 0.11026107D+01  1  2  6  1  7  1        1 0.353675666835D-02 0.100000000000D+01
0.715637358973D-05 0.000000000000D+00 0.000000000000D+00 0.344396874439D-06 0.000000000000D+00  7 21 -2 -24 -11 11 23 -1 2 0.25764778D+00 0.28223905D-01 0.22653976D+06 0.22653976D+06 0.22653976D+06 0.10936933D+01  1  2 12  3  7  1        1 0.359015659998D-04 0.100000000000D+01
-.812674739513D-05 0.000000000000D+00 -.161540953331D-05 0.344396874439D-06 0.000000000000D+00  7 21 -2 -24 -11 11 23 -1 2 0.25894183D+00 0.28223905D-01 0.17343551D+06 0.17343551D+06 0.17343551D+06 0.11026107D+01  1  2  5  3  7  1        1 -.415659636863D-04 0.100000000000D+01
  </mgrwgt>
  </event>
  <event>
  9     66 0.29493621E-05 0.26203863E+03 0.75467711E-02 0.10182577E+00
       21 -1    0    0  501  502 0.00000000E+00 0.00000000E+00 0.30118039E+03 0.30118133E+03 0.75000000E+00 0.0000E+00 0.9000E+01
       -2 -1    0    0    0  501 0.00000000E+00 0.00000000E+00 -.35373242E+03 0.35373256E+03 0.32000000E+00 0.0000E+00 0.9000E+01
       25  2    1    2    0    0 -.21129026E+02 -.18920712E+03 0.71527968E+02 0.36178999E+03 0.29921560E+03 0.0000E+00 0.0000E+00
       23  2    3    3    0    0 -.36406753E+02 -.19169385E+03 -.38322376E+02 0.21818657E+03 0.89804178E+02 0.0000E+00 0.0000E+00
      -24  1    1    2    0    0 0.12157453E+02 0.21769614E+03 -.12367105E+03 0.26325112E+03 0.80419002E+02 0.0000E+00 0.9000E+01
      -13  1    4    4    0    0 -.42236173E+02 -.10577248E+03 -.60905635E+02 0.12915580E+03 0.10565837E+00 0.0000E+00 0.9000E+01
       13  1    4    4    0    0 0.58294198E+01 -.85921366E+02 0.22583259E+02 0.89030771E+02 0.10565837E+00 0.0000E+00 0.9000E+01
       23  1    3    3    0    0 0.15277727E+02 0.24867317E+01 0.10985034E+03 0.14360342E+03 0.91188000E+02 0.0000E+00 0.9000E+01
       -1  1    1    2    0  502 0.89715730E+01 -.28489016E+02 -.40895154E+00 0.29872777E+02 0.32000000E+00 0.0000E+00 0.9000E+01
#aMCatNLO 2  0  0  1  2 0.29868264D+02 0.00000000D+00  -5  7  0 0.00000000D+00 0.00000000D+00 0.00000000D+00 0.00000000D+00 0.00000000D+00
  <mgrwgt>
 0.3423055148D-05    2    2    0
 0.311072893011301D+03 0.000000000000000D+00 0.000000000000000D+00 0.311072893011301D+03
 0.311072893011301D+03 0.000000000000000D+00 0.000000000000000D+00 -.311072893011301D+03
 0.244317831898716D+03 0.157470437767178D+02 0.206297476083547D+03 -.102065513290099D+03
 0.128886727692565D+03 -.404102611964143D+02 -.111570860937203D+03 -.503064842248620D+02
 0.953563284121587D+02 0.717405353583823D+01 -.901909804666154D+02 0.301156000535102D+02
 0.153584898019162D+03 0.174891638838583D+02 -.453563467972852D+01 0.122256397461450D+03
 0.000000000000000D+00 0.000000000000000D+00 -.000000000000000D+00 0.000000000000000D+00
 0.327447042037189D+03 0.000000000000000D+00 0.000000000000000D+00 0.327447042037189D+03
 0.325356622516896D+03 0.000000000000000D+00 0.000000000000000D+00 -.325356622516896D+03
 0.253818825087796D+03 0.121574532582022D+02 0.217696135339335D+03 -.102065513290099D+03
 0.124508901008247D+03 -.422362391353203D+02 -.105772511452264D+03 -.503064842248620D+02
 0.912327176040537D+02 0.582948621471295D+01 -.859213389403965D+02 0.301156000535102D+02
 0.153301894413951D+03 0.152777267110960D+02 0.248673142801554D+01 0.122256397461450D+03
 0.299413264400372D+02 0.897157295130917D+01 -.284890163746905D+02 0.209041952029334D+01
-.344681523313D-06 0.000000000000D+00 0.000000000000D+00 0.505423674905D-06 0.000000000000D+00  7 21 -2 -24 -13 13 23 -1 2 0.47296970D-01 0.52031165D-01 0.76941403D+05 0.76941403D+05 0.76941403D+05 0.11311854D+01  1  2 13  3  7  1        1 -.695637973636D-04 0.100000000000D+01
0.378610451695D-06 0.000000000000D+00 0.000000000000D+00 0.505423674905D-06 0.349093731452D-10  7 21 -2 -24 -13 13 23 -1 2 0.46335406D-01 0.54420313D-01 0.76941403D+05 0.76941403D+05 0.76941403D+05 0.11311854D+01  1  2  1  3  7  1        1 0.729868525113D-04 0.100000000000D+01
  </mgrwgt>
  </event>
  <event>
  8     66 0.29493621E-05 0.90166219E+02 0.75467711E-02 0.10571599E+00
        1 -1    0    0  501    0 0.00000000E+00 0.00000000E+00 0.35558962E+03 0.35558976E+03 0.32000000E+00 0.0000E+00 0.9000E+01
       -2 -1    0    0    0  501 0.00000000E+00 0.00000000E+00 -.30767902E+03 0.30767919E+03 0.32000000E+00 0.0000E+00 0.9000E+01
       25  2    1    2    0    0 -.42305636E+02 -.70192123E+02 -.21420309E+03 0.37710902E+03 0.29935188E+03 0.0000E+00 0.0000E+00
       23  2    3    3    0    0 -.10683339E+03 0.27179172E+02 -.17341959E+03 0.22340949E+03 0.87666219E+02 0.0000E+00 0.0000E+00
      -24  1    1    2    0    0 0.42305636E+02 0.70192123E+02 0.26211369E+03 0.28615993E+03 0.80419002E+02 0.0000E+00 0.9000E+01
      -11  1    4    4    0    0 -.11358779E+03 0.32302425E+01 -.15615170E+03 0.19312165E+03 0.51099893E-03 0.0000E+00 0.9000E+01
       11  1    4    4    0    0 0.67543963E+01 0.23948929E+02 -.17267889E+02 0.30287837E+02 0.51099893E-03 0.0000E+00 0.9000E+01
       23  1    3    3    0    0 0.64527753E+02 -.97371295E+02 -.40783508E+02 0.15369953E+03 0.91188000E+02 0.0000E+00 0.9000E+01
#aMCatNLO 1  0  0  2  1 0.15275593D+02 0.00000000D+00  -5  7  0 0.00000000D+00 0.00000000D+00 0.00000000D+00 0.00000000D+00 0.00000000D+00
  <mgrwgt>
 0.9041876717D-03    9    2    0
 0.330768147191256D+03 0.000000000000000D+00 0.000000000000000D+00 0.330768147191256D+03
 0.330768147191256D+03 0.000000000000000D+00 0.000000000000000D+00 -.330768147191256D+03
 0.267926296982023D+03 0.423056360272147D+02 0.701921226951211D+02 0.242075574422564D+03
 0.204936471951267D+03 -.113587785525245D+03 0.323024250125075D+01 -.170547172502761D+03
 0.316177615491889D+02 0.675439631442880D+01 0.239489293411098D+02 -.195066593558080D+02
 0.157055763900034D+03 0.645277531836012D+02 -.973712945374816D+02 -.520217425639950D+02
 0.000000000000000D+00 0.000000000000000D+00 0.000000000000000D+00 -.000000000000000D+00
 0.333292271443656D+03 0.000000000000000D+00 0.000000000000000D+00 0.333292271443656D+03
 0.354804204057981D+03 0.000000000000000D+00 0.000000000000000D+00 -.354804204057981D+03
 0.266856731675824D+03 0.361659306584989D+02 0.695466822639499D+02 0.242075574422564D+03
 0.207591793717083D+03 -.118323915641093D+03 0.273235381108133D+01 -.170547172502761D+03
 0.314132614797566D+02 0.603075347284928D+01 0.238728559272188D+02 -.195066593558080D+02
 0.155850849044007D+03 0.609353534467944D+02 -.977489478442475D+02 -.520217425639950D+02
 0.263838395849664D+02 0.151918780629504D+02 0.159705584199755D+01 -.215119326143243D+02
0.224529436462D-04 0.000000000000D+00 0.000000000000D+00 0.330523457326D-06 0.000000000000D+00  7 1 -2 -24 -11 11 23 21 0 0.54706119D-01 0.47335258D-01 0.40306194D+05 0.40306194D+05 0.40306194D+05 0.11556204D+01  1  2  2  2  7  2       -2 0.753842399733D-03 0.100000000000D+01
-.869305862861D-06 0.000000000000D+00 -.862252155972D-07 0.330523457326D-06 0.000000000000D+00  7 1 -2 -24 -11 11 23 21 2 0.54706119D-01 0.47335258D-01 0.40306194D+05 0.40306194D+05 0.40306194D+05 0.11556204D+01  1  2  3  2  7  2       -2 -.389771672796D-04 0.100000000000D+01
0.138093332961D-05 0.000000000000D+00 0.000000000000D+00 0.330523457326D-06 0.000000000000D+00  7 1 -2 -24 -11 11 23 21 2 0.54706119D-01 0.47335258D-01 0.40306194D+05 0.40306194D+05 0.40306194D+05 0.11556204D+01  1  2 15  2  7  2       -2 0.619170670414D-04 0.100000000000D+01
0.187170144444D-03 0.000000000000D+00 0.000000000000D+00 0.330523457326D-06 0.000000000000D+00  7 1 -2 -24 -11 11 23 21 2 0.54706119D-01 0.50947739D-01 0.43570098D+05 0.43570098D+05 0.43570098D+05 0.11525912D+01  1  2 12  2  7  2       -2 0.723622248728D-02 0.100000000000D+01
-.190737283908D-03 0.000000000000D+00 0.000000000000D+00 0.330523457326D-06 0.000000000000D+00  7 1 -2 -24 -11 11 23 21 2 0.54706119D-01 0.47335258D-01 0.40306194D+05 0.40306194D+05 0.40306194D+05 0.11556204D+01  1  2  4  2  7  2       -2 -.855210960715D-02 0.100000000000D+01
-.334232432728D-03 0.000000000000D+00 -.388895498361D-04 0.330523457326D-06 0.000000000000D+00  7 1 -2 -24 -11 11 23 21 2 0.54706119D-01 0.51038385D-01 0.40306194D+05 0.40306194D+05 0.40306194D+05 0.11556204D+01  1  2  5  2  7  2       -2 -.129575192913D-01 0.100000000000D+01
0.336317255853D-03 0.000000000000D+00 0.387794902787D-04 0.330523457326D-06 0.000000000000D+00  7 1 -2 -24 -11 11 23 21 2 0.54706119D-01 0.47335258D-01 0.40306194D+05 0.40306194D+05 0.40306194D+05 0.11556204D+01  1  2  6  2  7  2       -2 0.150794956073D-01 0.100000000000D+01
0.258222959759D-05 0.000000000000D+00 0.000000000000D+00 0.330523457326D-06 0.000000000000D+00  7 1 21 -24 -11 11 23 2 2 0.54706119D-01 0.50947739D-01 0.43570098D+05 0.43570098D+05 0.43570098D+05 0.11525912D+01  1  2 12  4  7  2       -2 0.109943135452D-02 0.100000000000D+01
-.415569595618D-05 0.000000000000D+00 -.492280702562D-06 0.330523457326D-06 0.000000000000D+00  7 1 21 -24 -11 11 23 2 2 0.54706119D-01 0.51038385D-01 0.40306194D+05 0.40306194D+05 0.40306194D+05 0.11556204D+01  1  2  5  4  7  2       -2 -.177811517847D-02 0.100000000000D+01
  </mgrwgt>
  </event>
  <event>
  8     66 0.29493621E-05 0.15509055E+03 0.75467711E-02 0.10044663E+00
        1 -1    0    0  501    0 0.00000000E+00 0.00000000E+00 0.59982865E+03 0.59982874E+03 0.32000000E+00 0.0000E+00 0.9000E+01
       -2 -1    0    0    0  501 0.00000000E+00 0.00000000E+00 -.23094950E+03 0.23094972E+03 0.32000000E+00 0.0000E+00 0.9000E+01
       25  2    1    2    0    0 -.24830952E+03 -.19418643E+02 0.40904958E+03 0.56598499E+03 0.30163346E+03 0.0000E+00 0.0000E+00
       23  2    3    3    0    0 -.12492830E+03 -.10785421E+03 0.31089189E+03 0.36351534E+03 0.90829661E+02 0.0000E+00 0.0000E+00
      -24  1    1    2    0    0 0.24830952E+03 0.19418643E+02 -.40170424E+02 0.26479347E+03 0.80419002E+02 0.0000E+00 0.9000E+01
      -11  1    4    4    0    0 -.39635187E+02 -.51776926E+02 0.46457199E+02 0.80062909E+02 0.51099893E-03 0.0000E+00 0.9000E+01
       11  1    4    4    0    0 -.85293115E+02 -.56077280E+02 0.26443469E+03 0.28345243E+03 0.51099893E-03 0.0000E+00 0.9000E+01
       23  1    3    3    0    0 -.12338122E+03 0.88435563E+02 0.98157693E+02 0.20246965E+03 0.91188000E+02 0.0000E+00 0.9000E+01
#aMCatNLO 1  0  0  1  2 0.11385287D+02 0.00000000D+00  -5  7  0 0.00000000D+00 0.00000000D+00 0.00000000D+00 0.00000000D+00 0.00000000D+00
  <mgrwgt>
 0.1202307259D-02    9    2    0
 0.372196522905113D+03 0.000000000000000D+00 0.000000000000000D+00 0.372196522905113D+03
 0.372196522905113D+03 0.000000000000000D+00 0.000000000000000D+00 -.372196522905113D+03
 0.315428441717773D+03 0.248309519354147D+03 0.194186426781285D+02 -.176048813698882D+03
 0.663324944387299D+02 -.396351865487243D+02 -.517769262700501D+02 0.121738125391250D+02
 0.185307652470385D+03 -.852931153483258D+02 -.560772798032664D+02 0.154658815552585D+03
 0.177324457183338D+03 -.123381217457097D+03 0.884355633951879D+02 0.921618560717205D+01
 0.000000000000000D+00 -.000000000000000D+00 -.000000000000000D+00 0.000000000000000D+00
 0.383121525989250D+03 0.000000000000000D+00 0.000000000000000D+00 0.383121525989250D+03
 0.375218161351002D+03 0.000000000000000D+00 0.000000000000000D+00 -.375218161351002D+03
 0.318640538567032D+03 0.252129791967776D+03 0.224044652116469D+02 -.176048813698882D+03
 0.653749574626663D+02 -.388416476954535D+02 -.511567176019919D+02 0.121738125391250D+02
 0.183773316317447D+03 -.830693984324808D+02 -.543392823494175D+02 0.154658815552585D+03
 0.176691295791195D+03 -.121248268633020D+03 0.901026189448492D+02 0.921618560717205D+01
 0.138595792019108D+02 -.897047720682168D+01 -.701108420508675D+01 0.790336463824833D+01
0.175260359824D-04 0.000000000000D+00 0.000000000000D+00 0.588606684345D-06 0.000000000000D+00  7 1 -2 -24 -11 11 23 21 0 0.92281354D-01 0.35530715D-01 0.91837983D+05 0.91837983D+05 0.91837983D+05 0.11247692D+01  1  2  2  1  7  1        1 0.487494731266D-03 0.100000000000D+01
-.923659575510D-06 0.000000000000D+00 -.673045928835D-07 0.588606684345D-06 0.000000000000D+00  7 1 -2 -24 -11 11 23 21 2 0.92281354D-01 0.35530715D-01 0.91837983D+05 0.91837983D+05 0.91837983D+05 0.11247692D+01  1  2  3  1  7  1        1 -.325031144557D-04 0.100000000000D+01
0.110794229347D-05 0.000000000000D+00 0.000000000000D+00 0.588606684345D-06 0.000000000000D+00  7 1 -2 -24 -11 11 23 21 2 0.92281354D-01 0.35530715D-01 0.91837983D+05 0.91837983D+05 0.91837983D+05 0.11247692D+01  1  2 15  1  7  1        1 0.389879303262D-04 0.100000000000D+01
0.409503357762D-04 0.000000000000D+00 0.000000000000D+00 0.588606684345D-06 0.000000000000D+00  7 1 -2 -24 -11 11 23 21 2 0.95357480D-01 0.35530715D-01 0.95148281D+05 0.95148281D+05 0.95148281D+05 0.11234988D+01  1  2 12  1  7  1        1 0.137063085425D-02 0.100000000000D+01
-.408255251006D-04 0.000000000000D+00 0.000000000000D+00 0.588606684345D-06 0.000000000000D+00  7 1 -2 -24 -11 11 23 21 2 0.92281354D-01 0.35530715D-01 0.91837983D+05 0.91837983D+05 0.91837983D+05 0.11247692D+01  1  2  4  1  7  1        1 -.143662963092D-02 0.100000000000D+01
-.515636380979D-03 0.000000000000D+00 -.651334045723D-04 0.588606684345D-06 0.000000000000D+00  7 1 -2 -24 -11 11 23 21 2 0.95522745D-01 0.35530715D-01 0.91837983D+05 0.91837983D+05 0.91837983D+05 0.11247692D+01  1  2  5  1  7  1        1 -.172647651611D-01 0.100000000000D+01
0.517615253487D-03 0.000000000000D+00 0.650946112396D-04 0.588606684345D-06 0.000000000000D+00  7 1 -2 -24 -11 11 23 21 2 0.92281354D-01 0.35530715D-01 0.91837983D+05 0.91837983D+05 0.91837983D+05 0.11247692D+01  1  2  6  1  7  1        1 0.182146196220D-01 0.100000000000D+01
0.975894428540D-06 0.000000000000D+00 0.000000000000D+00 0.588606684345D-06 0.000000000000D+00  7 21 -2 -24 -11 11 23 -1 2 0.95357480D-01 0.35530715D-01 0.95148281D+05 0.95148281D+05 0.95148281D+05 0.11234988D+01  1  2 12  3  7  1        1 0.790420004280D-04 0.100000000000D+01
-.314354783854D-05 0.000000000000D+00 -.400602422866D-06 0.588606684345D-06 0.000000000000D+00  7 21 -2 -24 -11 11 23 -1 2 0.95522745D-01 0.35530715D-01 0.91837983D+05 0.91837983D+05 0.91837983D+05 0.11247692D+01  1  2  5  3  7  1        1 -.254569973127D-03 0.100000000000D+01
  </mgrwgt>
  </event>
  <event>
  8     66 0.29493621E-05 0.17787841E+03 0.75467711E-02 0.99486490E-01
        1 -1    0    0  501    0 0.00000000E+00 0.00000000E+00 0.11856291E+04 0.11856292E+04 0.32000000E+00 0.0000E+00 0.9000E+01
       -2 -1    0    0    0  501 0.00000000E+00 0.00000000E+00 -.20758872E+03 0.20758897E+03 0.32000000E+00 0.0000E+00 0.9000E+01
       25  2    1    2    0    0 -.68205918E+01 -.45702911E+02 -.87319143E+02 0.32382884E+03 0.30839132E+03 0.0000E+00 0.0000E+00
       23  2    3    3    0    0 -.26279638E+02 0.66942673E+02 0.46417745E+02 0.12566606E+03 0.92007662E+02 0.0000E+00 0.0000E+00
      -24  1    1    2    0    0 0.68205918E+01 0.45702911E+02 0.10653595E+04 0.10693893E+04 0.80419002E+02 0.0000E+00 0.9000E+01
      -13  1    4    4    0    0 -.19340183E+02 -.21007451E+02 0.11563295E+02 0.30807087E+02 0.10565837E+00 0.0000E+00 0.9000E+01
       13  1    4    4    0    0 -.69394550E+01 0.87950124E+02 0.34854450E+02 0.94858970E+02 0.10565837E+00 0.0000E+00 0.9000E+01
       23  1    3    3    0    0 0.19459046E+02 -.11264558E+03 -.13373689E+03 0.19816278E+03 0.91188000E+02 0.0000E+00 0.9000E+01
#aMCatNLO 1  0  0  2  1 0.22479439D+03 0.00000000D+00  -5  7  0 0.00000000D+00 0.00000000D+00 0.00000000D+00 0.00000000D+00 0.00000000D+00
  <mgrwgt>
 0.3727389327D-03    7    2    0
 0.496108285802505D+03 0.000000000000000D+00 0.000000000000000D+00 0.496108285802505D+03
 0.496108285802505D+03 0.000000000000000D+00 0.000000000000000D+00 -.496108285802505D+03
 0.451441638872319D+03 0.682059198356810D+01 0.457029123724814D+02 0.441811114254747D+03
 0.318595152652276D+02 -.193401987162807D+02 -.210075970915179D+02 -.141303323029041D+02
 0.988395698592245D+02 -.693943592398668D+01 0.879502581386344D+02 -.445629542597993D+02
 0.410075847608239D+03 0.194590426566993D+02 -.112645573419598D+03 -.383117827692044D+03
 0.000000000000000D+00 -.000000000000000D+00 0.000000000000000D+00 -.000000000000000D+00
 0.548158614076902D+03 0.000000000000000D+00 0.000000000000000D+00 0.548158614076902D+03
 0.828690224750811D+03 0.000000000000000D+00 0.000000000000000D+00 -.828690224750811D+03
 0.464400557528347D+03 0.109267661454748D+03 0.454332406884912D+02 0.441811114254747D+03
 0.282978042732881D+02 -.126109378041027D+02 -.210253105422936D+02 -.141303323029041D+02
 0.997198405631900D+02 0.152716281585011D+02 0.878917918976257D+02 -.445629542597993D+02
 0.424944192967841D+03 0.112865260936360D+03 -.112891446847785D+03 -.383117827692044D+03
 0.359486443495048D+03 -.224793612745506D+03 0.591724803962105D+00 -.280531610673909D+03
0.109779131757D-03 0.000000000000D+00 0.000000000000D+00 0.730688129166D-07 0.000000000000D+00  7 1 -2 -24 -13 13 23 21 0 0.18240450D+00 0.31936748D-01 0.31640727D+05 0.31640727D+05 0.31640727D+05 0.11651964D+01  1  2  2  2  7  2       -2 0.126169645141D-02 0.100000000000D+01
0.170241361319D-05 0.000000000000D+00 -.421580771457D-06 0.730688129166D-07 0.000000000000D+00  7 1 -2 -24 -13 13 23 21 2 0.18240450D+00 0.31936748D-01 0.31640727D+05 0.31640727D+05 0.31640727D+05 0.11651964D+01  1  2  3  2  7  2       -2 0.265643034292D-04 0.100000000000D+01
0.666745460783D-05 0.000000000000D+00 0.000000000000D+00 0.730688129166D-07 0.000000000000D+00  7 1 -2 -24 -13 13 23 21 2 0.18240450D+00 0.31936748D-01 0.31640727D+05 0.31640727D+05 0.31640727D+05 0.11651964D+01  1  2 15  2  7  2       -2 0.104038340584D-03 0.100000000000D+01
-.109380728741D-03 0.000000000000D+00 0.000000000000D+00 0.730688129166D-07 0.000000000000D+00  7 1 -2 -24 -13 13 23 21 2 0.18240450D+00 0.31936748D-01 0.31640727D+05 0.31640727D+05 0.31640727D+05 0.11651964D+01  1  2  4  2  7  2       -2 -.170676670175D-02 0.100000000000D+01
-.482450009351D-04 0.000000000000D+00 -.369512201871D-04 0.730688129166D-07 0.000000000000D+00  7 1 -2 -24 -13 13 23 21 2 0.18240450D+00 0.57690217D-01 0.31640727D+05 0.31640727D+05 0.31640727D+05 0.11651964D+01  1  2  5  2  7  2       -2 -.249430271629D-03 0.100000000000D+01
0.641799797384D-04 0.000000000000D+00 0.313148562104D-04 0.730688129166D-07 0.000000000000D+00  7 1 -2 -24 -13 13 23 21 2 0.18240450D+00 0.31936748D-01 0.31640727D+05 0.31640727D+05 0.31640727D+05 0.11651964D+01  1  2  6  2  7  2       -2 0.100145842505D-02 0.100000000000D+01
-.115152427760D-05 0.000000000000D+00 -.239456896482D-05 0.730688129166D-07 0.000000000000D+00  7 1 21 -24 -13 13 23 2 2 0.18240450D+00 0.57690217D-01 0.31640727D+05 0.31640727D+05 0.31640727D+05 0.11651964D+01  1  2  5  4  7  2       -2 -.648216144031D-04 0.100000000000D+01
  </mgrwgt>
  </event>
  <event>
  8     66 0.29493621E-05 0.21341753E+03 0.75467711E-02 0.92053563E-01
        1 -1    0    0  501    0 0.00000000E+00 0.00000000E+00 0.53143307E+03 0.53143317E+03 0.32000000E+00 0.0000E+00 0.9000E+01
       -2 -1    0    0    0  501 0.00000000E+00 0.00000000E+00 -.11281425E+03 0.11281470E+03 0.32000000E+00 0.0000E+00 0.9000E+01
       25  2    1    2    0    0 0.75095577E+01 0.13714091E+03 0.29474025E+03 0.44256213E+03 0.30020893E+03 0.0000E+00 0.0000E+00
       23  2    3    3    0    0 -.78013783E+02 -.30431111E+01 0.37605313E+02 0.12412936E+03 0.88873661E+02 0.0000E+00 0.0000E+00
      -24  1    1    2    0    0 -.75095577E+01 -.13714091E+03 0.12387857E+03 0.20168574E+03 0.80419002E+02 0.0000E+00 0.9000E+01
      -11  1    4    4    0    0 -.10232085E+02 0.53481973E+01 0.52894471E+02 0.54139854E+02 0.51099893E-03 0.0000E+00 0.9000E+01
       11  1    4    4    0    0 -.67781698E+02 -.83913084E+01 -.15289157E+02 0.69989506E+02 0.51099893E-03 0.0000E+00 0.9000E+01
       23  1    3    3    0    0 0.85523341E+02 0.14018402E+03 0.25713494E+03 0.31843277E+03 0.91188000E+02 0.0000E+00 0.9000E+01
#aMCatNLO 1  0  0  2  1 0.55982893D+03 0.00000000D+00  -5  7  0 0.00000000D+00 0.00000000D+00 0.00000000D+00 0.00000000D+00 0.00000000D+00
  <mgrwgt>
 0.1247743593D-02    3    2    0
 0.244853834292260D+03 0.000000000000000D+00 0.000000000000000D+00 0.244853834292260D+03
 0.244853834292260D+03 0.000000000000000D+00 0.000000000000000D+00 -.244853834292260D+03
 0.159437379974267D+03 -.750955769182078D+01 -.137140906593911D+03 -.943612529386997D+01
 0.260091182116149D+02 -.102320846100523D+02 0.534819728890254D+01 0.233061249554160D+02
 0.105146239123243D+03 -.677816983247261D+02 -.839130835205458D+01 -.799434732677960D+02
 0.199114931275394D+03 0.855233406265992D+02 0.140184017657063D+03 0.660734736062501D+02
 0.000000000000000D+00 0.000000000000000D+00 0.000000000000000D+00 0.000000000000000D+00
 0.709501116559482D+03 0.000000000000000D+00 0.000000000000000D+00 0.709501116559482D+03
 0.603975559220099D+03 0.000000000000000D+00 0.000000000000000D+00 -.603975559220099D+03
 0.353508340259954D+03 -.180427055930733D+03 -.293015302853935D+03 -.943612529386997D+01
 0.440983596806011D+02 -.338657932204416D+02 -.159561247059710D+02 0.233061249554160D+02
 0.223678286657628D+03 -.178630687047474D+03 -.108314794229230D+03 -.799434732677960D+02
 0.122503986310677D+03 -.228965884643310D+02 0.424501783306721D+02 0.660734736062501D+02
 0.569687702870721D+03 0.415820124662979D+03 0.374836043458465D+03 0.105525557339383D+03
0.109899307446D-04 0.000000000000D+00 0.000000000000D+00 0.371046834501D-06 0.000000000000D+00  7 1 -2 -24 -11 11 23 21 0 0.81758976D-01 0.17356081D-01 0.45547043D+05 0.45547043D+05 0.45547043D+05 0.11508757D+01  1  2  2  2  7  2       -2 0.123051623418D-02 0.100000000000D+01
-.596534980006D-06 0.000000000000D+00 -.422042277746D-07 0.371046834501D-06 0.000000000000D+00  7 1 -2 -24 -11 11 23 21 2 0.81758976D-01 0.17356081D-01 0.45547043D+05 0.45547043D+05 0.45547043D+05 0.11508757D+01  1  2  3  2  7  2       -2 -.884677913816D-04 0.100000000000D+01
0.712698413803D-06 0.000000000000D+00 0.000000000000D+00 0.371046834501D-06 0.000000000000D+00  7 1 -2 -24 -11 11 23 21 2 0.81758976D-01 0.17356081D-01 0.45547043D+05 0.45547043D+05 0.45547043D+05 0.11508757D+01  1  2 15  2  7  2       -2 0.105695150668D-03 0.100000000000D+01
  </mgrwgt>
  </event>
  <event>
  8     66 0.29493621E-05 0.28757689E+03 0.75467711E-02 0.95179081E-01
        1 -1    0    0  501    0 0.00000000E+00 0.00000000E+00 0.44472223E+03 0.44472234E+03 0.32000000E+00 0.0000E+00 0.9000E+01
       -2 -1    0    0    0  501 0.00000000E+00 0.00000000E+00 -.47354162E+03 0.47354172E+03 0.32000000E+00 0.0000E+00 0.9000E+01
       25  2    1    2    0    0 -.13953108E+03 -.14839241E+03 0.33487694E+03 0.49372730E+03 0.30022467E+03 0.0000E+00 0.0000E+00
       23  2    3    3    0    0 0.59833638E+02 -.37120806E+02 0.12363997E+03 0.16959158E+03 0.92284563E+02 0.0000E+00 0.0000E+00
      -24  1    1    2    0    0 0.13953108E+03 0.14839241E+03 -.36369633E+03 0.42453677E+03 0.80419002E+02 0.0000E+00 0.9000E+01
      -11  1    4    4    0    0 0.78633245E+02 -.44223847E+02 0.11834279E+03 0.14880844E+03 0.51099893E-03 0.0000E+00 0.9000E+01
       11  1    4    4    0    0 -.18799608E+02 0.71030408E+01 0.52971800E+01 0.20783131E+02 0.51099893E-03 0.0000E+00 0.9000E+01
       23  1    3    3    0    0 -.19936472E+03 -.11127161E+03 0.21123696E+03 0.32413572E+03 0.91188000E+02 0.0000E+00 0.9000E+01
#aMCatNLO 1  0  0  2  1 0.32920668D+03 0.00000000D+00  -5  7  0 0.00000000D+00 0.00000000D+00 0.00000000D+00 0.00000000D+00 0.00000000D+00
  <mgrwgt>
 0.1194065059D-02    5    2    0
 0.458905855595213D+03 0.000000000000000D+00 0.000000000000000D+00 0.458905855595213D+03
 0.458905855595213D+03 0.000000000000000D+00 0.000000000000000D+00 -.458905855595213D+03
 0.413325899080739D+03 0.139531080860239D+03 0.148392414200200D+03 -.350545078097440D+03
 0.152597762833961D+03 0.786332453799750D+02 -.442238467260900D+02 0.123073723124353D+03
 0.209597067231027D+02 -.187996076684266D+02 0.710304080025585D+01 0.595238345720535D+01
 0.330928342552623D+03 -.199364718571787D+03 -.111271608274366D+03 0.221518971515882D+03
 0.000000000000000D+00 0.000000000000000D+00 -.000000000000000D+00 -.000000000000000D+00
 0.569099453616333D+03 0.000000000000000D+00 0.000000000000000D+00 0.569099453616333D+03
 0.819709236762339D+03 0.000000000000000D+00 0.000000000000000D+00 -.819709236762339D+03
 0.409836698927017D+03 0.467726254196091D+01 0.196456548045100D+03 -.350545078097440D+03
 0.130224002932168D+03 0.323002425086263D+02 -.277099972910772D+02 0.123073723124353D+03
 0.294743618438676D+02 -.270619202856936D+02 0.100478658297367D+02 0.595238345720535D+01
 0.405531794325705D+03 -.320014589857980D+03 -.682699963497930D+02 0.221518971515882D+03
 0.413741832349914D+03 0.310099005093087D+03 -.110524420233966D+03 -.250609783146005D+03
0.117740275623D-03 0.000000000000D+00 0.000000000000D+00 0.945607133526D-05 0.000000000000D+00  7 1 -2 -24 -11 11 23 21 0 0.68418821D-01 0.72852574D-01 0.82700470D+05 0.82700470D+05 0.82700470D+05 0.11285550D+01  1  2  2  2  7  2       -2 0.120692380545D-02 0.100000000000D+01
-.480401587168D-05 0.000000000000D+00 -.452153660118D-06 0.945607133526D-05 0.000000000000D+00  7 1 -2 -24 -11 11 23 21 2 0.68418821D-01 0.72852574D-01 0.82700470D+05 0.82700470D+05 0.82700470D+05 0.11285550D+01  1  2  3  2  7  2       -2 -.627198032606D-04 0.100000000000D+01
0.739168882436D-05 0.000000000000D+00 0.000000000000D+00 0.945607133526D-05 0.000000000000D+00  7 1 -2 -24 -11 11 23 21 2 0.68418821D-01 0.72852574D-01 0.82700470D+05 0.82700470D+05 0.82700470D+05 0.11285550D+01  1  2 15  2  7  2       -2 0.965036921632D-04 0.100000000000D+01
-.236738216474D-04 0.000000000000D+00 -.354807878758D-04 0.945607133526D-05 0.000000000000D+00  7 1 -2 -24 -11 11 23 21 2 0.68418821D-01 0.15054504D+00 0.82700470D+05 0.82700470D+05 0.82700470D+05 0.11285550D+01  1  2  5  2  7  2       -2 -.530319039622D-04 0.100000000000D+01
0.319984762150D-06 0.000000000000D+00 -.278468303912D-05 0.945607133526D-05 0.000000000000D+00  7 1 21 -24 -11 11 23 2 2 0.68418821D-01 0.15054504D+00 0.82700470D+05 0.82700470D+05 0.82700470D+05 0.11285550D+01  1  2  5  4  7  2       -2 0.638926831691D-05 0.100000000000D+01
  </mgrwgt>
  </event>
  <event>
  9     66 0.29493621E-05 0.22298840E+03 0.75467711E-02 0.98050299E-01
        1 -1    0    0  501    0 0.00000000E+00 0.00000000E+00 0.16830769E+04 0.16830769E+04 0.32000000E+00 0.0000E+00 0.9000E+01
       21 -1    0    0  502  501 0.00000000E+00 0.00000000E+00 -.31653249E+03 0.31653338E+03 0.75000000E+00 0.0000E+00 0.9000E+01
       25  2    1    2    0    0 0.35888196E+02 -.27779687E+03 0.15059632E+04 0.15606312E+04 0.29863950E+03 0.0000E+00 0.0000E+00
       23  2    3    3    0    0 0.94750086E+02 -.24123238E+03 0.12563089E+04 0.12859601E+04 0.90613181E+02 0.0000E+00 0.0000E+00
      -24  1    1    2    0    0 -.79787298E+02 0.36227301E+02 0.49859971E+02 0.12896381E+03 0.80419002E+02 0.0000E+00 0.9000E+01
      -13  1    4    4    0    0 0.63190104E+02 -.22324494E+03 0.11611505E+04 0.11841038E+04 0.10565837E+00 0.0000E+00 0.9000E+01
       13  1    4    4    0    0 0.31559982E+02 -.17987434E+02 0.95158411E+02 0.10185634E+03 0.10565837E+00 0.0000E+00 0.9000E+01
       23  1    3    3    0    0 -.58861890E+02 -.36564490E+02 0.24965427E+03 0.27467106E+03 0.91188000E+02 0.0000E+00 0.9000E+01
        2  1    1    2  502    0 0.43899102E+02 0.24156957E+03 -.18927870E+03 0.31001535E+03 0.32000000E+00 0.0000E+00 0.9000E+01
#aMCatNLO 2  0  0  2  1 0.24552594D+03 0.00000000D+00  -5  7  0 0.00000000D+00 0.00000000D+00 0.00000000D+00 0.00000000D+00 0.00000000D+00
  <mgrwgt>
 0.1018889247D-02    1    2    0
 0.305721515862884D+03 0.000000000000000D+00 0.000000000000000D+00 0.305721515862884D+03
 0.305721515862884D+03 0.000000000000000D+00 0.000000000000000D+00 -.305721515862884D+03
 0.238079617294113D+03 -.642005005646309D+02 0.121998896162851D+03 -.176661408572550D+03
 0.233800977267112D+03 0.814500859323601D+02 -.122763769115822D+03 0.181542935596913D+03
 0.344862561267667D+02 0.340128161005348D+02 -.448937539030680D+01 0.350367109715751D+01
 0.105076181037776D+03 -.512624014682640D+02 0.525424834327761D+01 -.838519812152076D+01
 0.000000000000000D+00 0.000000000000000D+00 0.000000000000000D+00 -.000000000000000D+00
 0.341704806583627D+03 0.000000000000000D+00 0.000000000000000D+00 0.341704806583627D+03
 0.155909244010023D+04 0.000000000000000D+00 0.000000000000000D+00 -.155909244010023D+04
 0.212966897834162D+03 -.797872984430065D+02 0.362273011286367D+02 -.176661408572550D+03
 0.294600172296584D+03 0.631901467892578D+02 -.223245222571019D+03 0.181542935596913D+03
 0.364944272202477D+02 0.315599392297663D+02 -.179871549387432D+02 0.350367109715751D+01
 0.114835738579290D+03 -.588618896078452D+02 -.365644898133124D+02 -.838519812152076D+01
 0.124190001075357D+04 0.438991020318277D+02 0.241569566194438D+03 -.121738763351660D+04
0.334206424246D-04 0.000000000000D+00 0.000000000000D+00 0.586696317763D-06 0.433123180166D-10  7 1 21 -24 -13 13 23 2 2 0.25893497D+00 0.48697374D-01 0.13962645D+06 0.13962645D+06 0.13962645D+06 0.11100164D+01  1  2  1  4  7  2       -2 0.101888924666D-02 0.100000000000D+01
  </mgrwgt>
  </event>
  <event>
  8     66 0.29493621E-05 0.14227530E+03 0.75467711E-02 0.95976345E-01
        3 -1    0    0  501    0 0.00000000E+00 0.00000000E+00 0.26718691E+03 0.26718738E+03 0.50000000E+00 0.0000E+00 0.9000E+01
       -4 -1    0    0    0  501 0.00000000E+00 0.00000000E+00 -.61599366E+03 0.61599561E+03 0.15500000E+01 0.0000E+00 0.9000E+01
       25  2    1    2    0    0 0.14659634E+03 -.30203401E+03 -.28271963E+03 0.53168654E+03 0.30007525E+03 0.0000E+00 0.0000E+00
       23  2    3    3    0    0 0.55598420E+02 -.70357016E+02 -.22994893E+03 0.26139993E+03 0.86093666E+02 0.0000E+00 0.0000E+00
      -24  1    1    2    0    0 -.14659634E+03 0.30203401E+03 -.66087128E+02 0.35149645E+03 0.80419002E+02 0.0000E+00 0.9000E+01
      -11  1    4    4    0    0 0.67677826E+01 -.12070056E+02 -.15156153E+03 0.15219194E+03 0.51099893E-03 0.0000E+00 0.9000E+01
       11  1    4    4    0    0 0.48830638E+02 -.58286959E+02 -.78387400E+02 0.10920799E+03 0.51099893E-03 0.0000E+00 0.9000E+01
       23  1    3    3    0    0 0.90997924E+02 -.23167699E+03 -.52770697E+02 0.27028661E+03 0.91188000E+02 0.0000E+00 0.9000E+01
#aMCatNLO 1  0  0  2  1 0.16778274D+03 0.00000000D+00  -5  7  0 0.00000000D+00 0.00000000D+00 0.00000000D+00 0.00000000D+00 0.00000000D+00
  <mgrwgt>
 0.1648592702D-03    9    2    0
 0.405692629061224D+03 0.000000000000000D+00 0.000000000000000D+00 0.405692629061224D+03
 0.405692629061224D+03 0.000000000000000D+00 0.000000000000000D+00 -.405692629061224D+03
 0.354189389501152D+03 -.146596343894346D+03 0.302034009203635D+03 0.791699243527326D+02
 0.100504224849809D+03 0.676778256800715D+01 -.120700563681721D+02 -.995470244208352D+02
 0.851735773781139D+02 0.488306377133045D+02 -.582869592177304D+02 -.383762620515364D+02
 0.271518066393373D+03 0.909979236130344D+02 -.231676993617733D+03 0.587533621196389D+02
 0.000000000000000D+00 0.000000000000000D+00 0.000000000000000D+00 -.000000000000000D+00
 0.475723600177760D+03 0.000000000000000D+00 0.000000000000000D+00 0.475723600177760D+03
 0.528807580656501D+03 0.000000000000000D+00 0.000000000000000D+00 -.528807580656501D+03
 0.387830843550622D+03 -.222349019606480D+03 0.297049800223525D+03 0.791699243527326D+02
 0.101397931979133D+03 -.138443623986330D+02 -.134262492296951D+02 -.995470244208352D+02
 0.776911735112259D+02 0.322038125817090D+02 -.593809347156592D+02 -.383762620515364D+02
 0.261631246353862D+03 0.365688323353167D+02 -.235258199997248D+03 0.587533621196389D+02
 0.175979985439418D+03 0.167420737088087D+03 0.110155837190768D+02 -.530839804787412D+02
0.840125540961D-04 0.000000000000D+00 0.000000000000D+00 0.385409538834D-06 0.000000000000D+00  7 3 -4 -24 -11 11 23 21 0 0.41105864D-01 0.94768442D-01 0.12256617D+06 0.12256617D+06 0.12256617D+06 0.11145416D+01  1  2  2  2  7  2       -4 0.128066793431D-03 0.100000000000D+01
-.454408063732D-05 0.000000000000D+00 -.322630328743D-06 0.385409538834D-06 0.000000000000D+00  7 3 -4 -24 -11 11 23 21 2 0.41105864D-01 0.94768442D-01 0.12256617D+06 0.12256617D+06 0.12256617D+06 0.11145416D+01  1  2  3  2  7  2       -4 -.860460438427D-05 0.100000000000D+01
0.534439691537D-05 0.000000000000D+00 0.000000000000D+00 0.385409538834D-06 0.000000000000D+00  7 3 -4 -24 -11 11 23 21 2 0.41105864D-01 0.94768442D-01 0.12256617D+06 0.12256617D+06 0.12256617D+06 0.11145416D+01  1  2 15  2  7  2       -4 0.101200715391D-04 0.100000000000D+01
0.324327088943D-04 0.000000000000D+00 0.000000000000D+00 0.385409538834D-06 0.000000000000D+00  7 3 -4 -24 -11 11 23 21 2 0.41105864D-01 0.12969407D+00 0.19768368D+06 0.19768368D+06 0.19768368D+06 0.10982142D+01  1  2 12  2  7  2       -4 0.241928018595D-04 0.100000000000D+01
-.460630542624D-04 0.000000000000D+00 0.000000000000D+00 0.385409538834D-06 0.000000000000D+00  7 3 -4 -24 -11 11 23 21 2 0.41105864D-01 0.94768442D-01 0.12256617D+06 0.12256617D+06 0.12256617D+06 0.11145416D+01  1  2  4  2  7  2       -4 -.872243233107D-04 0.100000000000D+01
-.741493722047D-04 0.000000000000D+00 -.338175502171D-04 0.385409538834D-06 0.000000000000D+00  7 3 -4 -24 -11 11 23 21 2 0.41105864D-01 0.13889472D+00 0.12256617D+06 0.12256617D+06 0.12256617D+06 0.11145416D+01  1  2  5  2  7  2       -4 -.461247271417D-04 0.100000000000D+01
0.832487901317D-04 0.000000000000D+00 0.314885588756D-04 0.385409538834D-06 0.000000000000D+00  7 3 -4 -24 -11 11 23 21 2 0.41105864D-01 0.94768442D-01 0.12256617D+06 0.12256617D+06 0.12256617D+06 0.11145416D+01  1  2  6  2  7  2       -4 0.157638686838D-03 0.100000000000D+01
0.129487676774D-05 0.000000000000D+00 0.000000000000D+00 0.385409538834D-06 0.000000000000D+00  7 3 21 -24 -11 11 23 4 2 0.41105864D-01 0.12969407D+00 0.19768368D+06 0.19768368D+06 0.19768368D+06 0.10982142D+01  1  2 12  4  7  2       -4 0.232159515669D-04 0.100000000000D+01
-.232995689125D-05 0.000000000000D+00 -.155727103113D-05 0.385409538834D-06 0.000000000000D+00  7 3 21 -24 -11 11 23 4 2 0.41105864D-01 0.13889472D+00 0.12256617D+06 0.12256617D+06 0.12256617D+06 0.11145416D+01  1  2  5  4  7  2       -4 -.364213802281D-04 0.100000000000D+01
  </mgrwgt>
  </event>
  <event>
  8     66 0.29493621E-05 0.19480258E+03 0.75467711E-02 0.97029782E-01
        1 -1    0    0  501    0 0.00000000E+00 0.00000000E+00 0.81961196E+03 0.81961202E+03 0.32000000E+00 0.0000E+00 0.9000E+01
       -2 -1    0    0    0  501 0.00000000E+00 0.00000000E+00 -.72353700E+02 0.72354407E+02 0.32000000E+00 0.0000E+00 0.9000E+01
       25  2    1    2    0    0 0.12499648E+03 -.26385675E+02 0.58864130E+03 0.67299867E+03 0.30018046E+03 0.0000E+00 0.0000E+00
       23  2    3    3    0    0 0.48430675E+02 0.39881292E+02 0.49557225E+03 0.50798130E+03 0.92288118E+02 0.0000E+00 0.0000E+00
      -24  1    1    2    0    0 -.12499648E+03 0.26385675E+02 0.15861696E+03 0.21896776E+03 0.80419002E+02 0.0000E+00 0.9000E+01
      -13  1    4    4    0    0 0.53029439E+02 -.85659793E+01 0.35902162E+03 0.36301795E+03 0.10565837E+00 0.0000E+00 0.9000E+01
       13  1    4    4    0    0 -.45987635E+01 0.48447271E+02 0.13655064E+03 0.14496336E+03 0.10565837E+00 0.0000E+00 0.9000E+01
       23  1    3    3    0    0 0.76565803E+02 -.66266967E+02 0.93069045E+02 0.16501737E+03 0.91188000E+02 0.0000E+00 0.9000E+01
#aMCatNLO 1  0  0  1  1 0.30907429D+03 0.00000000D+00  -5  7  0 0.00000000D+00 0.00000000D+00 0.00000000D+00 0.00000000D+00 0.00000000D+00
  <mgrwgt>
 0.9929852224D-03    3    2    0
 0.243520637623731D+03 0.000000000000000D+00 0.000000000000000D+00 0.243520637623731D+03
 0.243520637623731D+03 0.000000000000000D+00 0.000000000000000D+00 -.243520637623731D+03
 0.157654106952087D+03 -.124996480626156D+03 0.263856757130333D+02 -.454673226914793D+02
 0.113990317432541D+03 0.530295130668117D+02 -.856605187379136D+01 0.100539971989075D+03
 0.559784527775219D+02 -.459883762054521D+01 0.484473434568005D+02 0.276639256050893D+02
 0.159418398085312D+03 0.765658051798898D+02 -.662669672960424D+02 -.827365749026847D+02
 0.000000000000000D+00 -.000000000000000D+00 0.000000000000000D+00 -.000000000000000D+00
 0.383717322720388D+03 0.000000000000000D+00 0.000000000000000D+00 0.383717322720388D+03
 0.539009299753834D+03 0.000000000000000D+00 0.000000000000000D+00 -.539009299753834D+03
 0.143661584981277D+03 -.948253551811947D+02 -.557880778212628D+02 -.454673226914793D+02
 0.151707381946813D+03 0.796341633821529D+02 -.810261920123178D+02 0.100539971989075D+03
 0.364322110375314D+02 0.465436028802154D+01 0.232454329172118D+02 0.276639256050893D+02
 0.245031656136411D+03 0.117063906171072D+03 -.176567160622511D+03 -.827365749026847D+02
 0.345893788372190D+03 -.106527074660051D+03 0.290135997538880D+03 -.155291977033446D+03
0.816769209542D-05 0.000000000000D+00 0.000000000000D+00 0.751195781659D-06 0.000000000000D+00  7 1 -2 -24 -13 13 23 21 0 0.12609421D+00 0.11131398D-01 0.37948044D+05 0.37948044D+05 0.37948044D+05 0.11579827D+01  1  2  2  1  7  1        1 0.975577230034D-03 0.100000000000D+01
-.426271897575D-06 0.000000000000D+00 -.313660882491D-07 0.751195781659D-06 0.000000000000D+00  7 1 -2 -24 -13 13 23 21 2 0.12609421D+00 0.11131398D-01 0.37948044D+05 0.37948044D+05 0.37948044D+05 0.11579827D+01  1  2  3  1  7  1        1 -.682736506949D-04 0.100000000000D+01
0.534960064392D-06 0.000000000000D+00 0.000000000000D+00 0.751195781659D-06 0.000000000000D+00  7 1 -2 -24 -13 13 23 21 2 0.12609421D+00 0.11131398D-01 0.37948044D+05 0.37948044D+05 0.37948044D+05 0.11579827D+01  1  2 15  1  7  1        1 0.856816430540D-04 0.100000000000D+01
  </mgrwgt>
  </event>
  <event>
  8     66 0.29493621E-05 0.10587667E+03 0.75467711E-02 0.10688414E+00
        1 -1    0    0  501    0 0.00000000E+00 0.00000000E+00 0.28607707E+03 0.28607725E+03 0.32000000E+00 0.0000E+00 0.9000E+01
       -2 -1    0    0    0  501 0.00000000E+00 0.00000000E+00 -.30028107E+03 0.30028124E+03 0.32000000E+00 0.0000E+00 0.9000E+01
       25  2    1    2    0    0 0.41716546E+02 -.80551751E+02 -.19423544E+03 0.36931612E+03 0.30072934E+03 0.0000E+00 0.0000E+00
       23  2    3    3    0    0 0.72744422E+02 -.39743509E+02 -.22809218E+03 0.25936353E+03 0.91499168E+02 0.0000E+00 0.0000E+00
      -24  1    1    2    0    0 -.41716546E+02 0.80551751E+02 0.18003144E+03 0.21704237E+03 0.80419002E+02 0.0000E+00 0.9000E+01
      -11  1    4    4    0    0 0.52984534E+02 -.63347778E+02 -.20460444E+03 0.22064288E+03 0.51099893E-03 0.0000E+00 0.9000E+01
       11  1    4    4    0    0 0.19759888E+02 0.23604269E+02 -.23487741E+02 0.38720649E+02 0.51099893E-03 0.0000E+00 0.9000E+01
       23  1    3    3    0    0 -.31027877E+02 -.40808242E+02 0.33856748E+02 0.10995259E+03 0.91188000E+02 0.0000E+00 0.9000E+01
#aMCatNLO 1  0  0  2  1 0.39902199D+02 0.00000000D+00  -5  7  0 0.00000000D+00 0.00000000D+00 0.00000000D+00 0.00000000D+00 0.00000000D+00
  <mgrwgt>
 0.1062034919D-02    6    2    0
 0.293093213136909D+03 0.000000000000000D+00 0.000000000000000D+00 0.293093213136909D+03
 0.293093213136909D+03 0.000000000000000D+00 0.000000000000000D+00 -.293093213136909D+03
 0.221468455515670D+03 -.417165455567511D+02 0.805517508559245D+02 0.185343481393283D+03
 0.215749835679470D+03 0.529845337146520D+02 -.633477780276269D+02 -.199318061905392D+03
 0.381628791820558D+02 0.197598883748635D+02 0.236042689528899D+02 -.225563881434232D+02
 0.110805255896622D+03 -.310278765327644D+02 -.408082417811875D+02 0.365309686555327D+02
 0.000000000000000D+00 -.000000000000000D+00 0.000000000000000D+00 0.000000000000000D+00
 0.314879867465993D+03 0.000000000000000D+00 0.000000000000000D+00 0.314879867465993D+03
 0.312628726666557D+03 0.000000000000000D+00 0.000000000000000D+00 -.312628726666557D+03
 0.218360688245595D+03 -.269288999277163D+02 0.783377461407976D+02 0.185343481393283D+03
 0.220454551884581D+03 0.676503101794981D+02 -.655435365045824D+02 -.199318061905392D+03
 0.393435262636070D+02 0.223657576628997D+02 0.232141184830011D+02 -.225563881434232D+02
 0.109384178290750D+03 -.236248124789010D+02 -.419166277361132D+02 0.365309686555327D+02
 0.399656494480170D+02 -.394623554357805D+02 0.590829961689689D+01 0.225114079943600D+01
0.168300224913D-04 0.000000000000D+00 0.000000000000D+00 0.167893449366D-05 0.000000000000D+00  7 1 -2 -24 -11 11 23 21 0 0.44011884D-01 0.46197114D-01 0.28765180D+05 0.28765180D+05 0.28765180D+05 0.11690334D+01  1  2  2  2  7  2       -2 0.786766119541D-03 0.100000000000D+01
-.594815319079D-06 0.000000000000D+00 -.646317178133D-07 0.167893449366D-05 0.000000000000D+00  7 1 -2 -24 -11 11 23 21 2 0.44011884D-01 0.46197114D-01 0.28765180D+05 0.28765180D+05 0.28765180D+05 0.11690334D+01  1  2  3  2  7  2       -2 -.380011649148D-04 0.100000000000D+01
0.103432140520D-05 0.000000000000D+00 0.000000000000D+00 0.167893449366D-05 0.000000000000D+00  7 1 -2 -24 -11 11 23 21 2 0.44011884D-01 0.46197114D-01 0.28765180D+05 0.28765180D+05 0.28765180D+05 0.11690334D+01  1  2 15  2  7  2       -2 0.660800370016D-04 0.100000000000D+01
0.207737115927D-04 0.000000000000D+00 0.000000000000D+00 0.167893449366D-05 0.000000000000D+00  7 1 -2 -24 -11 11 23 21 2 0.44011884D-01 0.50877141D-01 0.37034602D+05 0.37034602D+05 0.37034602D+05 0.11589416D+01  1  2 12  2  7  2       -2 0.108196357699D-02 0.100000000000D+01
-.160194860099D-04 0.000000000000D+00 0.000000000000D+00 0.167893449366D-05 0.000000000000D+00  7 1 -2 -24 -11 11 23 21 2 0.44011884D-01 0.46197114D-01 0.28765180D+05 0.28765180D+05 0.28765180D+05 0.11690334D+01  1  2  4  2  7  2       -2 -.102344225205D-02 0.100000000000D+01
0.327151309387D-06 0.000000000000D+00 0.000000000000D+00 0.167893449366D-05 0.000000000000D+00  7 1 21 -24 -11 11 23 2 2 0.44011884D-01 0.50877141D-01 0.37034602D+05 0.37034602D+05 0.37034602D+05 0.11589416D+01  1  2 12  4  7  2       -2 0.188668602679D-03 0.100000000000D+01
  </mgrwgt>
  </event>
  <event>
  8     66 0.29493621E-05 0.27925956E+03 0.75467711E-02 0.96896533E-01
        1 -1    0    0  501    0 0.00000000E+00 0.00000000E+00 0.20531959E+04 0.20531959E+04 0.32000000E+00 0.0000E+00 0.9000E+01
       -2 -1    0    0    0  501 0.00000000E+00 0.00000000E+00 -.50711604E+02 0.50712614E+02 0.32000000E+00 0.0000E+00 0.9000E+01
       25  2    1    2    0    0 0.16022564E+03 0.14512364E+03 0.82413952E+03 0.90320177E+03 0.29972380E+03 0.0000E+00 0.0000E+00
       23  2    3    3    0    0 0.99716564E+02 0.17848576E+03 0.34825978E+03 0.41376213E+03 0.90075899E+02 0.0000E+00 0.0000E+00
      -24  1    1    2    0    0 -.16022564E+03 -.14512364E+03 0.11783448E+04 0.12007068E+04 0.80419002E+02 0.0000E+00 0.9000E+01
      -13  1    4    4    0    0 0.20029781E+02 0.23917352E+01 0.66109161E+01 0.21227998E+02 0.10565837E+00 0.0000E+00 0.9000E+01
       13  1    4    4    0    0 0.79686784E+02 0.17609402E+03 0.34164886E+03 0.39253413E+03 0.10565837E+00 0.0000E+00 0.9000E+01
       23  1    3    3    0    0 0.60509080E+02 -.33362119E+02 0.47587974E+03 0.48943964E+03 0.91188000E+02 0.0000E+00 0.9000E+01
#aMCatNLO 1  0  0  2  2 0.22528112D+03 0.00000000D+00  -5  7  0 0.00000000D+00 0.00000000D+00 0.00000000D+00 0.00000000D+00 0.00000000D+00
  <mgrwgt>
 0.1532829694D-02    3    2    0
 0.322679325410039D+03 0.000000000000000D+00 0.000000000000000D+00 0.322679325410039D+03
 0.322679325410039D+03 0.000000000000000D+00 0.000000000000000D+00 -.322679325410039D+03
 0.258089550532191D+03 -.160225644833679D+03 -.145123637366243D+03 0.115801004981653D+03
 0.486913101533767D+02 0.200296985325686D+02 0.239149643249363D+01 -.443163130907808D+02
 0.219582677297038D+03 0.796868659844358D+02 0.176094259438335D+03 -.104198691697055D+03
 0.118995112837472D+03 0.605090803166742D+02 -.333621185045854D+02 0.327139998061826D+02
 0.000000000000000D+00 0.000000000000000D+00 -.000000000000000D+00 0.000000000000000D+00
 0.513221324256194D+03 0.000000000000000D+00 0.000000000000000D+00 0.513221324256194D+03
 0.415779416521332D+03 0.000000000000000D+00 0.000000000000000D+00 -.415779416521332D+03
 0.294805454197118D+03 -.240293084877781D+03 -.963970978565071D+02 0.115801004981653D+03
 0.460338699488082D+02 0.631208015362939D+01 0.107396098922557D+02 -.443163130907808D+02
 0.240771045300601D+03 0.130207833324292D+02 0.216665152032291D+03 -.104198691697055D+03
 0.101938729829508D+03 0.285145658968666D+02 -.138912578137369D+02 0.327139998061826D+02
 0.245451641501492D+03 0.192445655494856D+03 -.117116406254303D+03 0.974419077348617D+02
0.520189140458D-04 0.000000000000D+00 0.000000000000D+00 0.209132773022D-05 0.000000000000D+00  7 1 -2 -24 -13 13 23 21 0 0.31587637D+00 0.78018649D-02 0.77985904D+05 0.77985904D+05 0.77985904D+05 0.11306926D+01  1  2  2  2  7  2       -2 0.151252651053D-02 0.100000000000D+01
-.281655417393D-05 0.000000000000D+00 -.199766326830D-06 0.209132773022D-05 0.000000000000D+00  7 1 -2 -24 -13 13 23 21 2 0.31587637D+00 0.78018649D-02 0.77985904D+05 0.77985904D+05 0.77985904D+05 0.11306926D+01  1  2  3  2  7  2       -2 -.104700534954D-03 0.100000000000D+01
0.336273109389D-05 0.000000000000D+00 0.000000000000D+00 0.209132773022D-05 0.000000000000D+00  7 1 -2 -24 -13 13 23 21 2 0.31587637D+00 0.78018649D-02 0.77985904D+05 0.77985904D+05 0.77985904D+05 0.11306926D+01  1  2 15  2  7  2       -2 0.125003718266D-03 0.100000000000D+01
  </mgrwgt>
  </event>
  <event>
  9     66 0.29493621E-05 0.32479080E+03 0.75467711E-02 0.96236693E-01
        1 -1    0    0  501    0 0.00000000E+00 0.00000000E+00 0.70920855E+03 0.70920862E+03 0.32000000E+00 0.0000E+00 0.9000E+01
       -2 -1    0    0    0  502 0.00000000E+00 0.00000000E+00 -.37504530E+03 0.37504544E+03 0.32000000E+00 0.0000E+00 0.9000E+01
       25  2    1    2    0    0 -.12042549E+03 0.26938998E+03 0.28647748E+02 0.42121261E+03 0.29920914E+03 0.0000E+00 0.0000E+00
       23  2    3    3    0    0 -.58585140E+02 0.26044610E+03 0.88422823E+02 0.29554426E+03 0.90903396E+02 0.0000E+00 0.0000E+00
      -24  1    1    2    0    0 0.24704464E+03 -.11530217E+03 0.35770474E+03 0.45688680E+03 0.80419002E+02 0.0000E+00 0.9000E+01
      -11  1    4    4    0    0 -.12460985E+02 0.19493126E+03 0.90764941E+02 0.21538744E+03 0.51099893E-03 0.0000E+00 0.9000E+01
       11  1    4    4    0    0 -.46124155E+02 0.65514833E+02 -.23421180E+01 0.80156824E+02 0.51099893E-03 0.0000E+00 0.9000E+01
       23  1    3    3    0    0 -.61840352E+02 0.89438841E+01 -.59775076E+02 0.12566835E+03 0.91188000E+02 0.0000E+00 0.9000E+01
       21  1    1    2  501  502 -.12661915E+03 -.15408781E+03 -.52189244E+02 0.20615465E+03 0.75000000E+00 0.0000E+00 0.9000E+01
#aMCatNLO 2  0  0  2  1 0.19943786D+03 0.00000000D+00  -5  7  0 0.00000000D+00 0.00000000D+00 0.00000000D+00 0.00000000D+00 0.00000000D+00
  <mgrwgt>
 0.1821402240D-03    2    2    0
 0.381449490874425D+03 0.000000000000000D+00 0.000000000000000D+00 0.381449490874425D+03
 0.381449490874425D+03 0.000000000000000D+00 0.000000000000000D+00 -.381449490874425D+03
 0.327013128153553D+03 0.193135867647347D+03 -.180905872206888D+03 0.174476279360758D+03
 0.164642490688226D+03 -.418439215625145D+02 0.159174016272651D+03 -.445741089947076D+01
 0.878697030492985D+02 -.606741941806639D+02 0.478083189291473D+02 -.418818757419952D+02
 0.183373659857773D+03 -.906177519041682D+02 -.260764629949099D+02 -.128136992719292D+03
 0.000000000000000D+00 -.000000000000000D+00 -.000000000000000D+00 -.000000000000000D+00
 0.442275807316117D+03 0.000000000000000D+00 0.000000000000000D+00 0.442275807316117D+03
 0.601400349749005D+03 0.000000000000000D+00 0.000000000000000D+00 -.601400349749005D+03
 0.333518864090923D+03 0.247044638643134D+03 -.115302173475779D+03 0.174476279360758D+03
 0.195379995714191D+03 -.124609847771928D+02 0.194931264992902D+03 -.445741089947076D+01
 0.904086416272771D+02 -.461241548645962D+02 0.655148326964836D+02 -.418818757419952D+02
 0.169229319128739D+03 -.618403520661585D+02 0.894388405371737D+01 -.128136992719292D+03
 0.255139336503993D+03 -.126619146935187D+03 -.154087808267324D+03 -.159124542432888D+03
-.104774150387D-04 0.000000000000D+00 0.000000000000D+00 0.234798773381D-05 0.000000000000D+00  7 1 -2 -24 -11 11 23 21 2 0.94103119D-01 0.59244441D-01 0.18908243D+06 0.18908243D+06 0.18908243D+06 0.10997027D+01  1  2 13  2  7  2       -2 -.125776101182D-03 0.100000000000D+01
0.302804258371D-04 0.000000000000D+00 0.000000000000D+00 0.234798773381D-05 0.419015189529D-09  7 1 -2 -24 -11 11 23 21 2 0.10910890D+00 0.57699226D-01 0.18908243D+06 0.18908243D+06 0.18908243D+06 0.10997027D+01  1  2  1  2  7  2       -2 0.307916325210D-03 0.100000000000D+01
  </mgrwgt>
  </event>
  <event>
  8     66 0.29493621E-05 0.44570629E+03 0.75467711E-02 0.88946740E-01
        1 -1    0    0  501    0 0.00000000E+00 0.00000000E+00 0.23691150E+04 0.23691150E+04 0.32000000E+00 0.0000E+00 0.9000E+01
       -2 -1    0    0    0  501 0.00000000E+00 0.00000000E+00 -.17096786E+03 0.17096816E+03 0.32000000E+00 0.0000E+00 0.9000E+01
       25  2    1    2    0    0 0.21858163E+03 0.34468276E+03 0.20292199E+04 0.20910979E+04 0.29727606E+03 0.0000E+00 0.0000E+00
       23  2    3    3    0    0 -.11240331E+02 0.11960697E+03 0.94732411E+03 0.95871505E+03 0.85319495E+02 0.0000E+00 0.0000E+00
      -24  1    1    2    0    0 -.21858163E+03 -.34468276E+03 0.16892726E+03 0.44898526E+03 0.80419002E+02 0.0000E+00 0.9000E+01
      -13  1    4    4    0    0 0.13256726E+02 -.49275917E+01 0.37457236E+02 0.40038452E+02 0.10565837E+00 0.0000E+00 0.9000E+01
       13  1    4    4    0    0 -.24497057E+02 0.12453456E+03 0.90986687E+03 0.91867660E+03 0.10565837E+00 0.0000E+00 0.9000E+01
       23  1    3    3    0    0 0.22982196E+03 0.22507579E+03 0.10818958E+04 0.11323829E+04 0.91188000E+02 0.0000E+00 0.9000E+01
#aMCatNLO 1  0  0  2  1 0.62584866D+03 0.00000000D+00  -5  7  0 0.00000000D+00 0.00000000D+00 0.00000000D+00 0.00000000D+00 0.00000000D+00
  <mgrwgt>
 0.5086196057D-02    3    2    0
 0.636429829425852D+03 0.000000000000000D+00 0.000000000000000D+00 0.636429829425852D+03
 0.636429829425852D+03 0.000000000000000D+00 0.000000000000000D+00 -.636429829425852D+03
 0.604255881561394D+03 -.218581625180715D+03 -.344682758059009D+03 -.438262277497572D+03
 0.152129890916852D+02 0.132567834101432D+02 -.492779022861603D+01 0.560442808706116D+01
 0.262003905966351D+03 -.244971147930310D+02 0.124534760842859D+03 0.229209579752359D+03
 0.391386882232274D+03 0.229821956563603D+03 0.225075787444765D+03 0.203448269658152D+03
 0.000000000000000D+00 0.000000000000000D+00 0.000000000000000D+00 0.000000000000000D+00
 0.123409427022295D+04 0.000000000000000D+00 0.000000000000000D+00 0.123409427022295D+04
 0.895754901422114D+03 0.000000000000000D+00 0.000000000000000D+00 -.895754901422114D+03
 0.858845091236930D+03 -.496647698274386D+03 -.540754024218771D+03 -.438262277497572D+03
 0.130216698686805D+02 0.789071443184709D+01 -.871153819603061D+01 0.560442808706116D+01
 0.266519320481895D+03 -.124944302546708D+03 0.537069641759273D+02 0.229209579752359D+03
 0.280013811946264D+03 0.102220541505064D+03 0.135100873439787D+03 0.203448269658152D+03
 0.711449278111293D+03 0.511480744884183D+03 0.360657724799087D+03 0.338339368800835D+03
0.203226059927D-02 0.000000000000D+00 0.000000000000D+00 0.513346880173D-07 0.000000000000D+00  7 1 -2 -24 -13 13 23 21 0 0.36447926D+00 0.26302772D-01 0.19865410D+06 0.19865410D+06 0.19865410D+06 0.10980507D+01  1  2  2  2  7  2       -2 0.498799284889D-02 0.100000000000D+01
-.954848849047D-04 0.000000000000D+00 -.780441580770D-05 0.513346880173D-07 0.000000000000D+00  7 1 -2 -24 -13 13 23 21 2 0.36447926D+00 0.26302772D-01 0.19865410D+06 0.19865410D+06 0.19865410D+06 0.10980507D+01  1  2  3  2  7  2       -2 -.282569849649D-03 0.100000000000D+01
0.128669324135D-03 0.000000000000D+00 0.000000000000D+00 0.513346880173D-07 0.000000000000D+00  7 1 -2 -24 -13 13 23 21 2 0.36447926D+00 0.26302772D-01 0.19865410D+06 0.19865410D+06 0.19865410D+06 0.10980507D+01  1  2 15  2  7  2       -2 0.380773057553D-03 0.100000000000D+01
  </mgrwgt>
  </event>
  <event>
  8     66 0.29493621E-05 0.46207889E+03 0.75467711E-02 0.86707101E-01
        1 -1    0    0  501    0 0.00000000E+00 0.00000000E+00 0.39992646E+03 0.39992659E+03 0.32000000E+00 0.0000E+00 0.9000E+01
       -2 -1    0    0    0  501 0.00000000E+00 0.00000000E+00 -.57164010E+03 0.57164019E+03 0.32000000E+00 0.0000E+00 0.9000E+01
       25  2    1    2    0    0 -.16075150E+03 -.38948686E+03 -.24279695E+02 0.51797550E+03 0.30027997E+03 0.0000E+00 0.0000E+00
       23  2    3    3    0    0 -.37606218E+02 -.27705137E+02 -.67377722E+02 0.12272436E+03 0.91322009E+02 0.0000E+00 0.0000E+00
      -24  1    1    2    0    0 0.16075150E+03 0.38948686E+03 -.14743395E+03 0.45359127E+03 0.80419002E+02 0.0000E+00 0.9000E+01
      -13  1    4    4    0    0 -.45548160E+00 -.55751058E+02 -.41159033E+02 0.69299820E+02 0.10565837E+00 0.0000E+00 0.9000E+01
       13  1    4    4    0    0 -.37150737E+02 0.28045920E+02 -.26218689E+02 0.53424542E+02 0.10565837E+00 0.0000E+00 0.9000E+01
       23  1    3    3    0    0 -.12314529E+03 -.36178172E+03 0.43098027E+02 0.39525114E+03 0.91188000E+02 0.0000E+00 0.9000E+01
#aMCatNLO 1  0  0  1  1 0.87282537D+03 0.00000000D+00  -5  7  0 0.00000000D+00 0.00000000D+00 0.00000000D+00 0.00000000D+00 0.00000000D+00
  <mgrwgt>
 0.1262390087D-02    3    2    0
 0.478136074219679D+03 0.000000000000000D+00 0.000000000000000D+00 0.478136074219679D+03
 0.478136074219679D+03 0.000000000000000D+00 0.000000000000000D+00 -.478136074219679D+03
 0.434371940114860D+03 0.160751504141042D+03 0.389486855568572D+03 -.683425903845889D+02
 0.630174709239646D+02 -.455432487595527D+00 -.557511697753200D+02 -.293734793918837D+02
 0.495710202039451D+02 -.371507856916871D+02 0.280460324265487D+02 -.170448007227791D+02
 0.409311717196589D+03 -.123145285961759D+03 -.361781718219801D+03 0.114760870499252D+03
 0.000000000000000D+00 0.000000000000000D+00 0.000000000000000D+00 -.000000000000000D+00
 0.783671542126487D+03 0.000000000000000D+00 0.000000000000000D+00 0.783671542126487D+03
 0.204452934163406D+04 0.000000000000000D+00 0.000000000000000D+00 -.204452934163406D+04
 0.273867405132486D+03 -.712076861492126D+02 0.242476587349026D+03 -.683425903845889D+02
 0.112911846558892D+03 -.580749678967567D+02 -.922690733970171D+02 -.293734793918837D+02
 0.820527192947872D+02 -.802595683962663D+02 0.724701893845186D+00 -.170448007227791D+02
 0.825880563801681D+03 -.527689601772212D+03 -.618172371677286D+03 0.114760870499252D+03
 0.153348834897270D+04 0.737231824214448D+03 0.467240155831431D+03 -.126085779950758D+04
0.165142401442D-03 0.000000000000D+00 0.000000000000D+00 0.799867686163D-05 0.000000000000D+00  7 1 -2 -24 -13 13 23 21 0 0.61527164D-01 0.87944647D-01 0.21351690D+06 0.21351690D+06 0.21351690D+06 0.10956507D+01  1  2  2  1  7  1        1 0.125009366786D-02 0.100000000000D+01
-.916156129092D-05 0.000000000000D+00 -.634190304530D-06 0.799867686163D-05 0.000000000000D+00  7 1 -2 -24 -13 13 23 21 2 0.61527164D-01 0.87944647D-01 0.21351690D+06 0.21351690D+06 0.21351690D+06 0.10956507D+01  1  2  3  1  7  1        1 -.832525715312D-04 0.100000000000D+01
0.105147254607D-04 0.000000000000D+00 0.000000000000D+00 0.799867686163D-05 0.000000000000D+00  7 1 -2 -24 -13 13 23 21 2 0.61527164D-01 0.87944647D-01 0.21351690D+06 0.21351690D+06 0.21351690D+06 0.10956507D+01  1  2 15  1  7  1        1 0.955489905870D-04 0.100000000000D+01
  </mgrwgt>
  </event>
  <event>
  8     66 0.29493621E-05 0.25907723E+03 0.75467711E-02 0.91972296E-01
        1 -1    0    0  501    0 0.00000000E+00 0.00000000E+00 0.27643388E+03 0.27643407E+03 0.32000000E+00 0.0000E+00 0.9000E+01
       -2 -1    0    0    0  501 0.00000000E+00 0.00000000E+00 -.35467257E+03 0.35467271E+03 0.32000000E+00 0.0000E+00 0.9000E+01
       25  2    1    2    0    0 0.12835684E+03 -.14497146E+03 -.17812043E+03 0.39886600E+03 0.29979158E+03 0.0000E+00 0.0000E+00
       23  2    3    3    0    0 0.10981554E+03 -.39816442E+01 0.13665942E+02 0.14328984E+03 0.90939073E+02 0.0000E+00 0.0000E+00
      -24  1    1    2    0    0 -.12835684E+03 0.14497146E+03 0.99881742E+02 0.23224078E+03 0.80419002E+02 0.0000E+00 0.9000E+01
      -13  1    4    4    0    0 -.14759134E+02 0.16920569E+01 -.77567539E+01 0.16759281E+02 0.10565837E+00 0.0000E+00 0.9000E+01
       13  1    4    4    0    0 0.12457467E+03 -.56737011E+01 0.21422696E+02 0.12653056E+03 0.10565837E+00 0.0000E+00 0.9000E+01
       23  1    3    3    0    0 0.18541305E+02 -.14098982E+03 -.19178637E+03 0.25557616E+03 0.91188000E+02 0.0000E+00 0.9000E+01
#aMCatNLO 1  0  0  1  1 0.54625592D+03 0.00000000D+00  -5  7  0 0.00000000D+00 0.00000000D+00 0.00000000D+00 0.00000000D+00 0.00000000D+00
  <mgrwgt>
 0.1472411856D-02    3    2    0
 0.313119177692034D+03 0.000000000000000D+00 0.000000000000000D+00 0.313119177692034D+03
 0.313119177692034D+03 0.000000000000000D+00 0.000000000000000D+00 -.313119177692034D+03
 0.246524903836678D+03 -.128356842407094D+03 0.144971461708822D+03 0.129673083385106D+03
 0.159203294666602D+02 -.147593222973381D+02 0.169206684269915D+01 -.572330371814606D+01
 0.130190803429611D+03 0.124574859118124D+03 -.567371098636680D+01 0.373973097560553D+02
 0.233602318651119D+03 0.185413055863077D+02 -.140989817565154D+03 -.161347089423016D+03
 0.000000000000000D+00 -.000000000000000D+00 0.000000000000000D+00 -.000000000000000D+00
 0.601884010376883D+03 0.000000000000000D+00 0.000000000000000D+00 0.601884010376883D+03
 0.815751464928597D+03 0.000000000000000D+00 0.000000000000000D+00 -.815751464928597D+03
 0.158499368118876D+03 -.215059585216972D+02 0.371109004629997D+02 0.129673083385106D+03
 0.110168130502100D+02 -.765293957766163D+01 -.548146697096610D+01 -.572330371814606D+01
 0.252751552642814D+03 0.225600234772611D+03 -.107653716410096D+03 0.373973097560553D+02
 0.408737687371778D+03 0.187999291566045D+03 -.312049080818092D+03 -.161347089423016D+03
 0.586630054121802D+03 -.384440628239298D+03 0.388073363736154D+03 -.213867454551714D+03
0.412609363961D-04 0.000000000000D+00 0.000000000000D+00 0.446279088102D-05 0.000000000000D+00  7 1 -2 -24 -13 13 23 21 0 0.42528315D-01 0.54565036D-01 0.67121012D+05 0.67121012D+05 0.67121012D+05 0.11362134D+01  1  2  2  1  7  1        1 0.144934181002D-02 0.100000000000D+01
-.219223452990D-05 0.000000000000D+00 -.158452860015D-06 0.446279088102D-05 0.000000000000D+00  7 1 -2 -24 -13 13 23 21 2 0.42528315D-01 0.54565036D-01 0.67121012D+05 0.67121012D+05 0.67121012D+05 0.11362134D+01  1  2  3  1  7  1        1 -.994119501688D-04 0.100000000000D+01
0.270097568862D-05 0.000000000000D+00 0.000000000000D+00 0.446279088102D-05 0.000000000000D+00  7 1 -2 -24 -13 13 23 21 2 0.42528315D-01 0.54565036D-01 0.67121012D+05 0.67121012D+05 0.67121012D+05 0.11362134D+01  1  2 15  1  7  1        1 0.122481995837D-03 0.100000000000D+01
  </mgrwgt>
  </event>
  <event>
  8     66 0.29493621E-05 0.16544454E+03 0.75467711E-02 0.98669221E-01
        1 -1    0    0  501    0 0.00000000E+00 0.00000000E+00 0.34984535E+03 0.34984550E+03 0.32000000E+00 0.0000E+00 0.9000E+01
       -2 -1    0    0    0  501 0.00000000E+00 0.00000000E+00 -.36415824E+03 0.36415838E+03 0.32000000E+00 0.0000E+00 0.9000E+01
       25  2    1    2    0    0 0.27662638E+03 -.19944163E+02 -.86095689E+02 0.41644730E+03 0.29848947E+03 0.0000E+00 0.0000E+00
       23  2    3    3    0    0 0.49644531E+02 -.47145812E+02 0.75513487E+02 0.12200976E+03 0.67058088E+02 0.0000E+00 0.0000E+00
      -24  1    1    2    0    0 -.27662638E+03 0.19944163E+02 0.71782805E+02 0.29755657E+03 0.80419002E+02 0.0000E+00 0.9000E+01
      -13  1    4    4    0    0 -.11376135E+02 0.55797625E+01 0.21473283E+02 0.24933176E+02 0.10565837E+00 0.0000E+00 0.9000E+01
       13  1    4    4    0    0 0.61020667E+02 -.52725575E+02 0.54040204E+02 0.97076582E+02 0.10565837E+00 0.0000E+00 0.9000E+01
       23  1    3    3    0    0 0.22698185E+03 0.27201649E+02 -.16160918E+03 0.29443755E+03 0.91188000E+02 0.0000E+00 0.9000E+01
#aMCatNLO 1  0  0  2  1 0.80623867D+02 0.00000000D+00  -5  7  0 0.00000000D+00 0.00000000D+00 0.00000000D+00 0.00000000D+00 0.00000000D+00
  <mgrwgt>
 0.3469471197D-02    9    2    0
 0.356930200765716D+03 0.000000000000000D+00 0.000000000000000D+00 0.356930200765716D+03
 0.356930200765716D+03 0.000000000000000D+00 0.000000000000000D+00 -.356930200765716D+03
 0.299055617232210D+03 -.276626383510090D+03 0.199441631674357D+02 0.777632338926758D+02
 0.253685446607470D+02 -.113763142601903D+02 0.557990663975040D+01 0.219774241882296D+02
 0.981797773359609D+02 0.610208449039137D+02 -.527257188908064D+02 0.559975332706631D+02
 0.291256462302513D+03 0.226981852866367D+03 0.272016490836203D+02 -.155738191351569D+03
 0.000000000000000D+00 0.000000000000000D+00 0.000000000000000D+00 -.000000000000000D+00
 0.397973636125077D+03 0.000000000000000D+00 0.000000000000000D+00 0.397973636125077D+03
 0.401110044698050D+03 0.000000000000000D+00 0.000000000000000D+00 -.401110044698050D+03
 0.324232788859819D+03 -.304318921652892D+03 -.159962371183896D+01 0.777632338926758D+02
 0.261569720973696D+02 -.136655792685002D+02 0.379894177495961D+01 0.219774241882296D+02
 0.970209330986156D+02 0.523481292455169D+02 -.594727760527594D+02 0.559975332706631D+02
 0.270988137209934D+03 0.202001474817615D+03 0.776782405570736D+01 -.155738191351569D+03
 0.806848495573889D+02 0.636348968582604D+02 0.495056339339314D+02 -.313640857297224D+01
0.857186854191D-04 0.000000000000D+00 0.000000000000D+00 0.104211440007D-08 0.000000000000D+00  7 1 -2 -24 -13 13 23 21 0 0.53822384D-01 0.56024366D-01 0.98660615D+05 0.98660615D+05 0.98660615D+05 0.11222029D+01  1  2  2  2  7  2       -2 0.208678222263D-02 0.100000000000D+01
-.466755160889D-05 0.000000000000D+00 -.329182322258D-06 0.104211440007D-08 0.000000000000D+00  7 1 -2 -24 -13 13 23 21 2 0.53822384D-01 0.56024366D-01 0.98660615D+05 0.98660615D+05 0.98660615D+05 0.11222029D+01  1  2  3  2  7  2       -2 -.143097995447D-03 0.100000000000D+01
0.552581834950D-05 0.000000000000D+00 0.000000000000D+00 0.104211440007D-08 0.000000000000D+00  7 1 -2 -24 -13 13 23 21 2 0.53822384D-01 0.56024366D-01 0.98660615D+05 0.98660615D+05 0.98660615D+05 0.11222029D+01  1  2 15  2  7  2       -2 0.169410773629D-03 0.100000000000D+01
0.687924085493D-04 0.000000000000D+00 0.000000000000D+00 0.104211440007D-08 0.000000000000D+00  7 1 -2 -24 -13 13 23 21 2 0.53822384D-01 0.65811947D-01 0.12622842D+06 0.12622842D+06 0.12622842D+06 0.11135143D+01  1  2 12  2  7  2       -2 0.148333763804D-02 0.100000000000D+01
-.586428203296D-04 0.000000000000D+00 0.000000000000D+00 0.104211440007D-08 0.000000000000D+00  7 1 -2 -24 -13 13 23 21 2 0.53822384D-01 0.56024366D-01 0.98660615D+05 0.98660615D+05 0.98660615D+05 0.11222029D+01  1  2  4  2  7  2       -2 -.179787407611D-02 0.100000000000D+01
-.179927568090D-03 0.000000000000D+00 -.569132172583D-04 0.104211440007D-08 0.000000000000D+00  7 1 -2 -24 -13 13 23 21 2 0.53822384D-01 0.69272528D-01 0.98660615D+05 0.98660615D+05 0.98660615D+05 0.11222029D+01  1  2  5  2  7  2       -2 -.355187295758D-02 0.100000000000D+01
0.188992990055D-03 0.000000000000D+00 0.556547398550D-04 0.104211440007D-08 0.000000000000D+00  7 1 -2 -24 -13 13 23 21 2 0.53822384D-01 0.56024366D-01 0.98660615D+05 0.98660615D+05 0.98660615D+05 0.11222029D+01  1  2  6  2  7  2       -2 0.579415511528D-02 0.100000000000D+01
0.166125338924D-05 0.000000000000D+00 0.000000000000D+00 0.104211440007D-08 0.000000000000D+00  7 1 21 -24 -13 13 23 2 2 0.53822384D-01 0.65811947D-01 0.12622842D+06 0.12622842D+06 0.12622842D+06 0.11135143D+01  1  2 12  4  7  2       -2 0.364764644537D-03 0.100000000000D+01
-.466235520622D-05 0.000000000000D+00 -.170429365760D-05 0.104211440007D-08 0.000000000000D+00  7 1 21 -24 -13 13 23 2 2 0.53822384D-01 0.69272528D-01 0.98660615D+05 0.98660615D+05 0.98660615D+05 0.11222029D+01  1  2  5  4  7  2       -2 -.936134167493D-03 0.100000000000D+01
  </mgrwgt>
  </event>
  <event>
  9     66 0.29493621E-05 0.44611525E+03 0.75467711E-02 0.94763546E-01
        1 -1    0    0  501    0 0.00000000E+00 0.00000000E+00 0.97095194E+03 0.97095199E+03 0.32000000E+00 0.0000E+00 0.9000E+01
       -2 -1    0    0    0  502 0.00000000E+00 0.00000000E+00 -.27517991E+03 0.27518010E+03 0.32000000E+00 0.0000E+00 0.9000E+01
       25  2    1    2    0    0 0.14340875E+03 0.42044357E+03 0.20001666E+03 0.57166035E+03 0.29908197E+03 0.0000E+00 0.0000E+00
       23  2    3    3    0    0 0.17428635E+03 0.15421289E+03 0.12159077E+03 0.27789502E+03 0.91016358E+02 0.0000E+00 0.0000E+00
      -24  1    1    2    0    0 -.92383414E+02 -.34392516E+03 0.38672821E+03 0.53183186E+03 0.80419002E+02 0.0000E+00 0.9000E+01
      -13  1    4    4    0    0 0.17071199E+03 0.16438512E+03 0.12301925E+03 0.26701834E+03 0.10565837E+00 0.0000E+00 0.9000E+01
       13  1    4    4    0    0 0.35743597E+01 -.10172229E+02 -.14284725E+01 0.10876672E+02 0.10565837E+00 0.0000E+00 0.9000E+01
       23  1    3    3    0    0 -.30877599E+02 0.26623068E+03 0.78425890E+02 0.29376534E+03 0.91188000E+02 0.0000E+00 0.9000E+01
       21  1    1    2  501  502 -.51025334E+02 -.76518414E+02 0.10902715E+03 0.14263988E+03 0.75000000E+00 0.0000E+00 0.9000E+01
#aMCatNLO 2  0  0  2  2 0.91970932D+02 0.00000000D+00  -5  7  0 0.00000000D+00 0.00000000D+00 0.00000000D+00 0.00000000D+00 0.00000000D+00
  <mgrwgt>
 0.4693959990D-03    1    2    0
 0.465017975774255D+03 0.000000000000000D+00 0.000000000000000D+00 0.465017975774255D+03
 0.465017975774255D+03 0.000000000000000D+00 0.000000000000000D+00 -.465017975774255D+03
 0.420405285668159D+03 -.114427897379729D+03 -.376983418208907D+03 0.122732012776369D+03
 0.216317314795262D+03 0.158278456369945D+03 0.145739492912117D+03 -.223855117229606D+02
 0.144469667534670D+02 0.280281768875884D+01 -.113291434542050D+02 -.851525513260802D+01
 0.278866384331622D+03 -.466533766789756D+02 0.242573068750995D+03 -.918312459208001D+02
 0.000000000000000D+00 -.000000000000000D+00 -.000000000000000D+00 0.000000000000000D+00
 0.536861056158063D+03 0.000000000000000D+00 0.000000000000000D+00 0.536861056158063D+03
 0.497680252390212D+03 0.000000000000000D+00 0.000000000000000D+00 -.497680252390212D+03
 0.385161746374935D+03 -.923834142426141D+02 -.343925155708270D+03 0.122732012776369D+03
 0.238046875629960D+03 0.170712212141373D+03 0.164385353629469D+03 -.223855117229606D+02
 0.137391061346265D+02 0.357413451748653D+01 -.101724642961298D+02 -.851525513260802D+01
 0.297624646546566D+03 -.308775984961712D+02 0.266230680184893D+03 -.918312459208001D+02
 0.999689338621885D+02 -.510253339200739D+02 -.765184138099625D+02 0.391808037678517D+02
0.426545701298D-04 0.000000000000D+00 0.000000000000D+00 0.272785938843D-05 0.209444067030D-08  7 1 -2 -24 -13 13 23 21 2 0.14937683D+00 0.42335273D-01 0.24400261D+06 0.24400261D+06 0.24400261D+06 0.10912533D+01  1  2  1  2  7  2       -2 0.469395998966D-03 0.100000000000D+01
  </mgrwgt>
  </event>
  <event>
  8     66 0.29493621E-05 0.39491753E+03 0.75467711E-02 0.94936168E-01
        1 -1    0    0  501    0 0.00000000E+00 0.00000000E+00 0.34756798E+03 0.34756813E+03 0.32000000E+00 0.0000E+00 0.9000E+01
       -2 -1    0    0    0  501 0.00000000E+00 0.00000000E+00 -.48997897E+03 0.48997908E+03 0.32000000E+00 0.0000E+00 0.9000E+01
       25  2    1    2    0    0 0.10345489E+03 0.33628293E+03 -.50927791E+02 0.46522273E+03 0.30008235E+03 0.0000E+00 0.0000E+00
       23  2    3    3    0    0 0.13139496E+03 0.27669232E+03 -.10997197E+03 0.33820637E+03 0.92013261E+02 0.0000E+00 0.0000E+00
      -24  1    1    2    0    0 -.10345489E+03 -.33628293E+03 -.91483204E+02 0.37232448E+03 0.80419002E+02 0.0000E+00 0.9000E+01
      -11  1    4    4    0    0 0.10214877E+03 0.12239086E+03 -.30936223E+02 0.16239133E+03 0.51099893E-03 0.0000E+00 0.9000E+01
       11  1    4    4    0    0 0.29246189E+02 0.15430146E+03 -.79035746E+02 0.17581504E+03 0.51099893E-03 0.0000E+00 0.9000E+01
       23  1    3    3    0    0 -.27940064E+02 0.59590614E+02 0.59044179E+02 0.12701636E+03 0.91188000E+02 0.0000E+00 0.9000E+01
#aMCatNLO 1  0  0  1  1 0.16341072D+03 0.00000000D+00  -5  7  0 0.00000000D+00 0.00000000D+00 0.00000000D+00 0.00000000D+00 0.00000000D+00
  <mgrwgt>
 0.8043821297D-03    4    2    0
 0.412675548299057D+03 0.000000000000000D+00 0.000000000000000D+00 0.412675548299057D+03
 0.412675548299057D+03 0.000000000000000D+00 0.000000000000000D+00 -.412675548299057D+03
 0.362041215958697D+03 -.103454892230439D+03 -.336282933562179D+03 -.285919563318960D+02
 0.159453042023590D+03 0.102148766989513D+03 0.122390858334598D+03 -.337339728155467D+01
 0.164775742624100D+03 0.292461894618901D+02 0.154301461213878D+03 -.498674726304131D+02
 0.139081095991728D+03 -.279400642209643D+02 0.595906140137028D+02 0.818328262438638D+02
 0.000000000000000D+00 -.000000000000000D+00 -.000000000000000D+00 -.000000000000000D+00
 0.458464013961693D+03 0.000000000000000D+00 0.000000000000000D+00 0.458464013961693D+03
 0.597397453813968D+03 0.000000000000000D+00 0.000000000000000D+00 -.597397453813968D+03
 0.299456619272134D+03 -.866884325126640D+02 -.273632356590257D+03 -.285919563318960D+02
 0.191185018899118D+03 0.111036111151309D+03 0.155599851100928D+03 -.337339728155467D+01
 0.198982749296322D+03 0.384660867570250D+02 0.188753092320574D+03 -.498674726304131D+02
 0.151748001479857D+03 -.205686503057356D+02 0.871350892733384D+02 0.818328262438638D+02
 0.214489078828230D+03 -.422451150899345D+02 -.157855676104584D+03 -.138933439852275D+03
0.729425368765D-04 0.000000000000D+00 0.000000000000D+00 0.408448037730D-05 0.000000000000D+00  7 1 -2 -24 -11 11 23 21 0 0.53472016D-01 0.75381400D-01 0.15595986D+06 0.15595986D+06 0.15595986D+06 0.11062190D+01  1  2  2  1  7  1        1 0.950920522103D-03 0.100000000000D+01
-.404283094753D-05 0.000000000000D+00 -.280118547817D-06 0.408448037730D-05 0.000000000000D+00  7 1 -2 -24 -11 11 23 21 2 0.53472016D-01 0.75381400D-01 0.15595986D+06 0.15595986D+06 0.15595986D+06 0.11062190D+01  1  2  3  1  7  1        1 -.644957621471D-04 0.100000000000D+01
0.473567428561D-05 0.000000000000D+00 0.000000000000D+00 0.408448037730D-05 0.000000000000D+00  7 1 -2 -24 -11 11 23 21 2 0.53472016D-01 0.75381400D-01 0.15595986D+06 0.15595986D+06 0.15595986D+06 0.11062190D+01  1  2 15  1  7  1        1 0.755487741869D-04 0.100000000000D+01
-.987840729165D-05 0.000000000000D+00 0.000000000000D+00 0.408448037730D-05 0.000000000000D+00  7 1 -2 -24 -11 11 23 21 2 0.53472016D-01 0.75381400D-01 0.15595986D+06 0.15595986D+06 0.15595986D+06 0.11062190D+01  1  2  4  1  7  1        1 -.157591404474D-03 0.100000000000D+01
  </mgrwgt>
  </event>
  <event>
  8     66 0.29493621E-05 0.20505922E+03 0.75467711E-02 0.10228559E+00
        1 -1    0    0  501    0 0.00000000E+00 0.00000000E+00 0.58636856E+03 0.58636864E+03 0.32000000E+00 0.0000E+00 0.9000E+01
       -2 -1    0    0    0  501 0.00000000E+00 0.00000000E+00 -.84143202E+02 0.84143811E+02 0.32000000E+00 0.0000E+00 0.9000E+01
       25  2    1    2    0    0 -.15694213E+02 0.80348387E+02 0.27073483E+03 0.41213821E+03 0.29976388E+03 0.0000E+00 0.0000E+00
       23  2    3    3    0    0 -.34780182E+02 -.69751649E+02 0.49348648E+02 0.12890440E+03 0.90033899E+02 0.0000E+00 0.0000E+00
      -24  1    1    2    0    0 0.15694213E+02 -.80348387E+02 0.23149053E+03 0.25837425E+03 0.80419002E+02 0.0000E+00 0.9000E+01
      -13  1    4    4    0    0 -.36345614E+02 -.90689562E+02 0.36549962E+02 0.10431448E+03 0.10565837E+00 0.0000E+00 0.9000E+01
       13  1    4    4    0    0 0.15654313E+01 0.20937913E+02 0.12798686E+02 0.24589923E+02 0.10565837E+00 0.0000E+00 0.9000E+01
       23  1    3    3    0    0 0.19085970E+02 0.15010004E+03 0.22138618E+03 0.28323380E+03 0.91188000E+02 0.0000E+00 0.9000E+01
#aMCatNLO 1  0  0  1  1 0.10761397D+03 0.00000000D+00  -5  7  0 0.00000000D+00 0.00000000D+00 0.00000000D+00 0.00000000D+00 0.00000000D+00
  <mgrwgt>
 0.6907491959D-03    4    2    0
 0.222124202185521D+03 0.000000000000000D+00 0.000000000000000D+00 0.222124202185521D+03
 0.222124202185521D+03 0.000000000000000D+00 0.000000000000000D+00 -.222124202185521D+03
 0.128267744182254D+03 0.156942134483671D+02 -.803483909238675D+02 0.572994413883429D+02
 0.116123989626511D+03 -.363456651441128D+02 -.906897112975922D+02 -.627626469866386D+02
 0.226449155525169D+02 0.156548311298752D+01 0.209380661860164D+02 -.848167715688171D+01
 0.177211755009760D+03 0.190859685827582D+02 0.150100036035443D+03 0.139448827551774D+02
 0.000000000000000D+00 -.000000000000000D+00 0.000000000000000D+00 -.000000000000000D+00
 0.268373420272093D+03 0.000000000000000D+00 0.000000000000000D+00 0.268373420272093D+03
 0.301246093422948D+03 0.000000000000000D+00 0.000000000000000D+00 -.301246093422948D+03
 0.151808704801680D+03 0.221213457288493D+02 -.113163982692912D+03 0.572994413883429D+02
 0.139349154438291D+03 -.304831240523078D+02 -.120622618666272D+03 -.627626469866386D+02
 0.183952940679267D+02 0.250726474798832D+01 0.161295263394628D+02 -.848167715688171D+01
 0.147543566527354D+03 0.265383817288178D+02 0.112049574830839D+03 0.139448827551774D+02
 0.112522793859790D+03 -.206838681533476D+02 0.105607500188882D+03 -.328726731508549D+02
0.647032902865D-05 0.000000000000D+00 0.000000000000D+00 0.808622330681D-06 0.000000000000D+00  7 1 -2 -24 -13 13 23 21 0 0.90210601D-01 0.12945162D-01 0.42049285D+05 0.42049285D+05 0.42049285D+05 0.11539703D+01  1  2  2  1  7  1        1 0.100432067802D-02 0.100000000000D+01
-.356669920014D-06 0.000000000000D+00 -.248477671468D-07 0.808622330681D-06 0.000000000000D+00  7 1 -2 -24 -13 13 23 21 2 0.90210601D-01 0.12945162D-01 0.42049285D+05 0.42049285D+05 0.42049285D+05 0.11539703D+01  1  2  3  1  7  1        1 -.737227934403D-04 0.100000000000D+01
0.421936292553D-06 0.000000000000D+00 0.000000000000D+00 0.808622330681D-06 0.000000000000D+00  7 1 -2 -24 -13 13 23 21 2 0.90210601D-01 0.12945162D-01 0.42049285D+05 0.42049285D+05 0.42049285D+05 0.11539703D+01  1  2 15  1  7  1        1 0.872131917925D-04 0.100000000000D+01
-.158232114264D-05 0.000000000000D+00 0.000000000000D+00 0.808622330681D-06 0.000000000000D+00  7 1 -2 -24 -13 13 23 21 2 0.90210601D-01 0.12945162D-01 0.42049285D+05 0.42049285D+05 0.42049285D+05 0.11539703D+01  1  2  4  1  7  1        1 -.327061880493D-03 0.100000000000D+01
  </mgrwgt>
  </event>
  <event>
  8     66 0.29493621E-05 0.93057421E+02 0.75467711E-02 0.10290608E+00
        1 -1    0    0  501    0 0.00000000E+00 0.00000000E+00 0.68064314E+03 0.68064321E+03 0.32000000E+00 0.0000E+00 0.9000E+01
       -2 -1    0    0    0  501 0.00000000E+00 0.00000000E+00 -.11962668E+03 0.11962711E+03 0.32000000E+00 0.0000E+00 0.9000E+01
       25  2    1    2    0    0 -.32796550E+02 -.91573146E+02 0.59137566E+03 0.67046219E+03 0.30055470E+03 0.0000E+00 0.0000E+00
       23  2    3    3    0    0 -.11817262E+03 -.10898009E+03 0.40770597E+03 0.44765761E+03 0.91278417E+02 0.0000E+00 0.0000E+00
      -24  1    1    2    0    0 0.32796550E+02 0.91573146E+02 -.30359203E+02 0.12980813E+03 0.80419002E+02 0.0000E+00 0.9000E+01
      -13  1    4    4    0    0 -.10254819E+03 -.12549910E+03 0.36099592E+03 0.39570724E+03 0.10565837E+00 0.0000E+00 0.9000E+01
       13  1    4    4    0    0 -.15624437E+02 0.16519015E+02 0.46710053E+02 0.51950372E+02 0.10565837E+00 0.0000E+00 0.9000E+01
       23  1    3    3    0    0 0.85376074E+02 0.17406941E+02 0.18366969E+03 0.22280458E+03 0.91188000E+02 0.0000E+00 0.9000E+01
#aMCatNLO 1  0  0  2  1 0.67820506D+02 0.00000000D+00  -5  7  0 0.00000000D+00 0.00000000D+00 0.00000000D+00 0.00000000D+00 0.00000000D+00
  <mgrwgt>
 0.1197123025D-02    9    2    0
 0.285347652266001D+03 0.000000000000000D+00 0.000000000000000D+00 0.285347652266001D+03
 0.285347652266001D+03 0.000000000000000D+00 0.000000000000000D+00 -.285347652266001D+03
 0.211870696085239D+03 0.327965498129207D+02 0.915731464930167D+02 -.170178497663513D+03
 0.200016088691065D+03 -.102548302096158D+03 -.125499291621850D+03 0.117218638769101D+03
 0.269304825939214D+02 -.156243202250870D+02 0.165192051153979D+02 0.144307786553898D+02
 0.131878037161777D+03 0.853760725083241D+02 0.174069400134352D+02 0.385290802390220D+02
 0.000000000000000D+00 -.000000000000000D+00 -.000000000000000D+00 -.000000000000000D+00
 0.306947851670561D+03 0.000000000000000D+00 0.000000000000000D+00 0.306947851670561D+03
 0.346047070176754D+03 0.000000000000000D+00 0.000000000000000D+00 -.346047070176754D+03
 0.222902824131790D+03 0.536427117855826D+02 0.106677980187271D+03 -.170178497663513D+03
 0.182804272752291D+03 -.841931473086777D+02 -.112199406450624D+03 0.117218638769101D+03
 0.267682778018527D+02 -.130496163737975D+02 0.183847990571836D+02 0.144307786553898D+02
 0.142235641107356D+03 0.985190489556204D+02 0.269301545861828D+02 0.385290802390220D+02
 0.782839060540254D+02 -.549189970587277D+02 -.397935273800135D+02 -.390992185061933D+02
0.134340811947D-04 0.000000000000D+00 0.000000000000D+00 0.241850679444D-05 0.000000000000D+00  7 1 -2 -24 -13 13 23 21 0 0.10471437D+00 0.18404144D-01 0.47772538D+05 0.47772538D+05 0.47772538D+05 0.11490403D+01  1  2  2  2  7  2       -2 0.962337163298D-03 0.100000000000D+01
-.681838684440D-06 0.000000000000D+00 -.515904090625D-07 0.241850679444D-05 0.000000000000D+00  7 1 -2 -24 -13 13 23 21 2 0.10471437D+00 0.18404144D-01 0.47772538D+05 0.47772538D+05 0.47772538D+05 0.11490403D+01  1  2  3  2  7  2       -2 -.644868961490D-04 0.100000000000D+01
0.849580259689D-06 0.000000000000D+00 0.000000000000D+00 0.241850679444D-05 0.000000000000D+00  7 1 -2 -24 -13 13 23 21 2 0.10471437D+00 0.18404144D-01 0.47772538D+05 0.47772538D+05 0.47772538D+05 0.11490403D+01  1  2 15  2  7  2       -2 0.803515482872D-04 0.100000000000D+01
0.143819076178D-04 0.000000000000D+00 0.000000000000D+00 0.241850679444D-05 0.000000000000D+00  7 1 -2 -24 -13 13 23 21 2 0.10471437D+00 0.22904565D-01 0.65413361D+05 0.65413361D+05 0.65413361D+05 0.11371701D+01  1  2 12  2  7  2       -2 0.927252048840D-03 0.100000000000D+01
-.154140461015D-04 0.000000000000D+00 0.000000000000D+00 0.241850679444D-05 0.000000000000D+00  7 1 -2 -24 -13 13 23 21 2 0.10471437D+00 0.18404144D-01 0.47772538D+05 0.47772538D+05 0.47772538D+05 0.11490403D+01  1  2  4  2  7  2       -2 -.145782868129D-02 0.100000000000D+01
-.253115563177D-04 0.000000000000D+00 -.779777810557D-05 0.241850679444D-05 0.000000000000D+00  7 1 -2 -24 -13 13 23 21 2 0.10471437D+00 0.23904516D-01 0.47772538D+05 0.47772538D+05 0.47772538D+05 0.11490403D+01  1  2  5  2  7  2       -2 -.155549077646D-02 0.100000000000D+01
0.266920334359D-04 0.000000000000D+00 0.753857056689D-05 0.241850679444D-05 0.000000000000D+00  7 1 -2 -24 -13 13 23 21 2 0.10471437D+00 0.18404144D-01 0.47772538D+05 0.47772538D+05 0.47772538D+05 0.11490403D+01  1  2  6  2  7  2       -2 0.252447745701D-02 0.100000000000D+01
0.440610566650D-06 0.000000000000D+00 0.000000000000D+00 0.241850679444D-05 0.000000000000D+00  7 1 21 -24 -13 13 23 2 2 0.10471437D+00 0.22904565D-01 0.65413361D+05 0.65413361D+05 0.65413361D+05 0.11371701D+01  1  2 12  4  7  2       -2 0.359020214007D-03 0.100000000000D+01
-.744798580702D-06 0.000000000000D+00 -.272768301605D-06 0.241850679444D-05 0.000000000000D+00  7 1 21 -24 -13 13 23 2 2 0.10471437D+00 0.23904516D-01 0.47772538D+05 0.47772538D+05 0.47772538D+05 0.11490403D+01  1  2  5  4  7  2       -2 -.578509052617D-03 0.100000000000D+01
  </mgrwgt>
  </event>
  <event>
  8     66 0.29493621E-05 0.30077090E+03 0.75467711E-02 0.98244147E-01
        1 -1    0    0  501    0 0.00000000E+00 0.00000000E+00 0.13410427E+04 0.13410428E+04 0.32000000E+00 0.0000E+00 0.9000E+01
       -2 -1    0    0    0  501 0.00000000E+00 0.00000000E+00 -.21200327E+03 0.21200351E+03 0.32000000E+00 0.0000E+00 0.9000E+01
       25  2    1    2    0    0 -.20161136E+03 -.16894618E+03 0.83118955E+01 0.39905865E+03 0.29998127E+03 0.0000E+00 0.0000E+00
       23  2    3    3    0    0 -.16554811E+00 -.81625710E+02 0.90843418E+02 0.14740018E+03 0.82531829E+02 0.0000E+00 0.0000E+00
      -24  1    1    2    0    0 0.20161136E+03 0.16894618E+03 0.11207276E+04 0.11539876E+04 0.80419002E+02 0.0000E+00 0.9000E+01
      -13  1    4    4    0    0 0.15538873E+02 -.21047560E+02 -.10582408E+02 0.28221532E+02 0.10565837E+00 0.0000E+00 0.9000E+01
       13  1    4    4    0    0 -.15704421E+02 -.60578150E+02 0.10142583E+03 0.11917865E+03 0.10565837E+00 0.0000E+00 0.9000E+01
       23  1    3    3    0    0 -.20144582E+03 -.87320472E+02 -.82531522E+02 0.25165847E+03 0.91188000E+02 0.0000E+00 0.9000E+01
#aMCatNLO 1  0  0  2  1 0.12475930D+03 0.00000000D+00  -5  7  0 0.00000000D+00 0.00000000D+00 0.00000000D+00 0.00000000D+00 0.00000000D+00
  <mgrwgt>
 0.2399958080D-02    4    2    0
 0.533203208085219D+03 0.000000000000000D+00 0.000000000000000D+00 0.533203208085219D+03
 0.533203208085219D+03 0.000000000000000D+00 0.000000000000000D+00 -.533203208085219D+03
 0.494042927799426D+03 0.201611364862840D+03 0.168946182179170D+03 0.410391573548342D+03
 0.523039583935206D+02 0.155389237290325D+02 -.210474948954242D+02 -.452907150705478D+02
 0.661813555138623D+02 -.157044717079657D+02 -.605782148921461D+02 0.215318663033864D+02
 0.453878174463629D+03 -.201445816883907D+03 -.873204723915993D+02 -.386632724781180D+03
 0.000000000000000D+00 -.000000000000000D+00 -.000000000000000D+00 0.000000000000000D+00
 0.694896356105012D+03 0.000000000000000D+00 0.000000000000000D+00 0.694896356105012D+03
 0.561458870698544D+03 0.000000000000000D+00 0.000000000000000D+00 -.561458870698544D+03
 0.527350334213098D+03 0.237161670685041D+03 0.216712383953229D+03 0.410391573548342D+03
 0.517707363867402D+02 0.191613161663003D+02 -.161803657931111D+02 -.452907150705478D+02
 0.598504918619929D+02 -.113178452398017D+02 -.546842435144117D+02 0.215318663033864D+02
 0.434707871625614D+03 -.170517958964060D+03 -.457650970531313D+02 -.386632724781180D+03
 0.182675792716111D+03 -.744871826474794D+02 -.100082677592575D+03 0.133437485406468D+03
0.325030680393D-03 0.000000000000D+00 0.000000000000D+00 0.415433154469D-06 0.000000000000D+00  7 1 -2 -24 -13 13 23 21 0 0.20631429D+00 0.32615909D-01 0.90463137D+05 0.90463137D+05 0.90463137D+05 0.11253116D+01  1  2  2  2  7  2       -2 0.272363039931D-02 0.100000000000D+01
-.108600218608D-04 0.000000000000D+00 -.124820339525D-05 0.415433154469D-06 0.000000000000D+00  7 1 -2 -24 -13 13 23 21 2 0.20631429D+00 0.32615909D-01 0.90463137D+05 0.90463137D+05 0.90463137D+05 0.11253116D+01  1  2  3  2  7  2       -2 -.115239175476D-03 0.100000000000D+01
0.196691374573D-04 0.000000000000D+00 0.000000000000D+00 0.415433154469D-06 0.000000000000D+00  7 1 -2 -24 -13 13 23 21 2 0.20631429D+00 0.32615909D-01 0.90463137D+05 0.90463137D+05 0.90463137D+05 0.11253116D+01  1  2 15  2  7  2       -2 0.208715526724D-03 0.100000000000D+01
-.393116634625D-04 0.000000000000D+00 0.000000000000D+00 0.415433154469D-06 0.000000000000D+00  7 1 -2 -24 -13 13 23 21 2 0.20631429D+00 0.32615909D-01 0.90463137D+05 0.90463137D+05 0.90463137D+05 0.11253116D+01  1  2  4  2  7  2       -2 -.417148670793D-03 0.100000000000D+01
  </mgrwgt>
  </event>
  <event>
  8     66 0.29493621E-05 0.20424116E+03 0.75467711E-02 0.92723765E-01
        1 -1    0    0  501    0 0.00000000E+00 0.00000000E+00 0.28880810E+03 0.28880828E+03 0.32000000E+00 0.0000E+00 0.9000E+01
       -2 -1    0    0    0  501 0.00000000E+00 0.00000000E+00 -.47879011E+03 0.47879022E+03 0.32000000E+00 0.0000E+00 0.9000E+01
       25  2    1    2    0    0 0.25237600E+02 -.76495211E+02 -.41345784E+03 0.51680552E+03 0.29941962E+03 0.0000E+00 0.0000E+00
       23  2    3    3    0    0 0.28579602E+02 -.15353289E+03 -.18201789E+03 0.25637190E+03 0.90591907E+02 0.0000E+00 0.0000E+00
      -24  1    1    2    0    0 -.25237600E+02 0.76495211E+02 0.22347583E+03 0.25079297E+03 0.80419002E+02 0.0000E+00 0.9000E+01
      -11  1    4    4    0    0 0.42862121E+02 -.33609204E+02 -.87258133E+02 0.10286264E+03 0.51099893E-03 0.0000E+00 0.9000E+01
       11  1    4    4    0    0 -.14282519E+02 -.11992369E+03 -.94759759E+02 0.15350926E+03 0.51099893E-03 0.0000E+00 0.9000E+01
       23  1    3    3    0    0 -.33420019E+01 0.77037681E+02 -.23143995E+03 0.26043363E+03 0.91188000E+02 0.0000E+00 0.9000E+01
#aMCatNLO 1  0  0  2  2 0.53278781D+03 0.00000000D+00  -5  7  0 0.00000000D+00 0.00000000D+00 0.00000000D+00 0.00000000D+00 0.00000000D+00
  <mgrwgt>
 0.8495449286D-03    5    2    0
 0.371858267770910D+03 0.000000000000000D+00 0.000000000000000D+00 0.371858267770910D+03
 0.371858267770910D+03 0.000000000000000D+00 0.000000000000000D+00 -.371858267770910D+03
 0.315933133688119D+03 -.252376003090522D+02 0.764952106646449D+02 0.294716940951206D+03
 0.838756776404908D+02 0.428621209466862D+02 -.336092044132406D+02 -.637839263946034D+02
 0.134232362627234D+03 -.142825187733814D+02 -.119923687469094D+03 -.585887874750121D+02
 0.209675361585976D+03 -.334200186425254D+01 0.770376812176899D+02 -.172344227081590D+03
 0.000000000000000D+00 -.000000000000000D+00 0.000000000000000D+00 -.000000000000000D+00
 0.478715613896614D+03 0.000000000000000D+00 0.000000000000000D+00 0.478715613896614D+03
 0.379176338178424D+04 0.000000000000000D+00 0.000000000000000D+00 -.379176338178424D+04
 0.350590661376463D+03 0.171865423911176D+03 -.712717827829698D+01 0.294716940951206D+03
 0.140848255156713D+03 0.109317012875489D+03 -.618031747595423D+02 -.637839263946034D+02
 0.189257235482953D+03 0.813791493672526D+02 -.160508844656986D+03 -.585887874750121D+02
 0.234168390507948D+03 0.127910545256723D+03 0.213528352417161D+02 -.172344227081590D+03
 0.335561445315678D+04 -.490472131410640D+03 0.208086362453109D+03 -.331304776788763D+04
0.455088079149D-04 0.000000000000D+00 0.000000000000D+00 0.357572071924D-05 0.000000000000D+00  7 1 -2 -24 -11 11 23 21 0 0.44432037D-01 0.73660039D-01 0.41714453D+05 0.41714453D+05 0.41714453D+05 0.11542813D+01  1  2  2  2  7  2       -2 0.816754004859D-03 0.100000000000D+01
-.142453300477D-05 0.000000000000D+00 -.174765805137D-06 0.357572071924D-05 0.000000000000D+00  7 1 -2 -24 -11 11 23 21 2 0.44432037D-01 0.73660039D-01 0.41714453D+05 0.41714453D+05 0.41714453D+05 0.11542813D+01  1  2  3  2  7  2       -2 -.340636886280D-04 0.100000000000D+01
0.280706751702D-05 0.000000000000D+00 0.000000000000D+00 0.357572071924D-05 0.000000000000D+00  7 1 -2 -24 -11 11 23 21 2 0.44432037D-01 0.73660039D-01 0.41714453D+05 0.41714453D+05 0.41714453D+05 0.11542813D+01  1  2 15  2  7  2       -2 0.671231017724D-04 0.100000000000D+01
-.178117098411D-03 0.000000000000D+00 -.320597583424D-04 0.357572071924D-05 0.000000000000D+00  7 1 -2 -24 -11 11 23 21 2 0.44432037D-01 0.76230003D+00 0.41714453D+05 0.41714453D+05 0.41714453D+05 0.11542813D+01  1  2  5  2  7  2       -2 -.232912265354D-06 0.100000000000D+01
-.546472235153D-04 0.000000000000D+00 -.888167569278D-05 0.357572071924D-05 0.000000000000D+00  7 1 21 -24 -11 11 23 2 2 0.44432037D-01 0.76230003D+00 0.41714453D+05 0.41714453D+05 0.41714453D+05 0.11542813D+01  1  2  5  4  7  2       -2 -.355771418447D-07 0.100000000000D+01
  </mgrwgt>
  </event>
  <event>
  8     66 0.29493621E-05 0.58441139E+03 0.75467711E-02 0.92600144E-01
        1 -1    0    0  501    0 0.00000000E+00 0.00000000E+00 0.12279240E+04 0.12279241E+04 0.32000000E+00 0.0000E+00 0.9000E+01
       -2 -1    0    0    0  501 0.00000000E+00 0.00000000E+00 -.28132915E+03 0.28132933E+03 0.32000000E+00 0.0000E+00 0.9000E+01
       25  2    1    2    0    0 -.16266529E+03 0.52148207E+03 0.48757627E+03 0.79122216E+03 0.29983055E+03 0.0000E+00 0.0000E+00
       23  2    3    3    0    0 -.39713643E+02 0.43076670E+03 0.38306569E+03 0.58486302E+03 0.90489254E+02 0.0000E+00 0.0000E+00
      -24  1    1    2    0    0 0.16266529E+03 -.52148207E+03 0.45901860E+03 0.71803122E+03 0.80419002E+02 0.0000E+00 0.9000E+01
      -13  1    4    4    0    0 0.16429397E+02 0.31377903E+02 0.13727309E+02 0.37986156E+02 0.10565837E+00 0.0000E+00 0.9000E+01
       13  1    4    4    0    0 -.56143041E+02 0.39938880E+03 0.36933839E+03 0.54687687E+03 0.10565837E+00 0.0000E+00 0.9000E+01
       23  1    3    3    0    0 -.12295164E+03 0.90715364E+02 0.10451057E+03 0.20635914E+03 0.91188000E+02 0.0000E+00 0.9000E+01
#aMCatNLO 1  0  0  1  2 0.30965026D+02 0.00000000D+00  -5  7  0 0.00000000D+00 0.00000000D+00 0.00000000D+00 0.00000000D+00 0.00000000D+00
  <mgrwgt>
 0.1159542888D-02    4    2    0
 0.587750784358859D+03 0.000000000000000D+00 0.000000000000000D+00 0.587750784358859D+03
 0.587750784358859D+03 0.000000000000000D+00 0.000000000000000D+00 -.587750784358859D+03
 0.552263319686122D+03 0.162665286430522D+03 -.521482067074606D+03 0.111362752497415D+02
 0.377166203312802D+02 0.164294964015622D+02 0.313774010851026D+02 -.129643279173894D+02
 0.404731517112654D+03 -.561431397151075D+02 0.399389302423945D+03 0.338191353608475D+02
 0.180790111587661D+03 -.122951643116977D+03 0.907153635655584D+02 -.319910826931996D+02
 0.000000000000000D+00 -.000000000000000D+00 -.000000000000000D+00 -.000000000000000D+00
 0.590263220793002D+03 0.000000000000000D+00 0.000000000000000D+00 0.590263220793002D+03
 0.691789553022200D+03 0.000000000000000D+00 0.000000000000000D+00 -.691789553022200D+03
 0.539022309117555D+03 0.163590253171338D+03 -.507141051595066D+03 0.111362752497415D+02
 0.385823884139617D+02 0.164941669548837D+02 0.323800764952869D+02 -.129643279173894D+02
 0.415275610393736D+03 -.554481069022897D+02 0.410165339969489D+03 0.338191353608475D+02
 0.183029029955002D+03 -.122643272332356D+03 0.954964546043323D+02 -.319910826931996D+02
 0.106143435934948D+03 -.199304089157512D+01 -.309008194740419D+02 -.101526332229198D+03
0.221424415741D-03 0.000000000000D+00 0.000000000000D+00 0.122183828661D-04 0.000000000000D+00  7 1 -2 -24 -13 13 23 21 0 0.18891140D+00 0.43281424D-01 0.34153667D+06 0.34153667D+06 0.34153667D+06 0.10804098D+01  1  2  2  1  7  1        1 0.125364287786D-02 0.100000000000D+01
-.123008708538D-04 0.000000000000D+00 -.850328058834D-06 0.122183828661D-04 0.000000000000D+00  7 1 -2 -24 -13 13 23 21 2 0.18891140D+00 0.43281424D-01 0.34153667D+06 0.34153667D+06 0.34153667D+06 0.10804098D+01  1  2  3  1  7  1        1 -.812945078334D-04 0.100000000000D+01
0.144102922465D-04 0.000000000000D+00 0.000000000000D+00 0.122183828661D-04 0.000000000000D+00  7 1 -2 -24 -13 13 23 21 2 0.18891140D+00 0.43281424D-01 0.34153667D+06 0.34153667D+06 0.34153667D+06 0.10804098D+01  1  2 15  1  7  1        1 0.952353398259D-04 0.100000000000D+01
-.163479210496D-04 0.000000000000D+00 0.000000000000D+00 0.122183828661D-04 0.000000000000D+00  7 1 -2 -24 -13 13 23 21 2 0.18891140D+00 0.43281424D-01 0.34153667D+06 0.34153667D+06 0.34153667D+06 0.10804098D+01  1  2  4  1  7  1        1 -.108040821794D-03 0.100000000000D+01
  </mgrwgt>
  </event>
  <event>
  8     66 0.29493621E-05 0.43412298E+03 0.75467711E-02 0.91122974E-01
        1 -1    0    0  501    0 0.00000000E+00 0.00000000E+00 0.49312568E+03 0.49312578E+03 0.32000000E+00 0.0000E+00 0.9000E+01
       -2 -1    0    0    0  501 0.00000000E+00 0.00000000E+00 -.52884012E+03 0.52884022E+03 0.32000000E+00 0.0000E+00 0.9000E+01
       25  2    1    2    0    0 0.37530178E+03 0.74012526E+02 -.27999171E+03 0.56102361E+03 0.30003809E+03 0.0000E+00 0.0000E+00
       23  2    3    3    0    0 0.30208701E+03 -.40145711E+02 -.14875375E+03 0.35142600E+03 0.92218835E+02 0.0000E+00 0.0000E+00
      -24  1    1    2    0    0 -.37530178E+03 -.74012526E+02 0.24427726E+03 0.46094238E+03 0.80419002E+02 0.0000E+00 0.9000E+01
      -13  1    4    4    0    0 0.28096436E+03 -.15388828E+02 -.11340641E+03 0.30337899E+03 0.10565837E+00 0.0000E+00 0.9000E+01
       13  1    4    4    0    0 0.21122659E+02 -.24756883E+02 -.35347337E+02 0.48047012E+02 0.10565837E+00 0.0000E+00 0.9000E+01
       23  1    3    3    0    0 0.73214770E+02 0.11415824E+03 -.13123796E+03 0.20959761E+03 0.91188000E+02 0.0000E+00 0.9000E+01
#aMCatNLO 1  0  0  1  2 0.42110507D+03 0.00000000D+00  -5  7  0 0.00000000D+00 0.00000000D+00 0.00000000D+00 0.00000000D+00 0.00000000D+00
  <mgrwgt>
 0.1715386679D-02    3    2    0
 0.510670875594829D+03 0.000000000000000D+00 0.000000000000000D+00 0.510670875594829D+03
 0.510670875594829D+03 0.000000000000000D+00 0.000000000000000D+00 -.510670875594829D+03
 0.469766037732949D+03 -.375301783937217D+03 -.740125262172542D+02 0.260544873657930D+03
 0.299599131319011D+03 0.280964696416147D+03 -.153888154961369D+02 -.102867211552147D+03
 0.468400153847228D+02 0.211223178618872D+02 -.247568954239857D+02 -.336887348879162D+02
 0.205136566752976D+03 0.732147696591825D+02 0.114158237137377D+03 -.123988927217867D+03
 0.000000000000000D+00 -.000000000000000D+00 0.000000000000000D+00 -.000000000000000D+00
 0.634826263258327D+03 0.000000000000000D+00 0.000000000000000D+00 0.634826263258327D+03
 0.109004770544648D+04 0.000000000000000D+00 0.000000000000000D+00 -.109004770544648D+04
 0.479607797775467D+03 -.306158522166461D+03 -.248876981354412D+03 0.260544873657930D+03
 0.372562435255918D+03 0.329918481965802D+03 -.139193750609310D+03 -.102867211552147D+03
 0.633597470956381D+02 0.291482089695500D+02 -.450545070724602D+02 -.336887348879162D+02
 0.189218160420455D+03 0.101935776191752D+03 0.415223355370179D+02 -.123988927217867D+03
 0.620125828157327D+03 -.154843944960642D+03 0.391602903499164D+03 -.455221442188151D+03
0.248760687806D-03 0.000000000000D+00 0.000000000000D+00 0.968560844177D-05 0.000000000000D+00  7 1 -2 -24 -13 13 23 21 0 0.75865504D-01 0.81360034D-01 0.18846276D+06 0.18846276D+06 0.18846276D+06 0.10998127D+01  1  2  2  1  7  1        1 0.169425949769D-02 0.100000000000D+01
-.133768898999D-04 0.000000000000D+00 -.955306541369D-06 0.968560844177D-05 0.000000000000D+00  7 1 -2 -24 -13 13 23 21 2 0.75865504D-01 0.81360034D-01 0.18846276D+06 0.18846276D+06 0.18846276D+06 0.10998127D+01  1  2  3  1  7  1        1 -.110202343536D-03 0.100000000000D+01
0.159414086886D-04 0.000000000000D+00 0.000000000000D+00 0.968560844177D-05 0.000000000000D+00  7 1 -2 -24 -13 13 23 21 2 0.75865504D-01 0.81360034D-01 0.18846276D+06 0.18846276D+06 0.18846276D+06 0.10998127D+01  1  2 15  1  7  1        1 0.131329525015D-03 0.100000000000D+01
  </mgrwgt>
  </event>
  <event>
  8     66 0.29493621E-05 0.40170582E+03 0.75467711E-02 0.91954687E-01
        1 -1    0    0  501    0 0.00000000E+00 0.00000000E+00 0.10541259E+03 0.10541308E+03 0.32000000E+00 0.0000E+00 0.9000E+01
       -2 -1    0    0    0  501 0.00000000E+00 0.00000000E+00 -.23312110E+04 0.23312111E+04 0.32000000E+00 0.0000E+00 0.9000E+01
       25  2    1    2    0    0 0.34226063E+03 -.16873900E+03 -.17775754E+04 0.18424976E+04 0.29901180E+03 0.0000E+00 0.0000E+00
       23  2    3    3    0    0 0.48268186E+02 -.29607963E+02 -.17766724E+03 0.20731863E+03 0.90603086E+02 0.0000E+00 0.0000E+00
      -24  1    1    2    0    0 -.34226063E+03 0.16873900E+03 -.44822308E+03 0.59412653E+03 0.80419002E+02 0.0000E+00 0.9000E+01
      -11  1    4    4    0    0 0.35368970E+02 0.76728611E+01 -.13741037E+02 0.38712439E+02 0.51099893E-03 0.0000E+00 0.9000E+01
       11  1    4    4    0    0 0.12899216E+02 -.37280825E+02 -.16392620E+03 0.16860620E+03 0.51099893E-03 0.0000E+00 0.9000E+01
       23  1    3    3    0    0 0.29399244E+03 -.13913103E+03 -.15999081E+04 0.16351790E+04 0.91188000E+02 0.0000E+00 0.9000E+01
#aMCatNLO 1  0  0  2  1 0.38424325D+03 0.00000000D+00  -5  7  0 0.00000000D+00 0.00000000D+00 0.00000000D+00 0.00000000D+00 0.00000000D+00
  <mgrwgt>
 0.9514037792D-03    3    2    0
 0.495721306848754D+03 0.000000000000000D+00 0.000000000000000D+00 0.495721306848754D+03
 0.495721306848754D+03 0.000000000000000D+00 0.000000000000000D+00 -.495721306848754D+03
 0.453892944181560D+03 -.342260629922478D+03 0.168738995079587D+03 0.232242118419624D+03
 0.642930643386610D+02 0.353689698790696D+02 0.767286108247991D+01 0.531390750254240D+02
 0.463599612070385D+02 0.128992164006637D+02 -.372808245485011D+02 -.243515161817666D+02
 0.426896643970247D+03 0.293992443642744D+03 -.139131031613566D+03 -.261029677263281D+03
 0.000000000000000D+00 -.000000000000000D+00 0.000000000000000D+00 0.000000000000000D+00
 0.782334882447487D+03 0.000000000000000D+00 0.000000000000000D+00 0.782334882447487D+03
 0.678887435470420D+03 0.000000000000000D+00 0.000000000000000D+00 -.678887435470420D+03
 0.401578531103657D+03 -.317406826583834D+03 0.107053985888317D+02 0.232242118419624D+03
 0.681447215435132D+02 0.392166524494598D+02 -.167927350465489D+02 0.531390750254240D+02
 0.647696867527811D+02 0.161278388565617D+02 -.578101098037301D+02 -.243515161817666D+02
 0.528804447399622D+03 0.321758193479715D+03 -.315680320517635D+03 -.261029677263281D+03
 0.397924931118333D+03 -.596958582019027D+02 0.379577766779083D+03 0.103447446977067D+03
0.201100881668D-02 0.000000000000D+00 0.000000000000D+00 0.288808486700D-05 0.000000000000D+00  7 1 -2 -24 -11 11 23 21 0 0.16217361D-01 0.35864789D+00 0.16136757D+06 0.16136757D+06 0.16136757D+06 0.11050570D+01  1  2  2  2  7  2       -2 0.938238980097D-03 0.100000000000D+01
-.105715456437D-03 0.000000000000D+00 -.772280336685D-05 0.288808486700D-05 0.000000000000D+00  7 1 -2 -24 -11 11 23 21 2 0.16217361D-01 0.35864789D+00 0.16136757D+06 0.16136757D+06 0.16136757D+06 0.11050570D+01  1  2  3  2  7  2       -2 -.602292367118D-04 0.100000000000D+01
0.128822552376D-03 0.000000000000D+00 0.000000000000D+00 0.288808486700D-05 0.000000000000D+00  7 1 -2 -24 -11 11 23 21 2 0.16217361D-01 0.35864789D+00 0.16136757D+06 0.16136757D+06 0.16136757D+06 0.11050570D+01  1  2 15  2  7  2       -2 0.733940358617D-04 0.100000000000D+01
  </mgrwgt>
  </event>
  <event>
  8     66 0.29493621E-05 0.34517986E+03 0.75467711E-02 0.96242635E-01
        1 -1    0    0  501    0 0.00000000E+00 0.00000000E+00 0.36856641E+03 0.36856655E+03 0.32000000E+00 0.0000E+00 0.9000E+01
       -2 -1    0    0    0  501 0.00000000E+00 0.00000000E+00 -.56086471E+03 0.56086480E+03 0.32000000E+00 0.0000E+00 0.9000E+01
       25  2    1    2    0    0 0.14317186E+03 0.23283255E+03 -.40531090E+03 0.57369162E+03 0.30022653E+03 0.0000E+00 0.0000E+00
       23  2    3    3    0    0 -.24067895E+02 0.18600966E+03 -.22433854E+03 0.30680632E+03 0.92862673E+02 0.0000E+00 0.0000E+00
      -24  1    1    2    0    0 -.14317186E+03 -.23283255E+03 0.21301260E+03 0.35573974E+03 0.80419002E+02 0.0000E+00 0.9000E+01
      -13  1    4    4    0    0 -.43370754E+01 0.18924563E+03 -.20286279E+03 0.27746359E+03 0.10565837E+00 0.0000E+00 0.9000E+01
       13  1    4    4    0    0 -.19730819E+02 -.32359684E+01 -.21475751E+02 0.29342730E+02 0.10565837E+00 0.0000E+00 0.9000E+01
       23  1    3    3    0    0 0.16723976E+03 0.46822894E+02 -.18097235E+03 0.26688530E+03 0.91188000E+02 0.0000E+00 0.9000E+01
#aMCatNLO 1  0  0  1  1 0.16083819D+03 0.00000000D+00  -5  7  0 0.00000000D+00 0.00000000D+00 0.00000000D+00 0.00000000D+00 0.00000000D+00
  <mgrwgt>
 0.1140508463D-02    4    2    0
 0.454660315128868D+03 0.000000000000000D+00 0.000000000000000D+00 0.454660315128868D+03
 0.454660315128868D+03 0.000000000000000D+00 0.000000000000000D+00 -.454660315128868D+03
 0.408654127171843D+03 -.143171864116106D+03 -.232832552248199D+03 0.292953579324984D+03
 0.240699960266733D+03 -.433705579273957D+01 0.189245875390101D+03 -.148672995084150D+03
 0.254498229138996D+02 -.197308391535492D+02 -.323621741032234D+01 -.157452967427974D+02
 0.234516719905260D+03 0.167239759062394D+03 0.468228942684205D+02 -.128535287498036D+03
 0.000000000000000D+00 0.000000000000000D+00 -.000000000000000D+00 -.000000000000000D+00
 0.488676606847130D+03 0.000000000000000D+00 0.000000000000000D+00 0.488676606847130D+03
 0.701609876795879D+03 0.000000000000000D+00 0.000000000000000D+00 -.701609876795879D+03
 0.409845548068807D+03 -.200001173578886D+03 -.188901795240806D+03 0.292953579324984D+03
 0.265515295117914D+03 -.394841233765796D+02 0.216415610516997D+03 -.148672995084150D+03
 0.282559078099993D+02 -.234596855826402D+02 -.353707523385073D+00 -.157452967427974D+02
 0.219818646495290D+03 0.135694767759287D+03 0.712081166270481D+02 -.128535287498036D+03
 0.266851086150998D+03 0.127250214778818D+03 -.983682243798541D+02 -.212933269948749D+03
0.139640897980D-03 0.000000000000D+00 0.000000000000D+00 0.422997279229D-05 0.000000000000D+00  7 1 -2 -24 -13 13 23 21 0 0.56702543D-01 0.86286896D-01 0.11914914D+06 0.11914914D+06 0.11914914D+06 0.11155309D+01  1  2  2  1  7  1        1 0.125213411022D-02 0.100000000000D+01
-.704198531147D-05 0.000000000000D+00 -.536257816534D-06 0.422997279229D-05 0.000000000000D+00  7 1 -2 -24 -13 13 23 21 2 0.56702543D-01 0.86286896D-01 0.11914914D+06 0.11914914D+06 0.11914914D+06 0.11155309D+01  1  2  3  1  7  1        1 -.785771948325D-04 0.100000000000D+01
0.899196078969D-05 0.000000000000D+00 0.000000000000D+00 0.422997279229D-05 0.000000000000D+00  7 1 -2 -24 -13 13 23 21 2 0.56702543D-01 0.86286896D-01 0.11914914D+06 0.11914914D+06 0.11914914D+06 0.11155309D+01  1  2 15  1  7  1        1 0.100335775161D-03 0.100000000000D+01
-.119537198102D-04 0.000000000000D+00 0.000000000000D+00 0.422997279229D-05 0.000000000000D+00  7 1 -2 -24 -13 13 23 21 2 0.56702543D-01 0.86286896D-01 0.11914914D+06 0.11914914D+06 0.11914914D+06 0.11155309D+01  1  2  4  1  7  1        1 -.133384227452D-03 0.100000000000D+01
  </mgrwgt>
  </event>
  <event>
  8     66 0.29493621E-05 0.14879881E+03 0.75467711E-02 0.10473334E+00
        1 -1    0    0  501    0 0.00000000E+00 0.00000000E+00 0.15933701E+04 0.15933701E+04 0.32000000E+00 0.0000E+00 0.9000E+01
       -2 -1    0    0    0  501 0.00000000E+00 0.00000000E+00 -.42039283E+02 0.42040501E+02 0.32000000E+00 0.0000E+00 0.9000E+01
       25  2    1    2    0    0 -.18445980E+02 0.10119845E+03 0.63077616E+03 0.70564213E+03 0.29911682E+03 0.0000E+00 0.0000E+00
       23  2    3    3    0    0 -.11714267E+03 0.23550909E+02 0.21861256E+03 0.26522839E+03 0.90981303E+02 0.0000E+00 0.0000E+00
      -24  1    1    2    0    0 0.18445980E+02 -.10119845E+03 0.92055464E+03 0.92976849E+03 0.80419002E+02 0.0000E+00 0.9000E+01
      -13  1    4    4    0    0 -.11367076E+03 0.50409977E-01 0.21202910E+03 0.24057721E+03 0.10565837E+00 0.0000E+00 0.9000E+01
       13  1    4    4    0    0 -.34719105E+01 0.23500499E+02 0.65834615E+01 0.24651181E+02 0.10565837E+00 0.0000E+00 0.9000E+01
       23  1    3    3    0    0 0.98696688E+02 0.77647539E+02 0.41216360E+03 0.44041374E+03 0.91188000E+02 0.0000E+00 0.9000E+01
#aMCatNLO 1  0  0  2  1 0.23512537D+02 0.00000000D+00  -5  7  0 0.00000000D+00 0.00000000D+00 0.00000000D+00 0.00000000D+00 0.00000000D+00
  <mgrwgt>
 0.1532744007D-02    6    2    0
 0.258814912130963D+03 0.000000000000000D+00 0.000000000000000D+00 0.258814912130963D+03
 0.258814912130963D+03 0.000000000000000D+00 0.000000000000000D+00 -.258814912130963D+03
 0.178638259493505D+03 0.184459802347853D+02 -.101198448761299D+03 0.121914033572772D+03
 0.124635973611746D+03 -.113670905523417D+03 0.503788681108599D-01 -.511179872217593D+02
 0.581528134008862D+02 -.347176231908923D+01 0.235005304815793D+02 -.530793899731563D+02
 0.156202777755789D+03 0.986966876077212D+02 0.776475394116086D+02 -.177166563778566D+02
 0.000000000000000D+00 0.000000000000000D+00 0.000000000000000D+00 0.000000000000000D+00
 0.272344902594836D+03 0.000000000000000D+00 0.000000000000000D+00 0.272344902594836D+03
 0.269502391383979D+03 0.000000000000000D+00 0.000000000000000D+00 -.269502391383979D+03
 0.181925549572087D+03 0.134006857253419D+02 -.107643298318302D+03 0.121914033572772D+03
 0.127945472383195D+03 -.117205225248872D+03 -.446435438963437D+01 -.511179872217593D+02
 0.574694376534956D+02 -.508964046921728D+01 0.214338560268728D+02 -.530793899731563D+02
 0.150823099873323D+03 0.944005382557561D+02 0.721596464459934D+02 -.177166563778566D+02
 0.236837344967143D+02 0.144936417369912D+02 0.185141502350702D+02 0.284251121085734D+01
0.110037838453D-04 0.000000000000D+00 0.000000000000D+00 0.762874936124D-06 0.000000000000D+00  7 1 -2 -24 -13 13 23 21 0 0.24513396D+00 0.64676782D-02 0.44772780D+05 0.44772780D+05 0.44772780D+05 0.11515376D+01  1  2  2  2  7  2       -2 0.850888489375D-03 0.100000000000D+01
-.581161939932D-06 0.000000000000D+00 -.422574273286D-07 0.762874936124D-06 0.000000000000D+00  7 1 -2 -24 -13 13 23 21 2 0.24513396D+00 0.64676782D-02 0.44772780D+05 0.44772780D+05 0.44772780D+05 0.11515376D+01  1  2  3  2  7  2       -2 -.595914587411D-04 0.100000000000D+01
0.685887330207D-06 0.000000000000D+00 0.000000000000D+00 0.762874936124D-06 0.000000000000D+00  7 1 -2 -24 -13 13 23 21 2 0.24513396D+00 0.64676782D-02 0.44772780D+05 0.44772780D+05 0.44772780D+05 0.11515376D+01  1  2 15  2  7  2       -2 0.703298404983D-04 0.100000000000D+01
0.180973072685D-04 0.000000000000D+00 0.000000000000D+00 0.762874936124D-06 0.000000000000D+00  7 1 -2 -24 -13 13 23 21 2 0.24513396D+00 0.68961674D-02 0.50096378D+05 0.50096378D+05 0.50096378D+05 0.11472218D+01  1  2 12  2  7  2       -2 0.167194286643D-02 0.100000000000D+01
-.126285235732D-04 0.000000000000D+00 0.000000000000D+00 0.762874936124D-06 0.000000000000D+00  7 1 -2 -24 -13 13 23 21 2 0.24513396D+00 0.64676782D-02 0.44772780D+05 0.44772780D+05 0.44772780D+05 0.11515376D+01  1  2  4  2  7  2       -2 -.129490954201D-02 0.100000000000D+01
0.202341756136D-06 0.000000000000D+00 0.000000000000D+00 0.762874936124D-06 0.000000000000D+00  7 1 21 -24 -13 13 23 2 2 0.24513396D+00 0.68961674D-02 0.50096378D+05 0.50096378D+05 0.50096378D+05 0.11472218D+01  1  2 12  4  7  2       -2 0.294083811111D-03 0.100000000000D+01
  </mgrwgt>
  </event>
  <event>
  8     66 0.29493621E-05 0.28604412E+03 0.75467711E-02 0.91434752E-01
        1 -1    0    0  501    0 0.00000000E+00 0.00000000E+00 0.21755490E+04 0.21755490E+04 0.32000000E+00 0.0000E+00 0.9000E+01
       -2 -1    0    0    0  501 0.00000000E+00 0.00000000E+00 -.18984404E+03 0.18984431E+03 0.32000000E+00 0.0000E+00 0.9000E+01
       25  2    1    2    0    0 0.50923699E+03 0.31761804E+03 0.90282187E+03 0.11247054E+04 0.29945182E+03 0.0000E+00 0.0000E+00
       23  2    3    3    0    0 0.10954604E+03 0.65961559E+02 0.96028271E+02 0.18538917E+03 0.93789399E+02 0.0000E+00 0.0000E+00
      -24  1    1    2    0    0 -.50923699E+03 -.31761804E+03 0.10828831E+04 0.12406879E+04 0.80419002E+02 0.0000E+00 0.9000E+01
      -11  1    4    4    0    0 0.59911520E+02 0.79575480E+02 0.35050704E+02 0.10559450E+03 0.51099893E-03 0.0000E+00 0.9000E+01
       11  1    4    4    0    0 0.49634522E+02 -.13613920E+02 0.60977567E+02 0.79794663E+02 0.51099893E-03 0.0000E+00 0.9000E+01
       23  1    3    3    0    0 0.39969095E+03 0.25165648E+03 0.80679360E+03 0.93931624E+03 0.91188000E+02 0.0000E+00 0.9000E+01
#aMCatNLO 1  0  0  1  2 0.99766571D+02 0.00000000D+00  -5  7  0 0.00000000D+00 0.00000000D+00 0.00000000D+00 0.00000000D+00 0.00000000D+00
  <mgrwgt>
 0.1297776238D-02    9    2    0
 0.642662711392690D+03 0.000000000000000D+00 0.000000000000000D+00 0.642662711392690D+03
 0.642662711392690D+03 0.000000000000000D+00 0.000000000000000D+00 -.642662711392690D+03
 0.610295741864190D+03 -.509236992765268D+03 -.317618037524722D+03 0.760929958768995D+02
 0.140176310610862D+03 0.599115201113140D+02 0.795754797316610D+02 -.986293609423706D+02
 0.526421609120668D+02 0.496345223526222D+02 -.136139202650500D+02 -.110576883359880D+02
 0.482211209398262D+03 0.399690950301332D+03 0.251656478058111D+03 0.335940534014592D+02
 0.000000000000000D+00 0.000000000000000D+00 0.000000000000000D+00 0.000000000000000D+00
 0.801336929785500D+03 0.000000000000000D+00 0.000000000000000D+00 0.801336929785500D+03
 0.660471253366612D+03 0.000000000000000D+00 0.000000000000000D+00 -.660471253366612D+03
 0.657626066344062D+03 -.544357965898859D+03 -.351978817717385D+03 0.760929958768995D+02
 0.132954408564593D+03 0.523458984870002D+02 0.721736158748398D+02 -.986293609423706D+02
 0.507856369509706D+02 0.467696099530576D+02 -.164168216783518D+02 -.110576883359880D+02
 0.447825422103672D+03 0.373929273724136D+03 0.226452412587131D+03 0.335940534014592D+02
 0.172616649188814D+03 0.713131837346651D+02 0.697696109337664D+02 0.140865676418888D+03
0.299777420218D-03 0.000000000000D+00 0.000000000000D+00 0.172108874958D-05 0.000000000000D+00  7 1 -2 -24 -11 11 23 21 0 0.33469987D+00 0.29206798D-01 0.38294327D+06 0.38294327D+06 0.38294327D+06 0.10767946D+01  1  2  2  1  7  1        1 0.799879240997D-03 0.100000000000D+01
-.166253698395D-04 0.000000000000D+00 -.115122422685D-05 0.172108874958D-05 0.000000000000D+00  7 1 -2 -24 -11 11 23 21 2 0.33469987D+00 0.29206798D-01 0.38294327D+06 0.38294327D+06 0.38294327D+06 0.10767946D+01  1  2  3  1  7  1        1 -.514354529855D-04 0.100000000000D+01
0.187893089159D-04 0.000000000000D+00 0.000000000000D+00 0.172108874958D-05 0.000000000000D+00  7 1 -2 -24 -11 11 23 21 2 0.33469987D+00 0.29206798D-01 0.38294327D+06 0.38294327D+06 0.38294327D+06 0.10767946D+01  1  2 15  1  7  1        1 0.581302325725D-04 0.100000000000D+01
0.660429714762D-03 0.000000000000D+00 0.000000000000D+00 0.172108874958D-05 0.000000000000D+00  7 1 -2 -24 -11 11 23 21 2 0.42117849D+00 0.29206798D-01 0.44773774D+06 0.44773774D+06 0.44773774D+06 0.10719156D+01  1  2 12  1  7  1        1 0.817554729411D-03 0.100000000000D+01
-.666844159395D-03 0.000000000000D+00 0.000000000000D+00 0.172108874958D-05 0.000000000000D+00  7 1 -2 -24 -11 11 23 21 2 0.33469987D+00 0.29206798D-01 0.38294327D+06 0.38294327D+06 0.38294327D+06 0.10767946D+01  1  2  4  1  7  1        1 -.206307779859D-02 0.100000000000D+01
-.935405013576D-03 0.000000000000D+00 -.139136520933D-03 0.172108874958D-05 0.000000000000D+00  7 1 -2 -24 -11 11 23 21 2 0.42060551D+00 0.29206798D-01 0.38294327D+06 0.38294327D+06 0.38294327D+06 0.10767946D+01  1  2  5  1  7  1        1 -.118727449756D-02 0.100000000000D+01
0.945951756334D-03 0.000000000000D+00 0.135582766909D-03 0.172108874958D-05 0.000000000000D+00  7 1 -2 -24 -11 11 23 21 2 0.33469987D+00 0.29206798D-01 0.38294327D+06 0.38294327D+06 0.38294327D+06 0.10767946D+01  1  2  6  1  7  1        1 0.292657893083D-02 0.100000000000D+01
0.209969459994D-04 0.000000000000D+00 0.000000000000D+00 0.172108874958D-05 0.000000000000D+00  7 21 -2 -24 -11 11 23 -1 2 0.42117849D+00 0.29206798D-01 0.44773774D+06 0.44773774D+06 0.44773774D+06 0.10719156D+01  1  2 12  3  7  1        1 0.710781966734D-05 0.100000000000D+01
-.275988265662D-04 0.000000000000D+00 -.440392659324D-05 0.172108874958D-05 0.000000000000D+00  7 21 -2 -24 -11 11 23 -1 2 0.42060551D+00 0.29206798D-01 0.38294327D+06 0.38294327D+06 0.38294327D+06 0.10767946D+01  1  2  5  3  7  1        1 -.968696613200D-05 0.100000000000D+01
  </mgrwgt>
  </event>
  <event>
  9     66 0.29493621E-05 0.19331014E+03 0.75467711E-02 0.10417674E+00
        1 -1    0    0  502    0 0.00000000E+00 0.00000000E+00 0.21123367E+03 0.21123392E+03 0.32000000E+00 0.0000E+00 0.9000E+01
       -2 -1    0    0    0  501 0.00000000E+00 0.00000000E+00 -.67275467E+03 0.67275475E+03 0.32000000E+00 0.0000E+00 0.9000E+01
       25  2    1    2    0    0 -.45799788E+02 -.10331236E+03 0.95593617E+01 0.31964836E+03 0.29885219E+03 0.0000E+00 0.0000E+00
       23  2    3    3    0    0 -.81626968E+02 0.45846870E+02 0.49385487E+02 0.13680025E+03 0.86663046E+02 0.0000E+00 0.0000E+00
      -24  1    1    2    0    0 -.17531567E+02 0.44195042E+02 -.46843614E+03 0.47766117E+03 0.80419002E+02 0.0000E+00 0.9000E+01
      -11  1    4    4    0    0 0.74576975E+01 0.71422014E+01 0.37559986E+02 0.38953573E+02 0.51099893E-03 0.0000E+00 0.9000E+01
       11  1    4    4    0    0 -.89084666E+02 0.38704668E+02 0.11825502E+02 0.97846673E+02 0.51099893E-03 0.0000E+00 0.9000E+01
       23  1    3    3    0    0 0.35827180E+02 -.14915923E+03 -.39826126E+02 0.18284812E+03 0.91188000E+02 0.0000E+00 0.9000E+01
       21  1    1    2  502  501 0.63331355E+02 0.59117316E+02 -.26442146E+01 0.86679132E+02 0.75000000E+00 0.0000E+00 0.9000E+01
#aMCatNLO 2  0  0  1  2 0.86635544D+02 0.00000000D+00  -5  7  0 0.00000000D+00 0.00000000D+00 0.00000000D+00 0.00000000D+00 0.00000000D+00
  <mgrwgt>
 0.1646684227D-03    2    2    0
 0.323121058626471D+03 0.000000000000000D+00 0.000000000000000D+00 0.323121058626471D+03
 0.323121058626471D+03 0.000000000000000D+00 0.000000000000000D+00 -.323121058626471D+03
 0.259023244431251D+03 0.751508429540342D+01 0.675751004300939D+02 -.236649433785963D+03
 0.761138788599214D+02 0.147837503687128D+02 0.139807821574612D+02 0.733437182750097D+02
 0.123926923238393D+03 -.767966719119147D+02 0.501750246327149D+02 0.833223882860712D+02
 0.187178070723377D+03 0.544978372477985D+02 -.131730907220270D+03 0.799833272248817D+02
 0.000000000000000D+00 0.000000000000000D+00 0.000000000000000D+00 0.000000000000000D+00
 0.406960913353137D+03 0.000000000000000D+00 0.000000000000000D+00 0.406960913353137D+03
 0.349192066915883D+03 0.000000000000000D+00 0.000000000000000D+00 -.349192066915883D+03
 0.254422341875871D+03 -.175315665189905D+02 0.441950422039113D+02 -.236649433785963D+03
 0.740670595038535D+02 0.745769747724724D+01 0.714220144502028D+01 0.733437182750097D+02
 0.127971674236458D+03 -.890846657711399D+02 0.387046682149796D+02 0.833223882860712D+02
 0.195562383784705D+03 0.358271800793246D+02 -.149159227475733D+03 0.799833272248817D+02
 0.104129520868132D+03 0.633313547335586D+02 0.591173156118219D+02 0.577688464372540D+02
-.422910855646D-04 0.000000000000D+00 0.000000000000D+00 0.755651525098D-07 0.000000000000D+00  7 1 -2 -24 -11 11 23 21 2 0.33335525D-01 0.95772923D-01 0.54282429D+05 0.54282429D+05 0.54282429D+05 0.11441693D+01  1  2 13  1  7  1        1 -.794647415702D-03 0.100000000000D+01
0.594009253953D-04 0.000000000000D+00 0.000000000000D+00 0.755651525098D-07 0.715847053045D-10  7 1 -2 -24 -11 11 23 21 2 0.32497392D-01 0.10350036D+00 0.54282429D+05 0.54282429D+05 0.54282429D+05 0.11441693D+01  1  2  1  1  7  1        1 0.959315838412D-03 0.100000000000D+01
  </mgrwgt>
  </event>
  <event>
  8     66 0.29493621E-05 0.11667432E+03 0.75467711E-02 0.10654212E+00
        1 -1    0    0  501    0 0.00000000E+00 0.00000000E+00 0.73537121E+03 0.73537128E+03 0.32000000E+00 0.0000E+00 0.9000E+01
       -2 -1    0    0    0  501 0.00000000E+00 0.00000000E+00 -.57835540E+02 0.57836425E+02 0.32000000E+00 0.0000E+00 0.9000E+01
       25  2    1    2    0    0 0.10865965E+02 -.23502314E+02 0.38146072E+03 0.48531483E+03 0.29891099E+03 0.0000E+00 0.0000E+00
       23  2    3    3    0    0 0.15355701E+02 -.12956820E+03 0.19177458E+03 0.24958996E+03 0.92162602E+02 0.0000E+00 0.0000E+00
      -24  1    1    2    0    0 -.10865965E+02 0.23502314E+02 0.29607496E+03 0.30789288E+03 0.80419002E+02 0.0000E+00 0.9000E+01
      -11  1    4    4    0    0 0.25718617E+02 -.11004535E+03 0.87300361E+02 0.14280329E+03 0.51099893E-03 0.0000E+00 0.9000E+01
       11  1    4    4    0    0 -.10362916E+02 -.19522849E+02 0.10447421E+03 0.10678667E+03 0.51099893E-03 0.0000E+00 0.9000E+01
       23  1    3    3    0    0 -.44897357E+01 0.10606589E+03 0.18968614E+03 0.23572487E+03 0.91188000E+02 0.0000E+00 0.9000E+01
#aMCatNLO 1  0  0  1  2 0.34817120D+02 0.00000000D+00  -5  7  0 0.00000000D+00 0.00000000D+00 0.00000000D+00 0.00000000D+00 0.00000000D+00
  <mgrwgt>
 0.1116265700D-02    9    2    0
 0.206230381212527D+03 0.000000000000000D+00 0.000000000000000D+00 0.206230381212527D+03
 0.206230381212527D+03 0.000000000000000D+00 0.000000000000000D+00 -.206230381212527D+03
 0.105759535550305D+03 -.108659651977144D+02 0.235023140301305D+02 0.636194580375916D+02
 0.131221118642336D+03 0.257186167759799D+02 -.110045352881145D+03 -.666899920388403D+02
 0.337462488839032D+02 -.103629158809014D+02 -.195228488845615D+02 0.255005423395322D+02
 0.141733859348511D+03 -.448973569736404D+01 0.106065887735576D+03 -.224300083382836D+02
 0.000000000000000D+00 -.000000000000000D+00 -.000000000000000D+00 0.000000000000000D+00
 0.227376362876466D+03 0.000000000000000D+00 0.000000000000000D+00 0.227376362876466D+03
 0.221810496415763D+03 0.000000000000000D+00 0.000000000000000D+00 -.221810496415763D+03
 0.108115418810644D+03 -.108253745420414D+02 0.325131305053515D+02 0.636194580375916D+02
 0.122408398949946D+03 0.257667523253147D+02 -.993596274648534D+02 -.666899920388403D+02
 0.322143569979208D+02 -.103503974247347D+02 -.167438469393761D+02 0.255005423395322D+02
 0.151189490910013D+03 -.443414269497407D+01 0.118407110944123D+03 -.224300083382836D+02
 0.352591936237058D+02 -.156837663564579D+00 -.348167670452453D+02 0.556586646070333D+01
0.290866334145D-05 0.000000000000D+00 0.000000000000D+00 0.139508712136D-06 0.000000000000D+00  7 1 -2 -24 -11 11 23 21 0 0.11313411D+00 0.88978489D-02 0.32318305D+05 0.32318305D+05 0.32318305D+05 0.11643484D+01  1  2  2  1  7  1        1 0.576281159730D-03 0.100000000000D+01
-.157888675831D-06 0.000000000000D+00 -.111700330998D-07 0.139508712136D-06 0.000000000000D+00  7 1 -2 -24 -11 11 23 21 2 0.11313411D+00 0.88978489D-02 0.32318305D+05 0.32318305D+05 0.32318305D+05 0.11643484D+01  1  2  3  1  7  1        1 -.424089798033D-04 0.100000000000D+01
0.180851616668D-06 0.000000000000D+00 0.000000000000D+00 0.139508712136D-06 0.000000000000D+00  7 1 -2 -24 -11 11 23 21 2 0.11313411D+00 0.88978489D-02 0.32318305D+05 0.32318305D+05 0.32318305D+05 0.11643484D+01  1  2 15  1  7  1        1 0.485768375616D-04 0.100000000000D+01
0.358710804226D-05 0.000000000000D+00 0.000000000000D+00 0.139508712136D-06 0.000000000000D+00  7 1 -2 -24 -11 11 23 21 2 0.12863078D+00 0.88978489D-02 0.38824808D+05 0.38824808D+05 0.38824808D+05 0.11570859D+01  1  2 12  1  7  1        1 0.782489382046D-03 0.100000000000D+01
-.314920268569D-05 0.000000000000D+00 0.000000000000D+00 0.139508712136D-06 0.000000000000D+00  7 1 -2 -24 -11 11 23 21 2 0.11313411D+00 0.88978489D-02 0.32318305D+05 0.32318305D+05 0.32318305D+05 0.11643484D+01  1  2  4  1  7  1        1 -.845877466454D-03 0.100000000000D+01
-.101269922329D-04 0.000000000000D+00 -.256281564571D-05 0.139508712136D-06 0.000000000000D+00  7 1 -2 -24 -11 11 23 21 2 0.13176306D+00 0.88978489D-02 0.32318305D+05 0.32318305D+05 0.32318305D+05 0.11643484D+01  1  2  5  1  7  1        1 -.215091118026D-02 0.100000000000D+01
0.104257763199D-04 0.000000000000D+00 0.253332725768D-05 0.139508712136D-06 0.000000000000D+00  7 1 -2 -24 -11 11 23 21 2 0.11313411D+00 0.88978489D-02 0.32318305D+05 0.32318305D+05 0.32318305D+05 0.11643484D+01  1  2  6  1  7  1        1 0.280036889953D-02 0.100000000000D+01
0.720098873806D-07 0.000000000000D+00 0.000000000000D+00 0.139508712136D-06 0.000000000000D+00  7 21 -2 -24 -11 11 23 -1 2 0.12863078D+00 0.88978489D-02 0.38824808D+05 0.38824808D+05 0.38824808D+05 0.11570859D+01  1  2 12  3  7  1        1 0.281353384473D-04 0.100000000000D+01
-.215720604165D-06 0.000000000000D+00 -.592250994691D-07 0.139508712136D-06 0.000000000000D+00  7 21 -2 -24 -11 11 23 -1 2 0.13176306D+00 0.88978489D-02 0.32318305D+05 0.32318305D+05 0.32318305D+05 0.11643484D+01  1  2  5  3  7  1        1 -.803882903403D-04 0.100000000000D+01
  </mgrwgt>
  </event>
  <event>
  8     66 0.29493621E-05 0.24283777E+03 0.75467711E-02 0.99859441E-01
        1 -1    0    0  501    0 0.00000000E+00 0.00000000E+00 0.11806428E+04 0.11806428E+04 0.32000000E+00 0.0000E+00 0.9000E+01
       -2 -1    0    0    0  501 0.00000000E+00 0.00000000E+00 -.89755841E+02 0.89756411E+02 0.32000000E+00 0.0000E+00 0.9000E+01
       25  2    1    2    0    0 0.15199143E+03 0.19582837E+03 0.64386308E+03 0.75295581E+03 0.30155040E+03 0.0000E+00 0.0000E+00
       23  2    3    3    0    0 0.14741305E+03 0.18076602E+03 0.27593873E+03 0.37357287E+03 0.94908108E+02 0.0000E+00 0.0000E+00
      -24  1    1    2    0    0 -.15199143E+03 -.19582837E+03 0.44702384E+03 0.51744340E+03 0.80419002E+02 0.0000E+00 0.9000E+01
      -13  1    4    4    0    0 0.17674963E+02 -.73945612E+01 0.43788337E+02 0.47796585E+02 0.10565837E+00 0.0000E+00 0.9000E+01
       13  1    4    4    0    0 0.12973808E+03 0.18816058E+03 0.23215039E+03 0.32577629E+03 0.10565837E+00 0.0000E+00 0.9000E+01
       23  1    3    3    0    0 0.45783834E+01 0.15062354E+02 0.36792435E+03 0.37938294E+03 0.91188000E+02 0.0000E+00 0.9000E+01
#aMCatNLO 1  0  0  1  2 0.43871378D+02 0.00000000D+00  -5  7  0 0.00000000D+00 0.00000000D+00 0.00000000D+00 0.00000000D+00 0.00000000D+00
  <mgrwgt>
 0.1865500010D-02    9    2    0
 0.325530296408733D+03 0.000000000000000D+00 0.000000000000000D+00 0.325530296408733D+03
 0.325530296408733D+03 0.000000000000000D+00 0.000000000000000D+00 -.325530296408733D+03
 0.260662736961146D+03 -.151991432944119D+03 -.195828374415891D+03 0.526294318112231D+01
 0.198943621319043D+02 0.176748238867467D+02 -.739480120749553D+01 0.535753304324455D+01
 0.246699459209784D+03 0.129738224106095D+03 0.188160819284799D+03 -.928661535020679D+02
 0.123804034514633D+03 0.457838495127672D+01 0.150623563385883D+02 0.822456772777010D+02
 0.000000000000000D+00 -.000000000000000D+00 0.000000000000000D+00 0.000000000000000D+00
 0.353430793868978D+03 0.000000000000000D+00 0.000000000000000D+00 0.353430793868978D+03
 0.343983330452219D+03 0.000000000000000D+00 0.000000000000000D+00 -.343983330452219D+03
 0.262883317572909D+03 -.139192691773139D+03 -.207937776004719D+03 0.526294318112231D+01
 0.211470894444812D+02 0.186781337416456D+02 -.834407284200183D+01 0.535753304324455D+01
 0.244895303473616D+03 0.141755875799017D+03 0.176790437732414D+03 -.928661535020679D+02
 0.123611333151040D+03 0.106267645065268D+02 0.933974221445465D+01 0.822456772777010D+02
 0.448770806791496D+02 -.318680822740500D+02 0.301516688998518D+02 0.944746341675881D+01
0.189094827207D-04 0.000000000000D+00 0.000000000000D+00 0.535927609707D-07 0.000000000000D+00  7 1 -2 -24 -13 13 23 21 0 0.18163740D+00 0.13808638D-01 0.90257887D+05 0.90257887D+05 0.90257887D+05 0.11253934D+01  1  2  2  1  7  1        1 0.858313461958D-03 0.100000000000D+01
-.104230256428D-05 0.000000000000D+00 -.726173926288D-07 0.535927609707D-07 0.000000000000D+00  7 1 -2 -24 -13 13 23 21 2 0.18163740D+00 0.13808638D-01 0.90257887D+05 0.90257887D+05 0.90257887D+05 0.11253934D+01  1  2  3  1  7  1        1 -.599195875000D-04 0.100000000000D+01
0.120620366850D-05 0.000000000000D+00 0.000000000000D+00 0.535927609707D-07 0.000000000000D+00  7 1 -2 -24 -13 13 23 21 2 0.18163740D+00 0.13808638D-01 0.90257887D+05 0.90257887D+05 0.90257887D+05 0.11253934D+01  1  2 15  1  7  1        1 0.693418866405D-04 0.100000000000D+01
0.294558253491D-04 0.000000000000D+00 0.000000000000D+00 0.535927609707D-07 0.000000000000D+00  7 1 -2 -24 -13 13 23 21 2 0.20198587D+00 0.13808638D-01 0.10434277D+06 0.10434277D+06 0.10434277D+06 0.11202101D+01  1  2 12  1  7  1        1 0.135635315284D-02 0.100000000000D+01
-.261876747254D-04 0.000000000000D+00 0.000000000000D+00 0.535927609707D-07 0.000000000000D+00  7 1 -2 -24 -13 13 23 21 2 0.18163740D+00 0.13808638D-01 0.90257887D+05 0.90257887D+05 0.90257887D+05 0.11253934D+01  1  2  4  1  7  1        1 -.150546944899D-02 0.100000000000D+01
-.917850159801D-04 0.000000000000D+00 -.196182526562D-04 0.535927609707D-07 0.000000000000D+00  7 1 -2 -24 -13 13 23 21 2 0.20414889D+00 0.13808638D-01 0.90257887D+05 0.90257887D+05 0.90257887D+05 0.11253934D+01  1  2  5  1  7  1        1 -.418368401498D-02 0.100000000000D+01
0.935709123000D-04 0.000000000000D+00 0.194851063223D-04 0.535927609707D-07 0.000000000000D+00  7 1 -2 -24 -13 13 23 21 2 0.18163740D+00 0.13808638D-01 0.90257887D+05 0.90257887D+05 0.90257887D+05 0.11253934D+01  1  2  6  1  7  1        1 0.537917746648D-02 0.100000000000D+01
0.503779424726D-06 0.000000000000D+00 0.000000000000D+00 0.535927609707D-07 0.000000000000D+00  7 21 -2 -24 -13 13 23 -1 2 0.20198587D+00 0.13808638D-01 0.10434277D+06 0.10434277D+06 0.10434277D+06 0.11202101D+01  1  2 12  3  7  1        1 0.225913195884D-04 0.100000000000D+01
-.161637324936D-05 0.000000000000D+00 -.363948372286D-06 0.535927609707D-07 0.000000000000D+00  7 21 -2 -24 -13 13 23 -1 2 0.20414889D+00 0.13808638D-01 0.90257887D+05 0.90257887D+05 0.90257887D+05 0.11253934D+01  1  2  5  3  7  1        1 -.712042257109D-04 0.100000000000D+01
  </mgrwgt>
  </event>
  <event>
  8     66 0.29493621E-05 0.37840613E+03 0.75467711E-02 0.93727011E-01
        1 -1    0    0  501    0 0.00000000E+00 0.00000000E+00 0.46725940E+03 0.46725950E+03 0.32000000E+00 0.0000E+00 0.9000E+01
       -2 -1    0    0    0  501 0.00000000E+00 0.00000000E+00 -.32192333E+03 0.32192349E+03 0.32000000E+00 0.0000E+00 0.9000E+01
       25  2    1    2    0    0 0.29144695E+03 0.13705125E+03 0.12163377E+03 0.45638668E+03 0.29961586E+03 0.0000E+00 0.0000E+00
       23  2    3    3    0    0 0.20180060E+03 0.19058540E+03 0.38299955E+02 0.29463950E+03 0.91100353E+02 0.0000E+00 0.0000E+00
      -24  1    1    2    0    0 -.29144695E+03 -.13705125E+03 0.23702299E+02 0.33279631E+03 0.80419002E+02 0.0000E+00 0.9000E+01
      -11  1    4    4    0    0 0.17279727E+02 0.53898134E+02 0.31784063E+02 0.64913977E+02 0.51099893E-03 0.0000E+00 0.9000E+01
       11  1    4    4    0    0 0.18452087E+03 0.13668727E+03 0.65158920E+01 0.22972553E+03 0.51099893E-03 0.0000E+00 0.9000E+01
       23  1    3    3    0    0 0.89646351E+02 -.53534153E+02 0.83333812E+02 0.16174718E+03 0.91188000E+02 0.0000E+00 0.9000E+01
#aMCatNLO 1  0  0  2  2 0.27893112D+03 0.00000000D+00  -5  7  0 0.00000000D+00 0.00000000D+00 0.00000000D+00 0.00000000D+00 0.00000000D+00
  <mgrwgt>
 0.1397687103D-02    3    2    0
 0.387842501151858D+03 0.000000000000000D+00 0.000000000000000D+00 0.387842501151858D+03
 0.387842501151858D+03 0.000000000000000D+00 0.000000000000000D+00 -.387842501151858D+03
 0.334146448846429D+03 -.291446949302361D+03 -.137051249160777D+03 -.382395628652677D+02
 0.600883554807829D+02 0.172797272698086D+02 0.538981335554939D+02 0.201745554870510D+02
 0.232502219556278D+03 0.184520870564723D+03 0.136687268123198D+03 -.364132003214443D+02
 0.148947978420227D+03 0.896463514678293D+02 -.535341525179145D+02 0.544782076996610D+02
 0.000000000000000D+00 0.000000000000000D+00 0.000000000000000D+00 0.000000000000000D+00
 0.941678088774826D+03 0.000000000000000D+00 0.000000000000000D+00 0.941678088774826D+03
 0.448888293323985D+03 0.000000000000000D+00 0.000000000000000D+00 -.448888293323985D+03
 0.446296007187660D+03 -.352724046711628D+03 -.258527354027623D+03 -.382395628652677D+02
 0.437522678473590D+02 0.912659318346962D+01 0.377353090559808D+02 0.201745554870510D+02
 0.173309084192193D+03 0.152658253920388D+03 0.735226156761666D+02 -.364132003214443D+02
 0.160954350315795D+03 0.653141088553301D+02 -.101770543930188D+03 0.544782076996610D+02
 0.566254672555803D+03 0.125625090752440D+03 0.249039973225663D+03 0.492789795450841D+03
0.659694910482D-04 0.000000000000D+00 0.000000000000D+00 0.395523473548D-05 0.000000000000D+00  7 1 -2 -24 -11 11 23 21 0 0.71886081D-01 0.49526687D-01 0.14319120D+06 0.14319120D+06 0.14319120D+06 0.11091475D+01  1  2  2  2  7  2       -2 0.138162673584D-02 0.100000000000D+01
-.366226822399D-05 0.000000000000D+00 -.253340215791D-06 0.395523473548D-05 0.000000000000D+00  7 1 -2 -24 -11 11 23 21 2 0.71886081D-01 0.49526687D-01 0.14319120D+06 0.14319120D+06 0.14319120D+06 0.11091475D+01  1  2  3  2  7  2       -2 -.943574862874D-04 0.100000000000D+01
0.428561433898D-05 0.000000000000D+00 0.000000000000D+00 0.395523473548D-05 0.000000000000D+00  7 1 -2 -24 -11 11 23 21 2 0.71886081D-01 0.49526687D-01 0.14319120D+06 0.14319120D+06 0.14319120D+06 0.11091475D+01  1  2 15  2  7  2       -2 0.110417853497D-03 0.100000000000D+01
  </mgrwgt>
  </event>
  <event>
  8     66 0.29493621E-05 0.46078746E+03 0.75467711E-02 0.86656925E-01
        1 -1    0    0  501    0 0.00000000E+00 0.00000000E+00 0.73826909E+03 0.73826916E+03 0.32000000E+00 0.0000E+00 0.9000E+01
       -2 -1    0    0    0  501 0.00000000E+00 0.00000000E+00 -.51300083E+03 0.51300093E+03 0.32000000E+00 0.0000E+00 0.9000E+01
       25  2    1    2    0    0 0.36258858E+03 0.22802557E+03 0.51015928E+03 0.73060105E+03 0.30008210E+03 0.0000E+00 0.0000E+00
       23  2    3    3    0    0 0.31558274E+03 0.13412595E+03 0.24311541E+03 0.42951242E+03 0.88281235E+02 0.0000E+00 0.0000E+00
      -24  1    1    2    0    0 -.36258858E+03 -.22802557E+03 -.28489102E+03 0.52066904E+03 0.80419002E+02 0.0000E+00 0.9000E+01
      -13  1    4    4    0    0 0.25978821E+03 0.87981290E+02 0.15353701E+03 0.31433143E+03 0.10565837E+00 0.0000E+00 0.9000E+01
       13  1    4    4    0    0 0.55794528E+02 0.46144661E+02 0.89578400E+02 0.11518099E+03 0.10565837E+00 0.0000E+00 0.9000E+01
       23  1    3    3    0    0 0.47005843E+02 0.93899622E+02 0.26704387E+03 0.30108864E+03 0.91188000E+02 0.0000E+00 0.9000E+01
#aMCatNLO 1  0  0  2  1 0.88904861D+03 0.00000000D+00  -5  7  0 0.00000000D+00 0.00000000D+00 0.00000000D+00 0.00000000D+00 0.00000000D+00
  <mgrwgt>
 0.1794877369D-02    3    2    0
 0.615412676063959D+03 0.000000000000000D+00 0.000000000000000D+00 0.615412676063959D+03
 0.615412676063959D+03 0.000000000000000D+00 0.000000000000000D+00 -.615412676063959D+03
 0.581459016716898D+03 -.362588579841731D+03 -.228025572252024D+03 -.384917175941142D+03
 0.291452262684328D+03 0.259788501219241D+03 0.879813498831190D+02 0.985577908174652D+02
 0.100699110454506D+03 0.557942359809062D+02 0.461446007386825D+02 0.699856406722355D+02
 0.257214962272186D+03 0.470058426415842D+02 0.938996216302226D+02 0.216373744451441D+03
 0.000000000000000D+00 -.000000000000000D+00 0.000000000000000D+00 0.000000000000000D+00
 0.121155487443677D+04 0.000000000000000D+00 0.000000000000000D+00 0.121155487443677D+04
 0.119596453552773D+04 0.000000000000000D+00 0.000000000000000D+00 -.119596453552773D+04
 0.725964406688321D+03 -.147635693061611D+03 -.592114493678097D+03 -.384917175941142D+03
 0.400208170934894D+03 0.373504076614712D+03 -.104631002596864D+03 0.985577908174652D+02
 0.116008167728881D+03 0.914229804242770D+02 -.142036519899325D+02 0.699856406722355D+02
 0.276153368148808D+03 0.134696685782882D+03 -.546318308964755D+02 0.216373744451441D+03
 0.889185296463602D+03 -.451988049760261D+03 0.765580979161370D+03 0.155903389090367D+02
0.437728861170D-03 0.000000000000D+00 0.000000000000D+00 0.441399025904D-05 0.000000000000D+00  7 1 -2 -24 -13 13 23 21 0 0.11357987D+00 0.78923217D-01 0.21232508D+06 0.21232508D+06 0.21232508D+06 0.10958363D+01  1  2  2  2  7  2       -2 0.176514724239D-02 0.100000000000D+01
-.218426747664D-04 0.000000000000D+00 -.168099408355D-05 0.441399025904D-05 0.000000000000D+00  7 1 -2 -24 -13 13 23 21 2 0.11357987D+00 0.78923217D-01 0.21232508D+06 0.21232508D+06 0.21232508D+06 0.10958363D+01  1  2  3  2  7  2       -2 -.105772536460D-03 0.100000000000D+01
0.279821275843D-04 0.000000000000D+00 0.000000000000D+00 0.441399025904D-05 0.000000000000D+00  7 1 -2 -24 -13 13 23 21 2 0.11357987D+00 0.78923217D-01 0.21232508D+06 0.21232508D+06 0.21232508D+06 0.10958363D+01  1  2 15  2  7  2       -2 0.135502663561D-03 0.100000000000D+01
  </mgrwgt>
  </event>
  <event>
  8     66 0.29493621E-05 0.25570511E+03 0.75467711E-02 0.91661904E-01
        1 -1    0    0  501    0 0.00000000E+00 0.00000000E+00 0.82456442E+03 0.82456448E+03 0.32000000E+00 0.0000E+00 0.9000E+01
       -2 -1    0    0    0  501 0.00000000E+00 0.00000000E+00 -.84293602E+02 0.84294209E+02 0.32000000E+00 0.0000E+00 0.9000E+01
       25  2    1    2    0    0 -.12701472E+03 -.94228759E+02 0.39396345E+03 0.51974713E+03 0.29986344E+03 0.0000E+00 0.0000E+00
       23  2    3    3    0    0 0.61378727E+02 -.61110479E+02 0.13150062E+03 0.18241806E+03 0.92098301E+02 0.0000E+00 0.0000E+00
      -24  1    1    2    0    0 0.12701472E+03 0.94228759E+02 0.34630736E+03 0.38911156E+03 0.80419002E+02 0.0000E+00 0.9000E+01
      -11  1    4    4    0    0 0.80360863E+02 -.30281862E+02 0.11249920E+03 0.14153066E+03 0.51099893E-03 0.0000E+00 0.9000E+01
       11  1    4    4    0    0 -.18982136E+02 -.30828617E+02 0.19001423E+02 0.40887396E+02 0.51099893E-03 0.0000E+00 0.9000E+01
       23  1    3    3    0    0 -.18839345E+03 -.33118281E+02 0.26246283E+03 0.33732907E+03 0.91188000E+02 0.0000E+00 0.9000E+01
#aMCatNLO 1  0  0  2  2 0.55597961D+03 0.00000000D+00  -5  7  0 0.00000000D+00 0.00000000D+00 0.00000000D+00 0.00000000D+00 0.00000000D+00
  <mgrwgt>
 0.1351182930D-02    5    2    0
 0.263639543278624D+03 0.000000000000000D+00 0.000000000000000D+00 0.263639543278624D+03
 0.263639543278624D+03 0.000000000000000D+00 0.000000000000000D+00 -.263639543278624D+03
 0.184506057928142D+03 0.127014721243473D+03 0.942287593315452D+02 0.506307313801902D+02
 0.860104306467882D+02 0.803608634030617D+02 -.302818618068094D+02 -.478901437393117D+01
 0.437997019242662D+02 -.189821364110927D+02 -.308286169025607D+02 -.246513440972371D+02
 0.212962896058052D+03 -.188393448235442D+03 -.331182806221751D+02 -.211903729090219D+02
 0.000000000000000D+00 0.000000000000000D+00 -.000000000000000D+00 -.000000000000000D+00
 0.474523579154770D+03 0.000000000000000D+00 0.000000000000000D+00 0.474523579154770D+03
 0.122862576294880D+04 0.000000000000000D+00 0.000000000000000D+00 -.122862576294880D+04
 0.189485751115010D+03 -.183238817363572D+02 0.162906102768645D+03 0.506307313801902D+02
 0.347373679389630D+02 0.334365299417423D+02 -.810854722549866D+01 -.478901437393117D+01
 0.678589193007856D+02 -.623742846536510D+02 -.103243777931393D+02 -.246513440972371D+02
 0.474166331210364D+03 -.455421761538097D+03 0.930615147255264D+02 -.211903729090219D+02
 0.936900972538444D+03 0.502683397986363D+03 -.237534692475533D+03 -.754102183794027D+03
0.137987719083D-04 0.000000000000D+00 0.000000000000D+00 0.161787694682D-05 0.000000000000D+00  7 1 -2 -24 -11 11 23 21 0 0.12685612D+00 0.12968298D-01 0.65385105D+05 0.65385105D+05 0.65385105D+05 0.11371862D+01  1  2  2  2  7  2       -2 0.128797510047D-02 0.100000000000D+01
-.765728083113D-06 0.000000000000D+00 -.529909174281D-07 0.161787694682D-05 0.000000000000D+00  7 1 -2 -24 -11 11 23 21 2 0.12685612D+00 0.12968298D-01 0.65385105D+05 0.65385105D+05 0.65385105D+05 0.11371862D+01  1  2  3  2  7  2       -2 -.924282552523D-04 0.100000000000D+01
0.886314068005D-06 0.000000000000D+00 0.000000000000D+00 0.161787694682D-05 0.000000000000D+00  7 1 -2 -24 -11 11 23 21 2 0.12685612D+00 0.12968298D-01 0.65385105D+05 0.65385105D+05 0.65385105D+05 0.11371862D+01  1  2 15  2  7  2       -2 0.106983751436D-03 0.100000000000D+01
0.834440766195D-05 0.000000000000D+00 -.822858869021D-05 0.161787694682D-05 0.000000000000D+00  7 1 -2 -24 -11 11 23 21 2 0.12685612D+00 0.10239648D+00 0.65385105D+05 0.65385105D+05 0.65385105D+05 0.11371862D+01  1  2  5  2  7  2       -2 0.210775701055D-04 0.100000000000D+01
0.113077862674D-05 0.000000000000D+00 -.206562806659D-05 0.161787694682D-05 0.000000000000D+00  7 1 21 -24 -11 11 23 2 2 0.12685612D+00 0.10239648D+00 0.65385105D+05 0.65385105D+05 0.65385105D+05 0.11371862D+01  1  2  5  4  7  2       -2 0.275747632589D-04 0.100000000000D+01
  </mgrwgt>
  </event>
  <event>
  8     66 0.29493621E-05 0.45770731E+03 0.75467711E-02 0.89026709E-01
        1 -1    0    0  501    0 0.00000000E+00 0.00000000E+00 0.74193050E+03 0.74193057E+03 0.32000000E+00 0.0000E+00 0.9000E+01
       -2 -1    0    0    0  501 0.00000000E+00 0.00000000E+00 -.69604614E+03 0.69604621E+03 0.32000000E+00 0.0000E+00 0.9000E+01
       25  2    1    2    0    0 -.35912686E+03 -.55294411E+03 -.16154590E+03 0.74212205E+03 0.29988125E+03 0.0000E+00 0.0000E+00
       23  2    3    3    0    0 -.27270838E+03 -.50588737E+03 -.17619679E+03 0.60716876E+03 0.85537725E+02 0.0000E+00 0.0000E+00
      -24  1    1    2    0    0 0.35912686E+03 0.55294411E+03 0.20743027E+03 0.69585474E+03 0.80419002E+02 0.0000E+00 0.9000E+01
      -11  1    4    4    0    0 -.48587154E+02 -.15685776E+03 -.73164577E+02 0.17977242E+03 0.51099893E-03 0.0000E+00 0.9000E+01
       11  1    4    4    0    0 -.22412122E+03 -.34902961E+03 -.10303221E+03 0.42739634E+03 0.51099893E-03 0.0000E+00 0.9000E+01
       23  1    3    3    0    0 -.86418481E+02 -.47056741E+02 0.14650883E+02 0.13495329E+03 0.91188000E+02 0.0000E+00 0.9000E+01
#aMCatNLO 1  0  0  2  1 0.28491768D+03 0.00000000D+00  -5  7  0 0.00000000D+00 0.00000000D+00 0.00000000D+00 0.00000000D+00 0.00000000D+00
  <mgrwgt>
 0.1422739617D-02    9    2    0
 0.718622268690637D+03 0.000000000000000D+00 0.000000000000000D+00 0.718622268690637D+03
 0.718622268690637D+03 0.000000000000000D+00 0.000000000000000D+00 -.718622268690637D+03
 0.689587005142775D+03 0.359126859359452D+03 0.552944108175734D+03 0.185320624399364D+03
 0.182199804449299D+03 -.485871536069719D+02 -.156857755511082D+03 -.789411285817540D+02
 0.430903414693356D+03 -.224121224764631D+03 -.349029611774721D+03 -.116729428632129D+03
 0.134554313095844D+03 -.864184809878492D+02 -.470567408899309D+02 0.103499328145192D+02
 0.000000000000000D+00 0.000000000000000D+00 0.000000000000000D+00 -.000000000000000D+00
 0.833596994816406D+03 0.000000000000000D+00 0.000000000000000D+00 0.833596994816406D+03
 0.933561671401229D+03 0.000000000000000D+00 0.000000000000000D+00 -.933561671401229D+03
 0.628041487029844D+03 0.229861174190909D+03 0.548442339948416D+03 0.185320624399364D+03
 0.196453691905852D+03 -.857348807080345D+02 -.158151451184165D+03 -.789411285817540D+02
 0.486099567244738D+03 -.314083622713669D+03 -.352162615434682D+03 -.116729428632129D+03
 0.154618529303097D+03 -.114787726057223D+03 -.480447197639824D+02 0.103499328145192D+02
 0.301945390734105D+03 0.284745055288018D+03 0.991644643441325D+01 -.999646765848237D+02
0.544987471172D-03 0.000000000000D+00 0.000000000000D+00 0.953464881342D-06 0.000000000000D+00  7 1 -2 -24 -11 11 23 21 0 0.11414317D+00 0.10708403D+00 0.47429138D+06 0.47429138D+06 0.47429138D+06 0.10701344D+01  1  2  2  2  7  2       -2 0.102864827482D-02 0.100000000000D+01
-.302104410616D-04 0.000000000000D+00 -.209289538780D-05 0.953464881342D-06 0.000000000000D+00  7 1 -2 -24 -11 11 23 21 2 0.11414317D+00 0.10708403D+00 0.47429138D+06 0.47429138D+06 0.47429138D+06 0.10701344D+01  1  2  3  2  7  2       -2 -.653001350794D-04 0.100000000000D+01
0.346199516582D-04 0.000000000000D+00 0.000000000000D+00 0.953464881342D-06 0.000000000000D+00  7 1 -2 -24 -11 11 23 21 2 0.11414317D+00 0.10708403D+00 0.47429138D+06 0.47429138D+06 0.47429138D+06 0.10701344D+01  1  2 15  2  7  2       -2 0.748313311651D-04 0.100000000000D+01
0.264696493934D-03 0.000000000000D+00 0.000000000000D+00 0.953464881342D-06 0.000000000000D+00  7 1 -2 -24 -11 11 23 21 2 0.11414317D+00 0.14561743D+00 0.71490225D+06 0.71490225D+06 0.71490225D+06 0.10577063D+01  1  2 12  2  7  2       -2 0.245713905556D-03 0.100000000000D+01
-.318641118946D-03 0.000000000000D+00 0.000000000000D+00 0.953464881342D-06 0.000000000000D+00  7 1 -2 -24 -11 11 23 21 2 0.11414317D+00 0.10708403D+00 0.47429138D+06 0.47429138D+06 0.47429138D+06 0.10701344D+01  1  2  4  2  7  2       -2 -.688745591850D-03 0.100000000000D+01
-.567752849868D-03 0.000000000000D+00 -.223003235679D-03 0.953464881342D-06 0.000000000000D+00  7 1 -2 -24 -11 11 23 21 2 0.11414317D+00 0.15440684D+00 0.47429138D+06 0.47429138D+06 0.47429138D+06 0.10701344D+01  1  2  5  2  7  2       -2 -.468326300483D-03 0.100000000000D+01
0.621427604817D-03 0.000000000000D+00 0.208859200152D-03 0.953464881342D-06 0.000000000000D+00  7 1 -2 -24 -11 11 23 21 2 0.11414317D+00 0.10708403D+00 0.47429138D+06 0.47429138D+06 0.47429138D+06 0.10701344D+01  1  2  6  2  7  2       -2 0.134322125433D-02 0.100000000000D+01
0.104127593859D-04 0.000000000000D+00 0.000000000000D+00 0.953464881342D-06 0.000000000000D+00  7 1 21 -24 -11 11 23 2 2 0.11414317D+00 0.14561743D+00 0.71490225D+06 0.71490225D+06 0.71490225D+06 0.10577063D+01  1  2 12  4  7  2       -2 0.804835776232D-04 0.100000000000D+01
-.186044724828D-04 0.000000000000D+00 -.994929241873D-05 0.953464881342D-06 0.000000000000D+00  7 1 21 -24 -11 11 23 2 2 0.11414317D+00 0.15440684D+00 0.47429138D+06 0.47429138D+06 0.47429138D+06 0.10701344D+01  1  2  5  4  7  2       -2 -.127786699546D-03 0.100000000000D+01
  </mgrwgt>
  </event>
  <event>
  8     66 0.29493621E-05 0.18244295E+03 0.75467711E-02 0.10241855E+00
        1 -1    0    0  501    0 0.00000000E+00 0.00000000E+00 0.26795521E+03 0.26795540E+03 0.32000000E+00 0.0000E+00 0.9000E+01
       -2 -1    0    0    0  501 0.00000000E+00 0.00000000E+00 -.16668221E+03 0.16668251E+03 0.32000000E+00 0.0000E+00 0.9000E+01
       25  2    1    2    0    0 -.27972986E+02 -.17248356E+02 0.12513830E+01 0.30215571E+03 0.30036064E+03 0.0000E+00 0.0000E+00
       23  2    3    3    0    0 -.85723331E+02 -.80075321E+02 0.56412976E+02 0.16562593E+03 0.10241571E+03 0.0000E+00 0.0000E+00
      -24  1    1    2    0    0 0.27972986E+02 0.17248356E+02 0.10002162E+03 0.13248220E+03 0.80419002E+02 0.0000E+00 0.9000E+01
      -11  1    4    4    0    0 -.34803517E+02 0.20498523E+02 0.28671835E+02 0.49533306E+02 0.51099893E-03 0.0000E+00 0.9000E+01
       11  1    4    4    0    0 -.50919814E+02 -.10057384E+03 0.27741142E+02 0.11609262E+03 0.51099893E-03 0.0000E+00 0.9000E+01
       23  1    3    3    0    0 0.57750345E+02 0.62826965E+02 -.55161593E+02 0.13652979E+03 0.91188000E+02 0.0000E+00 0.9000E+01
#aMCatNLO 1  0  0  1  1 0.14728298D+03 0.00000000D+00  -5  7  0 0.00000000D+00 0.00000000D+00 0.00000000D+00 0.00000000D+00 0.00000000D+00
  <mgrwgt>
 0.1094829558D-02    3    2    0
 0.211337347477155D+03 0.000000000000000D+00 0.000000000000000D+00 0.211337347477155D+03
 0.211337347477155D+03 0.000000000000000D+00 0.000000000000000D+00 -.211337347477155D+03
 0.112266714105699D+03 0.279729856796331D+02 0.172483559956902D+02 0.711098124686965D+02
 0.440654950138313D+02 -.348035171977022D+02 0.204985215847917D+02 0.176151541100571D+02
 0.112731674085480D+03 -.509198145956778D+02 -.100573843690847D+03 0.710484979275265D+00
 0.153610811749300D+03 0.577503461137469D+02 0.628269661103648D+02 -.894354515580289D+02
 0.000000000000000D+00 0.000000000000000D+00 0.000000000000000D+00 -.000000000000000D+00
 0.235049704904632D+03 0.000000000000000D+00 0.000000000000000D+00 0.235049704904632D+03
 0.705873329596736D+03 0.000000000000000D+00 0.000000000000000D+00 -.705873329596736D+03
 0.108510261859151D+03 0.744617791333128D+01 -.139717564937532D+02 0.711098124686965D+02
 0.473583235086698D+02 -.433036750600485D+02 0.757026271172252D+01 0.176151541100571D+02
 0.158410424468617D+03 -.761293352445056D+02 -.138916097363306D+03 0.710484979275265D+00
 0.133321451708297D+03 0.310727299891302D+02 0.222518223353044D+02 -.894354515580289D+02
 0.493322572956632D+03 0.809141024020926D+02 0.123065768810032D+03 -.470823624692104D+03
0.746448618152D-05 0.000000000000D+00 0.000000000000D+00 0.106453888980D-07 0.000000000000D+00  7 1 -2 -24 -11 11 23 21 0 0.41223917D-01 0.25643455D-01 0.33285430D+05 0.33285430D+05 0.33285430D+05 0.11631714D+01  1  2  2  1  7  1        1 0.108308490656D-02 0.100000000000D+01
-.403795578594D-06 0.000000000000D+00 -.286655923814D-07 0.106453888980D-07 0.000000000000D+00  7 1 -2 -24 -11 11 23 21 2 0.41223917D-01 0.25643455D-01 0.33285430D+05 0.33285430D+05 0.33285430D+05 0.11631714D+01  1  2  3  1  7  1        1 -.792705003288D-04 0.100000000000D+01
0.463621593529D-06 0.000000000000D+00 0.000000000000D+00 0.106453888980D-07 0.000000000000D+00  7 1 -2 -24 -11 11 23 21 2 0.41223917D-01 0.25643455D-01 0.33285430D+05 0.33285430D+05 0.33285430D+05 0.11631714D+01  1  2 15  1  7  1        1 0.910151513057D-04 0.100000000000D+01
  </mgrwgt>
  </event>
  <event>
  8     66 0.29493621E-05 0.27718132E+03 0.75467711E-02 0.95994056E-01
        1 -1    0    0  501    0 0.00000000E+00 0.00000000E+00 0.10476524E+04 0.10476525E+04 0.32000000E+00 0.0000E+00 0.9000E+01
       -2 -1    0    0    0  501 0.00000000E+00 0.00000000E+00 -.22352680E+03 0.22352703E+03 0.32000000E+00 0.0000E+00 0.9000E+01
       25  2    1    2    0    0 -.15226650E+03 -.10654369E+03 -.65766986E+02 0.35853898E+03 0.29947997E+03 0.0000E+00 0.0000E+00
       23  2    3    3    0    0 0.91882579E+01 0.58674638E+02 -.16680336E+02 0.10537996E+03 0.85437495E+02 0.0000E+00 0.0000E+00
      -24  1    1    2    0    0 0.15226650E+03 0.10654369E+03 0.88989262E+03 0.91264053E+03 0.80419002E+02 0.0000E+00 0.9000E+01
      -13  1    4    4    0    0 0.43008005E+02 0.54517414E+02 -.61301446E+01 0.69709589E+02 0.10565837E+00 0.0000E+00 0.9000E+01
       13  1    4    4    0    0 -.33819748E+02 0.41572249E+01 -.10550192E+02 0.35670374E+02 0.10565837E+00 0.0000E+00 0.9000E+01
       23  1    3    3    0    0 -.16145476E+03 -.16521833E+03 -.49086649E+02 0.25315901E+03 0.91188000E+02 0.0000E+00 0.9000E+01
#aMCatNLO 1  0  0  2  1 0.28850755D+03 0.00000000D+00  -5  7  0 0.00000000D+00 0.00000000D+00 0.00000000D+00 0.00000000D+00 0.00000000D+00
  <mgrwgt>
 0.2339681440D-02    4    2    0
 0.483920002614501D+03 0.000000000000000D+00 0.000000000000000D+00 0.483920002614501D+03
 0.483920002614501D+03 0.000000000000000D+00 0.000000000000000D+00 -.483920002614501D+03
 0.440926822792763D+03 0.152266502952172D+03 0.106543688304605D+03 0.391679207598408D+03
 0.967778454992781D+02 0.430081228288062D+02 0.545174905976411D+02 -.674099100218995D+02
 0.558336815801227D+02 -.338198648422579D+02 0.415714792533320D+01 -.442304743583973D+02
 0.374301655356838D+03 -.161454760938720D+03 -.165218326827580D+03 -.280038823218112D+03
 0.000000000000000D+00 0.000000000000000D+00 0.000000000000000D+00 0.000000000000000D+00
 0.779475104354347D+03 0.000000000000000D+00 0.000000000000000D+00 0.779475104354347D+03
 0.580767246997618D+03 0.000000000000000D+00 0.000000000000000D+00 -.580767246997618D+03
 0.427932355509392D+03 0.151123753805160D+03 -.201963934494946D+02 0.391679207598408D+03
 0.846199135810084D+02 0.427695431606211D+02 0.280570843661369D+02 -.674099100218995D+02
 0.571133134432059D+02 -.339684160522166D+02 -.123183773848896D+02 -.442304743583973D+02
 0.440260595263726D+03 -.162526097169413D+03 -.284038141149150D+03 -.280038823218112D+03
 0.350316173554631D+03 0.260121625584836D+01 0.288495827617397D+03 0.198707857356729D+03
0.216116176993D-03 0.000000000000D+00 0.000000000000D+00 0.466316594207D-06 0.000000000000D+00  7 1 -2 -24 -13 13 23 21 0 0.16117732D+00 0.34388759D-01 0.76829486D+05 0.76829486D+05 0.76829486D+05 0.11312386D+01  1  2  2  2  7  2       -2 0.265844671295D-02 0.100000000000D+01
-.747337963053D-05 0.000000000000D+00 -.829943024351D-06 0.466316594207D-06 0.000000000000D+00  7 1 -2 -24 -13 13 23 21 2 0.16117732D+00 0.34388759D-01 0.76829486D+05 0.76829486D+05 0.76829486D+05 0.11312386D+01  1  2  3  2  7  2       -2 -.117643022775D-03 0.100000000000D+01
0.130117950019D-04 0.000000000000D+00 0.000000000000D+00 0.466316594207D-06 0.000000000000D+00  7 1 -2 -24 -13 13 23 21 2 0.16117732D+00 0.34388759D-01 0.76829486D+05 0.76829486D+05 0.76829486D+05 0.11312386D+01  1  2 15  2  7  2       -2 0.204826594049D-03 0.100000000000D+01
-.257882681799D-04 0.000000000000D+00 0.000000000000D+00 0.466316594207D-06 0.000000000000D+00  7 1 -2 -24 -13 13 23 21 2 0.16117732D+00 0.34388759D-01 0.76829486D+05 0.76829486D+05 0.76829486D+05 0.11312386D+01  1  2  4  2  7  2       -2 -.405948843869D-03 0.100000000000D+01
  </mgrwgt>
  </event>
  <event>
  8     66 0.29493621E-05 0.21096503E+03 0.75467711E-02 0.91847423E-01
        1 -1    0    0  501    0 0.00000000E+00 0.00000000E+00 0.17771185E+04 0.17771185E+04 0.32000000E+00 0.0000E+00 0.9000E+01
       -2 -1    0    0    0  501 0.00000000E+00 0.00000000E+00 -.56213431E+02 0.56214341E+02 0.32000000E+00 0.0000E+00 0.9000E+01
       25  2    1    2    0    0 -.50676683E+01 0.12218910E+03 0.16285006E+04 0.16602385E+04 0.29903486E+03 0.0000E+00 0.0000E+00
       23  2    3    3    0    0 0.74361480E+02 -.21310107E+02 0.90613707E+03 0.91389721E+03 0.90221820E+02 0.0000E+00 0.0000E+00
      -24  1    1    2    0    0 0.50676683E+01 -.12218910E+03 0.92404474E+02 0.17309436E+03 0.80419002E+02 0.0000E+00 0.9000E+01
      -13  1    4    4    0    0 0.65818818E+02 -.32837887E+02 0.35338856E+03 0.36096250E+03 0.10565837E+00 0.0000E+00 0.9000E+01
       13  1    4    4    0    0 0.85426619E+01 0.11527780E+02 0.55274851E+03 0.55293471E+03 0.10565837E+00 0.0000E+00 0.9000E+01
       23  1    3    3    0    0 -.79429148E+02 0.14349920E+03 0.72236354E+03 0.74634130E+03 0.91188000E+02 0.0000E+00 0.9000E+01
#aMCatNLO 1  0  0  2  1 0.56298381D+03 0.00000000D+00  -5  7  0 0.00000000D+00 0.00000000D+00 0.00000000D+00 0.00000000D+00 0.00000000D+00
  <mgrwgt>
 0.1133663399D-02    5    2    0
 0.316067697236930D+03 0.000000000000000D+00 0.000000000000000D+00 0.316067697236930D+03
 0.316067697236930D+03 0.000000000000000D+00 0.000000000000000D+00 -.316067697236930D+03
 0.250453087783139D+03 0.506766829956990D+01 -.122189095783671D+03 -.203233060389575D+03
 0.848176621645889D+02 0.658188961612194D+02 -.328379472123985D+02 0.422324276600419D+02
 0.988485661654181D+02 0.854258349043202D+01 0.115278405984856D+02 0.978016983053155D+02
 0.198016078360714D+03 -.794291479512213D+02 0.143499202397584D+03 0.631989344242177D+02
 0.000000000000000D+00 0.000000000000000D+00 0.000000000000000D+00 -.000000000000000D+00
 0.496276146742076D+03 0.000000000000000D+00 0.000000000000000D+00 0.496276146742076D+03
 0.150823279761776D+04 0.000000000000000D+00 0.000000000000000D+00 -.150823279761776D+04
 0.421180941859548D+03 -.143969002203417D+03 -.329993059624844D+03 -.203233060389575D+03
 0.103181200926037D+03 0.241016463246085D+02 -.910049060376529D+02 0.422324276600419D+02
 0.119590853346925D+03 -.399294747345576D+02 -.560574442894448D+02 0.978016983053155D+02
 0.202537365325433D+03 -.168312600800161D+03 0.195677313068544D+02 0.631989344242177D+02
 0.115801858290189D+04 0.328109431413526D+03 0.457487678645087D+03 -.101195665087568D+04
0.274279519775D-04 0.000000000000D+00 0.000000000000D+00 0.724239414214D-06 0.000000000000D+00  7 1 -2 -24 -13 13 23 21 0 0.27340292D+00 0.86482924D-02 0.44506245D+05 0.44506245D+05 0.44506245D+05 0.11517684D+01  1  2  2  2  7  2       -2 0.104389063162D-02 0.100000000000D+01
-.122099135902D-05 0.000000000000D+00 -.105330557539D-06 0.724239414214D-06 0.000000000000D+00  7 1 -2 -24 -13 13 23 21 2 0.27340292D+00 0.86482924D-02 0.44506245D+05 0.44506245D+05 0.44506245D+05 0.11517684D+01  1  2  3  2  7  2       -2 -.616459445504D-04 0.100000000000D+01
0.170494697009D-05 0.000000000000D+00 0.000000000000D+00 0.724239414214D-06 0.000000000000D+00  7 1 -2 -24 -13 13 23 21 2 0.27340292D+00 0.86482924D-02 0.44506245D+05 0.44506245D+05 0.44506245D+05 0.11517684D+01  1  2 15  2  7  2       -2 0.860801066309D-04 0.100000000000D+01
0.181527971588D-04 0.000000000000D+00 -.164351712992D-04 0.724239414214D-06 0.000000000000D+00  7 1 -2 -24 -13 13 23 21 2 0.27340292D+00 0.68324178D-01 0.44506245D+05 0.44506245D+05 0.44506245D+05 0.11517684D+01  1  2  5  2  7  2       -2 0.259594177073D-04 0.100000000000D+01
0.263098254540D-05 0.000000000000D+00 -.412669604219D-05 0.724239414214D-06 0.000000000000D+00  7 1 21 -24 -13 13 23 2 2 0.27340292D+00 0.68324178D-01 0.44506245D+05 0.44506245D+05 0.44506245D+05 0.11517684D+01  1  2  5  4  7  2       -2 0.393791880859D-04 0.100000000000D+01
  </mgrwgt>
  </event>
  <event>
  8     66 0.29493621E-05 0.22214642E+03 0.75467711E-02 0.10282812E+00
        3 -1    0    0  501    0 0.00000000E+00 0.00000000E+00 0.27704663E+03 0.27704708E+03 0.50000000E+00 0.0000E+00 0.9000E+01
       -4 -1    0    0    0  501 0.00000000E+00 0.00000000E+00 -.20064368E+03 0.20064966E+03 0.15500000E+01 0.0000E+00 0.9000E+01
       25  2    1    2    0    0 -.92794139E+02 0.78507817E+02 0.30966554E+02 0.32503400E+03 0.29985654E+03 0.0000E+00 0.0000E+00
       23  2    3    3    0    0 0.41560218E+02 0.10903355E+03 -.24224217E+02 0.15083818E+03 0.92464995E+02 0.0000E+00 0.0000E+00
      -24  1    1    2    0    0 0.92794139E+02 -.78507817E+02 0.45436399E+02 0.15266274E+03 0.80419002E+02 0.0000E+00 0.9000E+01
      -11  1    4    4    0    0 -.16857724E+02 0.36413357E+02 -.39601849E+02 0.56377495E+02 0.51099893E-03 0.0000E+00 0.9000E+01
       11  1    4    4    0    0 0.58417942E+02 0.72620195E+02 0.15377632E+02 0.94460681E+02 0.51099893E-03 0.0000E+00 0.9000E+01
       23  1    3    3    0    0 -.13435436E+03 -.30525735E+02 0.55190771E+02 0.17419583E+03 0.91188000E+02 0.0000E+00 0.9000E+01
#aMCatNLO 1  0  0  1  1 0.63187738D+02 0.00000000D+00  -5  7  0 0.00000000D+00 0.00000000D+00 0.00000000D+00 0.00000000D+00 0.00000000D+00
  <mgrwgt>
 0.1632032108D-03    4    2    0
 0.235773602262858D+03 0.000000000000000D+00 0.000000000000000D+00 0.235773602262858D+03
 0.235773602262858D+03 0.000000000000000D+00 0.000000000000000D+00 -.235773602262858D+03
 0.147291760917496D+03 0.927941394393122D+02 -.785078169774837D+02 0.212935961958919D+02
 0.635292575387794D+02 -.168577244617847D+02 0.364133571951648D+02 -.492529299349434D+02
 0.932009827477756D+02 0.584179420425669D+02 0.726201945756275D+02 0.273079586304380D+00
 0.167525203321664D+03 -.134354357020094D+03 -.305257347933086D+02 0.276862541527471D+02
 0.000000000000000D+00 0.000000000000000D+00 -.000000000000000D+00 -.000000000000000D+00
 0.242523304185206D+03 0.000000000000000D+00 0.000000000000000D+00 0.242523304185206D+03
 0.452897016506045D+03 0.000000000000000D+00 0.000000000000000D+00 -.452897016506045D+03
 0.134937062286149D+03 0.873405310987500D+02 -.604897446885023D+02 0.212935961958919D+02
 0.694216870101160D+02 -.194267830428577D+02 0.449012207045621D+02 -.492529299349434D+02
 0.101080164402030D+03 0.546637780543421D+02 0.850235051730201D+02 0.273079586304380D+00
 0.170323060752599D+03 -.140882719679462D+03 -.895680226651086D+01 0.276862541527471D+02
 0.219658346240356D+03 0.183051935692273D+02 -.604781789225691D+02 -.210373712320839D+03
0.910020379409D-05 0.000000000000D+00 0.000000000000D+00 0.625646889915D-06 0.000000000000D+00  7 3 -4 -24 -11 11 23 21 0 0.42623054D-01 0.30868753D-01 0.49349033D+05 0.49349033D+05 0.49349033D+05 0.11477963D+01  1  2  2  1  7  1        3 0.167543562308D-03 0.100000000000D+01
-.503388117607D-06 0.000000000000D+00 -.349471787080D-07 0.625646889915D-06 0.000000000000D+00  7 3 -4 -24 -11 11 23 21 2 0.42623054D-01 0.30868753D-01 0.49349033D+05 0.49349033D+05 0.49349033D+05 0.11477963D+01  1  2  3  1  7  1        3 -.122098197695D-04 0.100000000000D+01
0.595576475765D-06 0.000000000000D+00 0.000000000000D+00 0.625646889915D-06 0.000000000000D+00  7 3 -4 -24 -11 11 23 21 2 0.42623054D-01 0.30868753D-01 0.49349033D+05 0.49349033D+05 0.49349033D+05 0.11477963D+01  1  2 15  1  7  1        3 0.144458742146D-04 0.100000000000D+01
-.271132961178D-06 0.000000000000D+00 0.000000000000D+00 0.625646889915D-06 0.000000000000D+00  7 3 -4 -24 -11 11 23 21 2 0.42623054D-01 0.30868753D-01 0.49349033D+05 0.49349033D+05 0.49349033D+05 0.11477963D+01  1  2  4  1  7  1        3 -.657640590584D-05 0.100000000000D+01
  </mgrwgt>
  </event>
  <event>
  8     66 0.29493621E-05 0.12213341E+03 0.75467711E-02 0.10289960E+00
        1 -1    0    0  501    0 0.00000000E+00 0.00000000E+00 0.60377350E+03 0.60377359E+03 0.32000000E+00 0.0000E+00 0.9000E+01
       -2 -1    0    0    0  501 0.00000000E+00 0.00000000E+00 -.10485354E+03 0.10485403E+03 0.32000000E+00 0.0000E+00 0.9000E+01
       25  2    1    2    0    0 0.22394802E+02 0.10825932E+03 0.20643521E+03 0.38577138E+03 0.30656557E+03 0.0000E+00 0.0000E+00
       23  2    3    3    0    0 0.34528448E+02 0.12440105E+03 0.23956160E+03 0.28667350E+03 0.90133763E+02 0.0000E+00 0.0000E+00
      -24  1    1    2    0    0 -.22394802E+02 -.10825932E+03 0.29248475E+03 0.32285624E+03 0.80419002E+02 0.0000E+00 0.9000E+01
      -11  1    4    4    0    0 -.28802164E+02 0.59002838E+02 0.11445242E+03 0.13194793E+03 0.51099893E-03 0.0000E+00 0.9000E+01
       11  1    4    4    0    0 0.63330612E+02 0.65398214E+02 0.12510919E+03 0.15472557E+03 0.51099893E-03 0.0000E+00 0.9000E+01
       23  1    3    3    0    0 -.12133646E+02 -.16141730E+02 -.33126394E+02 0.99097882E+02 0.91188000E+02 0.0000E+00 0.9000E+01
#aMCatNLO 1  0  0  1  2 0.11207848D+03 0.00000000D+00  -5  7  0 0.00000000D+00 0.00000000D+00 0.00000000D+00 0.00000000D+00 0.00000000D+00
  <mgrwgt>
 0.6960259762D-03    9    2    0
 0.251610798438001D+03 0.000000000000000D+00 0.000000000000000D+00 0.251610798438001D+03
 0.251610798438001D+03 0.000000000000000D+00 0.000000000000000D+00 -.251610798438001D+03
 0.164655832677952D+03 -.223948025899991D+02 -.108259323938196D+03 0.917753718483284D+02
 0.723326455875356D+02 -.288021645042894D+02 0.590028379439651D+02 0.303498278762511D+02
 0.938420383068931D+02 0.633306122740024D+02 0.653982137645240D+02 0.227735666728336D+02
 0.172391080303621D+03 -.121336451797139D+02 -.161417277702935D+02 -.144898766397413D+03
 0.000000000000000D+00 -.000000000000000D+00 -.000000000000000D+00 0.000000000000000D+00
 0.322880416890428D+03 0.000000000000000D+00 0.000000000000000D+00 0.322880416890428D+03
 0.306012042467994D+03 0.000000000000000D+00 0.000000000000000D+00 -.306012042467994D+03
 0.162034061948443D+03 0.134579848777360D+02 -.105754361812045D+03 0.917753718483284D+02
 0.686216099686434D+02 -.133330512863619D+02 0.600836337613313D+02 0.303498278762511D+02
 0.111227396583374D+03 0.858360860770946D+02 0.669706259391298D+02 0.227735666728336D+02
 0.173668636163160D+03 0.258448955395121D+02 -.134882435413825D+02 -.144898766397413D+03
 0.113340754694801D+03 -.111805915207981D+03 -.781165434703373D+01 0.168683744224337D+02
0.565946473954D-05 0.000000000000D+00 0.000000000000D+00 0.729775356681D-08 0.000000000000D+00  7 1 -2 -24 -11 11 23 21 0 0.92888275D-01 0.16131358D-01 0.37403261D+05 0.37403261D+05 0.37403261D+05 0.11585515D+01  1  2  2  1  7  1        1 0.595657099375D-03 0.100000000000D+01
-.287947099860D-06 0.000000000000D+00 -.217338347711D-07 0.729775356681D-08 0.000000000000D+00  7 1 -2 -24 -11 11 23 21 2 0.92888275D-01 0.16131358D-01 0.37403261D+05 0.37403261D+05 0.37403261D+05 0.11585515D+01  1  2  3  1  7  1        1 -.406784463919D-04 0.100000000000D+01
0.363192571373D-06 0.000000000000D+00 0.000000000000D+00 0.729775356681D-08 0.000000000000D+00  7 1 -2 -24 -11 11 23 21 2 0.92888275D-01 0.16131358D-01 0.37403261D+05 0.37403261D+05 0.37403261D+05 0.11585515D+01  1  2 15  1  7  1        1 0.513084158573D-04 0.100000000000D+01
0.127853882616D-05 0.000000000000D+00 0.000000000000D+00 0.729775356681D-08 0.000000000000D+00  7 1 -2 -24 -11 11 23 21 2 0.12682994D+00 0.16131358D-01 0.65476407D+05 0.65476407D+05 0.65476407D+05 0.11371343D+01  1  2 12  1  7  1        1 0.109207997045D-03 0.100000000000D+01
-.259719625561D-05 0.000000000000D+00 0.000000000000D+00 0.729775356681D-08 0.000000000000D+00  7 1 -2 -24 -11 11 23 21 2 0.92888275D-01 0.16131358D-01 0.37403261D+05 0.37403261D+05 0.37403261D+05 0.11585515D+01  1  2  4  1  7  1        1 -.366907354526D-03 0.100000000000D+01
-.389534495082D-05 0.000000000000D+00 -.233837511591D-05 0.729775356681D-08 0.000000000000D+00  7 1 -2 -24 -11 11 23 21 2 0.13853809D+00 0.16131358D-01 0.37403261D+05 0.37403261D+05 0.37403261D+05 0.11585515D+01  1  2  5  1  7  1        1 -.301012176844D-03 0.100000000000D+01
0.463034527967D-05 0.000000000000D+00 0.216322156141D-05 0.729775356681D-08 0.000000000000D+00  7 1 -2 -24 -11 11 23 21 2 0.92888275D-01 0.16131358D-01 0.37403261D+05 0.37403261D+05 0.37403261D+05 0.11585515D+01  1  2  6  1  7  1        1 0.654131444027D-03 0.100000000000D+01
0.507765432018D-07 0.000000000000D+00 0.000000000000D+00 0.729775356681D-08 0.000000000000D+00  7 21 -2 -24 -11 11 23 -1 2 0.12682994D+00 0.16131358D-01 0.65476407D+05 0.65476407D+05 0.65476407D+05 0.11371343D+01  1  2 12  3  7  1        1 0.772709464900D-05 0.100000000000D+01
-.105586276435D-06 0.000000000000D+00 -.111254640486D-06 0.729775356681D-08 0.000000000000D+00  7 21 -2 -24 -11 11 23 -1 2 0.13853809D+00 0.16131358D-01 0.37403261D+05 0.37403261D+05 0.37403261D+05 0.11585515D+01  1  2  5  3  7  1        1 -.134080969826D-04 0.100000000000D+01
  </mgrwgt>
  </event>
  <event>
  8     66 0.29493621E-05 0.10016853E+04 0.75467711E-02 0.86830429E-01
        1 -1    0    0  501    0 0.00000000E+00 0.00000000E+00 0.14646719E+04 0.14646719E+04 0.32000000E+00 0.0000E+00 0.9000E+01
       -2 -1    0    0    0  501 0.00000000E+00 0.00000000E+00 -.76164930E+03 0.76164937E+03 0.32000000E+00 0.0000E+00 0.9000E+01
       25  2    1    2    0    0 -.97032480E+03 0.18524278E+03 0.67744593E+03 0.12348746E+04 0.30022860E+03 0.0000E+00 0.0000E+00
       23  2    3    3    0    0 -.25181876E+03 0.13920379E+02 0.78361786E+02 0.27945881E+03 0.91379379E+02 0.0000E+00 0.0000E+00
      -24  1    1    2    0    0 0.97032480E+03 -.18524278E+03 0.25576641E+02 0.99144666E+03 0.80419002E+02 0.0000E+00 0.9000E+01
      -13  1    4    4    0    0 -.22954092E+03 -.16680392E+02 0.63037861E+02 0.23862325E+03 0.10565837E+00 0.0000E+00 0.9000E+01
       13  1    4    4    0    0 -.22277837E+02 0.30600771E+02 0.15323924E+02 0.40835561E+02 0.10565837E+00 0.0000E+00 0.9000E+01
       23  1    3    3    0    0 -.71850604E+03 0.17132240E+03 0.59908414E+03 0.95541580E+03 0.91188000E+02 0.0000E+00 0.9000E+01
#aMCatNLO 1  0  0  2  2 0.11153147D+03 0.00000000D+00  -5  7  0 0.00000000D+00 0.00000000D+00 0.00000000D+00 0.00000000D+00 0.00000000D+00
  <mgrwgt>
 0.1973500388D-02    4    2    0
 0.105620377577549D+04 0.000000000000000D+00 0.000000000000000D+00 0.105620377577549D+04
 0.105620377577549D+04 0.000000000000000D+00 0.000000000000000D+00 -.105620377577549D+04
 0.103639935951701D+04 0.970324797902675D+03 -.185242780191381D+03 -.303003820792754D+03
 0.230512107060737D+03 -.229541200635561D+03 -.166804549865835D+02 -.129781020879983D+02
 0.379375036709044D+02 -.222775598677489D+02 0.306008343163277D+02 0.255997075440630D+01
 0.807558581302324D+03 -.718506037399365D+03 0.171322400861636D+03 0.313421952126346D+03
 0.000000000000000D+00 -.000000000000000D+00 0.000000000000000D+00 0.000000000000000D+00
 0.145330167175827D+04 0.000000000000000D+00 0.000000000000000D+00 0.145330167175827D+04
 0.106553540119108D+04 0.000000000000000D+00 0.000000000000000D+00 -.106553540119108D+04
 0.105410544942709D+04 0.977389245263411D+03 -.239937555180340D+03 -.303003820792754D+03
 0.230154162994521D+03 -.227984470126380D+03 -.287330644222931D+02 -.129781020879983D+02
 0.362373144961529D+02 -.220269007464728D+02 0.286601666976086D+02 0.255997075440630D+01
 0.794852910069961D+03 -.713091004827995D+03 0.129397820929864D+03 0.313421952126346D+03
 0.403487235961628D+03 -.142868695625632D+02 0.110612631975161D+03 0.387766270567187D+03
0.498405607206D-02 0.000000000000D+00 0.000000000000D+00 0.504824188727D-04 0.000000000000D+00  7 1 -2 -24 -13 13 23 21 0 0.22533414D+00 0.11717682D+00 0.10033734D+07 0.10033734D+07 0.10033734D+07 0.10477666D+01  1  2  2  2  7  2       -2 0.202841369967D-02 0.100000000000D+01
-.275946422811D-03 0.000000000000D+00 -.191400876488D-04 0.504824188727D-04 0.000000000000D+00  7 1 -2 -24 -13 13 23 21 2 0.22533414D+00 0.11717682D+00 0.10033734D+07 0.10033734D+07 0.10033734D+07 0.10477666D+01  1  2  3  2  7  2       -2 -.123289898165D-03 0.100000000000D+01
0.312591726891D-03 0.000000000000D+00 0.000000000000D+00 0.504824188727D-04 0.000000000000D+00  7 1 -2 -24 -13 13 23 21 2 0.22533414D+00 0.11717682D+00 0.10033734D+07 0.10033734D+07 0.10033734D+07 0.10477666D+01  1  2 15  2  7  2       -2 0.139662626474D-03 0.100000000000D+01
-.159551820916D-03 0.000000000000D+00 0.000000000000D+00 0.504824188727D-04 0.000000000000D+00  7 1 -2 -24 -13 13 23 21 2 0.22533414D+00 0.11717682D+00 0.10033734D+07 0.10033734D+07 0.10033734D+07 0.10477666D+01  1  2  4  2  7  2       -2 -.712860400670D-04 0.100000000000D+01
  </mgrwgt>
  </event>
  <event>
  7     66 0.29493621E-05 0.21141335E+03 0.75467711E-02 0.10337711E+00
        3 -1    0    0  501    0 0.00000000E+00 0.00000000E+00 0.29420125E+02 0.29424373E+02 0.50000000E+00 0.0000E+00 0.9000E+01
       -4 -1    0    0    0  501 0.00000000E+00 0.00000000E+00 -.18164609E+04 0.18164616E+04 0.15500000E+01 0.0000E+00 0.9000E+01
       25  2    1    2    0    0 -.31371397E+02 0.10000736E+03 -.14396345E+04 0.14742087E+04 0.29959662E+03 0.0000E+00 0.0000E+00
      -24  1    1    2    0    0 0.31371397E+02 -.10000736E+03 -.34740629E+03 0.37167726E+03 0.80419002E+02 0.0000E+00 0.9000E+01
      -11  1    3    3    0    0 0.29510380E+02 0.10391851E+02 -.61650473E+02 0.69134896E+02 0.51099893E-03 0.0000E+00 0.9000E+01
       11  1    3    3    0    0 -.88334924E+02 0.12902581E+03 -.10410962E+04 0.10527735E+04 0.51099893E-03 0.0000E+00 0.9000E+01
       23  1    3    3    0    0 0.27453147E+02 -.39410296E+02 -.33688779E+03 0.35230028E+03 0.91188000E+02 0.0000E+00 0.9000E+01
#aMCatNLO 1  0  0  1  2 0.65576369D+02 0.00000000D+00  -5  7  0 0.00000000D+00 0.00000000D+00 0.00000000D+00 0.00000000D+00 0.00000000D+00
  <mgrwgt>
 0.8227716854D-04    4    2    0
 0.231181829365382D+03 0.000000000000000D+00 0.000000000000000D+00 0.231181829365382D+03
 0.231181829365382D+03 0.000000000000000D+00 0.000000000000000D+00 -.231181829365382D+03
 0.141111039262493D+03 0.313713973050457D+02 -.100007364208676D+03 0.495930638550648D+02
 0.377261845860734D+02 0.295103647016881D+02 0.103918592174827D+02 0.210810967598905D+02
 0.179119648859156D+03 -.883349199763698D+02 0.129025820523928D+03 -.873677752854160D+02
 0.104406786023042D+03 0.274531579696361D+02 -.394103155327347D+02 0.166936146704608D+02
 0.000000000000000D+00 -.000000000000000D+00 -.000000000000000D+00 -.000000000000000D+00
 0.262159486622150D+03 0.000000000000000D+00 0.000000000000000D+00 0.262159486622150D+03
 0.271001051493477D+03 0.000000000000000D+00 0.000000000000000D+00 -.271001051493477D+03
 0.137567468074257D+03 0.470983831923166D+02 -.882035296126427D+02 0.495930638550648D+02
 0.423359140909807D+02 0.340286015331987D+02 0.137830061675173D+02 0.210810967598905D+02
 0.181876949389714D+03 -.679623822436615D+02 0.144316357911194D+03 -.873677752854160D+02
 0.105210474637532D+03 0.392827308048086D+02 -.305316707568710D+02 0.166936146704608D+02
 0.661697319231434D+02 -.524473332866624D+02 -.393641637091977D+02 -.884156487132779D+01
0.126572268604D-03 0.000000000000D+00 0.000000000000D+00 0.791408600241D-09 0.000000000000D+00  7 3 -4 -24 -11 11 23 21 0 0.45265507D-02 0.27945591D+00 0.44695604D+05 0.44695604D+05 0.44695604D+05 0.11516043D+01  1  2  2  1  7  1        3 0.182107088871D-03 0.100000000000D+01
-.696347726619D-05 0.000000000000D+00 -.486070838685D-06 0.791408600241D-09 0.000000000000D+00  7 3 -4 -24 -11 11 23 21 2 0.45265507D-02 0.27945591D+00 0.44695604D+05 0.44695604D+05 0.44695604D+05 0.11516043D+01  1  2  3  1  7  1        3 -.132868179602D-04 0.100000000000D+01
0.835927925761D-05 0.000000000000D+00 0.000000000000D+00 0.791408600241D-09 0.000000000000D+00  7 3 -4 -24 -11 11 23 21 2 0.45265507D-02 0.27945591D+00 0.44695604D+05 0.44695604D+05 0.44695604D+05 0.11516043D+01  1  2 15  1  7  1        3 0.159501090516D-04 0.100000000000D+01
-.537155810987D-04 0.000000000000D+00 0.000000000000D+00 0.791408600241D-09 0.000000000000D+00  7 3 -4 -24 -11 11 23 21 2 0.45265507D-02 0.27945591D+00 0.44695604D+05 0.44695604D+05 0.44695604D+05 0.11516043D+01  1  2  4  1  7  1        3 -.102493211423D-03 0.100000000000D+01
  </mgrwgt>
  </event>
  <event>
  8     66 0.29493621E-05 0.35385433E+03 0.75467711E-02 0.93978895E-01
        1 -1    0    0  501    0 0.00000000E+00 0.00000000E+00 0.42030244E+03 0.42030256E+03 0.32000000E+00 0.0000E+00 0.9000E+01
       -2 -1    0    0    0  501 0.00000000E+00 0.00000000E+00 -.81364022E+03 0.81364028E+03 0.32000000E+00 0.0000E+00 0.9000E+01
       25  2    1    2    0    0 -.13342429E+03 -.28191132E+03 0.26107947E+03 0.50455598E+03 0.29856023E+03 0.0000E+00 0.0000E+00
       23  2    3    3    0    0 -.10946276E+03 -.26243041E+03 0.27674352E+03 0.40701484E+03 0.90676830E+02 0.0000E+00 0.0000E+00
      -24  1    1    2    0    0 0.13342429E+03 0.28191132E+03 -.65441726E+03 0.72938686E+03 0.80419002E+02 0.0000E+00 0.9000E+01
      -11  1    4    4    0    0 -.68077027E+02 -.21905595E+03 0.25561013E+03 0.34344800E+03 0.51099893E-03 0.0000E+00 0.9000E+01
       11  1    4    4    0    0 -.41385733E+02 -.43374466E+02 0.21133389E+02 0.63566841E+02 0.51099893E-03 0.0000E+00 0.9000E+01
       23  1    3    3    0    0 -.23961528E+02 -.19480912E+02 -.15664042E+02 0.97541141E+02 0.91188000E+02 0.0000E+00 0.9000E+01
#aMCatNLO 1  0  0  1  2 0.32598337D+03 0.00000000D+00  -5  7  0 0.00000000D+00 0.00000000D+00 0.00000000D+00 0.00000000D+00 0.00000000D+00
  <mgrwgt>
 0.1715211502D-02    3    2    0
 0.584786355567655D+03 0.000000000000000D+00 0.000000000000000D+00 0.584786355567655D+03
 0.584786355567655D+03 0.000000000000000D+00 0.000000000000000D+00 -.584786355567655D+03
 0.549443964006665D+03 0.133424287038025D+03 0.281911323038726D+03 -.445135281908699D+03
 0.448314424643945D+03 -.680770266790345D+02 -.219055945190433D+03 0.385182858729590D+03
 0.741727370386932D+02 -.413857326631260D+02 -.433744662669353D+02 0.436746119365232D+02
 0.976415854460055D+02 -.239615276958648D+02 -.194809115813574D+02 0.162778112425855D+02
 0.000000000000000D+00 -.000000000000000D+00 -.000000000000000D+00 -.000000000000000D+00
 0.645029243349103D+03 0.000000000000000D+00 0.000000000000000D+00 0.645029243349103D+03
 0.130705177944749D+04 0.000000000000000D+00 0.000000000000000D+00 -.130705177944749D+04
 0.654660688363692D+03 0.165203089850695D+03 0.443481590190956D+03 -.445135281908699D+03
 0.401833022673345D+03 -.456398838303576D+02 -.104980686107726D+03 0.385182858729590D+03
 0.629117007998337D+02 -.377677918884763D+02 -.249800773735921D+02 0.436746119365232D+02
 0.947467551418007D+02 -.188840029749355D+02 0.633431596099518D+01 0.162778112425855D+02
 0.737928855817919D+03 -.629114111569251D+02 -.319855142670633D+03 -.662022536098384D+03
0.547417573536D-03 0.000000000000D+00 0.000000000000D+00 0.302430260907D-05 0.000000000000D+00  7 1 -2 -24 -11 11 23 21 0 0.64661928D-01 0.12517543D+00 0.12521289D+06 0.12521289D+06 0.12521289D+06 0.11137958D+01  1  2  2  1  7  1        1 0.166653560446D-02 0.100000000000D+01
-.210804041280D-04 0.000000000000D+00 -.210222762074D-05 0.302430260907D-05 0.000000000000D+00  7 1 -2 -24 -11 11 23 21 2 0.64661928D-01 0.12517543D+00 0.12521289D+06 0.12521289D+06 0.12521289D+06 0.11137958D+01  1  2  3  1  7  1        1 -.796133609892D-04 0.100000000000D+01
0.339690396167D-04 0.000000000000D+00 0.000000000000D+00 0.302430260907D-05 0.000000000000D+00  7 1 -2 -24 -11 11 23 21 2 0.64661928D-01 0.12517543D+00 0.12521289D+06 0.12521289D+06 0.12521289D+06 0.11137958D+01  1  2 15  1  7  1        1 0.128289258453D-03 0.100000000000D+01
  </mgrwgt>
  </event>
  <event>
  9     66 0.29493621E-05 0.22683691E+03 0.75467711E-02 0.10310228E+00
        1 -1    0    0  501    0 0.00000000E+00 0.00000000E+00 0.10717103E+04 0.10717103E+04 0.32000000E+00 0.0000E+00 0.9000E+01
       21 -1    0    0  502  501 0.00000000E+00 0.00000000E+00 -.14354778E+03 0.14354974E+03 0.75000000E+00 0.0000E+00 0.9000E+01
       25  2    1    2    0    0 0.12954635E+03 0.87618276E+00 0.88613847E+03 0.94450127E+03 0.30009704E+03 0.0000E+00 0.0000E+00
       23  2    3    3    0    0 0.25038064E+02 0.74976415E+02 0.64763288E+03 0.65882139E+03 0.91481736E+02 0.0000E+00 0.0000E+00
      -24  1    1    2    0    0 -.14989116E+03 -.46665362E+02 -.34072251E+02 0.17964729E+03 0.80419002E+02 0.0000E+00 0.9000E+01
      -13  1    4    4    0    0 -.81240322E+01 0.85275324E+02 0.48722570E+03 0.49469867E+03 0.10565837E+00 0.0000E+00 0.9000E+01
       13  1    4    4    0    0 0.33162097E+02 -.10298909E+02 0.16040718E+03 0.16412271E+03 0.10565837E+00 0.0000E+00 0.9000E+01
       23  1    3    3    0    0 0.10450829E+03 -.74100233E+02 0.23850559E+03 0.28567988E+03 0.91188000E+02 0.0000E+00 0.9000E+01
        2  1    1    2  502    0 0.20344812E+02 0.45789180E+02 0.76096279E+02 0.91111505E+02 0.32000000E+00 0.0000E+00 0.9000E+01
#aMCatNLO 2  0  0  2  1 0.50105492D+02 0.00000000D+00  -5  7  0 0.00000000D+00 0.00000000D+00 0.00000000D+00 0.00000000D+00 0.00000000D+00
  <mgrwgt>
 0.2865100492D-03    1    2    0
 0.365780873932537D+03 0.000000000000000D+00 0.000000000000000D+00 0.365780873932537D+03
 0.365780873932537D+03 0.000000000000000D+00 0.000000000000000D+00 -.365780873932537D+03
 0.308648977458768D+03 -.141229430025443D+03 -.271707820659421D+02 -.260984620291285D+03
 0.197803911776174D+03 -.270682344578894D+01 0.974678503197743D+02 0.172101942972274D+03
 0.656455141990094D+02 0.349796466136673D+02 -.620847887826171D+01 0.552015638116663D+02
 0.159463344431123D+03 0.108956606857565D+03 -.640885893755704D+02 0.336811135073444D+02
 0.000000000000000D+00 0.000000000000000D+00 0.000000000000000D+00 0.000000000000000D+00
 0.397658580084111D+03 0.000000000000000D+00 0.000000000000000D+00 0.397658580084111D+03
 0.386870717423893D+03 0.000000000000000D+00 0.000000000000000D+00 -.386870717423893D+03
 0.315000324202993D+03 -.149891161260622D+03 -.466653623255669D+02 -.260984620291285D+03
 0.192241988568986D+03 -.812408720151024D+01 0.852754513401627D+02 0.172101942972274D+03
 0.652151138623401D+02 0.331621514500972D+02 -.102990358784369D+02 0.552015638116663D+02
 0.160818204538200D+03 0.104508285197672D+03 -.741002326908478D+02 0.336811135073444D+02
 0.512536663354839D+02 0.203448118143632D+02 0.457891795546889D+02 0.107878626602179D+02
0.681118394761D-06 0.000000000000D+00 0.000000000000D+00 0.962646940195D-05 0.276071287364D-09  7 1 21 -24 -13 13 23 2 2 0.16487845D+00 0.22084400D-01 0.63536739D+05 0.63536739D+05 0.63536739D+05 0.11382537D+01  1  2  1  4  7  2       -2 0.286510049230D-03 0.100000000000D+01
  </mgrwgt>
  </event>
  <event>
  8     66 0.29493621E-05 0.47487763E+03 0.75467711E-02 0.90456083E-01
        1 -1    0    0  501    0 0.00000000E+00 0.00000000E+00 0.86179787E+03 0.86179793E+03 0.32000000E+00 0.0000E+00 0.9000E+01
       -2 -1    0    0    0  501 0.00000000E+00 0.00000000E+00 -.26946702E+03 0.26946721E+03 0.32000000E+00 0.0000E+00 0.9000E+01
       25  2    1    2    0    0 0.27035219E+03 0.32813875E+03 0.23996277E+03 0.57323661E+03 0.30042093E+03 0.0000E+00 0.0000E+00
       23  2    3    3    0    0 0.10397996E+03 0.29535760E+03 0.17497565E+03 0.37003007E+03 0.90872597E+02 0.0000E+00 0.0000E+00
      -24  1    1    2    0    0 -.27035219E+03 -.32813875E+03 0.35236809E+03 0.55802852E+03 0.80419002E+02 0.0000E+00 0.9000E+01
      -13  1    4    4    0    0 0.40396845E+02 0.26665669E+02 0.13865304E+02 0.50350976E+02 0.10565837E+00 0.0000E+00 0.9000E+01
       13  1    4    4    0    0 0.63583112E+02 0.26869193E+03 0.16111035E+03 0.31967909E+03 0.10565837E+00 0.0000E+00 0.9000E+01
       23  1    3    3    0    0 0.16637223E+03 0.32781156E+02 0.64987116E+02 0.20320655E+03 0.91188000E+02 0.0000E+00 0.9000E+01
#aMCatNLO 1  0  0  1  2 0.42835581D+03 0.00000000D+00  -5  7  0 0.00000000D+00 0.00000000D+00 0.00000000D+00 0.00000000D+00 0.00000000D+00
  <mgrwgt>
 0.1777799231D-02    3    2    0
 0.481898580491375D+03 0.000000000000000D+00 0.000000000000000D+00 0.481898580491375D+03
 0.481898580491375D+03 0.000000000000000D+00 0.000000000000000D+00 -.481898580491375D+03
 0.438432214961429D+03 -.270352190549826D+03 -.328138753788237D+03 0.706416484011196D+02
 0.505782386735343D+02 0.403968139463318D+02 0.266653415027481D+02 -.146702151601220D+02
 0.276211098149442D+03 0.635831434258307D+02 0.268692255765035D+03 -.736385122798094D+01
 0.198575609198344D+03 0.166372233177664D+03 0.327811565204530D+02 -.486075820130167D+02
 0.000000000000000D+00 -.000000000000000D+00 -.000000000000000D+00 -.000000000000000D+00
 0.580698992442742D+03 0.000000000000000D+00 0.000000000000000D+00 0.580698992442742D+03
 0.138720719355742D+04 0.000000000000000D+00 0.000000000000000D+00 -.138720719355742D+04
 0.317234132741646D+03 -.119522704684641D+03 -.273668338683916D+03 0.706416484011196D+02
 0.762609359596524D+02 0.657136585506190D+02 0.358082423541088D+02 -.146702151601220D+02
 0.369404803011869D+03 0.192446781107380D+03 0.315229945634513D+03 -.736385122798094D+01
 0.291800874562787D+03 0.264250394817238D+03 0.681287814465288D+02 -.486075820130167D+02
 0.913205439724208D+03 -.402888129790596D+03 -.145498630751235D+03 -.806508201114679D+03
0.149205114646D-03 0.000000000000D+00 0.000000000000D+00 0.801351575335D-05 0.000000000000D+00  7 1 -2 -24 -13 13 23 21 0 0.13258431D+00 0.41456483D-01 0.22550877D+06 0.22550877D+06 0.22550877D+06 0.10938437D+01  1  2  2  1  7  1        1 0.175813409055D-02 0.100000000000D+01
-.828700214087D-05 0.000000000000D+00 -.572986926848D-06 0.801351575335D-05 0.000000000000D+00  7 1 -2 -24 -13 13 23 21 2 0.13258431D+00 0.41456483D-01 0.22550877D+06 0.22550877D+06 0.22550877D+06 0.10938437D+01  1  2  3  1  7  1        1 -.116835892466D-03 0.100000000000D+01
0.968182235077D-05 0.000000000000D+00 0.000000000000D+00 0.801351575335D-05 0.000000000000D+00  7 1 -2 -24 -13 13 23 21 2 0.13258431D+00 0.41456483D-01 0.22550877D+06 0.22550877D+06 0.22550877D+06 0.10938437D+01  1  2 15  1  7  1        1 0.136501033284D-03 0.100000000000D+01
  </mgrwgt>
  </event>
  <event>
  8     66 0.29493621E-05 0.87055735E+02 0.75467711E-02 0.11052718E+00
        1 -1    0    0  501    0 0.00000000E+00 0.00000000E+00 0.18913524E+04 0.18913524E+04 0.32000000E+00 0.0000E+00 0.9000E+01
       -2 -1    0    0    0  501 0.00000000E+00 0.00000000E+00 -.37351531E+02 0.37352902E+02 0.32000000E+00 0.0000E+00 0.9000E+01
       25  2    1    2    0    0 0.77721873E+02 0.80953449E+02 0.74099741E+03 0.80717153E+03 0.29975751E+03 0.0000E+00 0.0000E+00
       23  2    3    3    0    0 0.93842753E+01 0.30231626E+02 0.57669905E+02 0.11255332E+03 0.91325874E+02 0.0000E+00 0.0000E+00
      -24  1    1    2    0    0 -.77721873E+02 -.80953449E+02 0.11130035E+04 0.11215338E+04 0.80419002E+02 0.0000E+00 0.9000E+01
      -13  1    4    4    0    0 0.47424325E+01 0.19794561E+02 0.82631718E+02 0.85101864E+02 0.10565837E+00 0.0000E+00 0.9000E+01
       13  1    4    4    0    0 0.46418429E+01 0.10437065E+02 -.24961812E+02 0.27451453E+02 0.10565837E+00 0.0000E+00 0.9000E+01
       23  1    3    3    0    0 0.68337598E+02 0.50721823E+02 0.68332751E+03 0.69461822E+03 0.91188000E+02 0.0000E+00 0.9000E+01
#aMCatNLO 1  0  0  1  2 0.10040409D+02 0.00000000D+00  -5  7  0 0.00000000D+00 0.00000000D+00 0.00000000D+00 0.00000000D+00 0.00000000D+00
  <mgrwgt>
 0.1946709835D-02    9    2    0
 0.265793635424222D+03 0.000000000000000D+00 0.000000000000000D+00 0.265793635424222D+03
 0.265793635424222D+03 0.000000000000000D+00 0.000000000000000D+00 -.265793635424222D+03
 0.187361218413094D+03 -.777218736999235D+02 -.809534492587594D+02 0.126660410596804D+03
 0.205742767321155D+02 0.474243258505522D+01 0.197945729219499D+02 0.299751214567758D+01
 0.186658163319259D+03 0.464184288507852D+01 0.104370533123620D+02 -.186308322805247D+03
 0.136993612383976D+03 0.683375982297898D+02 0.507218230244475D+02 0.566504000627657D+02
 0.000000000000000D+00 0.000000000000000D+00 0.000000000000000D+00 0.000000000000000D+00
 0.294662299410176D+03 0.000000000000000D+00 0.000000000000000D+00 0.294662299410176D+03
 0.266715480656310D+03 0.000000000000000D+00 0.000000000000000D+00 -.266715480656310D+03
 0.189050035853249D+03 -.780430323668512D+02 -.844933464136674D+02 0.126660410596804D+03
 0.201975101780849D+02 0.470764559985240D+01 0.194111414202398D+02 0.299751214567758D+01
 0.186487208469555D+03 0.432347070886002D+01 0.692786960706384D+01 -.186308322805247D+03
 0.135947327511078D+03 0.681047216953792D+02 0.481549952645400D+02 0.566504000627657D+02
 0.296956980545194D+02 0.907194362759490D+00 0.999934012182375D+01 0.279468187538662D+02
0.192457442485D-04 0.000000000000D+00 0.000000000000D+00 0.331359515086D-05 0.000000000000D+00  7 1 -2 -24 -13 13 23 21 0 0.29097740D+00 0.57464970D-02 0.21693170D+05 0.21693170D+05 0.21693170D+05 0.11806293D+01  1  2  2  1  7  1        1 0.114951359761D-02 0.100000000000D+01
-.616150051827D-06 0.000000000000D+00 -.739087254352D-07 0.331359515086D-05 0.000000000000D+00  7 1 -2 -24 -13 13 23 21 2 0.29097740D+00 0.57464970D-02 0.21693170D+05 0.21693170D+05 0.21693170D+05 0.11806293D+01  1  2  3  1  7  1        1 -.512971187865D-04 0.100000000000D+01
0.124325728190D-05 0.000000000000D+00 0.000000000000D+00 0.331359515086D-05 0.000000000000D+00  7 1 -2 -24 -13 13 23 21 2 0.29097740D+00 0.57464970D-02 0.21693170D+05 0.21693170D+05 0.21693170D+05 0.11806293D+01  1  2 15  1  7  1        1 0.103506469379D-03 0.100000000000D+01
0.301034607352D-03 0.000000000000D+00 0.000000000000D+00 0.331359515086D-05 0.000000000000D+00  7 1 -2 -24 -13 13 23 21 2 0.32305359D+00 0.57464970D-02 0.22817355D+05 0.22817355D+05 0.22817355D+05 0.11785268D+01  1  2 12  1  7  1        1 0.183448343756D-01 0.100000000000D+01
-.303063282216D-03 0.000000000000D+00 0.000000000000D+00 0.331359515086D-05 0.000000000000D+00  7 1 -2 -24 -13 13 23 21 2 0.29097740D+00 0.57464970D-02 0.21693170D+05 0.21693170D+05 0.21693170D+05 0.11806293D+01  1  2  4  1  7  1        1 -.252313103627D-01 0.100000000000D+01
-.347467949861D-03 0.000000000000D+00 -.192412122445D-04 0.331359515086D-05 0.000000000000D+00  7 1 -2 -24 -13 13 23 21 2 0.32295084D+00 0.57464970D-02 0.21693170D+05 0.21693170D+05 0.21693170D+05 0.11806293D+01  1  2  5  1  7  1        1 -.212904772792D-01 0.100000000000D+01
0.347686811337D-03 0.000000000000D+00 0.191371173084D-04 0.331359515086D-05 0.000000000000D+00  7 1 -2 -24 -13 13 23 21 2 0.29097740D+00 0.57464970D-02 0.21693170D+05 0.21693170D+05 0.21693170D+05 0.11806293D+01  1  2  6  1  7  1        1 0.289464094156D-01 0.100000000000D+01
0.508143097959D-05 0.000000000000D+00 0.000000000000D+00 0.331359515086D-05 0.000000000000D+00  7 21 -2 -24 -13 13 23 -1 2 0.32305359D+00 0.57464970D-02 0.22817355D+05 0.22817355D+05 0.22817355D+05 0.11785268D+01  1  2 12  3  7  1        1 0.165509799568D-03 0.100000000000D+01
-.578130859743D-05 0.000000000000D+00 -.323941035172D-06 0.331359515086D-05 0.000000000000D+00  7 21 -2 -24 -13 13 23 -1 2 0.32295084D+00 0.57464970D-02 0.21693170D+05 0.21693170D+05 0.21693170D+05 0.11806293D+01  1  2  5  3  7  1        1 -.189979062154D-03 0.100000000000D+01
  </mgrwgt>
  </event>
  <event>
  8     66 0.29493621E-05 0.97001558E+03 0.75467711E-02 0.83867640E-01
        1 -1    0    0  501    0 0.00000000E+00 0.00000000E+00 0.27719180E+04 0.27719181E+04 0.32000000E+00 0.0000E+00 0.9000E+01
       -2 -1    0    0    0  501 0.00000000E+00 0.00000000E+00 -.36765632E+03 0.36765646E+03 0.32000000E+00 0.0000E+00 0.9000E+01
       25  2    1    2    0    0 -.61266575E+03 0.73982224E+03 0.15699170E+04 0.18647041E+04 0.29964263E+03 0.0000E+00 0.0000E+00
       23  2    3    3    0    0 -.19018762E+03 0.31659921E+03 0.79759729E+03 0.88368498E+03 0.91276120E+02 0.0000E+00 0.0000E+00
      -24  1    1    2    0    0 0.61266575E+03 -.73982224E+03 0.83434473E+03 0.12748704E+04 0.80419002E+02 0.0000E+00 0.9000E+01
      -11  1    4    4    0    0 -.13672942E+03 0.25711844E+03 0.69541541E+03 0.75392799E+03 0.51099893E-03 0.0000E+00 0.9000E+01
       11  1    4    4    0    0 -.53458193E+02 0.59480777E+02 0.10218188E+03 0.12975699E+03 0.51099893E-03 0.0000E+00 0.9000E+01
       23  1    3    3    0    0 -.42247813E+03 0.42322303E+03 0.77231972E+03 0.98101911E+03 0.91188000E+02 0.0000E+00 0.9000E+01
#aMCatNLO 1  0  0  2  2 0.81733900D+03 0.00000000D+00  -5  7  0 0.00000000D+00 0.00000000D+00 0.00000000D+00 0.00000000D+00 0.00000000D+00
  <mgrwgt>
 0.1278863143D-02    3    2    0
 0.100951147891665D+04 0.000000000000000D+00 0.000000000000000D+00 0.100951147891665D+04
 0.100951147891665D+04 0.000000000000000D+00 0.000000000000000D+00 -.100951147891665D+04
 0.988878110506322D+03 0.612665746550650D+03 -.739822238588066D+03 -.220718009637317D+03
 0.344251884409425D+03 -.136729423785219D+03 0.257118436103037D+03 0.183587947335141D+03
 0.800930828234198D+02 -.534581933711185D+02 0.594807769580525D+02 0.437728798706456D+01
 0.605799880094130D+03 -.422478129394313D+03 0.423223025526976D+03 0.327527743151119D+02
 0.000000000000000D+00 0.000000000000000D+00 -.000000000000000D+00 0.000000000000000D+00
 0.155286782553613D+04 0.000000000000000D+00 0.000000000000000D+00 0.155286782553613D+04
 0.144920524526423D+04 0.000000000000000D+00 0.000000000000000D+00 -.144920524526423D+04
 0.695719818464369D+03 0.488430844442387D+03 -.436208345024211D+03 -.220718009637317D+03
 0.488685400281583D+03 -.198156474267905D+03 0.407238133955249D+03 0.183587947335141D+03
 0.116888035584182D+03 -.679850603117049D+02 0.949825446438510D+02 0.437728798706456D+01
 0.876893316699487D+03 -.531823060307764D+03 0.690447771976834D+03 0.327527743151119D+02
 0.823886499770746D+03 0.309533750444986D+03 -.756460105551724D+03 0.103662580271900D+03
0.462615103414D-02 0.000000000000D+00 0.000000000000D+00 0.504766103732D-04 0.000000000000D+00  7 1 -2 -24 -11 11 23 21 0 0.42644894D+00 0.56562522D-01 0.94093022D+06 0.94093022D+06 0.94093022D+06 0.10496287D+01  1  2  2  2  7  2       -2 0.126689274251D-02 0.100000000000D+01
-.256510670651D-03 0.000000000000D+00 -.177656380646D-04 0.504766103732D-04 0.000000000000D+00  7 1 -2 -24 -11 11 23 21 2 0.42644894D+00 0.56562522D-01 0.94093022D+06 0.94093022D+06 0.94093022D+06 0.10496287D+01  1  2  3  2  7  2       -2 -.773921426141D-04 0.100000000000D+01
0.296185699278D-03 0.000000000000D+00 0.000000000000D+00 0.504766103732D-04 0.000000000000D+00  7 1 -2 -24 -11 11 23 21 2 0.42644894D+00 0.56562522D-01 0.94093022D+06 0.94093022D+06 0.94093022D+06 0.10496287D+01  1  2 15  2  7  2       -2 0.893625431665D-04 0.100000000000D+01
  </mgrwgt>
  </event>
  <event>
  8     66 0.29493621E-05 0.24962034E+03 0.75467711E-02 0.86438704E-01
        1 -1    0    0  501    0 0.00000000E+00 0.00000000E+00 0.13421931E+03 0.13421969E+03 0.32000000E+00 0.0000E+00 0.9000E+01
       -2 -1    0    0    0  501 0.00000000E+00 0.00000000E+00 -.77035119E+03 0.77035125E+03 0.32000000E+00 0.0000E+00 0.9000E+01
       25  2    1    2    0    0 0.17889363E+03 -.11013196E+02 -.14421435E+03 0.37487831E+03 0.29599281E+03 0.0000E+00 0.0000E+00
       23  2    3    3    0    0 0.15205601E+03 0.70627430E+02 -.93466484E+01 0.19078594E+03 0.90568497E+02 0.0000E+00 0.0000E+00
      -24  1    1    2    0    0 -.17889363E+03 0.11013196E+02 -.49191753E+03 0.52969264E+03 0.80419002E+02 0.0000E+00 0.9000E+01
      -11  1    4    4    0    0 0.11281707E+03 0.78538565E+02 -.36732375E+02 0.14228586E+03 0.51099893E-03 0.0000E+00 0.9000E+01
       11  1    4    4    0    0 0.39238938E+02 -.79111356E+01 0.27385727E+02 0.48500087E+02 0.51099893E-03 0.0000E+00 0.9000E+01
       23  1    3    3    0    0 0.26837617E+02 -.81640626E+02 -.13486770E+03 0.18409236E+03 0.91188000E+02 0.0000E+00 0.9000E+01
#aMCatNLO 1  0  0  2  2 0.10619004D+04 0.00000000D+00  -5  7  0 0.00000000D+00 0.00000000D+00 0.00000000D+00 0.00000000D+00 0.00000000D+00
  <mgrwgt>
 0.2356436351D-02    3    2    0
 0.321552805469964D+03 0.000000000000000D+00 0.000000000000000D+00 0.321552805469964D+03
 0.321552805469964D+03 0.000000000000000D+00 0.000000000000000D+00 -.321552805469964D+03
 0.258464776895092D+03 -.178893627394154D+03 0.110131962138732D+02 -.167966081480683D+03
 0.163800495620871D+03 0.112817071796543D+03 0.785385654938800D+02 0.890763964642718D+02
 0.953073680739432D+02 0.392389384547451D+02 -.791113564769062D+01 0.864940116475740D+02
 0.125532970350022D+03 0.268376171428655D+02 -.816406260600626D+02 -.760432663116269D+01
 0.000000000000000D+00 -.000000000000000D+00 0.000000000000000D+00 0.000000000000000D+00
 0.198426029999283D+04 0.000000000000000D+00 0.000000000000000D+00 0.198426029999283D+04
 0.827477372538657D+03 0.000000000000000D+00 0.000000000000000D+00 -.827477372538657D+03
 0.234241518409640D+03 0.613208511416080D+02 -.128175745286605D+03 -.167966081480683D+03
 0.412366182638725D+03 0.393721901888495D+03 -.842278347714134D+02 0.890763964642718D+02
 0.246591933901545D+03 0.205928837322360D+03 -.104497281177428D+03 0.864940116475740D+02
 0.348258075153658D+03 0.257830137464102D+03 -.215486032024026D+03 -.760432663116269D+01
 0.157027996242792D+04 -.918801727816565D+03 0.532386893259472D+03 0.115678292745417D+04
0.146021843645D-03 0.000000000000D+00 0.000000000000D+00 0.636318993436D-07 0.000000000000D+00  7 1 -2 -24 -11 11 23 21 0 0.20649159D-01 0.11851560D+00 0.62310314D+05 0.62310314D+05 0.62310314D+05 0.11389811D+01  1  2  2  2  7  2       -2 0.231330576156D-02 0.100000000000D+01
-.747987626791D-05 0.000000000000D+00 -.560762328033D-06 0.636318993436D-07 0.000000000000D+00  7 1 -2 -24 -11 11 23 21 2 0.20649159D-01 0.11851560D+00 0.62310314D+05 0.62310314D+05 0.62310314D+05 0.11389811D+01  1  2  3  2  7  2       -2 -.153724340370D-03 0.100000000000D+01
0.957851253085D-05 0.000000000000D+00 0.000000000000D+00 0.636318993436D-07 0.000000000000D+00  7 1 -2 -24 -11 11 23 21 2 0.20649159D-01 0.11851560D+00 0.62310314D+05 0.62310314D+05 0.62310314D+05 0.11389811D+01  1  2 15  2  7  2       -2 0.196854930188D-03 0.100000000000D+01
  </mgrwgt>
  </event>
  <event>
  9     66 -.29493621E-05 0.35723609E+03 0.75467711E-02 0.96560506E-01
        1 -1    0    0  502    0 0.00000000E+00 0.00000000E+00 0.13118953E+04 0.13118953E+04 0.32000000E+00 0.0000E+00 0.9000E+01
       -2 -1    0    0    0  501 0.00000000E+00 0.00000000E+00 -.18913453E+03 0.18913480E+03 0.32000000E+00 0.0000E+00 0.9000E+01
       25  2    1    2    0    0 0.54584290E+02 -.24433326E+03 0.84463881E+03 0.93087851E+03 0.30073558E+03 0.0000E+00 0.0000E+00
       23  2    3    3    0    0 0.82018930E+02 -.25379470E+03 0.72348251E+03 0.77648848E+03 0.91479901E+02 0.0000E+00 0.0000E+00
      -24  1    1    2    0    0 0.22927398E+02 0.33724577E+03 0.11286191E+03 0.36532917E+03 0.80419002E+02 0.0000E+00 0.9000E+01
      -11  1    4    4    0    0 0.67275068E+02 -.68349170E+02 0.25201638E+03 0.26964754E+03 0.51099893E-03 0.0000E+00 0.9000E+01
       11  1    4    4    0    0 0.14743862E+02 -.18544553E+03 0.47146613E+03 0.50684094E+03 0.51099893E-03 0.0000E+00 0.9000E+01
       23  1    3    3    0    0 -.27434639E+02 0.94614419E+01 0.12115631E+03 0.15439003E+03 0.91188000E+02 0.0000E+00 0.9000E+01
       21  1    1    2  502  501 -.77511688E+02 -.92912514E+02 0.16526004E+03 0.20482246E+03 0.75000000E+00 0.0000E+00 0.9000E+01
#aMCatNLO 2  0  0  1  2 0.12099916D+03 0.00000000D+00  -5  7  0 0.00000000D+00 0.00000000D+00 0.00000000D+00 0.00000000D+00 0.00000000D+00
  <mgrwgt>
 -.4308940430D-04    2    2    0
 0.432638969041073D+03 0.000000000000000D+00 0.000000000000000D+00 0.432638969041073D+03
 0.432638969041073D+03 0.000000000000000D+00 0.000000000000000D+00 -.432638969041073D+03
 0.384114287637699D+03 -.128392661228471D+02 0.294372614230862D+03 -.232930219699722D+03
 0.126374703292924D+03 0.561214474957653D+02 -.817189078528975D+02 0.783770939923408D+02
 0.256136593360902D+03 -.715905212091296D+01 -.211700338866125D+03 0.144005794866825D+03
 0.986523537906210D+02 -.361231292520052D+02 -.953367511840298D+00 0.105473308405555D+02
 0.000000000000000D+00 -.000000000000000D+00 -.000000000000000D+00 0.000000000000000D+00
 0.508582509119616D+03 0.000000000000000D+00 0.000000000000000D+00 0.508582509119616D+03
 0.487873229060140D+03 0.000000000000000D+00 0.000000000000000D+00 -.487873229060140D+03
 0.418310982358108D+03 0.229273976281299D+02 0.337245769722432D+03 -.232930219699722D+03
 0.123856823490892D+03 0.672750679175363D+02 -.683491704357900D+02 0.783770939923408D+02
 0.235255380174307D+03 0.147438616388378D+02 -.185445527014555D+03 0.144005794866825D+03
 0.962739624236243D+02 -.274346391596033D+02 0.946144191271329D+01 0.105473308405555D+02
 0.122758589732825D+03 -.775116880249007D+02 -.929125141848002D+02 0.207092800594757D+02
-.330215520383D-04 0.000000000000D+00 0.000000000000D+00 0.312461607207D-05 0.000000000000D+00  7 1 -2 -24 -11 11 23 21 2 0.21115137D+00 0.25803313D-01 0.17896577D+06 0.17896577D+06 0.17896577D+06 0.11015512D+01  1  2 13  1  7  1        1 -.470988601136D-03 0.100000000000D+01
0.336226409282D-04 0.000000000000D+00 0.000000000000D+00 0.312461607207D-05 0.141243266222D-08  7 1 -2 -24 -11 11 23 21 2 0.20182960D+00 0.29097577D-01 0.17896577D+06 0.17896577D+06 0.17896577D+06 0.11015512D+01  1  2  1  1  7  1        1 0.427899196837D-03 0.100000000000D+01
  </mgrwgt>
  </event>
  <event>
  8     66 0.29493621E-05 0.35872171E+03 0.75467711E-02 0.96028667E-01
        1 -1    0    0  501    0 0.00000000E+00 0.00000000E+00 0.55262511E+03 0.55262520E+03 0.32000000E+00 0.0000E+00 0.9000E+01
       -2 -1    0    0    0  501 0.00000000E+00 0.00000000E+00 -.47082706E+03 0.47082717E+03 0.32000000E+00 0.0000E+00 0.9000E+01
       25  2    1    2    0    0 0.38375747E+03 -.16575939E+03 0.24484553E+03 0.56760407E+03 0.29576862E+03 0.0000E+00 0.0000E+00
       23  2    3    3    0    0 0.16267909E+03 -.31101471E+02 -.15221790E+02 0.18950532E+03 0.90822770E+02 0.0000E+00 0.0000E+00
      -24  1    1    2    0    0 -.38375747E+03 0.16575939E+03 -.16304748E+03 0.45584830E+03 0.80419002E+02 0.0000E+00 0.9000E+01
      -11  1    4    4    0    0 0.77204493E+02 -.55111066E+02 -.30029136E+02 0.99496293E+02 0.51099893E-03 0.0000E+00 0.9000E+01
       11  1    4    4    0    0 0.85474593E+02 0.24009595E+02 0.14807346E+02 0.90009023E+02 0.51099893E-03 0.0000E+00 0.9000E+01
       23  1    3    3    0    0 0.22107839E+03 -.13465792E+03 0.26006732E+03 0.37809876E+03 0.91188000E+02 0.0000E+00 0.9000E+01
#aMCatNLO 1  0  0  1  2 0.14716830D+01 0.00000000D+00  -5  7  0 0.00000000D+00 0.00000000D+00 0.00000000D+00 0.00000000D+00 0.00000000D+00
  <mgrwgt>
 0.2615966319D-02   10    2    0
 0.510089168360876D+03 0.000000000000000D+00 0.000000000000000D+00 0.510089168360876D+03
 0.510089168360876D+03 0.000000000000000D+00 0.000000000000000D+00 -.510089168360876D+03
 0.470384413766649D+03 -.383757474764808D+03 0.165759387187039D+03 -.200120730764552D+03
 0.102223344750570D+03 0.772044925294657D+02 -.551110664656747D+02 -.381031350190177D+02
 0.891106315384930D+02 0.854745926978321D+02 0.240095953168818D+02 0.763793094027014D+01
 0.358459946666041D+03 0.221078389537511D+03 -.134657916038247D+03 0.230585934843299D+03
 0.000000000000000D+00 -.000000000000000D+00 -.000000000000000D+00 0.000000000000000D+00
 0.511522689507505D+03 0.000000000000000D+00 0.000000000000000D+00 0.511522689507505D+03
 0.510467554180181D+03 0.000000000000000D+00 0.000000000000000D+00 -.510467554180181D+03
 0.470189622790358D+03 -.383301272301917D+03 0.166261520489144D+03 -.200120730764552D+03
 0.102239500424164D+03 0.773036622385085D+02 -.550019122687535D+02 -.381031350190177D+02
 0.892192744881995D+02 0.855610872630386D+02 0.241047982260595D+02 0.763793094027014D+01
 0.358531000524417D+03 0.221426148483926D+03 -.134275144435056D+03 0.230585934843299D+03
 0.181084546054790D+01 -.989625683556370D+00 -.108926201139384D+01 0.105513532732384D+01
0.141972398038D-03 0.000000000000D+00 0.000000000000D+00 0.160344659182D-06 0.000000000000D+00  7 1 -2 -24 -11 11 23 21 0 0.85019263D-01 0.72434948D-01 0.19526775D+06 0.19526775D+06 0.19526775D+06 0.10986250D+01  1  2  2  1  7  1        1 0.106459227521D-02 0.100000000000D+01
-.768981765484D-05 0.000000000000D+00 -.545211390658D-06 0.160344659182D-06 0.000000000000D+00  7 1 -2 -24 -11 11 23 21 2 0.85019263D-01 0.72434948D-01 0.19526775D+06 0.19526775D+06 0.19526775D+06 0.10986250D+01  1  2  3  1  7  1        1 -.695976179656D-04 0.100000000000D+01
0.905237229082D-05 0.000000000000D+00 0.000000000000D+00 0.160344659182D-06 0.000000000000D+00  7 1 -2 -24 -11 11 23 21 2 0.85019263D-01 0.72434948D-01 0.19526775D+06 0.19526775D+06 0.19526775D+06 0.10986250D+01  1  2 15  1  7  1        1 0.819295822941D-04 0.100000000000D+01
-.144455363623D-01 0.000000000000D+00 0.000000000000D+00 0.160344659182D-06 0.000000000000D+00  7 1 -2 -24 -11 11 23 21 2 0.85019263D-01 0.72434948D-01 0.19526775D+06 0.19526775D+06 0.19526775D+06 0.10986250D+01  1  2  4  1  7  1        1 -.130741061255D+00 0.100000000000D+01
-.695711378132D-01 0.000000000000D+00 -.542596832876D-02 0.160344659182D-06 0.000000000000D+00  7 1 -2 -24 -11 11 23 21 2 0.85302819D-01 0.72434948D-01 0.19526775D+06 0.19526775D+06 0.19526775D+06 0.10986250D+01  1  2  5  1  7  1        1 -.626686546836D+00 0.100000000000D+01
0.695888487131D-01 0.000000000000D+00 0.542593825122D-02 0.160344659182D-06 0.000000000000D+00  7 1 -2 -24 -11 11 23 21 2 0.85019263D-01 0.72434948D-01 0.19526775D+06 0.19526775D+06 0.19526775D+06 0.10986250D+01  1  2  6  1  7  1        1 0.629822230486D+00 0.100000000000D+01
0.144455859819D-01 0.000000000000D+00 0.000000000000D+00 0.160344659182D-06 0.476471534986D-06  7 1 -2 -24 -11 11 23 21 2 0.85258195D-01 0.72488681D-01 0.19592039D+06 0.19592039D+06 0.19592039D+06 0.10985135D+01  1  2 11  1  7  1        1 0.129970848242D+00 0.100000000000D+01
0.144667892200D-08 0.000000000000D+00 0.000000000000D+00 0.160344659182D-06 0.000000000000D+00  7 21 -2 -24 -11 11 23 -1 2 0.85289673D-01 0.72434948D-01 0.19592039D+06 0.19592039D+06 0.19592039D+06 0.10985135D+01  1  2 12  3  7  1        1 0.345555855253D-07 0.100000000000D+01
-.431953165333D-04 0.000000000000D+00 -.337062636055D-05 0.160344659182D-06 0.000000000000D+00  7 21 -2 -24 -11 11 23 -1 2 0.85302819D-01 0.72434948D-01 0.19526775D+06 0.19526775D+06 0.19526775D+06 0.10986250D+01  1  2  5  3  7  1        1 -.103181512150D-02 0.100000000000D+01
0.860319707808D-05 0.000000000000D+00 0.000000000000D+00 0.160344659182D-06 0.249834053512D-09  7 21 -2 -24 -11 11 23 -1 2 0.85258195D-01 0.72488681D-01 0.19592039D+06 0.19592039D+06 0.19592039D+06 0.10985135D+01  1  2 11  3  7  1        1 0.205352008857D-03 0.100000000000D+01
  </mgrwgt>
  </event>
  <event>
  8     66 0.29493621E-05 0.10479709E+03 0.75467711E-02 0.10402782E+00
        1 -1    0    0  501    0 0.00000000E+00 0.00000000E+00 0.20328186E+04 0.20328187E+04 0.32000000E+00 0.0000E+00 0.9000E+01
       -2 -1    0    0    0  501 0.00000000E+00 0.00000000E+00 -.79011958E+02 0.79012606E+02 0.32000000E+00 0.0000E+00 0.9000E+01
       25  2    1    2    0    0 -.24867783E+02 0.21452945E+02 0.21650604E+03 0.37236027E+03 0.30116220E+03 0.0000E+00 0.0000E+00
       23  2    3    3    0    0 -.62245857E+02 0.11842898E+03 0.14944600E+03 0.21869253E+03 0.87134086E+02 0.0000E+00 0.0000E+00
      -24  1    1    2    0    0 0.24867783E+02 -.21452945E+02 0.17373006E+04 0.17394710E+04 0.80419002E+02 0.0000E+00 0.9000E+01
      -11  1    4    4    0    0 -.13920942E+02 -.12742587E+02 0.10505655E+02 0.21599420E+02 0.51099893E-03 0.0000E+00 0.9000E+01
       11  1    4    4    0    0 -.48324915E+02 0.13117157E+03 0.13894034E+03 0.19709311E+03 0.51099893E-03 0.0000E+00 0.9000E+01
       23  1    3    3    0    0 0.37378074E+02 -.96976034E+02 0.67060046E+02 0.15366773E+03 0.91188000E+02 0.0000E+00 0.9000E+01
#aMCatNLO 1  0  0  2  1 0.80823577D+02 0.00000000D+00  -5  7  0 0.00000000D+00 0.00000000D+00 0.00000000D+00 0.00000000D+00 0.00000000D+00
  <mgrwgt>
 0.1588875484D-02    9    2    0
 0.400771370961600D+03 0.000000000000000D+00 0.000000000000000D+00 0.400771370961600D+03
 0.400771370961600D+03 0.000000000000000D+00 0.000000000000000D+00 -.400771370961600D+03
 0.348228039153751D+03 0.248677833113163D+02 -.214529453040122D+02 0.337219388217018D+03
 0.313000304185191D+02 -.139209423220635D+02 -.127425873243002D+02 -.249704973388314D+02
 0.180607755594026D+03 -.483249151124172D+02 0.131171566750376D+03 -.114358576575352D+03
 0.241406916756905D+03 0.373780741231644D+02 -.969760341220636D+02 -.197890314302835D+03
 0.000000000000000D+00 0.000000000000000D+00 0.000000000000000D+00 -.000000000000000D+00
 0.437101699483027D+03 0.000000000000000D+00 0.000000000000000D+00 0.437101699483027D+03
 0.450419041921572D+03 0.000000000000000D+00 0.000000000000000D+00 -.450419041921572D+03
 0.348320893960042D+03 -.827844794082339D+01 -.327838485383220D+02 0.337219388217018D+03
 0.332026296484023D+02 -.169903893993832D+02 -.137918652211260D+02 -.249704973388314D+02
 0.181856081965991D+03 -.655732513155818D+02 0.125275293747747D+03 -.114358576575352D+03
 0.242227753911268D+03 0.143636585187107D+02 -.104843417723673D+03 -.197890314302835D+03
 0.819133819188961D+02 0.764784301370777D+02 0.261438377353748D+02 -.133173424385446D+02
0.857290797204D-04 0.000000000000D+00 0.000000000000D+00 0.232568728206D-06 0.000000000000D+00  7 1 -2 -24 -11 11 23 21 0 0.31274138D+00 0.12155738D-01 0.36824187D+05 0.36824187D+05 0.36824187D+05 0.11591662D+01  1  2  2  2  7  2       -2 0.133178698066D-02 0.100000000000D+01
-.162216570016D-05 0.000000000000D+00 -.329222239111D-06 0.232568728206D-06 0.000000000000D+00  7 1 -2 -24 -11 11 23 21 2 0.31274138D+00 0.12155738D-01 0.36824187D+05 0.36824187D+05 0.36824187D+05 0.11591662D+01  1  2  3  2  7  2       -2 -.338604923387D-04 0.100000000000D+01
0.533356474460D-05 0.000000000000D+00 0.000000000000D+00 0.232568728206D-06 0.000000000000D+00  7 1 -2 -24 -11 11 23 21 2 0.31274138D+00 0.12155738D-01 0.36824187D+05 0.36824187D+05 0.36824187D+05 0.11591662D+01  1  2 15  2  7  2       -2 0.111330875850D-03 0.100000000000D+01
0.618992162303D-04 0.000000000000D+00 0.000000000000D+00 0.232568728206D-06 0.000000000000D+00  7 1 -2 -24 -11 11 23 21 2 0.31274138D+00 0.14154059D-01 0.55468773D+05 0.55468773D+05 0.55468773D+05 0.11433513D+01  1  2 12  2  7  2       -2 0.977534894393D-03 0.100000000000D+01
-.705775275449D-04 0.000000000000D+00 0.000000000000D+00 0.232568728206D-06 0.000000000000D+00  7 1 -2 -24 -11 11 23 21 2 0.31274138D+00 0.12155738D-01 0.36824187D+05 0.36824187D+05 0.36824187D+05 0.11591662D+01  1  2  4  2  7  2       -2 -.147320944493D-02 0.100000000000D+01
-.116803190862D-03 0.000000000000D+00 -.579546534379D-04 0.232568728206D-06 0.000000000000D+00  7 1 -2 -24 -11 11 23 21 2 0.31274138D+00 0.15135130D-01 0.36824187D+05 0.36824187D+05 0.36824187D+05 0.11591662D+01  1  2  5  2  7  2       -2 -.173033708320D-02 0.100000000000D+01
0.127790169868D-03 0.000000000000D+00 0.565894622507D-04 0.232568728206D-06 0.000000000000D+00  7 1 -2 -24 -11 11 23 21 2 0.31274138D+00 0.12155738D-01 0.36824187D+05 0.36824187D+05 0.36824187D+05 0.11591662D+01  1  2  6  2  7  2       -2 0.266744517367D-02 0.100000000000D+01
0.142870070411D-05 0.000000000000D+00 0.000000000000D+00 0.232568728206D-06 0.000000000000D+00  7 1 21 -24 -11 11 23 2 2 0.31274138D+00 0.14154059D-01 0.55468773D+05 0.55468773D+05 0.55468773D+05 0.11433513D+01  1  2 12  4  7  2       -2 0.313140688919D-03 0.100000000000D+01
-.280362319158D-05 0.000000000000D+00 -.177832065271D-05 0.232568728206D-06 0.000000000000D+00  7 1 21 -24 -11 11 23 2 2 0.31274138D+00 0.15135130D-01 0.36824187D+05 0.36824187D+05 0.36824187D+05 0.11591662D+01  1  2  5  4  7  2       -2 -.574956108787D-03 0.100000000000D+01
  </mgrwgt>
  </event>
  <event>
  8     66 0.29493621E-05 0.28863956E+03 0.75467711E-02 0.96884419E-01
        1 -1    0    0  501    0 0.00000000E+00 0.00000000E+00 0.57792196E+03 0.57792205E+03 0.32000000E+00 0.0000E+00 0.9000E+01
       -2 -1    0    0    0  501 0.00000000E+00 0.00000000E+00 -.32860854E+03 0.32860869E+03 0.32000000E+00 0.0000E+00 0.9000E+01
       25  2    1    2    0    0 0.34718109E+03 -.15248994E+03 0.14437545E+03 0.50495001E+03 0.30057003E+03 0.0000E+00 0.0000E+00
       23  2    3    3    0    0 0.55773482E+02 -.76139524E+00 0.12347782E+03 0.16334803E+03 0.91238952E+02 0.0000E+00 0.0000E+00
      -24  1    1    2    0    0 -.34718109E+03 0.15248994E+03 0.10493797E+03 0.40158074E+03 0.80419002E+02 0.0000E+00 0.9000E+01
      -11  1    4    4    0    0 0.21547517E+02 -.34548619E+02 0.12815121E+02 0.42686413E+02 0.51099893E-03 0.0000E+00 0.9000E+01
       11  1    4    4    0    0 0.34225966E+02 0.33787224E+02 0.11066270E+03 0.12066162E+03 0.51099893E-03 0.0000E+00 0.9000E+01
       23  1    3    3    0    0 0.29140761E+03 -.15172854E+03 0.20897632E+02 0.34160198E+03 0.91188000E+02 0.0000E+00 0.9000E+01
#aMCatNLO 1  0  0  1  2 0.57847461D+01 0.00000000D+00  -5  7  0 0.00000000D+00 0.00000000D+00 0.00000000D+00 0.00000000D+00 0.00000000D+00
  <mgrwgt>
 0.2196389719D-02   11    2    0
 0.435786875435674D+03 0.000000000000000D+00 0.000000000000000D+00 0.435786875435674D+03
 0.435786875435674D+03 0.000000000000000D+00 0.000000000000000D+00 -.435786875435674D+03
 0.387669818167289D+03 -.347181093870695D+03 0.152489939515394D+03 -.572523963057557D+01
 0.407327139997875D+02 0.215475165595586D+02 -.345486192564259D+02 0.111867214971736D+01
 0.938460674926582D+02 0.342259656164525D+02 0.337872240125910D+02 0.805859240499292D+02
 0.349325151211613D+03 0.291407611694684D+03 -.151728544271559D+03 -.759793565690710D+02
 0.000000000000000D+00 0.000000000000000D+00 -.000000000000000D+00 0.000000000000000D+00
 0.438975326162403D+03 0.000000000000000D+00 0.000000000000000D+00 0.438975326162403D+03
 0.438428185231117D+03 0.000000000000000D+00 0.000000000000000D+00 -.438428185231117D+03
 0.389445281620912D+03 -.348100263934788D+03 0.154899449005230D+03 -.572523963057557D+01
 0.404683938352095D+02 0.214514720643308D+02 -.342968485213482D+02 0.111867214971736D+01
 0.939766912691363D+02 0.340038092624500D+02 0.343695839741554D+02 0.805859240499292D+02
 0.347702580983184D+03 0.290583168796263D+03 -.149567352273282D+03 -.759793565690710D+02
 0.581056368507880D+01 0.206181381174432D+01 -.540483218475538D+01 0.547140931286750D+00
0.576250017972D-04 0.000000000000D+00 0.000000000000D+00 0.478454914342D-05 0.000000000000D+00  7 1 -2 -24 -11 11 23 21 0 0.88911090D-01 0.50555178D-01 0.16703595D+06 0.16703595D+06 0.16703595D+06 0.11038839D+01  1  2  2  1  7  1        1 0.857715757509D-03 0.100000000000D+01
-.318536025201D-05 0.000000000000D+00 -.221295179913D-06 0.478454914342D-05 0.000000000000D+00  7 1 -2 -24 -11 11 23 21 2 0.88911090D-01 0.50555178D-01 0.16703595D+06 0.16703595D+06 0.16703595D+06 0.11038839D+01  1  2  3  1  7  1        1 -.577747119587D-04 0.100000000000D+01
0.368807394040D-05 0.000000000000D+00 0.000000000000D+00 0.478454914342D-05 0.000000000000D+00  7 1 -2 -24 -11 11 23 21 2 0.88911090D-01 0.50555178D-01 0.16703595D+06 0.16703595D+06 0.16703595D+06 0.11038839D+01  1  2 15  1  7  1        1 0.668927194199D-04 0.100000000000D+01
0.137849818556D-04 0.000000000000D+00 0.000000000000D+00 0.478454914342D-05 0.000000000000D+00  7 1 -2 -24 -11 11 23 21 2 0.89829257D-01 0.50555178D-01 0.16945097D+06 0.16945097D+06 0.16945097D+06 0.11033973D+01  1  2 12  1  7  1        1 0.246065158414D-03 0.100000000000D+01
-.209407945923D-03 0.000000000000D+00 0.000000000000D+00 0.478454914342D-05 0.000000000000D+00  7 1 -2 -24 -11 11 23 21 2 0.88911090D-01 0.50555178D-01 0.16703595D+06 0.16703595D+06 0.16703595D+06 0.11038839D+01  1  2  4  1  7  1        1 -.379815242245D-02 0.100000000000D+01
-.543661471671D-02 0.000000000000D+00 -.598422456375D-03 0.478454914342D-05 0.000000000000D+00  7 1 -2 -24 -11 11 23 21 2 0.90007594D-01 0.50555178D-01 0.16703595D+06 0.16703595D+06 0.16703595D+06 0.11038839D+01  1  2  5  1  7  1        1 -.968871701850D-01 0.100000000000D+01
0.544358570753D-02 0.000000000000D+00 0.598377506264D-03 0.478454914342D-05 0.000000000000D+00  7 1 -2 -24 -11 11 23 21 2 0.88911090D-01 0.50555178D-01 0.16703595D+06 0.16703595D+06 0.16703595D+06 0.11038839D+01  1  2  6  1  7  1        1 0.987334465784D-01 0.100000000000D+01
0.198265965067D-03 0.000000000000D+00 0.000000000000D+00 0.478454914342D-05 0.928460115704D-06  7 1 -2 -24 -11 11 23 21 2 0.89561611D-01 0.50861594D-01 0.16945097D+06 0.16945097D+06 0.16945097D+06 0.11033973D+01  1  2 11  1  7  1        1 0.351207589537D-02 0.100000000000D+01
0.114822994585D-05 0.000000000000D+00 0.000000000000D+00 0.478454914342D-05 0.000000000000D+00  7 21 -2 -24 -11 11 23 -1 2 0.89829257D-01 0.50555178D-01 0.16945097D+06 0.16945097D+06 0.16945097D+06 0.11033973D+01  1  2 12  3  7  1        1 0.517483790027D-04 0.100000000000D+01
-.122347263658D-04 0.000000000000D+00 -.135036291590D-05 0.478454914342D-05 0.000000000000D+00  7 21 -2 -24 -11 11 23 -1 2 0.90007594D-01 0.50555178D-01 0.16703595D+06 0.16703595D+06 0.16703595D+06 0.11038839D+01  1  2  5  3  7  1        1 -.549626420677D-03 0.100000000000D+01
0.471836905681D-06 0.000000000000D+00 0.000000000000D+00 0.478454914342D-05 0.125923975377D-08  7 21 -2 -24 -11 11 23 -1 2 0.89561611D-01 0.50861594D-01 0.16945097D+06 0.16945097D+06 0.16945097D+06 0.11033973D+01  1  2 11  3  7  1        1 0.211689708861D-04 0.100000000000D+01
  </mgrwgt>
  </event>
  <event>
  9     66 0.29493621E-05 0.17225851E+03 0.75467711E-02 0.10596869E+00
        1 -1    0    0  501    0 0.00000000E+00 0.00000000E+00 0.48558566E+03 0.48558577E+03 0.32000000E+00 0.0000E+00 0.9000E+01
       21 -1    0    0  502  501 0.00000000E+00 0.00000000E+00 -.13171708E+03 0.13171921E+03 0.75000000E+00 0.0000E+00 0.9000E+01
       25  2    1    2    0    0 -.23868167E+01 0.79651301E+02 0.34027059E+03 0.45991548E+03 0.29897850E+03 0.0000E+00 0.0000E+00
       23  2    3    3    0    0 -.52406425E+02 0.13282679E+03 0.28335873E+03 0.32997778E+03 0.90574691E+02 0.0000E+00 0.0000E+00
      -24  1    1    2    0    0 0.32613925E+02 -.29274017E+02 0.30032125E+02 0.96383508E+02 0.80419002E+02 0.0000E+00 0.9000E+01
      -11  1    4    4    0    0 -.26703686E+02 0.77698158E+02 0.69420433E+02 0.10756062E+03 0.51099893E-03 0.0000E+00 0.9000E+01
       11  1    4    4    0    0 -.25702739E+02 0.55128632E+02 0.21393830E+03 0.22241716E+03 0.51099893E-03 0.0000E+00 0.9000E+01
       23  1    3    3    0    0 0.50019608E+02 -.53175488E+02 0.56911863E+02 0.12993770E+03 0.91188000E+02 0.0000E+00 0.9000E+01
        2  1    1    2  502    0 -.30227108E+02 -.50377284E+02 -.16434134E+02 0.61006000E+02 0.32000000E+00 0.0000E+00 0.9000E+01
#aMCatNLO 2  0  0  2  1 0.58749884D+02 0.00000000D+00  -5  7  0 0.00000000D+00 0.00000000D+00 0.00000000D+00 0.00000000D+00 0.00000000D+00
  <mgrwgt>
 0.8757775625D-04    2    2    0
 0.205482911349630D+03 0.000000000000000D+00 0.000000000000000D+00 0.205482911349630D+03
 0.205482911349630D+03 0.000000000000000D+00 0.000000000000000D+00 -.205482911349630D+03
 0.104597483689360D+03 0.250411531263529D+02 -.418949950510972D+02 -.457292868908590D+02
 0.754861843013946D+02 -.324737694066963D+02 0.680815864563124D+02 -.291820261402235D+01
 0.103434865205920D+03 -.334102534871383D+02 0.422830874843014D+02 0.882874102853111D+02
 0.127447289502585D+03 0.408428697674817D+02 -.684696788895166D+02 -.396399207804298D+02
 0.000000000000000D+00 -.000000000000000D+00 -.000000000000000D+00 -.000000000000000D+00
 0.217556424318059D+03 0.000000000000000D+00 0.000000000000000D+00 0.217556424318059D+03
 0.293994840429973D+03 0.000000000000000D+00 0.000000000000000D+00 -.293994840429973D+03
 0.102367083492405D+03 0.326139248394439D+02 -.292740167279971D+02 -.457292868908590D+02
 0.822107442158009D+02 -.267036858809130D+02 0.776981577541763D+02 -.291820261402235D+01
 0.107212236425829D+03 -.257027389381355D+02 0.551286317227183D+02 0.882874102853111D+02
 0.123353834145347D+03 0.500196079919746D+02 -.531754882554756D+02 -.396399207804298D+02
 0.964073664686509D+02 -.302271080123700D+02 -.503772844934219D+02 -.764384161119140D+02
-.193594223625D-06 0.000000000000D+00 0.000000000000D+00 0.144065140582D-06 0.000000000000D+00  7 1 21 -24 -11 11 23 2 2 0.70559710D-01 0.20541172D-01 0.42051889D+05 0.42051889D+05 0.42051889D+05 0.11539679D+01  1  2 13  4  7  2       -2 -.349967425116D-03 0.100000000000D+01
0.255045075611D-06 0.000000000000D+00 0.000000000000D+00 0.144065140582D-06 0.150241417434D-10  7 1 21 -24 -11 11 23 2 2 0.74705571D-01 0.20264314D-01 0.42051889D+05 0.42051889D+05 0.42051889D+05 0.11539679D+01  1  2  1  4  7  2       -2 0.437545181369D-03 0.100000000000D+01
  </mgrwgt>
  </event>
  <event>
  9     66 0.29493621E-05 0.26717341E+03 0.75467711E-02 0.99683563E-01
        1 -1    0    0  502    0 0.00000000E+00 0.00000000E+00 0.13132677E+04 0.13132677E+04 0.32000000E+00 0.0000E+00 0.9000E+01
       -2 -1    0    0    0  501 0.00000000E+00 0.00000000E+00 -.12806298E+03 0.12806338E+03 0.32000000E+00 0.0000E+00 0.9000E+01
       25  2    1    2    0    0 -.14181665E+03 0.24432239E+02 0.90364176E+03 0.96277164E+03 0.29941930E+03 0.0000E+00 0.0000E+00
       23  2    3    3    0    0 -.14987380E+03 -.22951801E+02 0.78911807E+03 0.80869020E+03 0.91014139E+02 0.0000E+00 0.0000E+00
      -24  1    1    2    0    0 0.25625671E+03 0.37067161E+01 0.20685034E+03 0.33902142E+03 0.80419002E+02 0.0000E+00 0.9000E+01
      -13  1    4    4    0    0 -.11322893E+03 -.46066376E+02 0.68653600E+03 0.69733391E+03 0.10565837E+00 0.0000E+00 0.9000E+01
       13  1    4    4    0    0 -.36644866E+02 0.23114575E+02 0.10258207E+03 0.11135628E+03 0.10565837E+00 0.0000E+00 0.9000E+01
       23  1    3    3    0    0 0.80571455E+01 0.47384039E+02 0.11452369E+03 0.15408145E+03 0.91188000E+02 0.0000E+00 0.9000E+01
       21  1    1    2  502  501 -.11444006E+03 -.28138955E+02 0.74712577E+02 0.13953802E+03 0.75000000E+00 0.0000E+00 0.9000E+01
#aMCatNLO 2  0  0  1  2 0.11784875D+03 0.00000000D+00  -5  7  0 0.00000000D+00 0.00000000D+00 0.00000000D+00 0.00000000D+00 0.00000000D+00
  <mgrwgt>
 0.1586534872D-03    1    2    0
 0.334508648328880D+03 0.000000000000000D+00 0.000000000000000D+00 0.334508648328880D+03
 0.334508648328880D+03 0.000000000000000D+00 0.000000000000000D+00 -.334508648328880D+03
 0.272339329524198D+03 0.206700466729385D+03 -.847836082119279D+01 -.157811688106296D+03
 0.238627617955421D+03 -.151648074623328D+03 -.555130880127462D+02 0.175682379803455D+03
 0.517016708056700D+02 -.449119001362795D+02 0.210819134909914D+02 0.145443086396388D+02
 0.106348678372471D+03 -.101404919697783D+02 0.429095353429476D+02 -.324150003367972D+02
 0.000000000000000D+00 -.000000000000000D+00 -.000000000000000D+00 -.000000000000000D+00
 0.369825192282210D+03 0.000000000000000D+00 0.000000000000000D+00 0.369825192282210D+03
 0.454756613872124D+03 0.000000000000000D+00 0.000000000000000D+00 -.454756613872124D+03
 0.311533283994042D+03 0.256256711979379D+03 0.370671610734636D+01 -.157811688106296D+03
 0.214026242009394D+03 -.113229033931206D+03 -.460664690448930D+02 0.175682379803455D+03
 0.457018976462465D+02 -.366447627253605D+02 0.231146684913486D+02 0.145443086396388D+02
 0.108056227754474D+03 0.805714543404699D+01 0.473840392236326D+02 -.324150003367972D+02
 0.145264154750179D+03 -.114440060756860D+03 -.281389547774346D+02 -.849314215899140D+02
0.613996788089D-05 0.000000000000D+00 0.000000000000D+00 0.283244552886D-05 0.141075061975D-08  7 1 -2 -24 -13 13 23 21 2 0.20204071D+00 0.19701982D-01 0.10728906D+06 0.10728906D+06 0.10728906D+06 0.11192232D+01  1  2  1  1  7  1        1 0.158653487201D-03 0.100000000000D+01
  </mgrwgt>
  </event>
  <event>
  8     66 0.29493621E-05 0.18839036E+03 0.75467711E-02 0.97270796E-01
        1 -1    0    0  501    0 0.00000000E+00 0.00000000E+00 0.17000799E+03 0.17000829E+03 0.32000000E+00 0.0000E+00 0.9000E+01
       -2 -1    0    0    0  501 0.00000000E+00 0.00000000E+00 -.84031864E+03 0.84031870E+03 0.32000000E+00 0.0000E+00 0.9000E+01
       25  2    1    2    0    0 0.89895451E+02 0.24257467E+03 -.61859549E+03 0.73452754E+03 0.29991109E+03 0.0000E+00 0.0000E+00
       23  2    3    3    0    0 0.15476529E+03 0.21197158E+03 -.47830590E+03 0.55248066E+03 0.87029316E+02 0.0000E+00 0.0000E+00
      -24  1    1    2    0    0 -.89895451E+02 -.24257467E+03 -.51715158E+02 0.27579945E+03 0.80419002E+02 0.0000E+00 0.9000E+01
      -13  1    4    4    0    0 0.12120199E+03 0.15676026E+03 -.42422977E+03 0.46822495E+03 0.10565837E+00 0.0000E+00 0.9000E+01
       13  1    4    4    0    0 0.33563301E+02 0.55211318E+02 -.54076133E+02 0.84255707E+02 0.10565837E+00 0.0000E+00 0.9000E+01
       23  1    3    3    0    0 -.64869837E+02 0.30603096E+02 -.14028959E+03 0.18204688E+03 0.91188000E+02 0.0000E+00 0.9000E+01
#aMCatNLO 1  0  0  1  2 0.13576725D+03 0.00000000D+00  -5  7  0 0.00000000D+00 0.00000000D+00 0.00000000D+00 0.00000000D+00 0.00000000D+00
  <mgrwgt>
 0.1197767445D-02    9    2    0
 0.377969662945486D+03 0.000000000000000D+00 0.000000000000000D+00 0.377969662945486D+03
 0.377969662945486D+03 0.000000000000000D+00 0.000000000000000D+00 -.377969662945486D+03
 0.322753959652717D+03 -.898954508879495D+02 -.242574674820141D+03 0.175440125292625D+03
 0.249616309627219D+03 0.121202116272973D+03 0.156760410766828D+03 -.151804224773488D+03
 0.646583650510049D+02 0.335631714102402D+02 0.552111684998998D+02 0.243814864836329D+01
 0.118910691560031D+03 -.648698367952638D+02 0.306030955534137D+02 -.260740491674998D+02
 0.000000000000000D+00 0.000000000000000D+00 -.000000000000000D+00 0.000000000000000D+00
 0.470970956727462D+03 0.000000000000000D+00 0.000000000000000D+00 0.470970956727462D+03
 0.437013123837633D+03 0.000000000000000D+00 0.000000000000000D+00 -.437013123837633D+03
 0.308815152824967D+03 -.129949777369611D+03 -.203060090758459D+03 0.175440125292625D+03
 0.257886462755013D+03 0.890161189945443D+02 0.188512693398514D+03 -.151804224773488D+03
 0.683656034698867D+02 0.251267463860346D+02 0.635339105125929D+02 0.243814864836329D+01
 0.132967293023043D+03 -.808440236715890D+02 0.463620261256345D+02 -.260740491674998D+02
 0.139949568492186D+03 0.966509356606214D+02 -.953485392782816D+02 0.339578328898290D+02
0.100520326519D-03 0.000000000000D+00 0.000000000000D+00 0.559593509857D-06 0.000000000000D+00  7 1 -2 -24 -13 13 23 21 0 0.26155103D-01 0.12927982D+00 0.10552349D+06 0.10552349D+06 0.10552349D+06 0.11198110D+01  1  2  2  1  7  1        1 0.928807808476D-03 0.100000000000D+01
-.542868201516D-05 0.000000000000D+00 -.386024521441D-06 0.559593509857D-06 0.000000000000D+00  7 1 -2 -24 -13 13 23 21 2 0.26155103D-01 0.12927982D+00 0.10552349D+06 0.10552349D+06 0.10552349D+06 0.11198110D+01  1  2  3  1  7  1        1 -.629007506475D-04 0.100000000000D+01
0.652655649964D-05 0.000000000000D+00 0.000000000000D+00 0.559593509857D-06 0.000000000000D+00  7 1 -2 -24 -13 13 23 21 2 0.26155103D-01 0.12927982D+00 0.10552349D+06 0.10552349D+06 0.10552349D+06 0.11198110D+01  1  2 15  1  7  1        1 0.756215416236D-04 0.100000000000D+01
0.520130682295D-04 0.000000000000D+00 0.000000000000D+00 0.559593509857D-06 0.000000000000D+00  7 1 -2 -24 -13 13 23 21 2 0.34219245D-01 0.12927982D+00 0.15883762D+06 0.15883762D+06 0.15883762D+06 0.11055953D+01  1  2 12  1  7  1        1 0.409699657262D-03 0.100000000000D+01
-.615314666869D-04 0.000000000000D+00 0.000000000000D+00 0.559593509857D-06 0.000000000000D+00  7 1 -2 -24 -13 13 23 21 2 0.26155103D-01 0.12927982D+00 0.10552349D+06 0.10552349D+06 0.10552349D+06 0.11198110D+01  1  2  4  1  7  1        1 -.712949373760D-03 0.100000000000D+01
-.107896441079D-03 0.000000000000D+00 -.480504394212D-04 0.559593509857D-06 0.000000000000D+00  7 1 -2 -24 -13 13 23 21 2 0.37430336D-01 0.12927982D+00 0.10552349D+06 0.10552349D+06 0.10552349D+06 0.11198110D+01  1  2  5  1  7  1        1 -.784522865403D-03 0.100000000000D+01
0.120241938823D-03 0.000000000000D+00 0.451207778032D-04 0.559593509857D-06 0.000000000000D+00  7 1 -2 -24 -13 13 23 21 2 0.26155103D-01 0.12927982D+00 0.10552349D+06 0.10552349D+06 0.10552349D+06 0.11198110D+01  1  2  6  1  7  1        1 0.139321260485D-02 0.100000000000D+01
0.185621396333D-05 0.000000000000D+00 0.000000000000D+00 0.559593509857D-06 0.000000000000D+00  7 21 -2 -24 -13 13 23 -1 2 0.34219245D-01 0.12927982D+00 0.15883762D+06 0.15883762D+06 0.15883762D+06 0.11055953D+01  1  2 12  3  7  1        1 0.857515560813D-04 0.100000000000D+01
-.333524157676D-05 0.000000000000D+00 -.211172951570D-05 0.559593509857D-06 0.000000000000D+00  7 21 -2 -24 -13 13 23 -1 2 0.37430336D-01 0.12927982D+00 0.10552349D+06 0.10552349D+06 0.10552349D+06 0.11198110D+01  1  2  5  3  7  1        1 -.134952733292D-03 0.100000000000D+01
  </mgrwgt>
  </event>
  <event>
  8     66 0.29493621E-05 0.28582734E+03 0.75467711E-02 0.94378503E-01
        3 -1    0    0  501    0 0.00000000E+00 0.00000000E+00 0.21507138E+03 0.21507196E+03 0.50000000E+00 0.0000E+00 0.9000E+01
       -4 -1    0    0    0  501 0.00000000E+00 0.00000000E+00 -.41742941E+03 0.41743229E+03 0.15500000E+01 0.0000E+00 0.9000E+01
       25  2    1    2    0    0 -.20487968E+03 -.43927477E+02 -.71824883E+02 0.37286715E+03 0.29994298E+03 0.0000E+00 0.0000E+00
       23  2    3    3    0    0 -.24479874E+03 -.33289954E+02 -.35886889E+02 0.26650231E+03 0.93278990E+02 0.0000E+00 0.0000E+00
      -24  1    1    2    0    0 0.20487968E+03 0.43927477E+02 -.13053315E+03 0.25963710E+03 0.80419002E+02 0.0000E+00 0.9000E+01
      -13  1    4    4    0    0 -.56051315E+02 -.54175403E+01 -.49837042E+02 0.75198681E+02 0.10565837E+00 0.0000E+00 0.9000E+01
       13  1    4    4    0    0 -.18874742E+03 -.27872414E+02 0.13950153E+02 0.19130363E+03 0.10565837E+00 0.0000E+00 0.9000E+01
       23  1    3    3    0    0 0.39919061E+02 -.10637523E+02 -.35937994E+02 0.10636484E+03 0.91188000E+02 0.0000E+00 0.9000E+01
#aMCatNLO 1  0  0  2  1 0.36099738D+03 0.00000000D+00  -5  7  0 0.00000000D+00 0.00000000D+00 0.00000000D+00 0.00000000D+00 0.00000000D+00
  <mgrwgt>
 0.1312148080D-03    5    2    0
 0.299630126742884D+03 0.000000000000000D+00 0.000000000000000D+00 0.299630126742884D+03
 0.299630126742884D+03 0.000000000000000D+00 0.000000000000000D+00 -.299630126742884D+03
 0.229962085747053D+03 0.204879675649850D+03 0.439274772153910D+02 -.501003011754227D+02
 0.625411883051028D+02 -.560511455537438D+02 -.541751162580614D+01 -.272088199764636D+02
 0.206627076055469D+03 -.188747591642738D+03 -.278724426004446D+02 0.793235283619149D+02
 0.100129903378142D+03 0.399190615466323D+02 -.106375229891403D+02 -.201440721002853D+01
 0.000000000000000D+00 -.000000000000000D+00 0.000000000000000D+00 -.000000000000000D+00
 0.470578409219432D+03 0.000000000000000D+00 0.000000000000000D+00 0.470578409219432D+03
 0.619538872572016D+03 0.000000000000000D+00 0.000000000000000D+00 -.619538872572016D+03
 0.378077851589496D+03 0.365941400740164D+03 -.724547821865618D+01 -.501003011754227D+02
 0.418203782051600D+02 -.284071489950657D+02 -.142006350098563D+02 -.272088199764636D+02
 0.137942420008421D+03 -.974756964237362D+02 -.568715895039315D+02 0.793235283619149D+02
 0.141753488049417D+03 0.103990767863606D+03 -.309945542459663D+02 -.201440721002853D+01
 0.390523143938954D+03 -.344049323184968D+03 0.109312256978410D+03 -.148960463352584D+03
0.204190388230D-04 0.000000000000D+00 0.000000000000D+00 0.830515072593D-06 0.000000000000D+00  7 3 -4 -24 -13 13 23 21 0 0.33088170D-01 0.64220176D-01 0.81697268D+05 0.81697268D+05 0.81697268D+05 0.11289984D+01  1  2  2  2  7  2       -4 0.126207237414D-03 0.100000000000D+01
-.113132337938D-05 0.000000000000D+00 -.784144855368D-07 0.830515072593D-06 0.000000000000D+00  7 3 -4 -24 -13 13 23 21 2 0.33088170D-01 0.64220176D-01 0.81697268D+05 0.81697268D+05 0.81697268D+05 0.11289984D+01  1  2  3  2  7  2       -4 -.891296906028D-05 0.100000000000D+01
0.129661137716D-05 0.000000000000D+00 0.000000000000D+00 0.830515072593D-06 0.000000000000D+00  7 3 -4 -24 -13 13 23 21 2 0.33088170D-01 0.64220176D-01 0.81697268D+05 0.81697268D+05 0.81697268D+05 0.11289984D+01  1  2 15  2  7  2       -4 0.102151668555D-04 0.100000000000D+01
0.122020806159D-06 0.000000000000D+00 -.621015569264D-05 0.830515072593D-06 0.000000000000D+00  7 3 -4 -24 -13 13 23 21 2 0.33088170D-01 0.18461538D+00 0.81697268D+05 0.81697268D+05 0.81697268D+05 0.11289984D+01  1  2  5  2  7  2       -4 0.455253585653D-07 0.100000000000D+01
0.348430911164D-06 0.000000000000D+00 -.740104779968D-06 0.830515072593D-06 0.000000000000D+00  7 3 21 -24 -13 13 23 4 2 0.33088170D-01 0.18461538D+00 0.81697268D+05 0.81697268D+05 0.81697268D+05 0.11289984D+01  1  2  5  4  7  2       -4 0.365984746793D-05 0.100000000000D+01
  </mgrwgt>
  </event>
  <event>
  8     66 0.29493621E-05 0.73955885E+03 0.75467711E-02 0.84451544E-01
        1 -1    0    0  501    0 0.00000000E+00 0.00000000E+00 0.13107338E+04 0.13107339E+04 0.32000000E+00 0.0000E+00 0.9000E+01
       -2 -1    0    0    0  501 0.00000000E+00 0.00000000E+00 -.15830108E+04 0.15830108E+04 0.32000000E+00 0.0000E+00 0.9000E+01
       25  2    1    2    0    0 0.72261487E+03 0.80699785E+03 -.10655607E+04 0.15486855E+04 0.29931470E+03 0.0000E+00 0.0000E+00
       23  2    3    3    0    0 0.22782134E+03 0.41602593E+03 -.52524429E+03 0.71325937E+03 0.88753800E+02 0.0000E+00 0.0000E+00
      -24  1    1    2    0    0 -.72261487E+03 -.80699785E+03 0.79328381E+03 0.13450592E+04 0.80419002E+02 0.0000E+00 0.9000E+01
      -13  1    4    4    0    0 0.13031093E+03 0.29422863E+03 -.39876859E+03 0.51241373E+03 0.10565837E+00 0.0000E+00 0.9000E+01
       13  1    4    4    0    0 0.97510405E+02 0.12179730E+03 -.12647569E+03 0.20084564E+03 0.10565837E+00 0.0000E+00 0.9000E+01
       23  1    3    3    0    0 0.49479354E+03 0.39097192E+03 -.54031645E+03 0.83542612E+03 0.91188000E+02 0.0000E+00 0.9000E+01
#aMCatNLO 1  0  0  1  2 0.49404059D+03 0.00000000D+00  -5  7  0 0.00000000D+00 0.00000000D+00 0.00000000D+00 0.00000000D+00 0.00000000D+00
  <mgrwgt>
 0.1745478335D-02    9    2    0
 0.144045335825974D+04 0.000000000000000D+00 0.000000000000000D+00 0.144045335825974D+04
 0.144045335825974D+04 0.000000000000000D+00 0.000000000000000D+00 -.144045335825974D+04
 0.142602698422494D+04 -.722614874870187D+03 -.806997846854033D+03 0.923941535797906D+03
 0.477009606233237D+03 0.130310977853243D+03 0.294228873298700D+03 -.352117286720059D+03
 0.189786925548603D+03 0.975103589341382D+02 0.121797052930767D+03 -.108056859602279D+03
 0.788083200512704D+03 0.494793538082805D+03 0.390971920624567D+03 -.463767389475569D+03
 0.000000000000000D+00 -.000000000000000D+00 0.000000000000000D+00 0.000000000000000D+00
 0.171035312484665D+04 0.000000000000000D+00 0.000000000000000D+00 0.171035312484665D+04
 0.170666201345961D+04 0.000000000000000D+00 0.000000000000000D+00 -.170666201345961D+04
 0.156466599540721D+04 -.683702138905594D+03 -.105858201614830D+04 0.923941535797906D+03
 0.437524766211890D+03 0.142210238261404D+03 0.217296078140649D+03 -.352117286720059D+03
 0.174472053364075D+03 0.102249833552795D+03 0.911547258039632D+02 -.108056859602279D+03
 0.746297946364135D+03 0.514757796816181D+03 0.261896148271206D+03 -.463767389475569D+03
 0.494054376958948D+03 -.755157297247867D+02 0.488235063932483D+03 0.369111138703463D+01
0.212257709604D-01 0.000000000000D+00 0.000000000000D+00 0.132920661400D-04 0.000000000000D+00  7 1 -2 -24 -13 13 23 21 0 0.20165137D+00 0.24354012D+00 0.12113407D+07 0.12113407D+07 0.12113407D+07 0.10423658D+01  1  2  2  1  7  1        1 0.122280929849D-02 0.100000000000D+01
-.107538962553D-02 0.000000000000D+00 -.815125493619D-04 0.132920661400D-04 0.000000000000D+00  7 1 -2 -24 -13 13 23 21 2 0.20165137D+00 0.24354012D+00 0.12113407D+07 0.12113407D+07 0.12113407D+07 0.10423658D+01  1  2  3  1  7  1        1 -.673133771292D-04 0.100000000000D+01
0.132702048462D-02 0.000000000000D+00 0.000000000000D+00 0.132920661400D-04 0.000000000000D+00  7 1 -2 -24 -13 13 23 21 2 0.20165137D+00 0.24354012D+00 0.12113407D+07 0.12113407D+07 0.12113407D+07 0.10423658D+01  1  2 15  1  7  1        1 0.830640618235D-04 0.100000000000D+01
0.845832908857D-02 0.000000000000D+00 0.000000000000D+00 0.132920661400D-04 0.000000000000D+00  7 1 -2 -24 -13 13 23 21 2 0.25485884D+00 0.24354012D+00 0.18743842D+07 0.18743842D+07 0.18743842D+07 0.10301696D+01  1  2 12  1  7  1        1 0.287600571712D-03 0.100000000000D+01
-.968633564669D-02 0.000000000000D+00 0.000000000000D+00 0.132920661400D-04 0.000000000000D+00  7 1 -2 -24 -13 13 23 21 2 0.20165137D+00 0.24354012D+00 0.12113407D+07 0.12113407D+07 0.12113407D+07 0.10423658D+01  1  2  4  1  7  1        1 -.606310446844D-03 0.100000000000D+01
-.226106559269D-01 0.000000000000D+00 -.997621788775D-02 0.132920661400D-04 0.000000000000D+00  7 1 -2 -24 -13 13 23 21 2 0.26717304D+00 0.24354012D+00 0.12113407D+07 0.12113407D+07 0.12113407D+07 0.10423658D+01  1  2  5  1  7  1        1 -.721278882781D-03 0.100000000000D+01
0.248112339496D-01 0.000000000000D+00 0.959397043594D-02 0.132920661400D-04 0.000000000000D+00  7 1 -2 -24 -13 13 23 21 2 0.20165137D+00 0.24354012D+00 0.12113407D+07 0.12113407D+07 0.12113407D+07 0.10423658D+01  1  2  6  1  7  1        1 0.155304450428D-02 0.100000000000D+01
0.272703231226D-03 0.000000000000D+00 0.000000000000D+00 0.132920661400D-04 0.000000000000D+00  7 21 -2 -24 -13 13 23 -1 2 0.25485884D+00 0.24354012D+00 0.18743842D+07 0.18743842D+07 0.18743842D+07 0.10301696D+01  1  2 12  3  7  1        1 0.577769198163D-05 0.100000000000D+01
-.632053824766D-03 0.000000000000D+00 -.368119981017D-03 0.132920661400D-04 0.000000000000D+00  7 21 -2 -24 -13 13 23 -1 2 0.26717304D+00 0.24354012D+00 0.12113407D+07 0.12113407D+07 0.12113407D+07 0.10423658D+01  1  2  5  3  7  1        1 -.119150861235D-04 0.100000000000D+01
  </mgrwgt>
  </event>
  <event>
  8     66 0.29493621E-05 0.36782779E+03 0.75467711E-02 0.91038803E-01
        1 -1    0    0  501    0 0.00000000E+00 0.00000000E+00 0.14018292E+04 0.14018293E+04 0.32000000E+00 0.0000E+00 0.9000E+01
       -2 -1    0    0    0  501 0.00000000E+00 0.00000000E+00 -.13576212E+03 0.13576250E+03 0.32000000E+00 0.0000E+00 0.9000E+01
       25  2    1    2    0    0 0.31250820E+03 0.65355550E+02 0.10648015E+04 0.11517061E+04 0.30115086E+03 0.0000E+00 0.0000E+00
       23  2    3    3    0    0 0.29615069E+03 0.49811558E+02 0.96406335E+03 0.10139649E+04 0.92305719E+02 0.0000E+00 0.0000E+00
      -24  1    1    2    0    0 -.31250820E+03 -.65355550E+02 0.20126557E+03 0.38588569E+03 0.80419002E+02 0.0000E+00 0.9000E+01
      -11  1    4    4    0    0 0.23209036E+03 0.74602414E+02 0.70548166E+03 0.74641532E+03 0.51099893E-03 0.0000E+00 0.9000E+01
       11  1    4    4    0    0 0.64060330E+02 -.24790857E+02 0.25858169E+03 0.26754963E+03 0.51099893E-03 0.0000E+00 0.9000E+01
       23  1    3    3    0    0 0.16357508E+02 0.15543992E+02 0.10073819E+03 0.13774112E+03 0.91188000E+02 0.0000E+00 0.9000E+01
#aMCatNLO 1  0  0  1  2 0.50501723D+03 0.00000000D+00  -5  7  0 0.00000000D+00 0.00000000D+00 0.00000000D+00 0.00000000D+00 0.00000000D+00
  <mgrwgt>
 0.1128401906D-02    5    2    0
 0.436251794723696D+03 0.000000000000000D+00 0.000000000000000D+00 0.436251794723696D+03
 0.436251794723696D+03 0.000000000000000D+00 0.000000000000000D+00 -.436251794723696D+03
 0.387985734159300D+03 -.312508200089613D+03 -.653555504222910D+02 -.205263223356037D+03
 0.291683525795817D+03 0.232090362327094D+03 0.746024144825429D+02 0.160149376174033D+03
 0.962750544166957D+02 0.640603297707946D+02 -.247908565534401D+02 0.674579401104237D+02
 0.965592750755799D+02 0.163575079917247D+02 0.155439924931882D+02 -.223440929284202D+02
 0.000000000000000D+00 0.000000000000000D+00 0.000000000000000D+00 0.000000000000000D+00
 0.135116552485997D+04 0.000000000000000D+00 0.000000000000000D+00 0.135116552485997D+04
 0.579328506054615D+03 0.000000000000000D+00 0.000000000000000D+00 -.579328506054615D+03
 0.548256776788106D+03 -.402344739789790D+03 -.300173278025690D+03 -.205263223356037D+03
 0.248688963834828D+03 0.180239272411872D+03 -.609276843868808D+02 0.160149376174033D+03
 0.111392188868989D+03 0.441337548420592D+02 -.768755991236759D+02 0.674579401104237D+02
 0.997815650690271D+02 -.248224930851601D+01 -.336999901068380D+02 -.223440929284202D+02
 0.922374536353633D+03 0.180453961844375D+03 0.471676551643085D+03 0.771837018805354D+03
0.688132841410D-04 0.000000000000D+00 0.000000000000D+00 0.970713481021D-06 0.000000000000D+00  7 1 -2 -24 -11 11 23 21 0 0.21566607D+00 0.20886512D-01 0.13529728D+06 0.13529728D+06 0.13529728D+06 0.11111049D+01  1  2  2  1  7  1        1 0.111525938285D-02 0.100000000000D+01
-.368767094484D-05 0.000000000000D+00 -.264261130055D-06 0.970713481021D-06 0.000000000000D+00  7 1 -2 -24 -11 11 23 21 2 0.21566607D+00 0.20886512D-01 0.13529728D+06 0.13529728D+06 0.13529728D+06 0.11111049D+01  1  2  3  1  7  1        1 -.737846237114D-04 0.100000000000D+01
0.442076326117D-05 0.000000000000D+00 0.000000000000D+00 0.970713481021D-06 0.000000000000D+00  7 1 -2 -24 -11 11 23 21 2 0.21566607D+00 0.20886512D-01 0.13529728D+06 0.13529728D+06 0.13529728D+06 0.11111049D+01  1  2 15  1  7  1        1 0.884526734141D-04 0.100000000000D+01
-.196093433767D-04 0.000000000000D+00 -.191778805093D-04 0.970713481021D-06 0.000000000000D+00  7 1 -2 -24 -11 11 23 21 2 0.69348609D+00 0.20886512D-01 0.13529728D+06 0.13529728D+06 0.13529728D+06 0.11111049D+01  1  2  5  1  7  1        1 -.151771427450D-05 0.100000000000D+01
-.182139120995D-05 0.000000000000D+00 -.258192759142D-05 0.970713481021D-06 0.000000000000D+00  7 21 -2 -24 -11 11 23 -1 2 0.69348609D+00 0.20886512D-01 0.13529728D+06 0.13529728D+06 0.13529728D+06 0.11111049D+01  1  2  5  3  7  1        1 -.781272968409D-08 0.100000000000D+01
  </mgrwgt>
  </event>
  <event>
  8     66 0.29493621E-05 0.26349251E+03 0.75467711E-02 0.94952349E-01
        1 -1    0    0  501    0 0.00000000E+00 0.00000000E+00 0.13635763E+04 0.13635764E+04 0.32000000E+00 0.0000E+00 0.9000E+01
       -2 -1    0    0    0  501 0.00000000E+00 0.00000000E+00 -.56638389E+02 0.56639293E+02 0.32000000E+00 0.0000E+00 0.9000E+01
       25  2    1    2    0    0 -.44081573E+02 -.17880406E+03 0.86694410E+03 0.93650514E+03 0.30254870E+03 0.0000E+00 0.0000E+00
       23  2    3    3    0    0 0.76667178E+01 -.20211215E+03 0.39833027E+03 0.45573978E+03 0.90131270E+02 0.0000E+00 0.0000E+00
      -24  1    1    2    0    0 0.44081573E+02 0.17880406E+03 0.43999385E+03 0.48371053E+03 0.80419002E+02 0.0000E+00 0.9000E+01
      -11  1    4    4    0    0 0.13506488E+02 -.20909086E+03 0.39252376E+03 0.44494530E+03 0.51099893E-03 0.0000E+00 0.9000E+01
       11  1    4    4    0    0 -.58397707E+01 0.69787148E+01 0.58065118E+01 0.10794488E+02 0.51099893E-03 0.0000E+00 0.9000E+01
       23  1    3    3    0    0 -.51748290E+02 0.23308086E+02 0.46861383E+03 0.48076536E+03 0.91188000E+02 0.0000E+00 0.9000E+01
#aMCatNLO 1  0  0  1  1 0.34120615D+03 0.00000000D+00  -5  7  0 0.00000000D+00 0.00000000D+00 0.00000000D+00 0.00000000D+00 0.00000000D+00
  <mgrwgt>
 0.1532733259D-02    3    2    0
 0.277905443551978D+03 0.000000000000000D+00 0.000000000000000D+00 0.277905443551978D+03
 0.277905443551978D+03 0.000000000000000D+00 0.000000000000000D+00 -.277905443551978D+03
 0.201378962811414D+03 0.440815726520340D+02 0.178804060297276D+03 -.131222590418717D+02
 0.213947018252476D+03 0.135064884512975D+02 -.209090861396932D+03 -.432656106986721D+02
 0.139287479155094D+02 -.583977066570018D+01 0.697871480572109D+01 -.105453609101938D+02
 0.126556158124557D+03 -.517482904376312D+02 0.233080862939352D+02 0.669332306507376D+02
 0.000000000000000D+00 0.000000000000000D+00 -.000000000000000D+00 -.000000000000000D+00
 0.453745765255278D+03 0.000000000000000D+00 0.000000000000000D+00 0.453745765255278D+03
 0.554098385380100D+03 0.000000000000000D+00 0.000000000000000D+00 -.554098385380100D+03
 0.287305115909063D+03 -.606135493141113D+02 0.268757916404956D+03 -.131222590418717D+02
 0.161105794398325D+03 -.668444001371587D+02 -.140053525803136D+03 -.432656106986721D+02
 0.218550345098024D+02 -.135060475684329D+02 0.135655658111867D+02 -.105453609101938D+02
 0.181920668062662D+03 -.117836015304709D+03 0.800905378688941D+02 0.669332306507376D+02
 0.355657537755526D+03 0.258800012324412D+03 -.222360494281901D+03 -.100352620124821D+03
0.217339858987D-04 0.000000000000D+00 0.000000000000D+00 0.770721599834D-07 0.000000000000D+00  7 1 -2 -24 -11 11 23 21 0 0.20978105D+00 0.87136707D-02 0.69428301D+05 0.69428301D+05 0.69428301D+05 0.11349625D+01  1  2  2  1  7  1        1 0.151508239627D-02 0.100000000000D+01
-.120327990355D-05 0.000000000000D+00 -.834642285408D-07 0.770721599834D-07 0.000000000000D+00  7 1 -2 -24 -11 11 23 21 2 0.20978105D+00 0.87136707D-02 0.69428301D+05 0.69428301D+05 0.69428301D+05 0.11349625D+01  1  2  3  1  7  1        1 -.108050446422D-03 0.100000000000D+01
0.139984483128D-05 0.000000000000D+00 0.000000000000D+00 0.770721599834D-07 0.000000000000D+00  7 1 -2 -24 -11 11 23 21 2 0.20978105D+00 0.87136707D-02 0.69428301D+05 0.69428301D+05 0.69428301D+05 0.11349625D+01  1  2 15  1  7  1        1 0.125701308976D-03 0.100000000000D+01
  </mgrwgt>
  </event>
  <event>
  8     66 0.29493621E-05 0.18788286E+03 0.75467711E-02 0.99644902E-01
        1 -1    0    0  501    0 0.00000000E+00 0.00000000E+00 0.25400684E+04 0.25400684E+04 0.32000000E+00 0.0000E+00 0.9000E+01
       -2 -1    0    0    0  501 0.00000000E+00 0.00000000E+00 -.46144207E+02 0.46145317E+02 0.32000000E+00 0.0000E+00 0.9000E+01
       25  2    1    2    0    0 -.11181788E+03 0.23184655E+03 0.11412654E+04 0.12069353E+04 0.29656362E+03 0.0000E+00 0.0000E+00
       23  2    3    3    0    0 -.74553071E+02 -.88488065E+01 0.52199432E+03 0.53526955E+03 0.91645845E+02 0.0000E+00 0.0000E+00
      -24  1    1    2    0    0 0.11181788E+03 -.23184655E+03 0.13526588E+04 0.13792785E+04 0.80419002E+02 0.0000E+00 0.9000E+01
      -13  1    4    4    0    0 -.76831031E+02 -.35180668E+02 0.46267472E+03 0.47032817E+03 0.10565837E+00 0.0000E+00 0.9000E+01
       13  1    4    4    0    0 0.22779598E+01 0.26331861E+02 0.59319604E+02 0.64941378E+02 0.10565837E+00 0.0000E+00 0.9000E+01
       23  1    3    3    0    0 -.37264812E+02 0.24069535E+03 0.61927111E+03 0.67166575E+03 0.91188000E+02 0.0000E+00 0.9000E+01
#aMCatNLO 1  0  0  1  2 0.16457858D+02 0.00000000D+00  -5  7  0 0.00000000D+00 0.00000000D+00 0.00000000D+00 0.00000000D+00 0.00000000D+00
  <mgrwgt>
 0.8234497168D-02    9    2    0
 0.342360780297620D+03 0.000000000000000D+00 0.000000000000000D+00 0.342360780297620D+03
 0.342360780297620D+03 0.000000000000000D+00 0.000000000000000D+00 -.342360780297620D+03
 0.282860126264448D+03 0.111817883242219D+03 -.231846547260686D+03 0.853614350072499D+02
 0.912685901883444D+02 -.768311359553430D+02 -.351807490108919D+02 0.344854607307513D+02
 0.292288622614521D+02 0.227806481306305D+01 0.263319427981857D+02 -.124806088905750D+02
 0.281363981880995D+03 -.372648120999391D+02 0.240695353473392D+03 -.107366286847426D+03
 0.000000000000000D+00 -.000000000000000D+00 0.000000000000000D+00 0.000000000000000D+00
 0.358937006914671D+03 0.000000000000000D+00 0.000000000000000D+00 0.358937006914671D+03
 0.346569259040189D+03 0.000000000000000D+00 0.000000000000000D+00 -.346569259040189D+03
 0.289128534669814D+03 0.114757227634959D+03 -.238059441579167D+03 0.853614350072499D+02
 0.912695653884165D+02 -.758931059895402D+02 -.371634636119758D+02 0.344854607307513D+02
 0.286886071585039D+02 0.257569202249618D+01 0.257028479554448D+02 -.124806088905750D+02
 0.275832614052552D+03 -.344014814051730D+02 0.234643129361995D+03 -.107366286847426D+03
 0.205869446855739D+02 -.703833226274234D+01 0.148769278737030D+02 0.123677478744821D+02
0.154260511229D-03 0.000000000000D+00 0.000000000000D+00 0.132978708480D-06 0.000000000000D+00  7 1 -2 -24 -13 13 23 21 0 0.39077984D+00 0.70991957D-02 0.10261738D+06 0.10261738D+06 0.10261738D+06 0.11208024D+01  1  2  2  1  7  1        1 0.242391285806D-02 0.100000000000D+01
-.852397141053D-05 0.000000000000D+00 -.592400980845D-06 0.132978708480D-06 0.000000000000D+00  7 1 -2 -24 -13 13 23 21 2 0.39077984D+00 0.70991957D-02 0.10261738D+06 0.10261738D+06 0.10261738D+06 0.11208024D+01  1  2  3  1  7  1        1 -.168252809733D-03 0.100000000000D+01
0.985558802702D-05 0.000000000000D+00 0.000000000000D+00 0.132978708480D-06 0.000000000000D+00  7 1 -2 -24 -13 13 23 21 2 0.39077984D+00 0.70991957D-02 0.10261738D+06 0.10261738D+06 0.10261738D+06 0.11208024D+01  1  2 15  1  7  1        1 0.194537299253D-03 0.100000000000D+01
0.459018520944D-03 0.000000000000D+00 0.000000000000D+00 0.132978708480D-06 0.000000000000D+00  7 1 -2 -24 -13 13 23 21 2 0.41202648D+00 0.70991957D-02 0.10794921D+06 0.10794921D+06 0.10794921D+06 0.11190062D+01  1  2 12  1  7  1        1 0.723179263658D-02 0.100000000000D+01
-.460573867410D-03 0.000000000000D+00 0.000000000000D+00 0.132978708480D-06 0.000000000000D+00  7 1 -2 -24 -13 13 23 21 2 0.39077984D+00 0.70991957D-02 0.10261738D+06 0.10261738D+06 0.10261738D+06 0.11208024D+01  1  2  4  1  7  1        1 -.909116696303D-02 0.100000000000D+01
-.197180207523D-02 0.000000000000D+00 -.261241229047D-03 0.132978708480D-06 0.000000000000D+00  7 1 -2 -24 -13 13 23 21 2 0.41135336D+00 0.70991957D-02 0.10261738D+06 0.10261738D+06 0.10261738D+06 0.11208024D+01  1  2  5  1  7  1        1 -.314423620664D-01 0.100000000000D+01
0.198293874042D-02 0.000000000000D+00 0.260897742278D-03 0.132978708480D-06 0.000000000000D+00  7 1 -2 -24 -13 13 23 21 2 0.39077984D+00 0.70991957D-02 0.10261738D+06 0.10261738D+06 0.10261738D+06 0.11208024D+01  1  2  6  1  7  1        1 0.391407946525D-01 0.100000000000D+01
0.646965563115D-05 0.000000000000D+00 0.000000000000D+00 0.132978708480D-06 0.000000000000D+00  7 21 -2 -24 -13 13 23 -1 2 0.41202648D+00 0.70991957D-02 0.10794921D+06 0.10794921D+06 0.10794921D+06 0.11190062D+01  1  2 12  3  7  1        1 0.316191127296D-04 0.100000000000D+01
-.173499519148D-04 0.000000000000D+00 -.233068825635D-05 0.132978708480D-06 0.000000000000D+00  7 21 -2 -24 -13 13 23 -1 2 0.41135336D+00 0.70991957D-02 0.10261738D+06 0.10261738D+06 0.10261738D+06 0.11208024D+01  1  2  5  3  7  1        1 -.863775518345D-04 0.100000000000D+01
  </mgrwgt>
  </event>
  <event>
  8     66 0.29493621E-05 0.39084673E+03 0.75467711E-02 0.92093218E-01
        1 -1    0    0  501    0 0.00000000E+00 0.00000000E+00 0.10658200E+04 0.10658200E+04 0.32000000E+00 0.0000E+00 0.9000E+01
       -2 -1    0    0    0  501 0.00000000E+00 0.00000000E+00 -.17873590E+03 0.17873619E+03 0.32000000E+00 0.0000E+00 0.9000E+01
       25  2    1    2    0    0 0.37409869E+03 -.32784714E+02 0.57315743E+03 0.74853018E+03 0.30126952E+03 0.0000E+00 0.0000E+00
       23  2    3    3    0    0 0.17844473E+03 0.30303662E+01 0.93766545E+02 0.22156333E+03 0.91904507E+02 0.0000E+00 0.0000E+00
      -24  1    1    2    0    0 -.37409869E+03 0.32784714E+02 0.31392664E+03 0.49602603E+03 0.80419002E+02 0.0000E+00 0.9000E+01
      -11  1    4    4    0    0 0.18016256E+02 -.31417220E+01 0.52791968E+02 0.55869918E+02 0.51099893E-03 0.0000E+00 0.9000E+01
       11  1    4    4    0    0 0.16042847E+03 0.61720882E+01 0.40974577E+02 0.16569341E+03 0.51099893E-03 0.0000E+00 0.9000E+01
       23  1    3    3    0    0 0.19565396E+03 -.35815080E+02 0.47939089E+03 0.52696686E+03 0.91188000E+02 0.0000E+00 0.9000E+01
#aMCatNLO 1  0  0  2  1 0.38907312D+03 0.00000000D+00  -5  7  0 0.00000000D+00 0.00000000D+00 0.00000000D+00 0.00000000D+00 0.00000000D+00
  <mgrwgt>
 0.1067325039D-02    5    2    0
 0.436463634030534D+03 0.000000000000000D+00 0.000000000000000D+00 0.436463634030534D+03
 0.436463634030534D+03 0.000000000000000D+00 0.000000000000000D+00 -.436463634030534D+03
 0.388180053516463D+03 -.374098693377247D+03 0.327847138875107D+02 -.564966206283544D+02
 0.260071383433662D+02 0.180162561699259D+02 -.314172198632729D+01 0.184909529606027D+02
 0.194594524751882D+03 0.160428473786746D+03 0.617208821532351D+01 -.109961989746133D+03
 0.264145551449356D+03 0.195653963420575D+03 -.358150801165069D+02 0.147967657413885D+03
 0.000000000000000D+00 0.000000000000000D+00 0.000000000000000D+00 -.000000000000000D+00
 0.609699199793964D+03 0.000000000000000D+00 0.000000000000000D+00 0.609699199793964D+03
 0.764892940115910D+03 0.000000000000000D+00 0.000000000000000D+00 -.764892940115910D+03
 0.451855293455169D+03 -.418075721810913D+03 -.140452173208341D+03 -.564966206283544D+02
 0.278549131295695D+02 0.151965022421178D+02 -.142494618729955D+02 0.184909529606027D+02
 0.192788233468694D+03 0.140148443149471D+03 -.737161967130060D+02 -.109961989746133D+03
 0.283210672892505D+03 0.166999097493797D+03 -.148694006913292D+03 0.147967657413885D+03
 0.418883026963936D+03 0.957316789255269D+02 0.377111838707635D+03 -.155193740321946D+03
0.611013166436D-04 0.000000000000D+00 0.000000000000D+00 0.131419666462D-05 0.000000000000D+00  7 1 -2 -24 -11 11 23 21 0 0.16397233D+00 0.27497857D-01 0.15276116D+06 0.15276116D+06 0.15276116D+06 0.11069273D+01  1  2  2  2  7  2       -2 0.106192864317D-02 0.100000000000D+01
-.334422364400D-05 0.000000000000D+00 -.234645144257D-06 0.131419666462D-05 0.000000000000D+00  7 1 -2 -24 -11 11 23 21 2 0.16397233D+00 0.27497857D-01 0.15276116D+06 0.15276116D+06 0.15276116D+06 0.11069273D+01  1  2  3  2  7  2       -2 -.712161154585D-04 0.100000000000D+01
0.385159765700D-05 0.000000000000D+00 0.000000000000D+00 0.131419666462D-05 0.000000000000D+00  7 1 -2 -24 -11 11 23 21 2 0.16397233D+00 0.27497857D-01 0.15276116D+06 0.15276116D+06 0.15276116D+06 0.11069273D+01  1  2 15  2  7  2       -2 0.820207775078D-04 0.100000000000D+01
-.676281822613D-05 0.000000000000D+00 -.188703973391D-04 0.131419666462D-05 0.000000000000D+00  7 1 -2 -24 -11 11 23 21 2 0.16397233D+00 0.66174693D-01 0.15276116D+06 0.15276116D+06 0.15276116D+06 0.11069273D+01  1  2  5  2  7  2       -2 -.269935233923D-04 0.100000000000D+01
0.534748178624D-06 0.000000000000D+00 -.181378670084D-05 0.131419666462D-05 0.000000000000D+00  7 1 21 -24 -11 11 23 2 2 0.16397233D+00 0.66174693D-01 0.15276116D+06 0.15276116D+06 0.15276116D+06 0.11069273D+01  1  2  5  4  7  2       -2 0.215852572113D-04 0.100000000000D+01
  </mgrwgt>
  </event>
  <event>
  8     66 0.29493621E-05 0.14074630E+04 0.75467711E-02 0.78321018E-01
        1 -1    0    0  501    0 0.00000000E+00 0.00000000E+00 0.22264961E+04 0.22264961E+04 0.32000000E+00 0.0000E+00 0.9000E+01
       -2 -1    0    0    0  501 0.00000000E+00 0.00000000E+00 -.93562797E+03 0.93562802E+03 0.32000000E+00 0.0000E+00 0.9000E+01
       25  2    1    2    0    0 -.11876278E+04 0.74122819E+03 0.95259795E+03 0.17196356E+04 0.29970763E+03 0.0000E+00 0.0000E+00
       23  2    3    3    0    0 -.23393493E+03 0.22285844E+03 0.15400136E+03 0.36896573E+03 0.89598297E+02 0.0000E+00 0.0000E+00
      -24  1    1    2    0    0 0.11876278E+04 -.74122819E+03 0.33827014E+03 0.14424885E+04 0.80419002E+02 0.0000E+00 0.9000E+01
      -11  1    4    4    0    0 -.13840065E+03 0.12274266E+03 0.39045808E+02 0.18906368E+03 0.51099893E-03 0.0000E+00 0.9000E+01
       11  1    4    4    0    0 -.95534283E+02 0.10011578E+03 0.11495555E+03 0.17990205E+03 0.51099893E-03 0.0000E+00 0.9000E+01
       23  1    3    3    0    0 -.95369291E+03 0.51836975E+03 0.79859659E+03 0.13506699E+04 0.91188000E+02 0.0000E+00 0.9000E+01
#aMCatNLO 1  0  0  1  1 0.21867893D+04 0.00000000D+00  -5  7  0 0.00000000D+00 0.00000000D+00 0.00000000D+00 0.00000000D+00 0.00000000D+00
  <mgrwgt>
 0.6573772733D-03    5    2    0
 0.144331982348422D+04 0.000000000000000D+00 0.000000000000000D+00 0.144331982348422D+04
 0.144331982348422D+04 0.000000000000000D+00 0.000000000000000D+00 -.144331982348422D+04
 0.142888133112415D+04 0.118762784737181D+04 -.741228194131879D+03 -.274509567869203D+03
 0.189646060407388D+03 -.138400649294921D+03 0.122742660422014D+03 -.417747269926808D+02
 0.145664235371018D+03 -.955342831245222D+02 0.100115780670805D+03 0.454763749081007D+02
 0.112244802006588D+04 -.953692914952371D+03 0.518369753039060D+03 0.270807919953783D+03
 0.000000000000000D+00 -.000000000000000D+00 0.000000000000000D+00 0.000000000000000D+00
 0.301228636676818D+04 0.000000000000000D+00 0.000000000000000D+00 0.301228636676818D+04
 0.280566952773313D+04 0.000000000000000D+00 0.000000000000000D+00 -.280566952773313D+04
 0.278335264245026D+04 0.257666679439855D+04 -.101292519174547D+04 -.274509567869203D+03
 0.117174248741071D+03 -.372226611252983D+02 0.102952174583506D+03 -.417747269926808D+02
 0.971571125863798D+02 -.154607849289455D+02 0.844533479544844D+02 0.454763749081007D+02
 0.623743305723386D+03 -.377863610194330D+03 0.405737134943241D+03 0.270807919953783D+03
 0.219652858500022D+04 -.214611973814998D+04 0.419782534264240D+03 0.206616839035053D+03
0.961592998422D-02 0.000000000000D+00 0.000000000000D+00 0.311513369864D-04 0.000000000000D+00  7 1 -2 -24 -11 11 23 21 0 0.34253786D+00 0.14394277D+00 0.19809520D+07 0.19809520D+07 0.19809520D+07 0.10286557D+01  1  2  2  1  7  1        1 0.652285267442D-03 0.100000000000D+01
-.533807256397D-03 0.000000000000D+00 -.369277030719D-04 0.311513369864D-04 0.000000000000D+00  7 1 -2 -24 -11 11 23 21 2 0.34253786D+00 0.14394277D+00 0.19809520D+07 0.19809520D+07 0.19809520D+07 0.10286557D+01  1  2  3  1  7  1        1 -.383151790425D-04 0.100000000000D+01
0.605900109236D-03 0.000000000000D+00 0.000000000000D+00 0.311513369864D-04 0.000000000000D+00  7 1 -2 -24 -11 11 23 21 2 0.34253786D+00 0.14394277D+00 0.19809520D+07 0.19809520D+07 0.19809520D+07 0.10286557D+01  1  2 15  1  7  1        1 0.434898006520D-04 0.100000000000D+01
-.712910179632D-03 0.000000000000D+00 -.212233881872D-02 0.311513369864D-04 0.000000000000D+00  7 1 -2 -24 -11 11 23 21 2 0.79372619D+00 0.14394277D+00 0.19809520D+07 0.19809520D+07 0.19809520D+07 0.10286557D+01  1  2  5  1  7  1        1 -.828643640311D-07 0.100000000000D+01
0.689461400962D-04 0.000000000000D+00 -.194264127458D-03 0.311513369864D-04 0.000000000000D+00  7 21 -2 -24 -11 11 23 -1 2 0.79372619D+00 0.14394277D+00 0.19809520D+07 0.19809520D+07 0.19809520D+07 0.10286557D+01  1  2  5  3  7  1        1 0.248571036509D-09 0.100000000000D+01
  </mgrwgt>
  </event>
  <event>
  8     66 0.29493621E-05 0.21094768E+03 0.75467711E-02 0.10122161E+00
        1 -1    0    0  501    0 0.00000000E+00 0.00000000E+00 0.10102518E+03 0.10102569E+03 0.32000000E+00 0.0000E+00 0.9000E+01
       -2 -1    0    0    0  501 0.00000000E+00 0.00000000E+00 -.15188507E+04 0.15188508E+04 0.32000000E+00 0.0000E+00 0.9000E+01
       25  2    1    2    0    0 -.15233863E+03 0.65070869E+02 -.13924057E+04 0.14339876E+04 0.30014243E+03 0.0000E+00 0.0000E+00
       23  2    3    3    0    0 -.12695397E+03 0.27639483E+02 -.32572166E+03 0.36245803E+03 0.91651359E+02 0.0000E+00 0.0000E+00
      -24  1    1    2    0    0 0.15233863E+03 -.65070869E+02 -.25419809E+02 0.18588884E+03 0.80419002E+02 0.0000E+00 0.9000E+01
      -13  1    4    4    0    0 -.19391141E+02 0.20420039E+02 -.17441837E+03 0.17667703E+03 0.10565837E+00 0.0000E+00 0.9000E+01
       13  1    4    4    0    0 -.10756283E+03 0.72194435E+01 -.15130329E+03 0.18578100E+03 0.10565837E+00 0.0000E+00 0.9000E+01
       23  1    3    3    0    0 -.25384661E+02 0.37431386E+02 -.10666841E+04 0.10715296E+04 0.91188000E+02 0.0000E+00 0.9000E+01
#aMCatNLO 1  0  0  1  2 0.13288687D+03 0.00000000D+00  -5  7  0 0.00000000D+00 0.00000000D+00 0.00000000D+00 0.00000000D+00 0.00000000D+00
  <mgrwgt>
 0.7417889413D-03    4    2    0
 0.391717516189709D+03 0.000000000000000D+00 0.000000000000000D+00 0.391717516189709D+03
 0.391717516189709D+03 0.000000000000000D+00 0.000000000000000D+00 -.391717516189709D+03
 0.338351086876237D+03 0.152338633369269D+03 -.650708692729285D+02 0.283853773607485D+03
 0.496532290976371D+02 -.193910241914698D+02 0.204200568077262D+02 -.408956308252788D+02
 0.110309923964313D+03 -.107562947614020D+03 0.721942595076077D+01 0.233745912164805D+02
 0.285120792441232D+03 -.253846615637799D+02 0.374313865144415D+02 -.266332733998686D+03
 0.000000000000000D+00 -.000000000000000D+00 -.000000000000000D+00 -.000000000000000D+00
 0.452369437032804D+03 0.000000000000000D+00 0.000000000000000D+00 0.452369437032804D+03
 0.477497676635808D+03 0.000000000000000D+00 0.000000000000000D+00 -.477497676635808D+03
 0.335299601918182D+03 0.159088473128652D+03 -.874642890018259D+01 0.283853773607485D+03
 0.534101519409482D+02 -.183583505541644D+02 0.290372635537181D+02 -.408956308252788D+02
 0.110930500428374D+03 -.105346164587165D+03 0.257175041076284D+02 0.233745912164805D+02
 0.294985046948199D+03 -.195721217349136D+02 0.859344717247396D+02 -.266332733998686D+03
 0.135241812432908D+03 -.158118362524089D+02 -.131942810485904D+03 -.251282396030035D+02
0.387358402564D-03 0.000000000000D+00 0.000000000000D+00 0.112914517254D-04 0.000000000000D+00  7 1 -2 -24 -13 13 23 21 0 0.15542378D-01 0.23366938D+00 0.44498923D+05 0.44498923D+05 0.44498923D+05 0.11517747D+01  1  2  2  1  7  1        1 0.127789322336D-02 0.100000000000D+01
-.114967156165D-04 0.000000000000D+00 -.148755825966D-05 0.112914517254D-04 0.000000000000D+00  7 1 -2 -24 -13 13 23 21 2 0.15542378D-01 0.23366938D+00 0.44498923D+05 0.44498923D+05 0.44498923D+05 0.11517747D+01  1  2  3  1  7  1        1 -.503141885853D-04 0.100000000000D+01
0.239282426305D-04 0.000000000000D+00 0.000000000000D+00 0.112914517254D-04 0.000000000000D+00  7 1 -2 -24 -13 13 23 21 2 0.15542378D-01 0.23366938D+00 0.44498923D+05 0.44498923D+05 0.44498923D+05 0.11517747D+01  1  2 15  1  7  1        1 0.104719482710D-03 0.100000000000D+01
-.134930540608D-03 0.000000000000D+00 0.000000000000D+00 0.112914517254D-04 0.000000000000D+00  7 1 -2 -24 -13 13 23 21 2 0.15542378D-01 0.23366938D+00 0.44498923D+05 0.44498923D+05 0.44498923D+05 0.11517747D+01  1  2  4  1  7  1        1 -.590509576173D-03 0.100000000000D+01
  </mgrwgt>
  </event>
  <event>
  8     66 0.29493621E-05 0.54625328E+03 0.75467711E-02 0.86928617E-01
        1 -1    0    0  501    0 0.00000000E+00 0.00000000E+00 0.65241081E+03 0.65241089E+03 0.32000000E+00 0.0000E+00 0.9000E+01
       -2 -1    0    0    0  501 0.00000000E+00 0.00000000E+00 -.57335535E+03 0.57335543E+03 0.32000000E+00 0.0000E+00 0.9000E+01
       25  2    1    2    0    0 -.31548508E+03 0.41950434E+03 -.18516043E+03 0.63264578E+03 0.30073506E+03 0.0000E+00 0.0000E+00
       23  2    3    3    0    0 -.26890677E+03 0.31113046E+03 -.22596514E+03 0.47806664E+03 0.91512026E+02 0.0000E+00 0.0000E+00
      -24  1    1    2    0    0 0.31548508E+03 -.41950434E+03 0.26421590E+03 0.59312054E+03 0.80419002E+02 0.0000E+00 0.9000E+01
      -11  1    4    4    0    0 -.10230316E+03 0.14169442E+03 -.48149945E+02 0.18127786E+03 0.51099893E-03 0.0000E+00 0.9000E+01
       11  1    4    4    0    0 -.16660361E+03 0.16943604E+03 -.17781519E+03 0.29678878E+03 0.51099893E-03 0.0000E+00 0.9000E+01
       23  1    3    3    0    0 -.46578306E+02 0.10837387E+03 0.40804709E+02 0.15457914E+03 0.91188000E+02 0.0000E+00 0.9000E+01
#aMCatNLO 1  0  0  2  2 0.77619063D+03 0.00000000D+00  -5  7  0 0.00000000D+00 0.00000000D+00 0.00000000D+00 0.00000000D+00 0.00000000D+00
  <mgrwgt>
 0.1561463954D-02    3    2    0
 0.611607168937347D+03 0.000000000000000D+00 0.000000000000000D+00 0.611607168937347D+03
 0.611607168937347D+03 0.000000000000000D+00 0.000000000000000D+00 -.611607168937347D+03
 0.577281884735352D+03 0.315485078103480D+03 -.419504337802250D+03 0.226434172660326D+03
 0.184767959400195D+03 -.102303161520472D+03 0.141694424179348D+03 -.599662581816764D+02
 0.308900033852739D+03 -.166603610602179D+03 0.169436039096074D+03 -.197367415000487D+03
 0.152264459886408D+03 -.465783059808298D+02 0.108373874526828D+03 0.308995005218375D+02
 0.000000000000000D+00 0.000000000000000D+00 -.000000000000000D+00 0.000000000000000D+00
 0.173014286581221D+04 0.000000000000000D+00 0.000000000000000D+00 0.173014286581221D+04
 0.874099206836888D+03 0.000000000000000D+00 0.000000000000000D+00 -.874099206836888D+03
 0.353477392967369D+03 0.182588615968940D+03 -.184032644264049D+03 0.226434172660326D+03
 0.329036554375215D+03 -.175665634229896D+03 0.271681223026933D+03 -.599662581816764D+02
 0.511435509946308D+03 -.283733457326014D+03 0.376971762236766D+03 -.197367415000487D+03
 0.254748308274536D+03 -.104692748917870D+03 0.211343555416906D+03 0.308995005218375D+02
 0.115554430708567D+04 0.381503224504839D+03 -.675963896416557D+03 0.856043658975323D+03
0.414511080190D-03 0.000000000000D+00 0.000000000000D+00 0.634518704038D-05 0.000000000000D+00  7 1 -2 -24 -11 11 23 21 0 0.10037091D+00 0.88208528D-01 0.29839265D+06 0.29839265D+06 0.29839265D+06 0.10847245D+01  1  2  2  2  7  2       -2 0.154542965652D-02 0.100000000000D+01
-.226708248963D-04 0.000000000000D+00 -.159183169120D-05 0.634518704038D-05 0.000000000000D+00  7 1 -2 -24 -11 11 23 21 2 0.10037091D+00 0.88208528D-01 0.29839265D+06 0.29839265D+06 0.29839265D+06 0.10847245D+01  1  2  3  2  7  2       -2 -.994533320595D-04 0.100000000000D+01
0.263259137034D-04 0.000000000000D+00 0.000000000000D+00 0.634518704038D-05 0.000000000000D+00  7 1 -2 -24 -11 11 23 21 2 0.10037091D+00 0.88208528D-01 0.29839265D+06 0.29839265D+06 0.29839265D+06 0.10847245D+01  1  2 15  2  7  2       -2 0.115487629996D-03 0.100000000000D+01
  </mgrwgt>
  </event>
  <event>
  8     66 0.29493621E-05 0.19559773E+03 0.75467711E-02 0.98896679E-01
        1 -1    0    0  501    0 0.00000000E+00 0.00000000E+00 0.18611985E+04 0.18611985E+04 0.32000000E+00 0.0000E+00 0.9000E+01
       -2 -1    0    0    0  501 0.00000000E+00 0.00000000E+00 -.65449100E+02 0.65449882E+02 0.32000000E+00 0.0000E+00 0.9000E+01
       25  2    1    2    0    0 0.82011042E+02 0.30192604E+02 0.17796018E+04 0.18067928E+04 0.29980019E+03 0.0000E+00 0.0000E+00
       23  2    3    3    0    0 -.42887513E+02 -.61226315E+02 0.98368612E+03 0.99085522E+03 0.92561795E+02 0.0000E+00 0.0000E+00
      -24  1    1    2    0    0 -.82011042E+02 -.30192604E+02 0.16147559E+02 0.11985560E+03 0.80419002E+02 0.0000E+00 0.9000E+01
      -11  1    4    4    0    0 0.24880192E+01 0.89111480E+01 0.10119819E+02 0.13711657E+02 0.51099893E-03 0.0000E+00 0.9000E+01
       11  1    4    4    0    0 -.45375532E+02 -.70137463E+02 0.97356630E+03 0.97714356E+03 0.51099893E-03 0.0000E+00 0.9000E+01
       23  1    3    3    0    0 0.12489856E+03 0.91418919E+02 0.79591571E+03 0.81593758E+03 0.91188000E+02 0.0000E+00 0.9000E+01
#aMCatNLO 1  0  0  2  2 0.25369242D+03 0.00000000D+00  -5  7  0 0.00000000D+00 0.00000000D+00 0.00000000D+00 0.00000000D+00 0.00000000D+00
  <mgrwgt>
 0.1910936878D-02    3    2    0
 0.349019406217776D+03 0.000000000000000D+00 0.000000000000000D+00 0.349019406217776D+03
 0.349019406217776D+03 0.000000000000000D+00 0.000000000000000D+00 -.349019406217776D+03
 0.289271340932454D+03 -.820110419885529D+02 -.301926039288808D+02 -.263767489259831D+03
 0.118114963162422D+02 0.248801915223223D+01 0.891114798641094D+01 -.734252323734917D+01
 0.192440579115769D+03 -.453755324462711D+02 -.701374628211850D+02 0.173364280792315D+03
 0.204515396071087D+03 0.124898555282592D+03 0.914189187636548D+02 0.977457317048649D+02
 0.000000000000000D+00 -.000000000000000D+00 0.000000000000000D+00 0.000000000000000D+00
 0.109889599610256D+04 0.000000000000000D+00 0.000000000000000D+00 0.109889599610256D+04
 0.393470499157999D+03 0.000000000000000D+00 0.000000000000000D+00 -.393470499157999D+03
 0.285480045676038D+03 0.957343330313446D+01 -.732577743941035D+02 -.263767489259831D+03
 0.120075347422750D+02 0.628349231206762D+01 0.712642739808078D+01 -.734252323734917D+01
 0.200679173498362D+03 0.172666239866424D+02 -.995932754630184D+02 0.173364280792315D+03
 0.244543168593413D+03 0.196454351368128D+03 0.577717034863507D+02 0.977457317048649D+02
 0.749656572750475D+03 -.229577900969973D+03 0.107952918972690D+03 0.705425496944564D+03
0.687112539245D-04 0.000000000000D+00 0.000000000000D+00 0.426622345083D-05 0.000000000000D+00  7 1 -2 -24 -11 11 23 21 0 0.28633829D+00 0.10069155D-01 0.38258471D+05 0.38258471D+05 0.38258471D+05 0.11576626D+01  1  2  2  2  7  2       -2 0.183798320333D-02 0.100000000000D+01
-.226098554868D-05 0.000000000000D+00 -.263869307159D-06 0.426622345083D-05 0.000000000000D+00  7 1 -2 -24 -11 11 23 21 2 0.28633829D+00 0.10069155D-01 0.38258471D+05 0.38258471D+05 0.38258471D+05 0.11576626D+01  1  2  3  2  7  2       -2 -.810541839838D-04 0.100000000000D+01
0.429600948718D-05 0.000000000000D+00 0.000000000000D+00 0.426622345083D-05 0.000000000000D+00  7 1 -2 -24 -11 11 23 21 2 0.28633829D+00 0.10069155D-01 0.38258471D+05 0.38258471D+05 0.38258471D+05 0.11576626D+01  1  2 15  2  7  2       -2 0.154007858906D-03 0.100000000000D+01
  </mgrwgt>
  </event>
  <event>
  8     66 0.29493621E-05 0.29261578E+03 0.75467711E-02 0.92049392E-01
        1 -1    0    0  501    0 0.00000000E+00 0.00000000E+00 0.27528863E+03 0.27528882E+03 0.32000000E+00 0.0000E+00 0.9000E+01
       -2 -1    0    0    0  501 0.00000000E+00 0.00000000E+00 -.41713942E+03 0.41713955E+03 0.32000000E+00 0.0000E+00 0.9000E+01
       25  2    1    2    0    0 -.13679912E+03 0.17039302E+03 0.69623207E+02 0.37788703E+03 0.30033887E+03 0.0000E+00 0.0000E+00
       23  2    3    3    0    0 -.15273151E+03 0.46189690E+01 0.57121397E+02 0.18760718E+03 0.92657165E+02 0.0000E+00 0.0000E+00
      -24  1    1    2    0    0 0.13679912E+03 -.17039302E+03 -.21147400E+03 0.31454133E+03 0.80419002E+02 0.0000E+00 0.9000E+01
      -11  1    4    4    0    0 -.14301496E+03 -.11738596E+02 0.74637426E+02 0.16174615E+03 0.51099893E-03 0.0000E+00 0.9000E+01
       11  1    4    4    0    0 -.97165527E+01 0.16357565E+02 -.17516029E+02 0.25861025E+02 0.51099893E-03 0.0000E+00 0.9000E+01
       23  1    3    3    0    0 0.15932386E+02 0.16577405E+03 0.12501810E+02 0.19027985E+03 0.91188000E+02 0.0000E+00 0.9000E+01
#aMCatNLO 1  0  0  1  1 0.50858158D+03 0.00000000D+00  -5  7  0 0.00000000D+00 0.00000000D+00 0.00000000D+00 0.00000000D+00 0.00000000D+00
  <mgrwgt>
 0.1090255227D-02    5    2    0
 0.338871431686580D+03 0.000000000000000D+00 0.000000000000000D+00 0.338871431686580D+03
 0.338871431686580D+03 0.000000000000000D+00 0.000000000000000D+00 -.338871431686580D+03
 0.277095627674459D+03 0.136799124674754D+03 -.170393015124262D+03 -.150223136723395D+03
 0.180872435980012D+03 -.143014958122761D+03 -.117385963363268D+02 0.110107970676701D+03
 0.227553033729147D+02 -.971655274138832D+01 0.163575652985229D+02 -.124828879639994D+02
 0.197019496345775D+03 0.159323861893954D+02 0.165774046162066D+03 0.525980540106939D+02
 0.000000000000000D+00 -.000000000000000D+00 -.000000000000000D+00 0.000000000000000D+00
 0.765614450453231D+03 0.000000000000000D+00 0.000000000000000D+00 0.765614450453231D+03
 0.612778704570560D+03 0.000000000000000D+00 0.000000000000000D+00 -.612778704570560D+03
 0.316051948542505D+03 0.265423608112802D+03 -.201230135046788D+02 -.150223136723395D+03
 0.149655952316747D+03 -.713396366497617D+02 0.719985770690724D+02 0.110107970676701D+03
 0.330334914598660D+02 0.238128800638011D+01 0.304912861902863D+02 -.124828879639994D+02
 0.348601872893869D+03 0.134250777067451D+03 0.304003598682954D+03 0.525980540106939D+02
 0.531049889810805D+03 -.330716036536871D+03 -.386370448437634D+03 0.152835745882671D+03
0.393910204715D-04 0.000000000000D+00 0.000000000000D+00 0.207741530967D-05 0.000000000000D+00  7 1 -2 -24 -11 11 23 21 0 0.42352121D-01 0.64175320D-01 0.85623993D+05 0.85623993D+05 0.85623993D+05 0.11272957D+01  1  2  2  1  7  1        1 0.996290582259D-03 0.100000000000D+01
-.213108089437D-05 0.000000000000D+00 -.151271890504D-06 0.207741530967D-05 0.000000000000D+00  7 1 -2 -24 -11 11 23 21 2 0.42352121D-01 0.64175320D-01 0.85623993D+05 0.85623993D+05 0.85623993D+05 0.11272957D+01  1  2  3  1  7  1        1 -.684958757296D-04 0.100000000000D+01
0.254679071465D-05 0.000000000000D+00 0.000000000000D+00 0.207741530967D-05 0.000000000000D+00  7 1 -2 -24 -11 11 23 21 2 0.42352121D-01 0.64175320D-01 0.85623993D+05 0.85623993D+05 0.85623993D+05 0.11272957D+01  1  2 15  1  7  1        1 0.818573620365D-04 0.100000000000D+01
0.127516255709D-04 0.000000000000D+00 -.141363211486D-04 0.207741530967D-05 0.000000000000D+00  7 1 -2 -24 -11 11 23 21 2 0.15418378D+00 0.64175320D-01 0.85623993D+05 0.85623993D+05 0.85623993D+05 0.11272957D+01  1  2  5  1  7  1        1 0.643567765093D-04 0.100000000000D+01
0.231254214125D-05 0.000000000000D+00 -.215061111649D-05 0.207741530967D-05 0.000000000000D+00  7 21 -2 -24 -11 11 23 -1 2 0.15418378D+00 0.64175320D-01 0.85623993D+05 0.85623993D+05 0.85623993D+05 0.11272957D+01  1  2  5  3  7  1        1 0.162463814438D-04 0.100000000000D+01
  </mgrwgt>
  </event>
  <event>
  8     66 0.29493621E-05 0.63513808E+02 0.75467711E-02 0.10394836E+00
        3 -1    0    0  501    0 0.00000000E+00 0.00000000E+00 0.25236892E+03 0.25236941E+03 0.50000000E+00 0.0000E+00 0.9000E+01
       -4 -1    0    0    0  501 0.00000000E+00 0.00000000E+00 -.23680608E+03 0.23681115E+03 0.15500000E+01 0.0000E+00 0.9000E+01
       25  2    1    2    0    0 0.62870658E+02 0.36434499E+02 0.13001607E+03 0.33155141E+03 0.29621271E+03 0.0000E+00 0.0000E+00
       23  2    3    3    0    0 0.80442080E+02 0.26879898E+02 -.43957829E+02 0.13411227E+03 0.94129452E+02 0.0000E+00 0.0000E+00
      -24  1    1    2    0    0 -.62870658E+02 -.36434499E+02 -.11445323E+03 0.15762915E+03 0.80419002E+02 0.0000E+00 0.9000E+01
      -13  1    4    4    0    0 -.16304411E+02 0.24566436E+02 -.55916765E+01 0.30010358E+02 0.10565837E+00 0.0000E+00 0.9000E+01
       13  1    4    4    0    0 0.96746491E+02 0.23134618E+01 -.38366152E+02 0.10410191E+03 0.10565837E+00 0.0000E+00 0.9000E+01
       23  1    3    3    0    0 -.17571422E+02 0.95546013E+01 0.17397390E+03 0.19743914E+03 0.91188000E+02 0.0000E+00 0.9000E+01
#aMCatNLO 1  0  0  1  2 0.11945411D+03 0.00000000D+00  -5  7  0 0.00000000D+00 0.00000000D+00 0.00000000D+00 0.00000000D+00 0.00000000D+00
  <mgrwgt>
 0.3251040481D-03    9    2    0
 0.244466472532683D+03 0.000000000000000D+00 0.000000000000000D+00 0.244466472532683D+03
 0.244466472532683D+03 0.000000000000000D+00 0.000000000000000D+00 -.244466472532683D+03
 0.161352063326968D+03 -.628706613119939D+02 -.364345008888504D+02 -.119528571800520D+03
 0.302034380817867D+02 -.163045445431770D+02 0.245664587622306D+02 -.654970251870323D+01
 0.105375927031247D+03 0.967466252273204D+02 0.231343877826302D+01 -.416992146909056D+02
 0.192001516625365D+03 -.175714193721495D+02 0.955460334835682D+01 0.167777489010129D+03
 0.000000000000000D+00 0.000000000000000D+00 0.000000000000000D+00 0.000000000000000D+00
 0.324764766957666D+03 0.000000000000000D+00 0.000000000000000D+00 0.324764766957666D+03
 0.300452149968396D+03 0.000000000000000D+00 0.000000000000000D+00 -.300452149968396D+03
 0.180206611274615D+03 -.786299528100177D+02 -.744140970322947D+02 -.119528571800520D+03
 0.270748105408608D+02 -.189473250774249D+02 0.181974073744142D+02 -.654970251870323D+01
 0.988943108172278D+02 0.873217314623479D+02 -.204003779522297D+02 -.416992146909056D+02
 0.197137995449277D+03 -.355260592633379D+02 -.337157411372327D+02 0.167777489010129D+03
 0.121903188844082D+03 0.457816056884326D+02 0.110332808747343D+03 0.243126169892710D+02
0.208604080613D-04 0.000000000000D+00 0.000000000000D+00 0.734858401955D-08 0.000000000000D+00  7 3 -4 -24 -13 13 23 21 0 0.38826416D-01 0.36432133D-01 0.26896037D+05 0.26896037D+05 0.26896037D+05 0.11717626D+01  1  2  2  1  7  1        3 0.321486875863D-03 0.100000000000D+01
-.934349217382D-06 0.000000000000D+00 -.801094596270D-07 0.734858401955D-08 0.000000000000D+00  7 3 -4 -24 -13 13 23 21 2 0.38826416D-01 0.36432133D-01 0.26896037D+05 0.26896037D+05 0.26896037D+05 0.11717626D+01  1  2  3  1  7  1        3 -.197710127230D-04 0.100000000000D+01
0.129987911885D-05 0.000000000000D+00 0.000000000000D+00 0.734858401955D-08 0.000000000000D+00  7 3 -4 -24 -13 13 23 21 2 0.38826416D-01 0.36432133D-01 0.26896037D+05 0.26896037D+05 0.26896037D+05 0.11717626D+01  1  2 15  1  7  1        3 0.275056971410D-04 0.100000000000D+01
0.166120846352D-05 0.000000000000D+00 0.000000000000D+00 0.734858401955D-08 0.000000000000D+00  7 3 -4 -24 -13 13 23 21 2 0.54811409D-01 0.36432133D-01 0.56113849D+05 0.56113849D+05 0.56113849D+05 0.11429145D+01  1  2 12  1  7  1        3 0.174027575271D-04 0.100000000000D+01
-.949806453990D-05 0.000000000000D+00 0.000000000000D+00 0.734858401955D-08 0.000000000000D+00  7 3 -4 -24 -13 13 23 21 2 0.38826416D-01 0.36432133D-01 0.26896037D+05 0.26896037D+05 0.26896037D+05 0.11717626D+01  1  2  4  1  7  1        3 -.200980908817D-03 0.100000000000D+01
-.915999352388D-05 0.000000000000D+00 -.828760859602D-05 0.734858401955D-08 0.000000000000D+00  7 3 -4 -24 -13 13 23 21 2 0.61948756D-01 0.36432133D-01 0.26896037D+05 0.26896037D+05 0.26896037D+05 0.11717626D+01  1  2  5  1  7  1        3 -.769438356507D-04 0.100000000000D+01
0.124745483309D-04 0.000000000000D+00 0.745864816405D-05 0.734858401955D-08 0.000000000000D+00  7 3 -4 -24 -13 13 23 21 2 0.38826416D-01 0.36432133D-01 0.26896037D+05 0.26896037D+05 0.26896037D+05 0.11717626D+01  1  2  6  1  7  1        3 0.263963889707D-03 0.100000000000D+01
0.709910804098D-07 0.000000000000D+00 0.000000000000D+00 0.734858401955D-08 0.000000000000D+00  7 21 -4 -24 -13 13 23 -3 2 0.54811409D-01 0.36432133D-01 0.56113849D+05 0.56113849D+05 0.56113849D+05 0.11429145D+01  1  2 12  3  7  1        3 0.115052428197D-04 0.100000000000D+01
-.144501588102D-06 0.000000000000D+00 -.443184699013D-06 0.734858401955D-08 0.000000000000D+00  7 21 -4 -24 -13 13 23 -3 2 0.61948756D-01 0.36432133D-01 0.26896037D+05 0.26896037D+05 0.26896037D+05 0.11717626D+01  1  2  5  3  7  1        3 -.190646578052D-04 0.100000000000D+01
  </mgrwgt>
  </event>
  <event>
  8     66 0.29493621E-05 0.23280419E+03 0.75467711E-02 0.10118438E+00
        1 -1    0    0  501    0 0.00000000E+00 0.00000000E+00 0.49994465E+03 0.49994476E+03 0.32000000E+00 0.0000E+00 0.9000E+01
       -2 -1    0    0    0  501 0.00000000E+00 0.00000000E+00 -.25316101E+03 0.25316121E+03 0.32000000E+00 0.0000E+00 0.9000E+01
       25  2    1    2    0    0 0.12638413E+03 -.17301947E+03 0.34429130E+03 0.50434173E+03 0.29985896E+03 0.0000E+00 0.0000E+00
       23  2    3    3    0    0 0.14064274E+03 -.16324882E+03 0.33837290E+03 0.41134145E+03 0.90967099E+02 0.0000E+00 0.0000E+00
      -24  1    1    2    0    0 -.12638413E+03 0.17301947E+03 -.97507657E+02 0.24876423E+03 0.80419002E+02 0.0000E+00 0.9000E+01
      -13  1    4    4    0    0 0.27904530E+02 -.10156372E+03 0.14801345E+03 0.18166410E+03 0.10565837E+00 0.0000E+00 0.9000E+01
       13  1    4    4    0    0 0.11273821E+03 -.61685102E+02 0.19035945E+03 0.22967735E+03 0.10565837E+00 0.0000E+00 0.9000E+01
       23  1    3    3    0    0 -.14258606E+02 -.97706412E+01 0.59184036E+01 0.93000280E+02 0.91188000E+02 0.0000E+00 0.9000E+01
#aMCatNLO 1  0  0  1  2 0.26560459D+02 0.00000000D+00  -5  7  0 0.00000000D+00 0.00000000D+00 0.00000000D+00 0.00000000D+00 0.00000000D+00
  <mgrwgt>
 0.1312781092D-02    9    2    0
 0.355762008491216D+03 0.000000000000000D+00 0.000000000000000D+00 0.355762008491216D+03
 0.355762008491216D+03 0.000000000000000D+00 0.000000000000000D+00 -.355762008491216D+03
 0.297121555197596D+03 -.126384131321907D+03 0.173019465838066D+03 -.189486987415456D+03
 0.140943918053235D+03 0.279044154862041D+02 -.101563775970779D+03 0.936553844855046D+02
 0.177075991678472D+03 0.112738321957960D+03 -.616850486455956D+02 0.121823365429660D+03
 0.963825520531280D+02 -.142586061222571D+02 -.977064122169192D+01 -.259917624997082D+02
 0.000000000000000D+00 0.000000000000000D+00 0.000000000000000D+00 0.000000000000000D+00
 0.371820447072012D+03 0.000000000000000D+00 0.000000000000000D+00 0.371820447072012D+03
 0.367164577547567D+03 0.000000000000000D+00 0.000000000000000D+00 -.367164577547567D+03
 0.293675018407615D+03 -.131332431900332D+03 0.163169465322719D+03 -.189486987415456D+03
 0.143962290037241D+03 0.255181430918196D+02 -.106313848029240D+03 0.936553844855046D+02
 0.177367745558002D+03 0.109769628115875D+03 -.675944786430246D+02 0.121823365429660D+03
 0.970145277034975D+02 -.158784308206057D+02 -.129950359124817D+02 -.259917624997082D+02
 0.269654429132233D+02 0.119230915132430D+02 0.237338972620277D+02 0.465586952444427D+01
0.192800539299D-04 0.000000000000D+00 0.000000000000D+00 0.523189515577D-05 0.000000000000D+00  7 1 -2 -24 -13 13 23 21 0 0.76914586D-01 0.38947871D-01 0.77147164D+05 0.77147164D+05 0.77147164D+05 0.11310877D+01  1  2  2  1  7  1        1 0.587146604181D-03 0.100000000000D+01
-.991321585406D-06 0.000000000000D+00 -.740404836456D-07 0.523189515577D-05 0.000000000000D+00  7 1 -2 -24 -13 13 23 21 2 0.76914586D-01 0.38947871D-01 0.77147164D+05 0.77147164D+05 0.77147164D+05 0.11310877D+01  1  2  3  1  7  1        1 -.386229504960D-04 0.100000000000D+01
0.124132992668D-05 0.000000000000D+00 0.000000000000D+00 0.523189515577D-05 0.000000000000D+00  7 1 -2 -24 -13 13 23 21 2 0.76914586D-01 0.38947871D-01 0.77147164D+05 0.77147164D+05 0.77147164D+05 0.11310877D+01  1  2 15  1  7  1        1 0.483635431864D-04 0.100000000000D+01
0.476370241015D-04 0.000000000000D+00 0.000000000000D+00 0.523189515577D-05 0.000000000000D+00  7 1 -2 -24 -13 13 23 21 2 0.81571487D-01 0.38947871D-01 0.84867123D+05 0.84867123D+05 0.84867123D+05 0.11276171D+01  1  2 12  1  7  1        1 0.169800185705D-02 0.100000000000D+01
-.410366182965D-04 0.000000000000D+00 0.000000000000D+00 0.523189515577D-05 0.000000000000D+00  7 1 -2 -24 -13 13 23 21 2 0.76914586D-01 0.38947871D-01 0.77147164D+05 0.77147164D+05 0.77147164D+05 0.11310877D+01  1  2  4  1  7  1        1 -.159883059173D-02 0.100000000000D+01
-.194205415663D-03 0.000000000000D+00 -.365070713367D-04 0.523189515577D-05 0.000000000000D+00  7 1 -2 -24 -13 13 23 21 2 0.82513504D-01 0.38947871D-01 0.77147164D+05 0.77147164D+05 0.77147164D+05 0.11310877D+01  1  2  5  1  7  1        1 -.686475795487D-02 0.100000000000D+01
0.196375587661D-03 0.000000000000D+00 0.364171318853D-04 0.523189515577D-05 0.000000000000D+00  7 1 -2 -24 -13 13 23 21 2 0.76914586D-01 0.38947871D-01 0.77147164D+05 0.77147164D+05 0.77147164D+05 0.11310877D+01  1  2  6  1  7  1        1 0.765100317852D-02 0.100000000000D+01
0.548293083421D-06 0.000000000000D+00 0.000000000000D+00 0.523189515577D-05 0.000000000000D+00  7 21 -2 -24 -13 13 23 -1 2 0.81571487D-01 0.38947871D-01 0.84867123D+05 0.84867123D+05 0.84867123D+05 0.11276171D+01  1  2 12  3  7  1        1 0.559019871003D-04 0.100000000000D+01
-.224785903618D-05 0.000000000000D+00 -.434175191836D-06 0.523189515577D-05 0.000000000000D+00  7 21 -2 -24 -13 13 23 -1 2 0.82513504D-01 0.38947871D-01 0.77147164D+05 0.77147164D+05 0.77147164D+05 0.11310877D+01  1  2  5  3  7  1        1 -.225424580462D-03 0.100000000000D+01
  </mgrwgt>
  </event>
  <event>
  8     66 0.29493621E-05 0.11688873E+03 0.75467711E-02 0.10414176E+00
        1 -1    0    0  501    0 0.00000000E+00 0.00000000E+00 0.15387790E+04 0.15387790E+04 0.32000000E+00 0.0000E+00 0.9000E+01
       -2 -1    0    0    0  501 0.00000000E+00 0.00000000E+00 -.60391061E+02 0.60391909E+02 0.32000000E+00 0.0000E+00 0.9000E+01
       25  2    1    2    0    0 -.79784741E+02 -.40773576E+02 0.14386471E+04 0.14723851E+04 0.30030731E+03 0.0000E+00 0.0000E+00
       23  2    3    3    0    0 -.58951556E+02 -.13296548E+03 0.59728844E+03 0.62083774E+03 0.86780783E+02 0.0000E+00 0.0000E+00
      -24  1    1    2    0    0 0.79784741E+02 0.40773576E+02 0.39740863E+02 0.12678581E+03 0.80419002E+02 0.0000E+00 0.9000E+01
      -11  1    4    4    0    0 -.80340771E+02 -.92859662E+02 0.40231686E+03 0.42063810E+03 0.51099893E-03 0.0000E+00 0.9000E+01
       11  1    4    4    0    0 0.21389216E+02 -.40105820E+02 0.19497159E+03 0.20019964E+03 0.51099893E-03 0.0000E+00 0.9000E+01
       23  1    3    3    0    0 -.20833186E+02 0.92191905E+02 0.84135862E+03 0.85154738E+03 0.91188000E+02 0.0000E+00 0.9000E+01
#aMCatNLO 1  0  0  1  2 0.41812489D+02 0.00000000D+00  -5  7  0 0.00000000D+00 0.00000000D+00 0.00000000D+00 0.00000000D+00 0.00000000D+00
  <mgrwgt>
 0.2160607243D-02    9    2    0
 0.304842911105153D+03 0.000000000000000D+00 0.000000000000000D+00 0.304842911105153D+03
 0.304842911105153D+03 0.000000000000000D+00 0.000000000000000D+00 -.304842911105153D+03
 0.236186842471727D+03 0.797847414439623D+02 0.407735762061468D+02 -.203196749773404D+03
 0.127757333604364D+03 -.803407714302387D+02 -.928596619712176D+02 0.352757695065890D+02
 0.523381055096630D+02 0.213892155935920D+02 -.401058194988734D+02 0.259480632601981D+02
 0.193403540624552D+03 -.208331856073157D+02 0.921919052639442D+02 0.141972917006617D+03
 0.000000000000000D+00 0.000000000000000D+00 -.000000000000000D+00 0.000000000000000D+00
 0.349931425330117D+03 0.000000000000000D+00 0.000000000000000D+00 0.349931425330117D+03
 0.315408998347413D+03 0.000000000000000D+00 0.000000000000000D+00 -.315408998347413D+03
 0.237795929319375D+03 0.749871060789057D+02 0.562823493639877D+02 -.203196749773404D+03
 0.123601846923135D+03 -.828850193767904D+02 -.846351594282015D+02 0.352757695065890D+02
 0.493999142628529D+02 0.203594272749428D+02 -.367769392861654D+02 0.259480632601981D+02
 0.200320208151739D+03 -.248184422318419D+02 0.105074593559875D+03 0.141972917006617D+03
 0.542225250204280D+02 0.123569282547838D+02 -.399448442094962D+02 0.345224269827043D+02
0.262608474127D-04 0.000000000000D+00 0.000000000000D+00 0.266623703742D-06 0.000000000000D+00  7 1 -2 -24 -11 11 23 21 0 0.23673530D+00 0.92910003D-02 0.44094573D+05 0.44094573D+05 0.44094573D+05 0.11521278D+01  1  2  2  1  7  1        1 0.127923265863D-02 0.100000000000D+01
-.121247143140D-05 0.000000000000D+00 -.100848568705D-06 0.266623703742D-06 0.000000000000D+00  7 1 -2 -24 -11 11 23 21 2 0.23673530D+00 0.92910003D-02 0.44094573D+05 0.44094573D+05 0.44094573D+05 0.11521278D+01  1  2  3  1  7  1        1 -.783995632681D-04 0.100000000000D+01
0.162383829530D-05 0.000000000000D+00 0.000000000000D+00 0.266623703742D-06 0.000000000000D+00  7 1 -2 -24 -11 11 23 21 2 0.23673530D+00 0.92910003D-02 0.44094573D+05 0.44094573D+05 0.44094573D+05 0.11521278D+01  1  2 15  1  7  1        1 0.104998938427D-03 0.100000000000D+01
0.540424486826D-04 0.000000000000D+00 0.000000000000D+00 0.266623703742D-06 0.000000000000D+00  7 1 -2 -24 -11 11 23 21 2 0.27543488D+00 0.92910003D-02 0.54558449D+05 0.54558449D+05 0.54558449D+05 0.11439773D+01  1  2 12  1  7  1        1 0.235775169058D-02 0.100000000000D+01
-.552693616263D-04 0.000000000000D+00 0.000000000000D+00 0.266623703742D-06 0.000000000000D+00  7 1 -2 -24 -11 11 23 21 2 0.23673530D+00 0.92910003D-02 0.44094573D+05 0.44094573D+05 0.44094573D+05 0.11521278D+01  1  2  4  1  7  1        1 -.357376982369D-02 0.100000000000D+01
-.962809590495D-04 0.000000000000D+00 -.198988606692D-04 0.266623703742D-06 0.000000000000D+00  7 1 -2 -24 -11 11 23 21 2 0.27575125D+00 0.92910003D-02 0.44094573D+05 0.44094573D+05 0.44094573D+05 0.11521278D+01  1  2  5  1  7  1        1 -.426633816320D-02 0.100000000000D+01
0.983987302610D-04 0.000000000000D+00 0.196695270292D-04 0.266623703742D-06 0.000000000000D+00  7 1 -2 -24 -11 11 23 21 2 0.23673530D+00 0.92910003D-02 0.44094573D+05 0.44094573D+05 0.44094573D+05 0.11521278D+01  1  2  6  1  7  1        1 0.636255608077D-02 0.100000000000D+01
0.124211533505D-05 0.000000000000D+00 0.000000000000D+00 0.266623703742D-06 0.000000000000D+00  7 21 -2 -24 -11 11 23 -1 2 0.27543488D+00 0.92910003D-02 0.54558449D+05 0.54558449D+05 0.54558449D+05 0.11439773D+01  1  2 12  3  7  1        1 0.352871894204D-04 0.100000000000D+01
-.208410730409D-05 0.000000000000D+00 -.460155124660D-06 0.266623703742D-06 0.000000000000D+00  7 21 -2 -24 -11 11 23 -1 2 0.27575125D+00 0.92910003D-02 0.44094573D+05 0.44094573D+05 0.44094573D+05 0.11521278D+01  1  2  5  3  7  1        1 -.607117644346D-04 0.100000000000D+01
  </mgrwgt>
  </event>
  <event>
  8     66 0.29493621E-05 0.28163707E+03 0.75467711E-02 0.94241983E-01
        1 -1    0    0  501    0 0.00000000E+00 0.00000000E+00 0.24242426E+03 0.24242447E+03 0.32000000E+00 0.0000E+00 0.9000E+01
       -2 -1    0    0    0  501 0.00000000E+00 0.00000000E+00 -.12586185E+04 0.12586185E+04 0.32000000E+00 0.0000E+00 0.9000E+01
       25  2    1    2    0    0 0.41450274E+03 0.27700836E+03 -.41290711E+03 0.71429734E+03 0.30196399E+03 0.0000E+00 0.0000E+00
       23  2    3    3    0    0 0.23029284E+03 0.93004127E+02 -.69909155E+02 0.27412272E+03 0.92581939E+02 0.0000E+00 0.0000E+00
      -24  1    1    2    0    0 -.41450274E+03 -.27700836E+03 -.60328710E+03 0.78674564E+03 0.80419002E+02 0.0000E+00 0.9000E+01
      -11  1    4    4    0    0 0.29872734E+02 0.15242113E+02 -.47268081E+02 0.57956654E+02 0.51099893E-03 0.0000E+00 0.9000E+01
       11  1    4    4    0    0 0.20042010E+03 0.77762015E+02 -.22641075E+02 0.21616606E+03 0.51099893E-03 0.0000E+00 0.9000E+01
       23  1    3    3    0    0 0.18420990E+03 0.18400424E+03 -.34299795E+03 0.44017462E+03 0.91188000E+02 0.0000E+00 0.9000E+01
#aMCatNLO 1  0  0  2  1 0.51716897D+01 0.00000000D+00  -5  7  0 0.00000000D+00 0.00000000D+00 0.00000000D+00 0.00000000D+00 0.00000000D+00
  <mgrwgt>
 0.2108248083D-02   11    2    0
 0.552376535078114D+03 0.000000000000000D+00 0.000000000000000D+00 0.552376535078114D+03
 0.552376535078114D+03 0.000000000000000D+00 0.000000000000000D+00 -.552376535078114D+03
 0.514035373274182D+03 -.414502743596550D+03 -.277008364014646D+03 -.960155760260793D+02
 0.352674993013449D+02 0.298727344102398D+02 0.152421126017731D+02 -.109130311673940D+02
 0.272881635296550D+03 0.200420104606996D+03 0.777620147463907D+02 0.168075095162913D+03
 0.282568562284150D+03 0.184209904579314D+03 0.184004236666482D+03 -.611464879694400D+02
 0.000000000000000D+00 -.000000000000000D+00 0.000000000000000D+00 -.000000000000000D+00
 0.553885176925904D+03 0.000000000000000D+00 0.000000000000000D+00 0.553885176925904D+03
 0.556832634986927D+03 0.000000000000000D+00 0.000000000000000D+00 -.556832634986927D+03
 0.514552869998766D+03 -.413636612372146D+03 -.279254726254135D+03 -.960155760260793D+02
 0.352516194725487D+02 0.299321156165553D+02 0.150881039529170D+02 -.109130311673940D+02
 0.272882502910932D+03 0.200879669806533D+03 0.765701053893137D+02 0.168075095162913D+03
 0.282078182844644D+03 0.184685370033943D+03 0.182771089063247D+03 -.611464879694400D+02
 0.595263668594008D+01 -.186054308488515D+01 0.482542784865706D+01 -.294745806102320D+01
0.362045592626D-03 0.000000000000D+00 0.000000000000D+00 0.606633520204D-06 0.000000000000D+00  7 1 -2 -24 -11 11 23 21 0 0.37296059D-01 0.19363363D+00 0.26490348D+06 0.26490348D+06 0.26490348D+06 0.10885723D+01  1  2  2  2  7  2       -2 0.656245666710D-03 0.100000000000D+01
-.199915099870D-04 0.000000000000D+00 -.139035040448D-05 0.606633520204D-06 0.000000000000D+00  7 1 -2 -24 -11 11 23 21 2 0.37296059D-01 0.19363363D+00 0.26490348D+06 0.26490348D+06 0.26490348D+06 0.10885723D+01  1  2  3  2  7  2       -2 -.429401275577D-04 0.100000000000D+01
0.225145173493D-04 0.000000000000D+00 0.000000000000D+00 0.606633520204D-06 0.000000000000D+00  7 1 -2 -24 -11 11 23 21 2 0.37296059D-01 0.19363363D+00 0.26490348D+06 0.26490348D+06 0.26490348D+06 0.10885723D+01  1  2 15  2  7  2       -2 0.483593409156D-04 0.100000000000D+01
0.604331911778D-04 0.000000000000D+00 0.000000000000D+00 0.606633520204D-06 0.000000000000D+00  7 1 -2 -24 -11 11 23 21 2 0.37296059D-01 0.19545869D+00 0.26757655D+06 0.26757655D+06 0.26757655D+06 0.10882461D+01  1  2 12  2  7  2       -2 0.125965344809D-03 0.100000000000D+01
-.481953964598D-02 0.000000000000D+00 0.000000000000D+00 0.606633520204D-06 0.000000000000D+00  7 1 -2 -24 -11 11 23 21 2 0.37296059D-01 0.19363363D+00 0.26490348D+06 0.26490348D+06 0.26490348D+06 0.10885723D+01  1  2  4  2  7  2       -2 -.103519767793D-01 0.100000000000D+01
-.422895884993D-01 0.000000000000D+00 -.404881455401D-02 0.606633520204D-06 0.000000000000D+00  7 1 -2 -24 -11 11 23 21 2 0.37296059D-01 0.19548788D+00 0.26490348D+06 0.26490348D+06 0.26490348D+06 0.10885723D+01  1  2  5  2  7  2       -2 -.881954041833D-01 0.100000000000D+01
0.423264373315D-01 0.000000000000D+00 0.404863068305D-02 0.606633520204D-06 0.000000000000D+00  7 1 -2 -24 -11 11 23 21 2 0.37296059D-01 0.19363363D+00 0.26490348D+06 0.26490348D+06 0.26490348D+06 0.10885723D+01  1  2  6  2  7  2       -2 0.909137238388D-01 0.100000000000D+01
0.476059574985D-02 0.000000000000D+00 0.000000000000D+00 0.606633520204D-06 0.143261469026D-06  7 1 -2 -24 -11 11 23 21 2 0.37397921D-01 0.19519570D+00 0.26757655D+06 0.26757655D+06 0.26757655D+06 0.10882461D+01  1  2 11  2  7  2       -2 0.992861697547D-02 0.100000000000D+01
0.739885042457D-05 0.000000000000D+00 0.000000000000D+00 0.606633520204D-06 0.000000000000D+00  7 1 21 -24 -11 11 23 2 2 0.37296059D-01 0.19545869D+00 0.26757655D+06 0.26757655D+06 0.26757655D+06 0.10882461D+01  1  2 12  4  7  2       -2 0.123188654957D-03 0.100000000000D+01
-.743650122061D-04 0.000000000000D+00 -.713276935214D-05 0.606633520204D-06 0.000000000000D+00  7 1 21 -24 -11 11 23 2 2 0.37296059D-01 0.19548788D+00 0.26490348D+06 0.26490348D+06 0.26490348D+06 0.10885723D+01  1  2  5  4  7  2       -2 -.123923792560D-02 0.100000000000D+01
0.850296581949D-05 0.000000000000D+00 0.000000000000D+00 0.606633520204D-06 0.213630553817D-09  7 1 21 -24 -11 11 23 2 2 0.37397921D-01 0.19519570D+00 0.26757655D+06 0.26757655D+06 0.26757655D+06 0.10882461D+01  1  2 11  4  7  2       -2 0.141707277168D-03 0.100000000000D+01
  </mgrwgt>
  </event>
  <event>
  8     66 0.29493621E-05 0.22928322E+03 0.75467711E-02 0.99492874E-01
        1 -1    0    0  501    0 0.00000000E+00 0.00000000E+00 0.23799454E+04 0.23799454E+04 0.32000000E+00 0.0000E+00 0.9000E+01
       -2 -1    0    0    0  501 0.00000000E+00 0.00000000E+00 -.36225980E+02 0.36227393E+02 0.32000000E+00 0.0000E+00 0.9000E+01
       25  2    1    2    0    0 -.22044748E+02 -.14555235E+03 0.20568263E+04 0.20838382E+04 0.30029235E+03 0.0000E+00 0.0000E+00
       23  2    3    3    0    0 -.97914031E+02 -.13029721E+03 0.81275895E+03 0.83403507E+03 0.92048239E+02 0.0000E+00 0.0000E+00
      -24  1    1    2    0    0 0.22044748E+02 0.14555235E+03 0.28689311E+03 0.33233467E+03 0.80419002E+02 0.0000E+00 0.9000E+01
      -13  1    4    4    0    0 -.10448781E+03 -.12333098E+03 0.80662262E+03 0.82265929E+03 0.10565837E+00 0.0000E+00 0.9000E+01
       13  1    4    4    0    0 0.65737781E+01 -.69662305E+01 0.61363237E+01 0.11375788E+02 0.10565837E+00 0.0000E+00 0.9000E+01
       23  1    3    3    0    0 0.75869283E+02 -.15255148E+02 0.12440674E+04 0.12498031E+04 0.91188000E+02 0.0000E+00 0.9000E+01
#aMCatNLO 1  0  0  2  1 0.16677148D+03 0.00000000D+00  -5  7  0 0.00000000D+00 0.00000000D+00 0.00000000D+00 0.00000000D+00 0.00000000D+00
  <mgrwgt>
 0.1515513150D-02    4    2    0
 0.293628316782087D+03 0.000000000000000D+00 0.000000000000000D+00 0.293628316782087D+03
 0.293628316782087D+03 0.000000000000000D+00 0.000000000000000D+00 -.293628316782087D+03
 0.222357705353893D+03 0.220447479631007D+02 0.145552355075859D+03 -.145959837609503D+03
 0.165498351487775D+03 -.104487955098202D+03 -.123331129571310D+03 0.355162506922101D+02
 0.223138190918746D+02 0.657392408909607D+01 -.696607729617657D+01 -.201535061872470D+02
 0.177086757630632D+03 0.758692830460056D+02 -.152551482083727D+02 0.130597093104540D+03
 0.000000000000000D+00 -.000000000000000D+00 0.000000000000000D+00 0.000000000000000D+00
 0.473737604607424D+03 0.000000000000000D+00 0.000000000000000D+00 0.473737604607424D+03
 0.346504359120251D+03 0.000000000000000D+00 0.000000000000000D+00 -.346504359120251D+03
 0.234649867845216D+03 0.855374280874887D+02 0.141323808067119D+03 -.145959837609503D+03
 0.144762526783589D+03 -.613829917355651D+02 -.126201875671992D+03 0.355162506922101D+02
 0.251903662036374D+02 0.131737447888365D+02 -.740561854760009D+01 -.201535061872470D+02
 0.205874987353249D+03 0.129074676129383D+03 -.187985725106827D+02 0.130597093104540D+03
 0.209764215541984D+03 -.166402857270143D+03 0.110822586631551D+02 0.127233245487172D+03
0.570316166169D-04 0.000000000000D+00 0.000000000000D+00 0.232679500060D-05 0.000000000000D+00  7 1 -2 -24 -13 13 23 21 0 0.36614556D+00 0.55733381D-02 0.52570795D+05 0.52570795D+05 0.52570795D+05 0.11453850D+01  1  2  2  2  7  2       -2 0.168476916852D-02 0.100000000000D+01
-.293271633639D-05 0.000000000000D+00 -.219016424579D-06 0.232679500060D-05 0.000000000000D+00  7 1 -2 -24 -13 13 23 21 2 0.36614556D+00 0.55733381D-02 0.52570795D+05 0.52570795D+05 0.52570795D+05 0.11453850D+01  1  2  3  2  7  2       -2 -.113657416813D-03 0.100000000000D+01
0.369102293612D-05 0.000000000000D+00 0.000000000000D+00 0.232679500060D-05 0.000000000000D+00  7 1 -2 -24 -13 13 23 21 2 0.36614556D+00 0.55733381D-02 0.52570795D+05 0.52570795D+05 0.52570795D+05 0.11453850D+01  1  2 15  2  7  2       -2 0.143045587843D-03 0.100000000000D+01
-.512564051284D-05 0.000000000000D+00 0.000000000000D+00 0.232679500060D-05 0.000000000000D+00  7 1 -2 -24 -13 13 23 21 2 0.36614556D+00 0.55733381D-02 0.52570795D+05 0.52570795D+05 0.52570795D+05 0.11453850D+01  1  2  4  2  7  2       -2 -.198644189679D-03 0.100000000000D+01
  </mgrwgt>
  </event>
  <event>
  8     66 0.29493621E-05 0.19310465E+03 0.75467711E-02 0.97571600E-01
        1 -1    0    0  501    0 0.00000000E+00 0.00000000E+00 0.12322220E+04 0.12322221E+04 0.32000000E+00 0.0000E+00 0.9000E+01
       -2 -1    0    0    0  501 0.00000000E+00 0.00000000E+00 -.14925182E+03 0.14925217E+03 0.32000000E+00 0.0000E+00 0.9000E+01
       25  2    1    2    0    0 0.38212790E+02 -.48783705E+02 0.12689618E+02 0.30638921E+03 0.29978868E+03 0.0000E+00 0.0000E+00
       23  2    3    3    0    0 0.39273320E+02 -.13454868E+03 0.52117814E+02 0.17513910E+03 0.91168518E+02 0.0000E+00 0.0000E+00
      -24  1    1    2    0    0 -.38212790E+02 0.48783705E+02 0.10702806E+04 0.10750850E+04 0.80419002E+02 0.0000E+00 0.9000E+01
      -13  1    4    4    0    0 -.36632622E+01 -.10995343E+03 0.10558990E+02 0.11052004E+03 0.10565837E+00 0.0000E+00 0.9000E+01
       13  1    4    4    0    0 0.42936583E+02 -.24595251E+02 0.41558824E+02 0.64619065E+02 0.10565837E+00 0.0000E+00 0.9000E+01
       23  1    3    3    0    0 -.10605304E+01 0.85764973E+02 -.39428196E+02 0.13125010E+03 0.91188000E+02 0.0000E+00 0.9000E+01
#aMCatNLO 1  0  0  2  1 0.27906537D+03 0.00000000D+00  -5  7  0 0.00000000D+00 0.00000000D+00 0.00000000D+00 0.00000000D+00 0.00000000D+00
  <mgrwgt>
 0.1806413852D-02    3    2    0
 0.428849217397718D+03 0.000000000000000D+00 0.000000000000000D+00 0.428849217397718D+03
 0.428849217397718D+03 0.000000000000000D+00 0.000000000000000D+00 -.428849217397718D+03
 0.380227211607780D+03 -.382127900442717D+02 0.487837053279894D+02 0.366422501034205D+03
 0.164679847213567D+03 -.366332470797841D+01 -.109953542383959D+03 -.122540812171238D+03
 0.516061042195943D+02 0.429366451884270D+02 -.245951364384616D+02 -.146531142171287D+02
 0.261185271754495D+03 -.106053043617684D+01 0.857649734944310D+02 -.229228574645838D+03
 0.000000000000000D+00 -.000000000000000D+00 -.000000000000000D+00 0.000000000000000D+00
 0.102979604690862D+04 0.000000000000000D+00 0.000000000000000D+00 0.102979604690862D+04
 0.484614268489293D+03 0.000000000000000D+00 0.000000000000000D+00 -.484614268489293D+03
 0.414293232283321D+03 -.246878276526179D+02 0.174059553782677D+03 0.366422501034205D+03
 0.137481005428175D+03 0.148029897047000D+01 -.623103917570202D+02 -.122540812171238D+03
 0.478123263930039D+02 0.446290252214534D+02 -.891935572974795D+01 -.146531142171287D+02
 0.302369137443890D+03 0.853274340424248D+01 0.174623299677897D+03 -.229228574645838D+03
 0.612454613849521D+03 -.299542399435481D+02 -.277453105973806D+03 0.545181778419325D+03
0.908563732511D-04 0.000000000000D+00 0.000000000000D+00 0.115538071816D-04 0.000000000000D+00  7 1 -2 -24 -13 13 23 21 0 0.18957265D+00 0.22961848D-01 0.37289407D+05 0.37289407D+05 0.37289407D+05 0.11586715D+01  1  2  2  2  7  2       -2 0.169492597119D-02 0.100000000000D+01
-.114067866949D-05 0.000000000000D+00 -.348912396317D-06 0.115538071816D-04 0.000000000000D+00  7 1 -2 -24 -13 13 23 21 2 0.18957265D+00 0.22961848D-01 0.37289407D+05 0.37289407D+05 0.37289407D+05 0.11586715D+01  1  2  3  2  7  2       -2 -.285679666330D-04 0.100000000000D+01
0.559223270123D-05 0.000000000000D+00 0.000000000000D+00 0.115538071816D-04 0.000000000000D+00  7 1 -2 -24 -13 13 23 21 2 0.18957265D+00 0.22961848D-01 0.37289407D+05 0.37289407D+05 0.37289407D+05 0.11586715D+01  1  2 15  2  7  2       -2 0.140055847002D-03 0.100000000000D+01
  </mgrwgt>
  </event>
  <event>
  9     66 0.29493621E-05 0.15817707E+03 0.75467711E-02 0.97139526E-01
        1 -1    0    0  502    0 0.00000000E+00 0.00000000E+00 0.87526758E+03 0.87526764E+03 0.32000000E+00 0.0000E+00 0.9000E+01
       -2 -1    0    0    0  501 0.00000000E+00 0.00000000E+00 -.28287174E+03 0.28287192E+03 0.32000000E+00 0.0000E+00 0.9000E+01
       25  2    1    2    0    0 -.83069340E+02 -.14106369E+03 0.38136684E+03 0.51174325E+03 0.29940108E+03 0.0000E+00 0.0000E+00
       23  2    3    3    0    0 -.63543950E+02 -.11216314E+03 0.38251489E+03 0.41410590E+03 0.92453500E+02 0.0000E+00 0.0000E+00
      -24  1    1    2    0    0 -.20220459E+03 -.63827997E+02 0.18772312E+03 0.29439412E+03 0.80419002E+02 0.0000E+00 0.9000E+01
      -11  1    4    4    0    0 -.22864312E+02 -.59127773E+02 0.69649028E+02 0.94179921E+02 0.51099893E-03 0.0000E+00 0.9000E+01
       11  1    4    4    0    0 -.40679638E+02 -.53035366E+02 0.31286586E+03 0.31992598E+03 0.51099893E-03 0.0000E+00 0.9000E+01
       23  1    3    3    0    0 -.19525390E+02 -.28900551E+02 -.11480531E+01 0.97637350E+02 0.91188000E+02 0.0000E+00 0.9000E+01
       21  1    1    2  502  501 0.28527393E+03 0.20489169E+03 0.23305885E+02 0.35200220E+03 0.75000000E+00 0.0000E+00 0.9000E+01
#aMCatNLO 2  0  0  1  1 0.35122901D+03 0.00000000D+00  -5  7  0 0.00000000D+00 0.00000000D+00 0.00000000D+00 0.00000000D+00 0.00000000D+00
  <mgrwgt>
 0.1493769504D-04    1    2    0
 0.225073459958153D+03 0.000000000000000D+00 0.000000000000000D+00 0.225073459958153D+03
 0.225073459958153D+03 0.000000000000000D+00 0.000000000000000D+00 -.225073459958153D+03
 0.132688299736751D+03 -.101283690913878D+03 0.865620571455794D+01 -.283840270248712D+02
 0.392049978936729D+02 0.584358219936235D+01 -.385089636043876D+02 0.446588502294296D+01
 0.127478639628035D+03 0.340093097431073D+02 0.608318056809910D+00 0.122856828712748D+03
 0.150774982657848D+03 0.614307989714080D+02 0.292444398330198D+02 -.989386867108198D+02
 0.000000000000000D+00 0.000000000000000D+00 0.000000000000000D+00 -.000000000000000D+00
 0.363388307638282D+03 0.000000000000000D+00 0.000000000000000D+00 0.363388307638282D+03
 0.681332454996227D+03 0.000000000000000D+00 0.000000000000000D+00 -.681332454996227D+03
 0.228546666636525D+03 -.202204591043833D+03 -.638279973596518D+02 -.283840270248712D+02
 0.635516676495760D+02 -.228643119590939D+02 -.591277732596219D+02 0.446588502294296D+01
 0.139862015340741D+03 -.406796380397083D+02 -.530353657739660D+02 0.122856828712748D+03
 0.138998553086169D+03 -.195253896133568D+02 -.289005510057049D+02 -.989386867108198D+02
 0.473761859921498D+03 0.285273930655992D+03 0.204891687398945D+03 -.317944147357945D+03
0.115708881378D-05 0.000000000000D+00 0.000000000000D+00 0.290979945313D-06 0.307212925042D-10  7 1 -2 -24 -11 11 23 21 2 0.13465647D+00 0.43518716D-01 0.16235718D+06 0.16235718D+06 0.16235718D+06 0.11048490D+01  1  2  1  1  7  1        1 0.149376950360D-04 0.100000000000D+01
  </mgrwgt>
  </event>
  <event>
  8     66 0.29493621E-05 0.27896411E+03 0.75467711E-02 0.96738439E-01
        1 -1    0    0  501    0 0.00000000E+00 0.00000000E+00 0.59178256E+03 0.59178265E+03 0.32000000E+00 0.0000E+00 0.9000E+01
       -2 -1    0    0    0  501 0.00000000E+00 0.00000000E+00 -.14597805E+03 0.14597840E+03 0.32000000E+00 0.0000E+00 0.9000E+01
       25  2    1    2    0    0 0.60829965E+02 0.19393629E+03 0.22397163E+03 0.42633109E+03 0.30047187E+03 0.0000E+00 0.0000E+00
       23  2    3    3    0    0 -.72021324E+02 0.11466447E+03 0.37676915E+02 0.16757550E+03 0.91252317E+02 0.0000E+00 0.0000E+00
      -24  1    1    2    0    0 -.60829965E+02 -.19393629E+03 0.22183289E+03 0.31142995E+03 0.80419002E+02 0.0000E+00 0.9000E+01
      -11  1    4    4    0    0 0.19133257E+02 0.28537031E+02 -.58030001E+01 0.34844203E+02 0.51099893E-03 0.0000E+00 0.9000E+01
       11  1    4    4    0    0 -.91154581E+02 0.86127443E+02 0.43479915E+02 0.13273130E+03 0.51099893E-03 0.0000E+00 0.9000E+01
       23  1    3    3    0    0 0.13285129E+03 0.79271814E+02 0.18629471E+03 0.25875559E+03 0.91188000E+02 0.0000E+00 0.9000E+01
#aMCatNLO 1  0  0  1  1 0.23101581D+03 0.00000000D+00  -5  7  0 0.00000000D+00 0.00000000D+00 0.00000000D+00 0.00000000D+00 0.00000000D+00
  <mgrwgt>
 0.1402090941D-02    3    2    0
 0.293917374472333D+03 0.000000000000000D+00 0.000000000000000D+00 0.293917374472333D+03
 0.293917374472333D+03 0.000000000000000D+00 0.000000000000000D+00 -.293917374472333D+03
 0.222625122551754D+03 -.608299646076178D+02 -.193936288454512D+03 0.422274870568609D+02
 0.481320629069049D+02 0.191332568756688D+02 0.285370309263841D+02 -.337083346801725D+02
 0.133609722576760D+03 -.911545809339923D+02 0.861274432528881D+02 -.460919066703427D+02
 0.183467840909247D+03 0.132851288665941D+03 0.792718142752398D+02 0.375727542936543D+02
 0.000000000000000D+00 -.000000000000000D+00 0.000000000000000D+00 -.000000000000000D+00
 0.356828590971687D+03 0.000000000000000D+00 0.000000000000000D+00 0.356828590971687D+03
 0.640987746253852D+03 0.000000000000000D+00 0.000000000000000D+00 -.640987746253852D+03
 0.234029593488424D+03 0.232184952775459D+02 -.214430351135038D+03 0.422274870568609D+02
 0.563640079015472D+02 0.383660240124231D+02 0.238473847893919D+02 -.337083346801725D+02
 0.100735192052965D+03 -.480228044194680D+02 0.756103518913231D+02 -.460919066703427D+02
 0.240470761679128D+03 0.210878264807553D+03 0.602460077107539D+02 0.375727542936543D+02
 0.366216782103475D+03 -.224439979678054D+03 0.547266067435688D+02 -.284159155282166D+03
0.219750365061D-04 0.000000000000D+00 0.000000000000D+00 0.191296704093D-05 0.000000000000D+00  7 1 -2 -24 -11 11 23 21 0 0.91043505D-01 0.22458194D-01 0.77820974D+05 0.77820974D+05 0.77820974D+05 0.11307699D+01  1  2  2  1  7  1        1 0.138540958372D-02 0.100000000000D+01
-.121678831238D-05 0.000000000000D+00 -.843899263434D-07 0.191296704093D-05 0.000000000000D+00  7 1 -2 -24 -11 11 23 21 2 0.91043505D-01 0.22458194D-01 0.77820974D+05 0.77820974D+05 0.77820974D+05 0.11307699D+01  1  2  3  1  7  1        1 -.980871449737D-04 0.100000000000D+01
0.142372348865D-05 0.000000000000D+00 0.000000000000D+00 0.191296704093D-05 0.000000000000D+00  7 1 -2 -24 -11 11 23 21 2 0.91043505D-01 0.22458194D-01 0.77820974D+05 0.77820974D+05 0.77820974D+05 0.11307699D+01  1  2 15  1  7  1        1 0.114768502305D-03 0.100000000000D+01
  </mgrwgt>
  </event>
  <event>
  8     66 -.29493621E-05 0.12978568E+03 0.75467711E-02 0.11294232E+00
        1 -1    0    0  501    0 0.00000000E+00 0.00000000E+00 0.10440644E+04 0.10440644E+04 0.32000000E+00 0.0000E+00 0.9000E+01
       -2 -1    0    0    0  501 0.00000000E+00 0.00000000E+00 -.12161266E+03 0.12161308E+03 0.32000000E+00 0.0000E+00 0.9000E+01
       25  2    1    2    0    0 -.33792222E+02 -.76044304E+02 0.98590429E+03 0.10336999E+04 0.29933845E+03 0.0000E+00 0.0000E+00
       23  2    3    3    0    0 0.42600643E+01 -.35319950E+02 0.92423488E+02 0.13385008E+03 0.90044969E+02 0.0000E+00 0.0000E+00
      -24  1    1    2    0    0 0.33792222E+02 0.76044304E+02 -.63452572E+02 0.13197763E+03 0.80419002E+02 0.0000E+00 0.9000E+01
      -13  1    4    4    0    0 0.33704278E+01 -.26337170E+01 -.18095984E+02 0.18594947E+02 0.10565837E+00 0.0000E+00 0.9000E+01
       13  1    4    4    0    0 0.88963648E+00 -.32686233E+02 0.11051947E+03 0.11525514E+03 0.10565837E+00 0.0000E+00 0.9000E+01
       23  1    3    3    0    0 -.38052286E+02 -.40724354E+02 0.89348080E+03 0.89984979E+03 0.91188000E+02 0.0000E+00 0.9000E+01
#aMCatNLO 1  0  0  1  1 0.23101581D+03 0.00000000D+00  -5  7  0 0.00000000D+00 0.00000000D+00 0.00000000D+00 0.00000000D+00 0.00000000D+00
  <mgrwgt>
 -.1011126732D-03    1    2    0
 0.356330910016500D+03 0.000000000000000D+00 0.000000000000000D+00 0.356330910016500D+03
 0.356330910016500D+03 0.000000000000000D+00 0.000000000000000D+00 -.356330910016500D+03
 0.298002900693128D+03 0.337922222003926D+02 0.760443043571535D+02 -.274615845064963D+03
 0.538381465652037D+02 0.337043120181736D+01 -.263367568129894D+01 -.536679603813663D+02
 0.454653695728977D+02 0.889633075670887D+00 -.326862747703100D+02 0.315898057137210D+02
 0.315355403201771D+03 -.380522864778808D+02 -.407243539055445D+02 0.296693999732608D+03
 0.000000000000000D+00 0.000000000000000D+00 0.000000000000000D+00 0.000000000000000D+00
 0.100613565603890D+04 0.000000000000000D+00 0.000000000000000D+00 0.100613565603890D+04
 0.884047421932336D+03 0.000000000000000D+00 0.000000000000000D+00 -.884047421932336D+03
 0.379713123254603D+03 -.244777205730985D+03 -.488374570507357D+02 -.274615845064963D+03
 0.789901807673680D+02 -.512275270146317D+02 -.271097613809261D+02 -.536679603813663D+02
 0.828080978729528D+02 -.518360885872429D+02 -.563230429600656D+02 0.315898057137210D+02
 0.533985847143556D+03 -.387166809178714D+03 -.197231250056024D+03 0.296693999732608D+03
 0.814685828932754D+03 0.735007630511573D+03 0.329501511447751D+03 0.122088234106562D+03
-.199048158894D-05 0.000000000000D+00 0.000000000000D+00 0.220874634598D-05 0.000000000000D+00  7 1 -2 -24 -13 13 23 21 2 0.16062532D+00 0.18709676D-01 0.16844322D+05 0.16844322D+05 0.16844322D+05 0.11913333D+01  1  2 14  1  7  1        1 -.101112673166D-03 0.100000000000D+01
  </mgrwgt>
  </event>
  <event>
  8     66 0.29493621E-05 0.27375950E+03 0.75467711E-02 0.93794867E-01
        1 -1    0    0  501    0 0.00000000E+00 0.00000000E+00 0.99375611E+02 0.99376126E+02 0.32000000E+00 0.0000E+00 0.9000E+01
       -2 -1    0    0    0  501 0.00000000E+00 0.00000000E+00 -.92168740E+03 0.92168746E+03 0.32000000E+00 0.0000E+00 0.9000E+01
       25  2    1    2    0    0 -.20121697E+03 -.31841223E+02 -.36751668E+03 0.51627854E+03 0.29995481E+03 0.0000E+00 0.0000E+00
       23  2    3    3    0    0 -.12857526E+03 0.84499008E+02 -.27307197E+03 0.32641827E+03 0.91153199E+02 0.0000E+00 0.0000E+00
      -24  1    1    2    0    0 0.20121697E+03 0.31841223E+02 -.45479511E+03 0.50478505E+03 0.80419002E+02 0.0000E+00 0.9000E+01
      -11  1    4    4    0    0 -.10452329E+03 0.91319873E+02 -.16558468E+03 0.21606185E+03 0.51099893E-03 0.0000E+00 0.9000E+01
       11  1    4    4    0    0 -.24051975E+02 -.68208646E+01 -.10748729E+03 0.11035642E+03 0.51099893E-03 0.0000E+00 0.9000E+01
       23  1    3    3    0    0 -.72641705E+02 -.11634023E+03 -.94444706E+02 0.18986027E+03 0.91188000E+02 0.0000E+00 0.9000E+01
#aMCatNLO 1  0  0  1  2 0.40154907D+03 0.00000000D+00  -5  7  0 0.00000000D+00 0.00000000D+00 0.00000000D+00 0.00000000D+00 0.00000000D+00
  <mgrwgt>
 0.1301196261D-02    5    2    0
 0.302644246578326D+03 0.000000000000000D+00 0.000000000000000D+00 0.302644246578326D+03
 0.302644246578326D+03 0.000000000000000D+00 0.000000000000000D+00 -.302644246578326D+03
 0.233664187403421D+03 0.201216967916828D+03 0.318412231091846D+02 -.814223854587896D+02
 0.139521324607034D+03 -.104523287581608D+03 0.913198729439343D+02 0.142043366172982D+02
 0.401343420063179D+02 -.240519749064886D+02 -.682086462136356D+01 -.313965558173946D+02
 0.191968639139880D+03 -.726417054287318D+02 -.116340231431755D+03 0.986146046588860D+02
 0.000000000000000D+00 0.000000000000000D+00 -.000000000000000D+00 0.000000000000000D+00
 0.567748808162361D+03 0.000000000000000D+00 0.000000000000000D+00 0.567748808162361D+03
 0.560242106726768D+03 0.000000000000000D+00 0.000000000000000D+00 -.560242106726768D+03
 0.168389108578750D+03 0.913648717066180D+02 0.831296054231535D+02 -.814223854587896D+02
 0.255890713551580D+03 -.212560808210220D+03 0.141761055710718D+03 0.142043366172982D+02
 0.607065603141530D+02 -.516045024304116D+02 0.604301885573460D+01 -.313965558173946D+02
 0.241385298312755D+03 -.191046003828591D+03 -.610589474740184D+02 0.986146046588860D+02
 0.401619234131891D+03 0.363846442762605D+03 -.169874732515588D+03 0.750670143559293D+01
0.761765448373D-04 0.000000000000D+00 0.000000000000D+00 0.354572652986D-05 0.000000000000D+00  7 1 -2 -24 -11 11 23 21 0 0.15288599D-01 0.14179811D+00 0.74944264D+05 0.74944264D+05 0.74944264D+05 0.11321485D+01  1  2  2  1  7  1        1 0.111885976821D-02 0.100000000000D+01
-.418025746692D-05 0.000000000000D+00 -.292537989920D-06 0.354572652986D-05 0.000000000000D+00  7 1 -2 -24 -11 11 23 21 2 0.15288599D-01 0.14179811D+00 0.74944264D+05 0.74944264D+05 0.74944264D+05 0.11321485D+01  1  2  3  1  7  1        1 -.786980899689D-04 0.100000000000D+01
0.490742661567D-05 0.000000000000D+00 0.000000000000D+00 0.354572652986D-05 0.000000000000D+00  7 1 -2 -24 -11 11 23 21 2 0.15288599D-01 0.14179811D+00 0.74944264D+05 0.74944264D+05 0.74944264D+05 0.11321485D+01  1  2 15  1  7  1        1 0.923878742809D-04 0.100000000000D+01
0.259909919728D-04 0.000000000000D+00 -.276401913171D-04 0.354572652986D-05 0.000000000000D+00  7 1 -2 -24 -11 11 23 21 2 0.53682784D-01 0.14179811D+00 0.74944264D+05 0.74944264D+05 0.74944264D+05 0.11321485D+01  1  2  5  1  7  1        1 0.955476622601D-04 0.100000000000D+01
0.469185100346D-05 0.000000000000D+00 -.406363206161D-05 0.354572652986D-05 0.000000000000D+00  7 21 -2 -24 -11 11 23 -1 2 0.53682784D-01 0.14179811D+00 0.74944264D+05 0.74944264D+05 0.74944264D+05 0.11321485D+01  1  2  5  3  7  1        1 0.730990458860D-04 0.100000000000D+01
  </mgrwgt>
  </event>
  <event>
  8     66 0.29493621E-05 0.31723638E+03 0.75467711E-02 0.93883746E-01
        1 -1    0    0  501    0 0.00000000E+00 0.00000000E+00 0.19838443E+03 0.19838469E+03 0.32000000E+00 0.0000E+00 0.9000E+01
       -2 -1    0    0    0  501 0.00000000E+00 0.00000000E+00 -.10226102E+04 0.10226102E+04 0.32000000E+00 0.0000E+00 0.9000E+01
       25  2    1    2    0    0 0.19102501E+03 -.17686623E+03 -.43110892E+02 0.39372239E+03 0.29220978E+03 0.0000E+00 0.0000E+00
       23  2    3    3    0    0 0.48235317E+02 0.20708850E+02 0.51897777E+02 0.11665434E+03 0.90329134E+02 0.0000E+00 0.0000E+00
      -24  1    1    2    0    0 -.19102501E+03 0.17686623E+03 -.78111483E+03 0.82727251E+03 0.80419002E+02 0.0000E+00 0.9000E+01
      -13  1    4    4    0    0 0.73596708E+02 0.20396796E+02 0.26704759E+02 0.80905254E+02 0.10565837E+00 0.0000E+00 0.9000E+01
       13  1    4    4    0    0 -.25361391E+02 0.31205410E+00 0.25193018E+02 0.35749082E+02 0.10565837E+00 0.0000E+00 0.9000E+01
       23  1    3    3    0    0 0.14278969E+03 -.19757508E+03 -.95008669E+02 0.27706805E+03 0.91188000E+02 0.0000E+00 0.9000E+01
#aMCatNLO 1  0  0  2  1 0.34503644D+03 0.00000000D+00  -5  7  0 0.00000000D+00 0.00000000D+00 0.00000000D+00 0.00000000D+00 0.00000000D+00
  <mgrwgt>
 0.2555634264D-02    3    2    0
 0.450411063283633D+03 0.000000000000000D+00 0.000000000000000D+00 0.450411063283633D+03
 0.450411063283633D+03 0.000000000000000D+00 0.000000000000000D+00 -.450411063283633D+03
 0.406607000759399D+03 -.191025005904325D+03 0.176866228853640D+03 -.301810903253225D+03
 0.134094983472468D+03 0.735968435286857D+02 0.203968231724145D+02 0.110222224707945D+03
 0.715059071083140D+02 -.253615261895684D+02 0.312026476329127D+00 0.668564909354114D+02
 0.288614235227086D+03 0.142789688565208D+03 -.197575078502384D+03 0.124732187609869D+03
 0.000000000000000D+00 -.000000000000000D+00 -.000000000000000D+00 0.000000000000000D+00
 0.291727829219190D+04 0.000000000000000D+00 0.000000000000000D+00 0.291727829219190D+04
 0.494543099840782D+03 0.000000000000000D+00 0.000000000000000D+00 -.494543099840782D+03
 0.431515986020630D+03 -.813414767114019D+02 0.286413290684749D+03 -.301810903253225D+03
 0.169060936076623D+03 0.113270270551153D+03 0.600208888371677D+02 0.110222224707945D+03
 0.697829830205559D+02 -.687132326049292D+01 0.187792240441466D+02 0.668564909354114D+02
 0.294280260097109D+03 0.219071960263675D+03 -.121387716590722D+03 0.124732187609869D+03
 0.244718122681777D+04 -.244129430842934D+03 -.243825686975341D+03 0.242273519235112D+04
0.560167288148D-03 0.000000000000D+00 0.000000000000D+00 0.321880036623D-07 0.000000000000D+00  7 1 -2 -24 -13 13 23 21 0 0.30520706D-01 0.15732466D+00 0.10063892D+06 0.10063892D+06 0.10063892D+06 0.11214951D+01  1  2  2  2  7  2       -2 0.250292660282D-02 0.100000000000D+01
-.264716554146D-04 0.000000000000D+00 -.215118988192D-05 0.321880036623D-07 0.000000000000D+00  7 1 -2 -24 -13 13 23 21 2 0.30520706D-01 0.15732466D+00 0.10063892D+06 0.10063892D+06 0.10063892D+06 0.11214951D+01  1  2  3  2  7  2       -2 -.148766881417D-03 0.100000000000D+01
0.358504837588D-04 0.000000000000D+00 0.000000000000D+00 0.321880036623D-07 0.000000000000D+00  7 1 -2 -24 -13 13 23 21 2 0.30520706D-01 0.15732466D+00 0.10063892D+06 0.10063892D+06 0.10063892D+06 0.11214951D+01  1  2 15  2  7  2       -2 0.201474542584D-03 0.100000000000D+01
  </mgrwgt>
  </event>
  <event>
  8     66 0.29493621E-05 0.11377993E+03 0.75467711E-02 0.10227468E+00
        1 -1    0    0  501    0 0.00000000E+00 0.00000000E+00 0.10899464E+04 0.10899464E+04 0.32000000E+00 0.0000E+00 0.9000E+01
       -2 -1    0    0    0  501 0.00000000E+00 0.00000000E+00 -.72180518E+02 0.72181227E+02 0.32000000E+00 0.0000E+00 0.9000E+01
       25  2    1    2    0    0 0.39400425E+02 -.16911075E+03 0.48850657E+03 0.59933688E+03 0.30069119E+03 0.0000E+00 0.0000E+00
       23  2    3    3    0    0 -.19008046E+02 0.11385668E+02 0.53698355E+02 0.11625931E+03 0.10070638E+03 0.0000E+00 0.0000E+00
      -24  1    1    2    0    0 -.39400425E+02 0.16911075E+03 0.52925930E+03 0.56279078E+03 0.80419002E+02 0.0000E+00 0.9000E+01
      -11  1    4    4    0    0 -.22853876E+02 -.19249081E+02 -.20269294E+02 0.36106385E+02 0.51099893E-03 0.0000E+00 0.9000E+01
       11  1    4    4    0    0 0.38458301E+01 0.30634750E+02 0.73967648E+02 0.80152925E+02 0.51099893E-03 0.0000E+00 0.9000E+01
       23  1    3    3    0    0 0.58408471E+02 -.18049642E+03 0.43480821E+03 0.48307757E+03 0.91188000E+02 0.0000E+00 0.9000E+01
#aMCatNLO 1  0  0  2  1 0.62115947D+02 0.00000000D+00  -5  7  0 0.00000000D+00 0.00000000D+00 0.00000000D+00 0.00000000D+00 0.00000000D+00
  <mgrwgt>
 0.8072628030D-03    9    2    0
 0.280487670992586D+03 0.000000000000000D+00 0.000000000000000D+00 0.280487670992586D+03
 0.280487670992586D+03 0.000000000000000D+00 0.000000000000000D+00 -.280487670992586D+03
 0.205664440040063D+03 -.394004251841398D+02 0.169110747127870D+03 0.753644985638784D+02
 0.111572861679466D+03 -.228538761665102D+02 -.192490810774669D+02 -.107497333386387D+03
 0.318484276634656D+02 0.384583004708663D+01 0.306347496179503D+02 0.781306928994104D+01
 0.211889612602178D+03 0.584084713035633D+02 -.180496415668353D+03 0.243197655325680D+02
 0.000000000000000D+00 0.000000000000000D+00 0.000000000000000D+00 -.000000000000000D+00
 0.309500681023111D+03 0.000000000000000D+00 0.000000000000000D+00 0.309500681023111D+03
 0.317536804764215D+03 0.000000000000000D+00 0.000000000000000D+00 -.317536804764215D+03
 0.201702485917428D+03 -.590917427083096D+02 0.158256232644436D+03 0.753644985638784D+02
 0.115499877959608D+03 -.338301266483246D+02 -.252995583846564D+02 -.107497333386387D+03
 0.300325922872924D+02 0.854623017439308D+00 0.289858960058746D+02 0.781306928994104D+01
 0.217168910954038D+03 0.376686245328940D+02 -.191928914630401D+03 0.243197655325680D+02
 0.626336186689583D+02 0.543986218063010D+02 0.299863443647469D+02 -.803612374110413D+01
0.785913330037D-05 0.000000000000D+00 0.000000000000D+00 0.164301009863D-07 0.000000000000D+00  7 1 -2 -24 -11 11 23 21 0 0.16768412D+00 0.11104753D-01 0.53500426D+05 0.53500426D+05 0.53500426D+05 0.11447194D+01  1  2  2  2  7  2       -2 0.584841335121D-03 0.100000000000D+01
-.416883809900D-06 0.000000000000D+00 -.301811412307D-07 0.164301009863D-07 0.000000000000D+00  7 1 -2 -24 -11 11 23 21 2 0.16768412D+00 0.11104753D-01 0.53500426D+05 0.53500426D+05 0.53500426D+05 0.11447194D+01  1  2  3  2  7  2       -2 -.406514975223D-04 0.100000000000D+01
0.509495917244D-06 0.000000000000D+00 0.000000000000D+00 0.164301009863D-07 0.000000000000D+00  7 1 -2 -24 -11 11 23 21 2 0.16768412D+00 0.11104753D-01 0.53500426D+05 0.53500426D+05 0.53500426D+05 0.11447194D+01  1  2 15  2  7  2       -2 0.496823611895D-04 0.100000000000D+01
0.666001177148D-05 0.000000000000D+00 0.000000000000D+00 0.164301009863D-07 0.000000000000D+00  7 1 -2 -24 -11 11 23 21 2 0.16768412D+00 0.13079628D-01 0.71892353D+05 0.71892353D+05 0.71892353D+05 0.11336761D+01  1  2 12  2  7  2       -2 0.492370806175D-03 0.100000000000D+01
-.602041348907D-05 0.000000000000D+00 0.000000000000D+00 0.164301009863D-07 0.000000000000D+00  7 1 -2 -24 -11 11 23 21 2 0.16768412D+00 0.11104753D-01 0.53500426D+05 0.53500426D+05 0.53500426D+05 0.11447194D+01  1  2  4  2  7  2       -2 -.587067231258D-03 0.100000000000D+01
-.155985556092D-04 0.000000000000D+00 -.519498033847D-05 0.164301009863D-07 0.000000000000D+00  7 1 -2 -24 -11 11 23 21 2 0.16768412D+00 0.13912416D-01 0.53500426D+05 0.53500426D+05 0.53500426D+05 0.11447194D+01  1  2  5  2  7  2       -2 -.107022166971D-02 0.100000000000D+01
0.164783859617D-04 0.000000000000D+00 0.506574199802D-05 0.164301009863D-07 0.000000000000D+00  7 1 -2 -24 -11 11 23 21 2 0.16768412D+00 0.11104753D-01 0.53500426D+05 0.53500426D+05 0.53500426D+05 0.11447194D+01  1  2  6  2  7  2       -2 0.160685315713D-02 0.100000000000D+01
0.162953905654D-06 0.000000000000D+00 0.000000000000D+00 0.164301009863D-07 0.000000000000D+00  7 1 21 -24 -11 11 23 2 2 0.16768412D+00 0.13079628D-01 0.71892353D+05 0.71892353D+05 0.71892353D+05 0.11336761D+01  1  2 12  4  7  2       -2 0.168619625198D-03 0.100000000000D+01
-.415452090906D-06 0.000000000000D+00 -.162781156909D-06 0.164301009863D-07 0.000000000000D+00  7 1 21 -24 -11 11 23 2 2 0.16768412D+00 0.13912416D-01 0.53500426D+05 0.53500426D+05 0.53500426D+05 0.11447194D+01  1  2  5  4  7  2       -2 -.397164083289D-03 0.100000000000D+01
  </mgrwgt>
  </event>
  <event>
  8     66 0.29493621E-05 0.20766799E+03 0.75467711E-02 0.94361560E-01
        1 -1    0    0  501    0 0.00000000E+00 0.00000000E+00 0.48070033E+03 0.48070044E+03 0.32000000E+00 0.0000E+00 0.9000E+01
       -2 -1    0    0    0  501 0.00000000E+00 0.00000000E+00 -.46961889E+03 0.46961900E+03 0.32000000E+00 0.0000E+00 0.9000E+01
       25  2    1    2    0    0 -.35703261E+03 0.14183599E+03 0.18682205E+03 0.52027094E+03 0.29696741E+03 0.0000E+00 0.0000E+00
       23  2    3    3    0    0 -.29695447E+03 0.15408403E+03 0.59803571E+02 0.35231755E+03 0.92883466E+02 0.0000E+00 0.0000E+00
      -24  1    1    2    0    0 0.35703261E+03 -.14183599E+03 -.17574061E+03 0.43004850E+03 0.80419002E+02 0.0000E+00 0.9000E+01
      -11  1    4    4    0    0 -.27519344E+03 0.12811066E+03 0.26337133E+02 0.30469233E+03 0.51099893E-03 0.0000E+00 0.9000E+01
       11  1    4    4    0    0 -.21761028E+02 0.25973375E+02 0.33466438E+02 0.47625214E+02 0.51099893E-03 0.0000E+00 0.9000E+01
       23  1    3    3    0    0 -.60078134E+02 -.12248044E+02 0.12701848E+03 0.16795340E+03 0.91188000E+02 0.0000E+00 0.9000E+01
#aMCatNLO 1  0  0  1  2 0.16888120D+03 0.00000000D+00  -5  7  0 0.00000000D+00 0.00000000D+00 0.00000000D+00 0.00000000D+00 0.00000000D+00
  <mgrwgt>
 0.2834780949D-02    7    2    0
 0.475127413015398D+03 0.000000000000000D+00 0.000000000000000D+00 0.475127413015398D+03
 0.475127413015398D+03 0.000000000000000D+00 0.000000000000000D+00 -.475127413015398D+03
 0.432127143761191D+03 0.357032607566741D+03 -.141835985937479D+03 -.180767592914414D+03
 0.304405916491025D+03 -.275193444831746D+03 0.128110655223082D+03 0.227857397222521D+02
 0.472381819083039D+02 -.217610283050021D+02 0.259733747576869D+02 0.329133298346985D+02
 0.166483583870275D+03 -.600781344299921D+02 -.122480440432901D+02 0.125068523357464D+03
 0.000000000000000D+00 -.000000000000000D+00 -.000000000000000D+00 0.000000000000000D+00
 0.108524538341035D+04 0.000000000000000D+00 0.000000000000000D+00 0.108524538341035D+04
 0.494403546222720D+03 0.000000000000000D+00 0.000000000000000D+00 -.494403546222720D+03
 0.457950933111877D+03 0.405207850511590D+03 -.798843940915530D+02 -.180767592914414D+03
 0.297126296721065D+03 -.242635671234568D+03 0.169978755475602D+03 0.227857397222521D+02
 0.492482658519915D+02 -.165387245739997D+02 0.326890654208123D+02 0.329133298346985D+02
 0.160819620269010D+03 -.423629341731429D+02 0.105330524015699D+02 0.125068523357464D+03
 0.614503813679125D+03 -.103670520529879D+03 -.133316479206432D+03 0.590841837187631D+03
0.372895070385D-03 0.000000000000D+00 0.000000000000D+00 0.146539503503D-06 0.000000000000D+00  7 1 -2 -24 -11 11 23 21 0 0.73953914D-01 0.72249077D-01 0.17632525D+06 0.17632525D+06 0.17632525D+06 0.11020526D+01  1  2  2  1  7  1        1 0.342886141555D-02 0.100000000000D+01
-.203319671557D-04 0.000000000000D+00 -.143201525581D-05 0.146539503503D-06 0.000000000000D+00  7 1 -2 -24 -11 11 23 21 2 0.73953914D-01 0.72249077D-01 0.17632525D+06 0.17632525D+06 0.17632525D+06 0.11020526D+01  1  2  3  1  7  1        1 -.227063489472D-03 0.100000000000D+01
0.237841675230D-04 0.000000000000D+00 0.000000000000D+00 0.146539503503D-06 0.000000000000D+00  7 1 -2 -24 -11 11 23 21 2 0.73953914D-01 0.72249077D-01 0.17632525D+06 0.17632525D+06 0.17632525D+06 0.11020526D+01  1  2 15  1  7  1        1 0.265616997637D-03 0.100000000000D+01
0.111369040367D-02 0.000000000000D+00 0.000000000000D+00 0.146539503503D-06 0.000000000000D+00  7 1 -2 -24 -11 11 23 21 2 0.16839027D+00 0.72249077D-01 0.26195412D+06 0.26195412D+06 0.26195412D+06 0.10889363D+01  1  2 12  1  7  1        1 0.331188958440D-02 0.100000000000D+01
-.129650989041D-02 0.000000000000D+00 -.115932721127D-03 0.146539503503D-06 0.000000000000D+00  7 1 -2 -24 -11 11 23 21 2 0.17118412D+00 0.72249077D-01 0.17632525D+06 0.17632525D+06 0.17632525D+06 0.11020526D+01  1  2  5  1  7  1        1 -.390102969393D-02 0.100000000000D+01
0.996252818335D-04 0.000000000000D+00 0.000000000000D+00 0.146539503503D-06 0.000000000000D+00  7 21 -2 -24 -11 11 23 -1 2 0.16839027D+00 0.72249077D-01 0.26195412D+06 0.26195412D+06 0.26195412D+06 0.10889363D+01  1  2 12  3  7  1        1 0.352388614157D-03 0.100000000000D+01
-.111178276391D-03 0.000000000000D+00 -.105970169129D-04 0.146539503503D-06 0.000000000000D+00  7 21 -2 -24 -11 11 23 -1 2 0.17118412D+00 0.72249077D-01 0.17632525D+06 0.17632525D+06 0.17632525D+06 0.11020526D+01  1  2  5  3  7  1        1 -.395882479259D-03 0.100000000000D+01
  </mgrwgt>
  </event>
  <event>
  8     66 0.29493621E-05 0.36401407E+03 0.75467711E-02 0.96749214E-01
        1 -1    0    0  501    0 0.00000000E+00 0.00000000E+00 0.17164257E+04 0.17164257E+04 0.32000000E+00 0.0000E+00 0.9000E+01
       -2 -1    0    0    0  501 0.00000000E+00 0.00000000E+00 -.17867673E+03 0.17867702E+03 0.32000000E+00 0.0000E+00 0.9000E+01
       25  2    1    2    0    0 -.36450802E+03 0.58757829E+02 0.21646615E+03 0.52084874E+03 0.29682864E+03 0.0000E+00 0.0000E+00
       23  2    3    3    0    0 -.23897378E+03 -.53888588E+02 0.48569579E+02 0.26599080E+03 0.91540458E+02 0.0000E+00 0.0000E+00
      -24  1    1    2    0    0 0.36450802E+03 -.58757829E+02 0.13212828E+04 0.13742540E+04 0.80419002E+02 0.0000E+00 0.9000E+01
      -11  1    4    4    0    0 -.19411053E+03 -.76289634E+02 0.54307262E+02 0.21551865E+03 0.51099893E-03 0.0000E+00 0.9000E+01
       11  1    4    4    0    0 -.44863245E+02 0.22401046E+02 -.57376823E+01 0.50472157E+02 0.51099893E-03 0.0000E+00 0.9000E+01
       23  1    3    3    0    0 -.12553424E+03 0.11264642E+03 0.16789657E+03 0.25485794E+03 0.91188000E+02 0.0000E+00 0.9000E+01
#aMCatNLO 1  0  0  1  1 0.44406008D+01 0.00000000D+00  -5  7  0 0.00000000D+00 0.00000000D+00 0.00000000D+00 0.00000000D+00 0.00000000D+00
  <mgrwgt>
 0.7512963714D-02   10    2    0
 0.553792046125416D+03 0.000000000000000D+00 0.000000000000000D+00 0.553792046125416D+03
 0.553792046125416D+03 0.000000000000000D+00 0.000000000000000D+00 -.553792046125416D+03
 0.516937045441984D+03 0.364508017761709D+03 -.587578285088474D+02 0.352757871028092D+03
 0.293358343843024D+03 -.194110534836346D+03 -.762896335309383D+02 -.206301017892750D+03
 0.943251504344583D+02 -.448632454471320D+02 0.224010457105626D+02 -.798919042425882D+02
 0.202963552531366D+03 -.125534237478231D+03 0.112646416329223D+03 -.665649488927538D+02
 0.000000000000000D+00 0.000000000000000D+00 -.000000000000000D+00 0.000000000000000D+00
 0.557941180835807D+03 0.000000000000000D+00 0.000000000000000D+00 0.557941180835807D+03
 0.554985908332789D+03 0.000000000000000D+00 0.000000000000000D+00 -.554985908332789D+03
 0.515462651774233D+03 0.362483108199987D+03 -.583301818714729D+02 0.352757871028092D+03
 0.294058944181362D+03 -.195262672798463D+03 -.760463101082014D+02 -.206301017892750D+03
 0.945204536312162D+02 -.452336400437140D+02 0.224792704405575D+02 -.798919042425882D+02
 0.203550944406412D+03 -.126331559575523D+03 0.112814805140386D+03 -.665649488927538D+02
 0.533409517537283D+01 0.434476421771387D+01 -.917583601269548D+00 0.295527250301730D+01
0.325776169429D-03 0.000000000000D+00 0.000000000000D+00 0.559139009017D-06 0.000000000000D+00  7 1 -2 -24 -11 11 23 21 0 0.26406551D+00 0.27488753D-01 0.17152718D+06 0.17152718D+06 0.17152718D+06 0.11029849D+01  1  2  2  1  7  1        1 0.202664441923D-02 0.100000000000D+01
-.162411182274D-04 0.000000000000D+00 -.125106626944D-05 0.559139009017D-06 0.000000000000D+00  7 1 -2 -24 -11 11 23 21 2 0.26406551D+00 0.27488753D-01 0.17152718D+06 0.17152718D+06 0.17152718D+06 0.11029849D+01  1  2  3  1  7  1        1 -.122917388923D-03 0.100000000000D+01
0.202500763146D-04 0.000000000000D+00 0.000000000000D+00 0.559139009017D-06 0.000000000000D+00  7 1 -2 -24 -11 11 23 21 2 0.26406551D+00 0.27488753D-01 0.17152718D+06 0.17152718D+06 0.17152718D+06 0.11029849D+01  1  2 15  1  7  1        1 0.153258320716D-03 0.100000000000D+01
-.787726033129D-02 0.000000000000D+00 0.000000000000D+00 0.559139009017D-06 0.000000000000D+00  7 1 -2 -24 -11 11 23 21 2 0.26406551D+00 0.27488753D-01 0.17152718D+06 0.17152718D+06 0.17152718D+06 0.11029849D+01  1  2  4  1  7  1        1 -.596173402738D-01 0.100000000000D+01
-.416139280085D-01 0.000000000000D+00 -.396021154589D-02 0.559139009017D-06 0.000000000000D+00  7 1 -2 -24 -11 11 23 21 2 0.26630407D+00 0.27488753D-01 0.17152718D+06 0.17152718D+06 0.17152718D+06 0.11029849D+01  1  2  5  1  7  1        1 -.308064901758D+00 0.100000000000D+01
0.416460155656D-01 0.000000000000D+00 0.396007044833D-02 0.559139009017D-06 0.000000000000D+00  7 1 -2 -24 -11 11 23 21 2 0.26406551D+00 0.27488753D-01 0.17152718D+06 0.17152718D+06 0.17152718D+06 0.11029849D+01  1  2  6  1  7  1        1 0.315188857116D+00 0.100000000000D+01
0.787761196947D-02 0.000000000000D+00 0.000000000000D+00 0.559139009017D-06 0.183870367290D-06  7 1 -2 -24 -11 11 23 21 2 0.26604395D+00 0.27548013D-01 0.17335159D+06 0.17335159D+06 0.17335159D+06 0.11026271D+01  1  2 11  1  7  1        1 0.581850279063D-01 0.100000000000D+01
0.316506141011D-05 0.000000000000D+00 0.000000000000D+00 0.559139009017D-06 0.000000000000D+00  7 21 -2 -24 -11 11 23 -1 2 0.26632720D+00 0.27488753D-01 0.17335159D+06 0.17335159D+06 0.17335159D+06 0.11026271D+01  1  2 12  3  7  1        1 0.151251622844D-04 0.100000000000D+01
-.649351845389D-04 0.000000000000D+00 -.618955637913D-05 0.559139009017D-06 0.000000000000D+00  7 21 -2 -24 -11 11 23 -1 2 0.26630407D+00 0.27488753D-01 0.17152718D+06 0.17152718D+06 0.17152718D+06 0.11029849D+01  1  2  5  3  7  1        1 -.310912693082D-03 0.100000000000D+01
0.125734669578D-04 0.000000000000D+00 0.000000000000D+00 0.559139009017D-06 0.254100263215D-09  7 21 -2 -24 -11 11 23 -1 2 0.26604395D+00 0.27548013D-01 0.17335159D+06 0.17335159D+06 0.17335159D+06 0.11026271D+01  1  2 11  3  7  1        1 0.601229041258D-04 0.100000000000D+01
  </mgrwgt>
  </event>
  <event>
  8     66 0.29493621E-05 0.19952254E+03 0.75467711E-02 0.10489143E+00
        1 -1    0    0  501    0 0.00000000E+00 0.00000000E+00 0.62403232E+02 0.62404053E+02 0.32000000E+00 0.0000E+00 0.9000E+01
       -2 -1    0    0    0  501 0.00000000E+00 0.00000000E+00 -.10764937E+04 0.10764937E+04 0.32000000E+00 0.0000E+00 0.9000E+01
       25  2    1    2    0    0 0.59687441E+02 -.12841886E+03 -.50212385E+03 0.60165388E+03 0.29967489E+03 0.0000E+00 0.0000E+00
       23  2    3    3    0    0 -.30994828E+01 -.46995632E+02 -.43865985E+03 0.45027730E+03 0.90049924E+02 0.0000E+00 0.0000E+00
      -24  1    1    2    0    0 -.59687441E+02 0.12841886E+03 -.51196659E+03 0.53724389E+03 0.80419002E+02 0.0000E+00 0.9000E+01
      -11  1    4    4    0    0 -.66884525E+01 0.25405429E+02 -.75138406E+02 0.79598689E+02 0.51099893E-03 0.0000E+00 0.9000E+01
       11  1    4    4    0    0 0.35889696E+01 -.72401061E+02 -.36352144E+03 0.37067861E+03 0.51099893E-03 0.0000E+00 0.9000E+01
       23  1    3    3    0    0 0.62786924E+02 -.81423223E+02 -.63464007E+02 0.15137659E+03 0.91188000E+02 0.0000E+00 0.9000E+01
#aMCatNLO 1  0  0  1  2 0.47109099D+02 0.00000000D+00  -5  7  0 0.00000000D+00 0.00000000D+00 0.00000000D+00 0.00000000D+00 0.00000000D+00
  <mgrwgt>
 0.4431728439D-03    4    2    0
 0.259185607055130D+03 0.000000000000000D+00 0.000000000000000D+00 0.259185607055130D+03
 0.259185607055130D+03 0.000000000000000D+00 0.000000000000000D+00 -.259185607055130D+03
 0.178801298093321D+03 -.596874414873710D+02 0.128418855305055D+03 -.738152773910445D+02
 0.278904958566807D+02 -.668845248029183D+01 0.254054288207896D+02 -.936528424460240D+01
 0.103249224206266D+03 0.358896964443206D+01 -.724010607640115D+02 -.735228399637360D+02
 0.208430195953992D+03 0.627869243232308D+02 -.814232233618334D+02 0.156703401599383D+03
 0.000000000000000D+00 0.000000000000000D+00 -.000000000000000D+00 -.000000000000000D+00
 0.276278883708156D+03 0.000000000000000D+00 0.000000000000000D+00 0.276278883708156D+03
 0.294875301067230D+03 0.000000000000000D+00 0.000000000000000D+00 -.294875301067230D+03
 0.191993624448812D+03 -.703830585365830D+02 0.141392594464279D+03 -.738152773910445D+02
 0.301735698778185D+02 -.836331632998737D+01 0.274370317300171D+02 -.936528424460240D+01
 0.983903212815244D+02 -.222734344240506D+01 -.653458970918452D+02 -.735228399637360D+02
 0.199949912609161D+03 0.510071587812397D+02 -.671344165734619D+02 0.156703401599383D+03
 0.506467565580691D+02 0.299665595277358D+02 -.363493125289890D+02 -.185964173590739D+02
0.570672921300D-04 0.000000000000D+00 0.000000000000D+00 0.844447504248D-06 0.000000000000D+00  7 1 -2 -24 -11 11 23 21 0 0.96005640D-02 0.16561448D+00 0.39809244D+05 0.39809244D+05 0.39809244D+05 0.11561053D+01  1  2  2  1  7  1        1 0.101868498204D-02 0.100000000000D+01
-.290657224175D-05 0.000000000000D+00 -.219153427942D-06 0.844447504248D-06 0.000000000000D+00  7 1 -2 -24 -11 11 23 21 2 0.96005640D-02 0.16561448D+00 0.39809244D+05 0.39809244D+05 0.39809244D+05 0.11561053D+01  1  2  3  1  7  1        1 -.693471370900D-04 0.100000000000D+01
0.372993487981D-05 0.000000000000D+00 0.000000000000D+00 0.844447504248D-06 0.000000000000D+00  7 1 -2 -24 -11 11 23 21 2 0.96005640D-02 0.16561448D+00 0.39809244D+05 0.39809244D+05 0.39809244D+05 0.11561053D+01  1  2 15  1  7  1        1 0.889915281415D-04 0.100000000000D+01
-.249450160416D-04 0.000000000000D+00 0.000000000000D+00 0.844447504248D-06 0.000000000000D+00  7 1 -2 -24 -11 11 23 21 2 0.96005640D-02 0.16561448D+00 0.39809244D+05 0.39809244D+05 0.39809244D+05 0.11561053D+01  1  2  4  1  7  1        1 -.595156529159D-03 0.100000000000D+01
  </mgrwgt>
  </event>
  <event>
  8     66 0.29493621E-05 0.33263320E+03 0.75467711E-02 0.81917135E-01
        1 -1    0    0  501    0 0.00000000E+00 0.00000000E+00 0.11397050E+04 0.11397050E+04 0.32000000E+00 0.0000E+00 0.9000E+01
       -2 -1    0    0    0  501 0.00000000E+00 0.00000000E+00 -.34548068E+03 0.34548083E+03 0.32000000E+00 0.0000E+00 0.9000E+01
       25  2    1    2    0    0 0.24470657E+03 0.80963368E+02 0.10446040E+04 0.11169555E+04 0.29992609E+03 0.0000E+00 0.0000E+00
       23  2    3    3    0    0 0.20752738E+03 -.48900205E+02 0.62521138E+03 0.66700853E+03 0.92478451E+02 0.0000E+00 0.0000E+00
      -24  1    1    2    0    0 -.24470657E+03 -.80963368E+02 -.25037972E+03 0.36823035E+03 0.80419002E+02 0.0000E+00 0.9000E+01
      -13  1    4    4    0    0 0.12877262E+03 0.16612204E+02 0.36016696E+03 0.38285585E+03 0.10565837E+00 0.0000E+00 0.9000E+01
       13  1    4    4    0    0 0.78754757E+02 -.65512409E+02 0.26504442E+03 0.28415268E+03 0.10565837E+00 0.0000E+00 0.9000E+01
       23  1    3    3    0    0 0.37179189E+02 0.12986357E+03 0.41939263E+03 0.44994696E+03 0.91188000E+02 0.0000E+00 0.9000E+01
#aMCatNLO 1  0  0  2  1 0.17859573D+04 0.00000000D+00  -5  7  0 0.00000000D+00 0.00000000D+00 0.00000000D+00 0.00000000D+00 0.00000000D+00
  <mgrwgt>
 0.1120377516D-02    5    2    0
 0.627491984568767D+03 0.000000000000000D+00 0.000000000000000D+00 0.627491984568767D+03
 0.627491984568767D+03 0.000000000000000D+00 0.000000000000000D+00 -.627491984568767D+03
 0.594229231653278D+03 -.244706565418857D+03 -.809633683556670D+02 -.529343738625750D+03
 0.225149359040944D+03 0.128772684615977D+03 0.166123108527618D+02 0.183939829024258D+03
 0.168539781619189D+03 0.787546918428146D+02 -.655125162189910D+02 0.133833727885177D+03
 0.267065596824123D+03 0.371791889600656D+02 0.129863573721896D+03 0.211570181716315D+03
 0.000000000000000D+00 0.000000000000000D+00 0.000000000000000D+00 -.000000000000000D+00
 0.175935816495346D+04 0.000000000000000D+00 0.000000000000000D+00 0.175935816495346D+04
 0.228520765765802D+04 0.000000000000000D+00 0.000000000000000D+00 -.228520765765802D+04
 0.129391579651661D+04 -.688710092640293D+03 -.955627797415896D+03 -.529343738625750D+03
 0.287573786484752D+03 0.820414686857038D+01 -.220901593352931D+03 0.183939829024258D+03
 0.325544647670258D+03 -.374308903432835D+02 -.294392220269521D+03 0.133833727885177D+03
 0.275768638864909D+03 -.904700708937155D+02 -.121598993903800D+03 0.211570181716315D+03
 0.186176295307495D+04 0.808406907008722D+03 0.159252060494215D+04 -.525849492704559D+03
0.232780611479D-03 0.000000000000D+00 0.000000000000D+00 0.135215364368D-04 0.000000000000D+00  7 1 -2 -24 -13 13 23 21 0 0.17533924D+00 0.53150889D-01 0.11064485D+06 0.11064485D+06 0.11064485D+06 0.11181347D+01  1  2  2  2  7  2       -2 0.106569716952D-02 0.100000000000D+01
-.659823069458D-05 0.000000000000D+00 -.893938840621D-06 0.135215364368D-04 0.000000000000D+00  7 1 -2 -24 -13 13 23 21 2 0.17533924D+00 0.53150889D-01 0.11064485D+06 0.11064485D+06 0.11064485D+06 0.11181347D+01  1  2  3  2  7  2       -2 -.377661543221D-04 0.100000000000D+01
0.145741793120D-04 0.000000000000D+00 0.000000000000D+00 0.135215364368D-04 0.000000000000D+00  7 1 -2 -24 -13 13 23 21 2 0.17533924D+00 0.53150889D-01 0.11064485D+06 0.11064485D+06 0.11064485D+06 0.11181347D+01  1  2 15  2  7  2       -2 0.834179237578D-04 0.100000000000D+01
0.444797993720D-03 0.000000000000D+00 -.133663975923D-03 0.135215364368D-04 0.000000000000D+00  7 1 -2 -24 -13 13 23 21 2 0.17533924D+00 0.42159410D+00 0.11064485D+06 0.11064485D+06 0.11064485D+06 0.11181347D+01  1  2  5  2  7  2       -2 0.332858642805D-05 0.100000000000D+01
0.960989127204D-04 0.000000000000D+00 -.336178893679D-04 0.135215364368D-04 0.000000000000D+00  7 1 21 -24 -13 13 23 2 2 0.17533924D+00 0.42159410D+00 0.11064485D+06 0.11064485D+06 0.11064485D+06 0.11181347D+01  1  2  5  4  7  2       -2 0.569999037972D-05 0.100000000000D+01
  </mgrwgt>
  </event>
  <event>
  8     66 0.29493621E-05 0.25409753E+03 0.75467711E-02 0.92886701E-01
        1 -1    0    0  501    0 0.00000000E+00 0.00000000E+00 0.88257871E+03 0.88257877E+03 0.32000000E+00 0.0000E+00 0.9000E+01
       -2 -1    0    0    0  501 0.00000000E+00 0.00000000E+00 -.18351714E+03 0.18351742E+03 0.32000000E+00 0.0000E+00 0.9000E+01
       25  2    1    2    0    0 -.23925925E+03 -.19208410E+03 0.18947301E+03 0.46585540E+03 0.29492363E+03 0.0000E+00 0.0000E+00
       23  2    3    3    0    0 -.23151247E+03 -.61503926E+02 0.16503073E+03 0.30453625E+03 0.90146707E+02 0.0000E+00 0.0000E+00
      -24  1    1    2    0    0 0.23925925E+03 0.19208410E+03 0.50958856E+03 0.60024079E+03 0.80419002E+02 0.0000E+00 0.9000E+01
      -13  1    4    4    0    0 -.29381757E+02 -.37318272E+02 0.56595408E+02 0.73884995E+02 0.10565837E+00 0.0000E+00 0.9000E+01
       13  1    4    4    0    0 -.20213071E+03 -.24185654E+02 0.10843532E+03 0.23065125E+03 0.10565837E+00 0.0000E+00 0.9000E+01
       23  1    3    3    0    0 -.77467798E+01 -.13058017E+03 0.24442280E+02 0.16131915E+03 0.91188000E+02 0.0000E+00 0.9000E+01
#aMCatNLO 1  0  0  1  2 0.35636384D+03 0.00000000D+00  -5  7  0 0.00000000D+00 0.00000000D+00 0.00000000D+00 0.00000000D+00 0.00000000D+00
  <mgrwgt>
 0.2753326410D-02    7    2    0
 0.402453107667812D+03 0.000000000000000D+00 0.000000000000000D+00 0.402453107667812D+03
 0.402453107667812D+03 0.000000000000000D+00 0.000000000000000D+00 -.402453107667812D+03
 0.352439373617143D+03 0.239259250593822D+03 0.192084095253729D+03 0.153639212042734D+03
 0.487071119866361D+02 -.293815196253658D+02 -.373182903404852D+02 0.107913979004672D+02
 0.211321065132697D+03 -.202130950648314D+03 -.241856363153616D+02 -.566985569026881D+02
 0.192438664599149D+03 -.774678032014235D+01 -.130580168597882D+03 -.107732053040513D+03
 0.000000000000000D+00 -.000000000000000D+00 0.000000000000000D+00 0.000000000000000D+00
 0.864581735121092D+03 0.000000000000000D+00 0.000000000000000D+00 0.864581735121092D+03
 0.514933397788035D+03 0.000000000000000D+00 0.000000000000000D+00 -.514933397788035D+03
 0.351915853660171D+03 0.300962685694100D+03 0.565155416295268D+02 0.153639212042734D+03
 0.629165203178361D+02 -.196029856061322D+02 -.588026973495626D+02 0.107913979004672D+02
 0.203779900400675D+03 -.165766976200565D+03 -.104080887072424D+03 -.566985569026881D+02
 0.261654277134175D+03 0.320329973753310D+02 -.217980277147809D+03 -.107732053040513D+03
 0.499248581396271D+03 -.147625721262734D+03 0.324348319940269D+03 0.349648337333057D+03
0.126413257776D-03 0.000000000000D+00 0.000000000000D+00 0.521405166382D-07 0.000000000000D+00  7 1 -2 -24 -13 13 23 21 0 0.13578137D+00 0.28233433D-01 0.13239211D+06 0.13239211D+06 0.13239211D+06 0.11118569D+01  1  2  2  1  7  1        1 0.291251242804D-02 0.100000000000D+01
-.693616898242D-05 0.000000000000D+00 -.485460195236D-06 0.521405166382D-07 0.000000000000D+00  7 1 -2 -24 -13 13 23 21 2 0.13578137D+00 0.28233433D-01 0.13239211D+06 0.13239211D+06 0.13239211D+06 0.11118569D+01  1  2  3  1  7  1        1 -.197557104386D-03 0.100000000000D+01
0.795078674938D-05 0.000000000000D+00 0.000000000000D+00 0.521405166382D-07 0.000000000000D+00  7 1 -2 -24 -13 13 23 21 2 0.13578137D+00 0.28233433D-01 0.13239211D+06 0.13239211D+06 0.13239211D+06 0.11118569D+01  1  2 15  1  7  1        1 0.226455614299D-03 0.100000000000D+01
0.411111005144D-07 0.000000000000D+00 0.000000000000D+00 0.521405166382D-07 0.000000000000D+00  7 1 -2 -24 -13 13 23 21 2 0.29152522D+00 0.28233433D-01 0.34171886D+06 0.34171886D+06 0.34171886D+06 0.10803928D+01  1  2 12  1  7  1        1 0.210651119622D-06 0.100000000000D+01
-.448442575656D-04 0.000000000000D+00 -.366249616185D-04 0.521405166382D-07 0.000000000000D+00  7 1 -2 -24 -13 13 23 21 2 0.32401496D+00 0.28233433D-01 0.13239211D+06 0.13239211D+06 0.13239211D+06 0.11118569D+01  1  2  5  1  7  1        1 -.184415280596D-03 0.100000000000D+01
0.339984950683D-08 0.000000000000D+00 0.000000000000D+00 0.521405166382D-07 0.000000000000D+00  7 21 -2 -24 -13 13 23 -1 2 0.29152522D+00 0.28233433D-01 0.34171886D+06 0.34171886D+06 0.34171886D+06 0.10803928D+01  1  2 12  3  7  1        1 0.951368838077D-08 0.100000000000D+01
-.195910560887D-05 0.000000000000D+00 -.348242338785D-05 0.521405166382D-07 0.000000000000D+00  7 21 -2 -24 -13 13 23 -1 2 0.32401496D+00 0.28233433D-01 0.13239211D+06 0.13239211D+06 0.13239211D+06 0.11118569D+01  1  2  5  3  7  1        1 -.388941234526D-05 0.100000000000D+01
  </mgrwgt>
  </event>
  <event>
  8     66 0.29493621E-05 0.91114099E+02 0.75467711E-02 0.10243683E+00
        1 -1    0    0  501    0 0.00000000E+00 0.00000000E+00 0.11997943E+04 0.11997944E+04 0.32000000E+00 0.0000E+00 0.9000E+01
       -2 -1    0    0    0  501 0.00000000E+00 0.00000000E+00 -.80301691E+02 0.80302329E+02 0.32000000E+00 0.0000E+00 0.9000E+01
       25  2    1    2    0    0 0.11805501E+03 0.11683607E+03 0.10074533E+04 0.10642086E+04 0.29998343E+03 0.0000E+00 0.0000E+00
       23  2    3    3    0    0 0.14851735E+03 -.20079593E+02 0.52654043E+03 0.55502658E+03 0.91373307E+02 0.0000E+00 0.0000E+00
      -24  1    1    2    0    0 -.11805501E+03 -.11683607E+03 0.11203930E+03 0.21588810E+03 0.80419002E+02 0.0000E+00 0.9000E+01
      -13  1    4    4    0    0 0.18613204E+02 -.37118573E+01 0.23104163E+03 0.23181992E+03 0.10565837E+00 0.0000E+00 0.9000E+01
       13  1    4    4    0    0 0.12990415E+03 -.16367736E+02 0.29549880E+03 0.32320666E+03 0.10565837E+00 0.0000E+00 0.9000E+01
       23  1    3    3    0    0 -.30462346E+02 0.13691566E+03 0.48091290E+03 0.50918201E+03 0.91188000E+02 0.0000E+00 0.9000E+01
#aMCatNLO 1  0  0  1  2 0.27872818D+02 0.00000000D+00  -5  7  0 0.00000000D+00 0.00000000D+00 0.00000000D+00 0.00000000D+00 0.00000000D+00
  <mgrwgt>
 0.1441542956D-02    9    2    0
 0.310396437630733D+03 0.000000000000000D+00 0.000000000000000D+00 0.310396437630733D+03
 0.310396437630733D+03 0.000000000000000D+00 0.000000000000000D+00 -.310396437630733D+03
 0.243125337021669D+03 -.118055006603207D+03 -.116836071687185D+03 -.158287906411555D+03
 0.613770749888766D+02 0.186130557071994D+02 -.371184036224437D+01 0.583688421382169D+02
 0.133582561456603D+03 0.129904296432218D+03 -.163677529945438D+02 0.264815247987582D+02
 0.182707901794316D+03 -.304623455362102D+02 0.136915665043974D+03 0.734375394745802D+02
 0.000000000000000D+00 0.000000000000000D+00 -.000000000000000D+00 0.000000000000000D+00
 0.360652934511324D+03 0.000000000000000D+00 0.000000000000000D+00 0.360652934511324D+03
 0.314597985447956D+03 0.000000000000000D+00 0.000000000000000D+00 -.314597985447956D+03
 0.247396203354594D+03 -.128795297446100D+03 -.114430658127595D+03 -.158287906411555D+03
 0.605869855740874D+02 0.159425726091042D+02 -.311375448647263D+01 0.583688421382169D+02
 0.127864984120674D+03 0.124179730947272D+03 -.150856697026036D+02 0.264815247987582D+02
 0.185570114391579D+03 -.385260342415953D+02 0.138721622297457D+03 0.734375394745802D+02
 0.538326325183457D+02 0.271990281313194D+02 -.609153998078597D+01 0.460549490633681D+02
0.172373978615D-04 0.000000000000D+00 0.000000000000D+00 0.475881034417D-05 0.000000000000D+00  7 1 -2 -24 -13 13 23 21 0 0.18458379D+00 0.12354159D-01 0.62938268D+05 0.62938268D+05 0.62938268D+05 0.11386067D+01  1  2  2  1  7  1        1 0.908109266251D-03 0.100000000000D+01
-.904859992701D-06 0.000000000000D+00 -.661961464994D-07 0.475881034417D-05 0.000000000000D+00  7 1 -2 -24 -13 13 23 21 2 0.18458379D+00 0.12354159D-01 0.62938268D+05 0.62938268D+05 0.62938268D+05 0.11386067D+01  1  2  3  1  7  1        1 -.618009647549D-04 0.100000000000D+01
0.111410488774D-05 0.000000000000D+00 0.000000000000D+00 0.475881034417D-05 0.000000000000D+00  7 1 -2 -24 -13 13 23 21 2 0.18458379D+00 0.12354159D-01 0.62938268D+05 0.62938268D+05 0.62938268D+05 0.11386067D+01  1  2 15  1  7  1        1 0.760921661424D-04 0.100000000000D+01
0.866218154187D-04 0.000000000000D+00 0.000000000000D+00 0.475881034417D-05 0.000000000000D+00  7 1 -2 -24 -13 13 23 21 2 0.21558922D+00 0.12354159D-01 0.70161684D+05 0.70161684D+05 0.70161684D+05 0.11345745D+01  1  2 12  1  7  1        1 0.428066913805D-02 0.100000000000D+01
-.876694368512D-04 0.000000000000D+00 0.000000000000D+00 0.475881034417D-05 0.000000000000D+00  7 1 -2 -24 -13 13 23 21 2 0.18458379D+00 0.12354159D-01 0.62938268D+05 0.62938268D+05 0.62938268D+05 0.11386067D+01  1  2  4  1  7  1        1 -.598772829015D-02 0.100000000000D+01
-.119107588287D-03 0.000000000000D+00 -.137073025756D-04 0.475881034417D-05 0.000000000000D+00  7 1 -2 -24 -13 13 23 21 2 0.21566100D+00 0.12354159D-01 0.62938268D+05 0.62938268D+05 0.62938268D+05 0.11386067D+01  1  2  5  1  7  1        1 -.593479427630D-02 0.100000000000D+01
0.119949705909D-03 0.000000000000D+00 0.135430152140D-04 0.475881034417D-05 0.000000000000D+00  7 1 -2 -24 -13 13 23 21 2 0.18458379D+00 0.12354159D-01 0.62938268D+05 0.62938268D+05 0.62938268D+05 0.11386067D+01  1  2  6  1  7  1        1 0.819243596476D-02 0.100000000000D+01
0.203177470235D-05 0.000000000000D+00 0.000000000000D+00 0.475881034417D-05 0.000000000000D+00  7 21 -2 -24 -13 13 23 -1 2 0.21558922D+00 0.12354159D-01 0.70161684D+05 0.70161684D+05 0.70161684D+05 0.11345745D+01  1  2 12  3  7  1        1 0.911983476299D-04 0.100000000000D+01
-.269696774439D-05 0.000000000000D+00 -.322068580765D-06 0.475881034417D-05 0.000000000000D+00  7 21 -2 -24 -13 13 23 -1 2 0.21566100D+00 0.12354159D-01 0.62938268D+05 0.62938268D+05 0.62938268D+05 0.11386067D+01  1  2  5  3  7  1        1 -.122638395123D-03 0.100000000000D+01
  </mgrwgt>
  </event>
  <event>
  8     66 0.29493621E-05 0.14826279E+03 0.75467711E-02 0.10125697E+00
        3 -1    0    0  501    0 0.00000000E+00 0.00000000E+00 0.50944989E+03 0.50945014E+03 0.50000000E+00 0.0000E+00 0.9000E+01
       -4 -1    0    0    0  501 0.00000000E+00 0.00000000E+00 -.24335908E+03 0.24336402E+03 0.15500000E+01 0.0000E+00 0.9000E+01
       25  2    1    2    0    0 -.14500576E+03 -.53180812E+02 -.96296178E+02 0.35076141E+03 0.29984287E+03 0.0000E+00 0.0000E+00
       23  2    3    3    0    0 -.19619351E+03 0.55229968E+01 -.50184606E+02 0.22227853E+03 0.91470505E+02 0.0000E+00 0.0000E+00
      -24  1    1    2    0    0 0.14500576E+03 0.53180812E+02 0.36238698E+03 0.40205275E+03 0.80419002E+02 0.0000E+00 0.9000E+01
      -13  1    4    4    0    0 -.20429924E+03 0.37398841E+01 -.38472993E+02 0.20792390E+03 0.10565837E+00 0.0000E+00 0.9000E+01
       13  1    4    4    0    0 0.81057298E+01 0.17831127E+01 -.11711613E+02 0.14354629E+02 0.10565837E+00 0.0000E+00 0.9000E+01
       23  1    3    3    0    0 0.51187750E+02 -.58703809E+02 -.46111572E+02 0.12848288E+03 0.91188000E+02 0.0000E+00 0.9000E+01
#aMCatNLO 1  0  0  2  1 0.66981243D+02 0.00000000D+00  -5  7  0 0.00000000D+00 0.00000000D+00 0.00000000D+00 0.00000000D+00 0.00000000D+00
  <mgrwgt>
 0.1655349433D-03    9    2    0
 0.352109655492568D+03 0.000000000000000D+00 0.000000000000000D+00 0.352109655492568D+03
 0.352109655492568D+03 0.000000000000000D+00 0.000000000000000D+00 -.352109655492568D+03
 0.292867791876817D+03 0.145005757391490D+03 0.531808117548169D+02 0.235477088373479D+03
 0.236809137276463D+03 -.204299520226537D+03 0.373988673594774D+01 -.119692467515845D+03
 0.197701433929839D+02 0.810601307746428D+01 0.178311007111995D+01 -.179435682137470D+02
 0.154772238438873D+03 0.511877497575836D+02 -.587038085618845D+02 -.978410526438870D+02
 0.000000000000000D+00 0.000000000000000D+00 -.000000000000000D+00 -.000000000000000D+00
 0.383853307517519D+03 0.000000000000000D+00 0.000000000000000D+00 0.383853307517519D+03
 0.390894592131416D+03 0.000000000000000D+00 0.000000000000000D+00 -.390894592131416D+03
 0.298096777334400D+03 0.142700375426500D+03 0.811271619562082D+02 0.235477088373479D+03
 0.239829971038362D+03 -.206158912923437D+03 0.262798563629326D+02 -.119692467515845D+03
 0.199650076817631D+02 0.795100429108961D+01 0.366216087229105D+01 -.179435682137470D+02
 0.149505815970187D+03 0.500007460427702D+02 -.443146869289862D+02 -.978410526438870D+02
 0.673503276242236D+02 0.550678716307753D+01 -.667544922624456D+02 -.704128461389677D+01
0.350122122124D-04 0.000000000000D+00 0.000000000000D+00 0.921014277274D-05 0.000000000000D+00  7 3 -4 -24 -13 13 23 21 0 0.78377305D-01 0.37440258D-01 0.64183471D+05 0.64183471D+05 0.64183471D+05 0.11378763D+01  1  2  2  2  7  2       -4 0.125004217751D-03 0.100000000000D+01
-.168883536600D-05 0.000000000000D+00 -.134456113823D-06 0.921014277274D-05 0.000000000000D+00  7 3 -4 -24 -13 13 23 21 2 0.78377305D-01 0.37440258D-01 0.64183471D+05 0.64183471D+05 0.64183471D+05 0.11378763D+01  1  2  3  2  7  2       -4 -.780697098569D-05 0.100000000000D+01
0.212127226512D-05 0.000000000000D+00 0.000000000000D+00 0.921014277274D-05 0.000000000000D+00  7 3 -4 -24 -13 13 23 21 2 0.78377305D-01 0.37440258D-01 0.64183471D+05 0.64183471D+05 0.64183471D+05 0.11378763D+01  1  2 15  2  7  2       -4 0.980599492404D-05 0.100000000000D+01
0.343464199301D-04 0.000000000000D+00 0.000000000000D+00 0.921014277274D-05 0.000000000000D+00  7 3 -4 -24 -13 13 23 21 2 0.78377305D-01 0.43086739D-01 0.83925260D+05 0.83925260D+05 0.83925260D+05 0.11280216D+01  1  2 12  2  7  2       -4 0.116367172528D-03 0.100000000000D+01
-.304215434317D-04 0.000000000000D+00 0.000000000000D+00 0.921014277274D-05 0.000000000000D+00  7 3 -4 -24 -13 13 23 21 2 0.78377305D-01 0.37440258D-01 0.64183471D+05 0.64183471D+05 0.64183471D+05 0.11378763D+01  1  2  4  2  7  2       -4 -.140629520019D-03 0.100000000000D+01
-.837019358736D-04 0.000000000000D+00 -.268253734110D-04 0.921014277274D-05 0.000000000000D+00  7 3 -4 -24 -13 13 23 21 2 0.78377305D-01 0.45003725D-01 0.64183471D+05 0.64183471D+05 0.64183471D+05 0.11378763D+01  1  2  5  2  7  2       -4 -.261941388505D-03 0.100000000000D+01
0.875985099753D-04 0.000000000000D+00 0.263775984662D-04 0.921014277274D-05 0.000000000000D+00  7 3 -4 -24 -13 13 23 21 2 0.78377305D-01 0.37440258D-01 0.64183471D+05 0.64183471D+05 0.64183471D+05 0.11378763D+01  1  2  6  2  7  2       -4 0.404941203586D-03 0.100000000000D+01
0.742692047765D-06 0.000000000000D+00 0.000000000000D+00 0.921014277274D-05 0.000000000000D+00  7 3 21 -24 -13 13 23 4 2 0.78377305D-01 0.43086739D-01 0.83925260D+05 0.83925260D+05 0.83925260D+05 0.11280216D+01  1  2 12  4  7  2       -4 0.533683500473D-04 0.100000000000D+01
-.197836852135D-05 0.000000000000D+00 -.719731827763D-06 0.921014277274D-05 0.000000000000D+00  7 3 21 -24 -13 13 23 4 2 0.78377305D-01 0.45003725D-01 0.64183471D+05 0.64183471D+05 0.64183471D+05 0.11378763D+01  1  2  5  4  7  2       -4 -.133574116040D-03 0.100000000000D+01
  </mgrwgt>
  </event>
  <event>
  8     66 0.29493621E-05 0.16035284E+03 0.75467711E-02 0.94803029E-01
        1 -1    0    0  501    0 0.00000000E+00 0.00000000E+00 0.26166959E+04 0.26166960E+04 0.32000000E+00 0.0000E+00 0.9000E+01
       -2 -1    0    0    0  501 0.00000000E+00 0.00000000E+00 -.10561800E+03 0.10561849E+03 0.32000000E+00 0.0000E+00 0.9000E+01
       25  2    1    2    0    0 -.40931209E+03 0.21903535E+03 0.10243541E+04 0.11627223E+04 0.29514202E+03 0.0000E+00 0.0000E+00
       23  2    3    3    0    0 -.32350188E+03 0.10663811E+03 0.49869841E+03 0.61079318E+03 0.91340305E+02 0.0000E+00 0.0000E+00
      -24  1    1    2    0    0 0.40931209E+03 -.21903535E+03 0.14867238E+04 0.15595922E+04 0.80419002E+02 0.0000E+00 0.9000E+01
      -11  1    4    4    0    0 -.30798187E+03 0.86927750E+02 0.41893270E+03 0.52717538E+03 0.51099893E-03 0.0000E+00 0.9000E+01
       11  1    4    4    0    0 -.15520008E+02 0.19710363E+02 0.79765712E+02 0.83617809E+02 0.51099893E-03 0.0000E+00 0.9000E+01
       23  1    3    3    0    0 -.85810214E+02 0.11239724E+03 0.52565570E+03 0.55192907E+03 0.91188000E+02 0.0000E+00 0.9000E+01
#aMCatNLO 1  0  0  1  2 0.27872818D+02 0.00000000D+00  -5  7  0 0.00000000D+00 0.00000000D+00 0.00000000D+00 0.00000000D+00 0.00000000D+00
  <mgrwgt>
 0.2484286334D-04    1    2    0
 0.525709890056850D+03 0.000000000000000D+00 0.000000000000000D+00 0.525709890056850D+03
 0.525709890056850D+03 0.000000000000000D+00 0.000000000000000D+00 -.525709890056850D+03
 0.487360983920134D+03 0.409312094485937D+03 -.219035350699511D+03 0.124662091851164D+03
 0.364425782138882D+03 -.307981872616926D+03 0.869277497748840D+02 -.174347019320615D+03
 0.259991762528882D+02 -.155200079136338D+02 0.197103628737613D+02 0.682554873795061D+01
 0.173633837801796D+03 -.858102139553771D+02 0.112397238050865D+03 0.428593787314996D+02
 0.000000000000000D+00 0.000000000000000D+00 0.000000000000000D+00 0.000000000000000D+00
 0.993210099860625D+03 0.000000000000000D+00 0.000000000000000D+00 0.993210099860625D+03
 0.591433470938084D+03 0.000000000000000D+00 0.000000000000000D+00 -.591433470938084D+03
 0.493470724832134D+03 0.336458467901297D+03 -.329091480510792D+03 0.124662091851164D+03
 0.404595243021850D+03 -.365102752889107D+03 0.638249733780754D+00 -.174347019320615D+03
 0.248013405261029D+02 -.192933380850569D+02 0.140101920705344D+02 0.682554873795061D+01
 0.167331902537155D+03 -.111136261740281D+03 0.741385139037024D+02 0.428593787314996D+02
 0.494444359881468D+03 0.159073884813148D+03 0.240304524802774D+03 0.401776628922540D+03
0.567188474264D-05 0.000000000000D+00 0.000000000000D+00 0.203691742433D-06 0.000000000000D+00  7 1 -2 -24 -11 11 23 21 2 0.40256864D+00 0.16248963D-01 0.24231518D+06 0.24231518D+06 0.24231518D+06 0.10914806D+01  1  2 14  1  7  1        1 0.248428633397D-04 0.100000000000D+01
  </mgrwgt>
  </event>
  <event>
  8     66 0.29493621E-05 0.49884089E+03 0.75467711E-02 0.94424993E-01
        1 -1    0    0  501    0 0.00000000E+00 0.00000000E+00 0.11241223E+04 0.11241224E+04 0.32000000E+00 0.0000E+00 0.9000E+01
       -2 -1    0    0    0  501 0.00000000E+00 0.00000000E+00 -.24036343E+03 0.24036364E+03 0.32000000E+00 0.0000E+00 0.9000E+01
       25  2    1    2    0    0 0.14437619E+03 0.42951631E+03 0.65265531E+03 0.84950558E+03 0.30061941E+03 0.0000E+00 0.0000E+00
       23  2    3    3    0    0 0.18456748E+03 0.37942262E+03 0.50436394E+03 0.66395155E+03 0.91771420E+02 0.0000E+00 0.0000E+00
      -24  1    1    2    0    0 -.14437619E+03 -.42951631E+03 0.23110358E+03 0.51498042E+03 0.80419002E+02 0.0000E+00 0.9000E+01
      -13  1    4    4    0    0 0.12538018E+03 0.19135264E+03 0.32476433E+03 0.39725043E+03 0.10565837E+00 0.0000E+00 0.9000E+01
       13  1    4    4    0    0 0.59187296E+02 0.18806999E+03 0.17959960E+03 0.26670112E+03 0.10565837E+00 0.0000E+00 0.9000E+01
       23  1    3    3    0    0 -.40191286E+02 0.50093690E+02 0.14829137E+03 0.18555403E+03 0.91188000E+02 0.0000E+00 0.9000E+01
#aMCatNLO 1  0  0  1  1 0.20011861D+02 0.00000000D+00  -5  7  0 0.00000000D+00 0.00000000D+00 0.00000000D+00 0.00000000D+00 0.00000000D+00
  <mgrwgt>
 0.1309916748D-02    4    2    0
 0.519805796747782D+03 0.000000000000000D+00 0.000000000000000D+00 0.519805796747782D+03
 0.519805796747782D+03 0.000000000000000D+00 0.000000000000000D+00 -.519805796747782D+03
 0.479451873006545D+03 -.144376192969320D+03 -.429516314226537D+03 -.134454948931045D+03
 0.245312145880987D+03 0.125380270252955D+03 0.191352640867976D+03 0.885550878317091D+02
 0.197369023869924D+03 0.591872084734533D+02 0.188069982910317D+03 0.900485783339410D+01
 0.117478550738108D+03 -.401912857570880D+02 0.500936904482436D+02 0.368950032659420D+02
 0.000000000000000D+00 0.000000000000000D+00 0.000000000000000D+00 -.000000000000000D+00
 0.520318383212111D+03 0.000000000000000D+00 0.000000000000000D+00 0.520318383212111D+03
 0.760403391487403D+03 0.000000000000000D+00 0.000000000000000D+00 -.760403391487403D+03
 0.487913635620913D+03 -.149696728456105D+03 -.437155871592657D+03 -.134454948931045D+03
 0.240955662011867D+03 0.122705784647565D+03 0.187512447290095D+03 0.885550878317091D+02
 0.193783705967916D+03 0.570358582740775D+02 0.184980939842459D+03 0.900485783339410D+01
 0.117151179843520D+03 -.414817553848356D+02 0.482407535070465D+02 0.368950032659420D+02
 0.240917591255298D+03 0.114368409192982D+02 0.164217309530573D+02 -.240085008275292D+03
0.143675369163D-03 0.000000000000D+00 0.000000000000D+00 0.392546629719D-05 0.000000000000D+00  7 1 -2 -24 -13 13 23 21 0 0.17294191D+00 0.36979009D-01 0.24884224D+06 0.24884224D+06 0.24884224D+06 0.10906108D+01  1  2  2  1  7  1        1 0.131286718595D-02 0.100000000000D+01
-.796551697396D-05 0.000000000000D+00 -.551751248180D-06 0.392546629719D-05 0.000000000000D+00  7 1 -2 -24 -13 13 23 21 2 0.17294191D+00 0.36979009D-01 0.24884224D+06 0.24884224D+06 0.24884224D+06 0.10906108D+01  1  2  3  1  7  1        1 -.865749051552D-04 0.100000000000D+01
0.922718316825D-05 0.000000000000D+00 0.000000000000D+00 0.392546629719D-05 0.000000000000D+00  7 1 -2 -24 -13 13 23 21 2 0.17294191D+00 0.36979009D-01 0.24884224D+06 0.24884224D+06 0.24884224D+06 0.10906108D+01  1  2 15  1  7  1        1 0.100287590906D-03 0.100000000000D+01
-.153312781941D-05 0.000000000000D+00 0.000000000000D+00 0.392546629719D-05 0.000000000000D+00  7 1 -2 -24 -13 13 23 21 2 0.17294191D+00 0.36979009D-01 0.24884224D+06 0.24884224D+06 0.24884224D+06 0.10906108D+01  1  2  4  1  7  1        1 -.166631238111D-04 0.100000000000D+01
  </mgrwgt>
  </event>
  <event>
  9     66 0.29493621E-05 0.95093012E+03 0.75467711E-02 0.84662623E-01
        1 -1    0    0  501    0 0.00000000E+00 0.00000000E+00 0.20794925E+04 0.20794925E+04 0.32000000E+00 0.0000E+00 0.9000E+01
       21 -1    0    0  502  501 0.00000000E+00 0.00000000E+00 -.91120560E+03 0.91120591E+03 0.75000000E+00 0.0000E+00 0.9000E+01
       25  2    1    2    0    0 -.67220600E+03 -.94882672E+03 0.27563342E+03 0.12321971E+04 0.30033799E+03 0.0000E+00 0.0000E+00
       23  2    3    3    0    0 -.14608252E+03 -.18892550E+03 -.25267718E+02 0.25592230E+03 0.88458000E+02 0.0000E+00 0.0000E+00
      -24  1    1    2    0    0 0.21814564E+02 0.82699580E+03 0.64455431E+03 0.10518153E+04 0.80419002E+02 0.0000E+00 0.9000E+01
      -11  1    4    4    0    0 -.85539035E+00 -.56970076E+02 -.17273397E+02 0.59537312E+02 0.51099893E-03 0.0000E+00 0.9000E+01
       11  1    4    4    0    0 -.14522713E+03 -.13195542E+03 -.79943209E+01 0.19638498E+03 0.51099893E-03 0.0000E+00 0.9000E+01
       23  1    3    3    0    0 -.52612348E+03 -.75990123E+03 0.30090114E+03 0.97627483E+03 0.91188000E+02 0.0000E+00 0.9000E+01
        2  1    1    2  502    0 0.65039144E+03 0.12183092E+03 0.24809913E+03 0.70668598E+03 0.32000000E+00 0.0000E+00 0.9000E+01
#aMCatNLO 2  0  0  2  1 0.66170371D+03 0.00000000D+00  -5  7  0 0.00000000D+00 0.00000000D+00 0.00000000D+00 0.00000000D+00 0.00000000D+00
  <mgrwgt>
 0.5086197503D-04    1    2    0
 0.991478120530651D+03 0.000000000000000D+00 0.000000000000000D+00 0.991478120530651D+03
 0.991478120530651D+03 0.000000000000000D+00 0.000000000000000D+00 -.991478120530651D+03
 0.970364267951213D+03 0.314940495070649D+03 0.881903970405618D+03 0.241241514067513D+03
 0.728113255402798D+02 0.223706992196496D+02 -.526193797015019D+02 -.450803928907650D+02
 0.174169896280272D+03 -.825961105683887D+02 -.120223414098298D+03 -.951807017824740D+02
 0.765610751289537D+03 -.254715083721910D+03 -.709061176605817D+03 -.100980419394274D+03
 0.000000000000000D+00 0.000000000000000D+00 0.000000000000000D+00 -.000000000000000D+00
 0.135667814431185D+04 0.000000000000000D+00 0.000000000000000D+00 0.135667814431185D+04
 0.139668025170988D+04 0.000000000000000D+00 0.000000000000000D+00 -.139668025170988D+04
 0.865484035492614D+03 0.218145639560066D+02 0.826995801940997D+03 0.241241514067513D+03
 0.726537206734831D+02 -.855390341267320D+00 -.569700764601807D+02 -.450803928907650D+02
 0.218088328012604D+03 -.145227133522483D+03 -.131955418654831D+03 -.951807017824740D+02
 0.934220578875365D+03 -.526123478662682D+03 -.759901229600964D+03 -.100980419394274D+03
 0.662911732967666D+03 0.650391438570426D+03 0.121830922774978D+03 -.400021073980274D+02
0.631119332226D-04 0.000000000000D+00 0.000000000000D+00 0.508700601316D-05 0.524321413063D-11  7 1 21 -24 -11 11 23 2 2 0.31992193D+00 0.14018550D+00 0.17886821D+07 0.17886821D+07 0.17886821D+07 0.10314562D+01  1  2  1  4  7  2       -2 0.508619750274D-04 0.100000000000D+01
  </mgrwgt>
  </event>
  <event>
  8     66 0.29493621E-05 0.19979506E+03 0.75467711E-02 0.96638277E-01
        1 -1    0    0  501    0 0.00000000E+00 0.00000000E+00 0.12824856E+04 0.12824857E+04 0.32000000E+00 0.0000E+00 0.9000E+01
       -2 -1    0    0    0  501 0.00000000E+00 0.00000000E+00 -.43990165E+02 0.43991329E+02 0.32000000E+00 0.0000E+00 0.9000E+01
       25  2    1    2    0    0 -.15255846E+02 0.12293930E+03 0.78378688E+03 0.84838295E+03 0.30014151E+03 0.0000E+00 0.0000E+00
       23  2    3    3    0    0 0.71053047E+01 0.13137739E+03 0.71221020E+03 0.73002039E+03 0.91519898E+02 0.0000E+00 0.0000E+00
      -24  1    1    2    0    0 0.15255846E+02 -.12293930E+03 0.45470856E+03 0.47809404E+03 0.80419002E+02 0.0000E+00 0.9000E+01
      -13  1    4    4    0    0 0.47098757E+02 0.71921592E+02 0.45314570E+03 0.46122884E+03 0.10565837E+00 0.0000E+00 0.9000E+01
       13  1    4    4    0    0 -.39993452E+02 0.59455793E+02 0.25906451E+03 0.26879155E+03 0.10565837E+00 0.0000E+00 0.9000E+01
       23  1    3    3    0    0 -.22361151E+02 -.84380807E+01 0.71576682E+02 0.11836256E+03 0.91188000E+02 0.0000E+00 0.9000E+01
#aMCatNLO 1  0  0  2  1 0.32220993D+03 0.00000000D+00  -5  7  0 0.00000000D+00 0.00000000D+00 0.00000000D+00 0.00000000D+00 0.00000000D+00
  <mgrwgt>
 0.1070726272D-02    5    2    0
 0.237523792457495D+03 0.000000000000000D+00 0.000000000000000D+00 0.237523792457495D+03
 0.237523792457495D+03 0.000000000000000D+00 0.000000000000000D+00 -.237523792457495D+03
 0.149513966735755D+03 0.152558468131887D+02 -.122939307681625D+03 0.232464203580886D+02
 0.106495804510336D+03 0.470988711958378D+02 0.719216092496902D+02 0.628516891842738D+02
 0.751410440636943D+02 -.399935668649521D+02 0.594557767758145D+02 0.226208249271586D+02
 0.143896769605205D+03 -.223611511440743D+02 -.843807834387935D+01 -.108718934469521D+03
 0.000000000000000D+00 0.000000000000000D+00 -.000000000000000D+00 -.000000000000000D+00
 0.398485304313851D+03 0.000000000000000D+00 0.000000000000000D+00 0.398485304313851D+03
 0.519827338889939D+03 0.000000000000000D+00 0.000000000000000D+00 -.519827338889939D+03
 0.969215086919600D+02 -.221087670909538D+00 -.488479063372420D+02 0.232464203580886D+02
 0.169900859783348D+03 0.297402784142095D+02 0.155020912013991D+03 0.628516891842738D+02
 0.135816425972306D+03 -.532423693639088D+02 0.122880632924895D+03 0.226208249271586D+02
 0.171372919889895D+03 -.421610939918682D+02 0.863484902520543D+02 -.108718934469521D+03
 0.344300928866282D+03 0.658842726124770D+02 -.315402128853699D+03 -.121342034576088D+03
0.767952098110D-05 0.000000000000D+00 0.000000000000D+00 0.118864423170D-05 0.000000000000D+00  7 1 -2 -24 -13 13 23 21 0 0.19730557D+00 0.67678103D-02 0.39918068D+05 0.39918068D+05 0.39918068D+05 0.11559985D+01  1  2  2  2  7  2       -2 0.890149990648D-03 0.100000000000D+01
-.411119294637D-06 0.000000000000D+00 -.294913826317D-07 0.118864423170D-05 0.000000000000D+00  7 1 -2 -24 -13 13 23 21 2 0.19730557D+00 0.67678103D-02 0.39918068D+05 0.39918068D+05 0.39918068D+05 0.11559985D+01  1  2  3  2  7  2       -2 -.636812364623D-04 0.100000000000D+01
0.497867979367D-06 0.000000000000D+00 0.000000000000D+00 0.118864423170D-05 0.000000000000D+00  7 1 -2 -24 -13 13 23 21 2 0.19730557D+00 0.67678103D-02 0.39918068D+05 0.39918068D+05 0.39918068D+05 0.11559985D+01  1  2 15  2  7  2       -2 0.771183666995D-04 0.100000000000D+01
0.280696956520D-05 0.000000000000D+00 -.279025708406D-05 0.118864423170D-05 0.000000000000D+00  7 1 -2 -24 -13 13 23 21 2 0.19730557D+00 0.26147673D-01 0.39918068D+05 0.39918068D+05 0.39918068D+05 0.11559985D+01  1  2  5  2  7  2       -2 0.519141100493D-04 0.100000000000D+01
0.498881081806D-06 0.000000000000D+00 -.447962591591D-06 0.118864423170D-05 0.000000000000D+00  7 1 21 -24 -13 13 23 2 2 0.19730557D+00 0.26147673D-01 0.39918068D+05 0.39918068D+05 0.39918068D+05 0.11559985D+01  1  2  5  4  7  2       -2 0.115225040633D-03 0.100000000000D+01
  </mgrwgt>
  </event>
  <event>
  8     66 0.29493621E-05 0.14870615E+03 0.75467711E-02 0.97637189E-01
        1 -1    0    0  501    0 0.00000000E+00 0.00000000E+00 0.15654316E+03 0.15654349E+03 0.32000000E+00 0.0000E+00 0.9000E+01
       -2 -1    0    0    0  501 0.00000000E+00 0.00000000E+00 -.61791280E+03 0.61791288E+03 0.32000000E+00 0.0000E+00 0.9000E+01
       25  2    1    2    0    0 -.10226944E+03 -.18749121E+03 -.17390870E+03 0.40742367E+03 0.30022961E+03 0.0000E+00 0.0000E+00
       23  2    3    3    0    0 0.67960575E+02 -.32879094E+02 -.37021475E+02 0.12469318E+03 0.92076737E+02 0.0000E+00 0.0000E+00
      -24  1    1    2    0    0 0.10226944E+03 0.18749121E+03 -.28746094E+03 0.36703270E+03 0.80419002E+02 0.0000E+00 0.9000E+01
      -13  1    4    4    0    0 -.22929755E+02 -.46057284E+01 -.28594742E+01 0.23562134E+02 0.10565837E+00 0.0000E+00 0.9000E+01
       13  1    4    4    0    0 0.90890330E+02 -.28273365E+02 -.34162000E+02 0.10113105E+03 0.10565837E+00 0.0000E+00 0.9000E+01
       23  1    3    3    0    0 -.17023001E+03 -.15461212E+03 -.13688722E+03 0.28273049E+03 0.91188000E+02 0.0000E+00 0.9000E+01
#aMCatNLO 1  0  0  2  1 0.15749511D+03 0.00000000D+00  -5  7  0 0.00000000D+00 0.00000000D+00 0.00000000D+00 0.00000000D+00 0.00000000D+00
  <mgrwgt>
 0.1319905829D-02    9    2    0
 0.311014758860780D+03 0.000000000000000D+00 0.000000000000000D+00 0.311014758860780D+03
 0.311014758860780D+03 0.000000000000000D+00 0.000000000000000D+00 -.311014758860780D+03
 0.243758624994596D+03 0.102269437677038D+03 0.187491214810532D+03 -.856683009693724D+02
 0.272149620890836D+02 -.229299044745741D+02 -.460569710902642D+01 0.139162206233256D+02
 0.100574541858977D+03 0.908904799083002D+02 -.282733964327017D+02 0.324772872380263D+02
 0.250481388778903D+03 -.170230013110765D+03 -.154612121268804D+03 0.392747931080205D+02
 0.000000000000000D+00 0.000000000000000D+00 -.000000000000000D+00 -.000000000000000D+00
 0.361698515568003D+03 0.000000000000000D+00 0.000000000000000D+00 0.361698515568003D+03
 0.472560933181990D+03 0.000000000000000D+00 0.000000000000000D+00 -.472560933181990D+03
 0.289446520271034D+03 0.831187023954187D+02 0.251126055326329D+03 -.856683009693724D+02
 0.286301913693260D+02 -.249356535941004D+02 0.205908747803108D+01 0.139162206233256D+02
 0.902613771091681D+02 0.840363671923343D+02 -.549827249391497D+01 0.324772872380263D+02
 0.233320255492479D+03 -.187606359345454D+03 -.968732927000120D+02 0.392747931080205D+02
 0.192601104507985D+03 0.453869433518016D+02 -.150813577610433D+03 -.110862417613987D+03
0.512571949989D-04 0.000000000000D+00 0.000000000000D+00 0.282024493920D-05 0.000000000000D+00  7 1 -2 -24 -13 13 23 21 0 0.24083595D-01 0.95063539D-01 0.88258364D+05 0.88258364D+05 0.88258364D+05 0.11262008D+01  1  2  2  2  7  2       -2 0.113071038301D-02 0.100000000000D+01
-.284035026089D-05 0.000000000000D+00 -.196841125125D-06 0.282024493920D-05 0.000000000000D+00  7 1 -2 -24 -13 13 23 21 2 0.24083595D-01 0.95063539D-01 0.88258364D+05 0.88258364D+05 0.88258364D+05 0.11262008D+01  1  2  3  2  7  2       -2 -.794694267939D-04 0.100000000000D+01
0.331790832245D-05 0.000000000000D+00 0.000000000000D+00 0.282024493920D-05 0.000000000000D+00  7 1 -2 -24 -13 13 23 21 2 0.24083595D-01 0.95063539D-01 0.88258364D+05 0.88258364D+05 0.88258364D+05 0.11262008D+01  1  2 15  2  7  2       -2 0.928309005305D-04 0.100000000000D+01
0.185854437442D-04 0.000000000000D+00 0.000000000000D+00 0.282024493920D-05 0.000000000000D+00  7 1 -2 -24 -13 13 23 21 2 0.24083595D-01 0.14894432D+00 0.14945990D+06 0.14945990D+06 0.14945990D+06 0.11076755D+01  1  2 12  2  7  2       -2 0.159553702945D-03 0.100000000000D+01
-.325603621718D-04 0.000000000000D+00 0.000000000000D+00 0.282024493920D-05 0.000000000000D+00  7 1 -2 -24 -13 13 23 21 2 0.24083595D-01 0.95063539D-01 0.88258364D+05 0.88258364D+05 0.88258364D+05 0.11262008D+01  1  2  4  2  7  2       -2 -.910997968676D-03 0.100000000000D+01
-.399536213022D-04 0.000000000000D+00 -.172120525925D-04 0.282024493920D-05 0.000000000000D+00  7 1 -2 -24 -13 13 23 21 2 0.24083595D-01 0.15911984D+00 0.88258364D+05 0.88258364D+05 0.88258364D+05 0.11262008D+01  1  2  5  2  7  2       -2 -.299449204084D-03 0.100000000000D+01
0.447992948546D-04 0.000000000000D+00 0.151563925956D-04 0.282024493920D-05 0.000000000000D+00  7 1 -2 -24 -13 13 23 21 2 0.24083595D-01 0.95063539D-01 0.88258364D+05 0.88258364D+05 0.88258364D+05 0.11262008D+01  1  2  6  2  7  2       -2 0.125342790708D-02 0.100000000000D+01
0.964212341346D-06 0.000000000000D+00 0.000000000000D+00 0.282024493920D-05 0.000000000000D+00  7 1 21 -24 -13 13 23 2 2 0.24083595D-01 0.14894432D+00 0.14945990D+06 0.14945990D+06 0.14945990D+06 0.11076755D+01  1  2 12  4  7  2       -2 0.723363192365D-04 0.100000000000D+01
-.150447943834D-05 0.000000000000D+00 -.993804981177D-06 0.282024493920D-05 0.000000000000D+00  7 1 21 -24 -13 13 23 2 2 0.24083595D-01 0.15911984D+00 0.88258364D+05 0.88258364D+05 0.88258364D+05 0.11262008D+01  1  2  5  4  7  2       -2 -.990367840016D-04 0.100000000000D+01
  </mgrwgt>
  </event>
  <event>
  8     66 0.29493621E-05 0.23758313E+03 0.75467711E-02 0.94642383E-01
        3 -1    0    0  501    0 0.00000000E+00 0.00000000E+00 0.23867102E+03 0.23867154E+03 0.50000000E+00 0.0000E+00 0.9000E+01
       -4 -1    0    0    0  501 0.00000000E+00 0.00000000E+00 -.37957528E+03 0.37957845E+03 0.15500000E+01 0.0000E+00 0.9000E+01
       25  2    1    2    0    0 0.11725462E+03 -.15141226E+03 0.18319924E+02 0.35653664E+03 0.30018067E+03 0.0000E+00 0.0000E+00
       23  2    3    3    0    0 0.63991691E+02 -.10339015E+03 -.10716869E+03 0.18563986E+03 0.90512826E+02 0.0000E+00 0.0000E+00
      -24  1    1    2    0    0 -.11725462E+03 0.15141226E+03 -.15922419E+03 0.26171335E+03 0.80419002E+02 0.0000E+00 0.9000E+01
      -11  1    4    4    0    0 -.13425807E+02 0.81280973E+01 -.13533051E+02 0.20723458E+02 0.51099893E-03 0.0000E+00 0.9000E+01
       11  1    4    4    0    0 0.77417498E+02 -.11151824E+03 -.93635640E+02 0.16491641E+03 0.51099893E-03 0.0000E+00 0.9000E+01
       23  1    3    3    0    0 0.53262934E+02 -.48022114E+02 0.12548862E+03 0.17089677E+03 0.91188000E+02 0.0000E+00 0.9000E+01
#aMCatNLO 1  0  0  2  1 0.38720472D+03 0.00000000D+00  -5  7  0 0.00000000D+00 0.00000000D+00 0.00000000D+00 0.00000000D+00 0.00000000D+00
  <mgrwgt>
 0.2361769615D-03    3    2    0
 0.300989632563495D+03 0.000000000000000D+00 0.000000000000000D+00 0.300989632563495D+03
 0.300989632563495D+03 0.000000000000000D+00 0.000000000000000D+00 -.300989632563495D+03
 0.231517788945780D+03 -.117254624984162D+03 0.151412260218915D+03 -.102269012996095D+03
 0.181159283506023D+02 -.134258068350677D+02 0.812809732480449D+01 -.904812713825971D+01
 0.147456747602509D+03 0.774174980386955D+02 -.111518243460861D+03 -.575647877295032D+02
 0.204888800228099D+03 0.532629337805342D+02 -.480221140828582D+02 0.168881927863858D+03
 0.000000000000000D+00 -.000000000000000D+00 0.000000000000000D+00 0.000000000000000D+00
 0.942448819977191D+03 0.000000000000000D+00 0.000000000000000D+00 0.942448819977191D+03
 0.421996574188919D+03 0.000000000000000D+00 0.000000000000000D+00 -.421996574188919D+03
 0.152109048475079D+03 -.495571065017764D+02 0.612787797659150D+02 -.102269012996095D+03
 0.121733479561286D+02 -.808074584721119D+01 0.101160382741867D+01 -.904812713825971D+01
 0.262586884632351D+03 0.149776711899823D+03 -.207858374301009D+03 -.575647877295032D+02
 0.288886636142498D+03 0.140398056950176D+03 -.164035109788514D+03 0.168881927863858D+03
 0.648689476960053D+03 -.232536916501011D+03 0.309603100496190D+03 0.520452245788272D+03
0.368966609507D-04 0.000000000000D+00 0.000000000000D+00 0.272946225359D-05 0.000000000000D+00  7 3 -4 -24 -11 11 23 21 0 0.36718902D-01 0.58396481D-01 0.56445745D+05 0.56445745D+05 0.56445745D+05 0.11426919D+01  1  2  2  2  7  2       -4 0.232195594802D-03 0.100000000000D+01
-.191034727192D-05 0.000000000000D+00 -.141692893165D-06 0.272946225359D-05 0.000000000000D+00  7 3 -4 -24 -11 11 23 21 2 0.36718902D-01 0.58396481D-01 0.56445745D+05 0.56445745D+05 0.56445745D+05 0.11426919D+01  1  2  3  2  7  2       -4 -.156977555869D-04 0.100000000000D+01
0.239486195604D-05 0.000000000000D+00 0.000000000000D+00 0.272946225359D-05 0.000000000000D+00  7 3 -4 -24 -11 11 23 21 2 0.36718902D-01 0.58396481D-01 0.56445745D+05 0.56445745D+05 0.56445745D+05 0.11426919D+01  1  2 15  2  7  2       -4 0.196791223265D-04 0.100000000000D+01
  </mgrwgt>
  </event>
  <event>
  8     66 0.29493621E-05 0.36671494E+03 0.75467711E-02 0.94192951E-01
        1 -1    0    0  501    0 0.00000000E+00 0.00000000E+00 0.64081531E+03 0.64081539E+03 0.32000000E+00 0.0000E+00 0.9000E+01
       -2 -1    0    0    0  501 0.00000000E+00 0.00000000E+00 -.23316334E+03 0.23316356E+03 0.32000000E+00 0.0000E+00 0.9000E+01
       25  2    1    2    0    0 -.31232636E+03 -.14368897E+02 0.14439904E+03 0.45741738E+03 0.30104045E+03 0.0000E+00 0.0000E+00
       23  2    3    3    0    0 -.19632623E+02 -.57425113E+02 -.20827273E+02 0.10650650E+03 0.85010439E+02 0.0000E+00 0.0000E+00
      -24  1    1    2    0    0 0.31232636E+03 0.14368897E+02 0.26325294E+03 0.41656158E+03 0.80419002E+02 0.0000E+00 0.9000E+01
      -13  1    4    4    0    0 -.49211429E+02 -.19528713E+02 0.26409864E+01 0.53010577E+02 0.10565837E+00 0.0000E+00 0.9000E+01
       13  1    4    4    0    0 0.29578805E+02 -.37896400E+02 -.23468259E+02 0.53495918E+02 0.10565837E+00 0.0000E+00 0.9000E+01
       23  1    3    3    0    0 -.29269374E+03 0.43056216E+02 0.16522631E+03 0.35091088E+03 0.91188000E+02 0.0000E+00 0.9000E+01
#aMCatNLO 1  0  0  2  1 0.26972522D+03 0.00000000D+00  -5  7  0 0.00000000D+00 0.00000000D+00 0.00000000D+00 0.00000000D+00 0.00000000D+00
  <mgrwgt>
 0.1799499212D-02    4    2    0
 0.386542068231845D+03 0.000000000000000D+00 0.000000000000000D+00 0.386542068231845D+03
 0.386542068231845D+03 0.000000000000000D+00 0.000000000000000D+00 -.386542068231845D+03
 0.332111940357707D+03 0.312326363629920D+03 0.143688970917881D+02 0.779544889782944D+02
 0.585363304125345D+02 -.492115501415255D+02 -.195286845030010D+02 -.249670941924723D+02
 0.728526205317545D+02 0.295789266758416D+02 -.378964279195550D+02 -.547398590241788D+02
 0.309583245161694D+03 -.292693740164236D+03 0.430562153307680D+02 0.175246423835664D+01
 0.000000000000000D+00 0.000000000000000D+00 -.000000000000000D+00 0.000000000000000D+00
 0.569678812924961D+03 0.000000000000000D+00 0.000000000000000D+00 0.569678812924961D+03
 0.522864963600746D+03 0.000000000000000D+00 0.000000000000000D+00 -.522864963600746D+03
 0.310172502423532D+03 0.266271093293411D+03 0.112971535484694D+03 0.779544889782944D+02
 0.630896017371269D+02 -.579327876680436D+02 -.856836006994655D+00 -.249670941924723D+02
 0.608125445481726D+02 0.199944109966618D+02 -.173763326779003D+02 -.547398590241788D+02
 0.384711512371926D+03 -.342478431527720D+03 0.149643406854096D+03 0.175246423835664D+01
 0.273757615444950D+03 0.114145714905691D+03 -.244381773653895D+03 0.468138493242149D+02
0.977377472542D-04 0.000000000000D+00 0.000000000000D+00 0.558838755253D-07 0.000000000000D+00  7 1 -2 -24 -13 13 23 21 0 0.98586995D-01 0.35871306D-01 0.13447985D+06 0.13447985D+06 0.13447985D+06 0.11113147D+01  1  2  2  2  7  2       -2 0.241162180132D-02 0.100000000000D+01
-.541157004510D-05 0.000000000000D+00 -.375338684396D-06 0.558838755253D-07 0.000000000000D+00  7 1 -2 -24 -13 13 23 21 2 0.98586995D-01 0.35871306D-01 0.13447985D+06 0.13447985D+06 0.13447985D+06 0.11113147D+01  1  2  3  2  7  2       -2 -.164908964039D-03 0.100000000000D+01
0.624781451791D-05 0.000000000000D+00 0.000000000000D+00 0.558838755253D-07 0.000000000000D+00  7 1 -2 -24 -13 13 23 21 2 0.98586995D-01 0.35871306D-01 0.13447985D+06 0.13447985D+06 0.13447985D+06 0.11113147D+01  1  2 15  2  7  2       -2 0.190392180286D-03 0.100000000000D+01
-.209233530542D-04 0.000000000000D+00 0.000000000000D+00 0.558838755253D-07 0.000000000000D+00  7 1 -2 -24 -13 13 23 21 2 0.98586995D-01 0.35871306D-01 0.13447985D+06 0.13447985D+06 0.13447985D+06 0.11113147D+01  1  2  4  2  7  2       -2 -.637605805272D-03 0.100000000000D+01
  </mgrwgt>
  </event>
  <event>
  8     66 0.29493621E-05 0.24552475E+03 0.75467711E-02 0.95017869E-01
        1 -1    0    0  501    0 0.00000000E+00 0.00000000E+00 0.11476553E+03 0.11476598E+03 0.32000000E+00 0.0000E+00 0.9000E+01
       -2 -1    0    0    0  501 0.00000000E+00 0.00000000E+00 -.66676450E+03 0.66676457E+03 0.32000000E+00 0.0000E+00 0.9000E+01
       25  2    1    2    0    0 -.14489884E+03 -.85330055E+02 -.45737826E+03 0.57249183E+03 0.30045821E+03 0.0000E+00 0.0000E+00
       23  2    3    3    0    0 -.42044821E+02 -.12974844E+03 -.36890940E+03 0.40309900E+03 0.88273616E+02 0.0000E+00 0.0000E+00
      -24  1    1    2    0    0 0.14489884E+03 0.85330055E+02 -.94620705E+02 0.20903872E+03 0.80419002E+02 0.0000E+00 0.9000E+01
      -13  1    4    4    0    0 0.27459974E+01 0.11600262E+02 -.13561348E+02 0.18056243E+02 0.10565837E+00 0.0000E+00 0.9000E+01
       13  1    4    4    0    0 -.44790819E+02 -.14134870E+03 -.35534805E+03 0.38504275E+03 0.10565837E+00 0.0000E+00 0.9000E+01
       23  1    3    3    0    0 -.10285402E+03 0.44418388E+02 -.88468857E+02 0.16939283E+03 0.91188000E+02 0.0000E+00 0.9000E+01
#aMCatNLO 1  0  0  1  1 0.36524578D+03 0.00000000D+00  -5  7  0 0.00000000D+00 0.00000000D+00 0.00000000D+00 0.00000000D+00 0.00000000D+00
  <mgrwgt>
 0.1411865359D-02    3    2    0
 0.276625716462934D+03 0.000000000000000D+00 0.000000000000000D+00 0.276625716462934D+03
 0.276625716462934D+03 0.000000000000000D+00 0.000000000000000D+00 -.276625716462934D+03
 0.200884458756360D+03 0.144898841222354D+03 0.853300555134563D+02 0.749029856144250D+02
 0.119755943616800D+02 0.274606529635687D+01 0.116004811715384D+02 -.114141241119489D+01
 0.189373319978273D+03 -.447908870264314D+02 -.141348923319480D+03 -.117798610498608D+03
 0.151018059829556D+03 -.102854019492279D+03 0.444183866344848D+02 0.440370372953776D+02
 0.000000000000000D+00 -.000000000000000D+00 -.000000000000000D+00 -.000000000000000D+00
 0.479043428547063D+03 0.000000000000000D+00 0.000000000000000D+00 0.479043428547063D+03
 0.557468869189159D+03 0.000000000000000D+00 0.000000000000000D+00 -.557468869189159D+03
 0.347478112339596D+03 0.304271518321768D+03 0.126815647634388D+03 0.749029856144250D+02
 0.180336016635499D+02 0.114677508384306D+02 0.138707843100105D+02 -.114141241119489D+01
 0.174795654714743D+03 0.610489121731732D+02 -.113798236340574D+03 -.117798610498608D+03
 0.122634279275361D+03 -.233214106373330D+02 0.651211660024424D+02 0.440370372953776D+02
 0.373570649742972D+03 -.353466770696039D+03 -.920093616062670D+02 -.784254406420959D+02
0.503281601629D-04 0.000000000000D+00 0.000000000000D+00 0.303623003655D-06 0.000000000000D+00  7 1 -2 -24 -13 13 23 21 0 0.17656276D-01 0.10257919D+00 0.60282404D+05 0.60282404D+05 0.60282404D+05 0.11402191D+01  1  2  2  1  7  1        1 0.139310291315D-02 0.100000000000D+01
-.274765124885D-05 0.000000000000D+00 -.193273386734D-06 0.303623003655D-06 0.000000000000D+00  7 1 -2 -24 -13 13 23 21 2 0.17656276D-01 0.10257919D+00 0.60282404D+05 0.60282404D+05 0.60282404D+05 0.11402191D+01  1  2  3  1  7  1        1 -.988804304305D-04 0.100000000000D+01
0.326901485200D-05 0.000000000000D+00 0.000000000000D+00 0.303623003655D-06 0.000000000000D+00  7 1 -2 -24 -13 13 23 21 2 0.17656276D-01 0.10257919D+00 0.60282404D+05 0.60282404D+05 0.60282404D+05 0.11402191D+01  1  2 15  1  7  1        1 0.117642876178D-03 0.100000000000D+01
  </mgrwgt>
  </event>
  <event>
  8     66 0.29493621E-05 0.19309503E+03 0.75467711E-02 0.81721837E-01
        1 -1    0    0  501    0 0.00000000E+00 0.00000000E+00 0.72384349E+03 0.72384356E+03 0.32000000E+00 0.0000E+00 0.9000E+01
       -2 -1    0    0    0  501 0.00000000E+00 0.00000000E+00 -.80364142E+02 0.80364779E+02 0.32000000E+00 0.0000E+00 0.9000E+01
       25  2    1    2    0    0 -.66650887E+02 0.13894049E+02 0.62535985E+03 0.69729287E+03 0.30084385E+03 0.0000E+00 0.0000E+00
       23  2    3    3    0    0 -.11323574E+03 -.64894076E+02 0.21837409E+03 0.27029126E+03 0.91304691E+02 0.0000E+00 0.0000E+00
      -24  1    1    2    0    0 0.66650887E+02 -.13894049E+02 0.18119501E+02 0.10691547E+03 0.80419002E+02 0.0000E+00 0.9000E+01
      -13  1    4    4    0    0 -.12424025E+03 -.65779510E+02 0.16962286E+03 0.22030549E+03 0.10565837E+00 0.0000E+00 0.9000E+01
       13  1    4    4    0    0 0.11004510E+02 0.88543377E+00 0.48751228E+02 0.49985764E+02 0.10565837E+00 0.0000E+00 0.9000E+01
       23  1    3    3    0    0 0.46584857E+02 0.78788125E+02 0.40698576E+03 0.42700161E+03 0.91188000E+02 0.0000E+00 0.9000E+01
#aMCatNLO 1  0  0  2  1 0.18574310D+04 0.00000000D+00  -5  7  0 0.00000000D+00 0.00000000D+00 0.00000000D+00 0.00000000D+00 0.00000000D+00
  <mgrwgt>
 0.1586484939D-02    3    2    0
 0.241187365666024D+03 0.000000000000000D+00 0.000000000000000D+00 0.241187365666024D+03
 0.241187365666024D+03 0.000000000000000D+00 0.000000000000000D+00 -.241187365666024D+03
 0.154076877263196D+03 0.666508930299939D+02 -.138940500484818D+02 -.112414776539217D+03
 0.141016473027262D+03 -.124240430141160D+03 -.657795937634780D+02 -.110908172692457D+02
 0.183021218724932D+02 0.110046896862783D+02 0.885523657228415D+00 0.145972709023572D+02
 0.168979259169097D+03 0.465848474248882D+02 0.787881201547314D+02 0.108908322906105D+03
 0.000000000000000D+00 0.000000000000000D+00 0.000000000000000D+00 0.000000000000000D+00
 0.206242279642962D+04 0.000000000000000D+00 0.000000000000000D+00 0.206242279642962D+04
 0.174156311594227D+04 0.000000000000000D+00 0.000000000000000D+00 -.174156311594227D+04
 0.630672477882659D+03 -.168078716287334D+02 -.615110536303218D+03 -.112414776539217D+03
 0.877673966148759D+03 -.232579029040022D+03 -.846224308253074D+03 -.110908172692457D+02
 0.636080254200655D+02 0.229347551168271D+01 -.618679282837256D+02 0.145972709023572D+02
 0.347090921976570D+03 -.829965743414134D+01 -.316586401575938D+03 0.108908322906105D+03
 0.188494052094384D+04 0.255393082591214D+03 0.183978917441596D+04 0.320859680487348D+03
0.127466505671D-04 0.000000000000D+00 0.000000000000D+00 0.876729084143D-06 0.000000000000D+00  7 1 -2 -24 -13 13 23 21 0 0.11136059D+00 0.12363769D-01 0.37285692D+05 0.37285692D+05 0.37285692D+05 0.11586755D+01  1  2  2  2  7  2       -2 0.156499543498D-02 0.100000000000D+01
-.665563702298D-06 0.000000000000D+00 -.489504944479D-07 0.876729084143D-06 0.000000000000D+00  7 1 -2 -24 -13 13 23 21 2 0.11136059D+00 0.12363769D-01 0.37285692D+05 0.37285692D+05 0.37285692D+05 0.11586755D+01  1  2  3  2  7  2       -2 -.109705963769D-03 0.100000000000D+01
0.795936137651D-06 0.000000000000D+00 0.000000000000D+00 0.876729084143D-06 0.000000000000D+00  7 1 -2 -24 -13 13 23 21 2 0.11136059D+00 0.12363769D-01 0.37285692D+05 0.37285692D+05 0.37285692D+05 0.11586755D+01  1  2 15  2  7  2       -2 0.131195467508D-03 0.100000000000D+01
  </mgrwgt>
  </event>
  <event>
  9     66 0.29493621E-05 0.24982165E+03 0.75467711E-02 0.98215757E-01
        1 -1    0    0  501    0 0.00000000E+00 0.00000000E+00 0.38648437E+04 0.38648437E+04 0.32000000E+00 0.0000E+00 0.9000E+01
       21 -1    0    0  502  501 0.00000000E+00 0.00000000E+00 -.43807615E+02 0.43814034E+02 0.75000000E+00 0.0000E+00 0.9000E+01
       25  2    1    2    0    0 0.17818121E+03 0.20171837E+03 0.26200534E+04 0.26508786E+04 0.30006413E+03 0.0000E+00 0.0000E+00
       23  2    3    3    0    0 0.19936348E+03 0.12325546E+03 0.12374974E+04 0.12629371E+04 0.93126978E+02 0.0000E+00 0.0000E+00
      -24  1    1    2    0    0 0.14705475E+02 -.13995572E+03 0.67404416E+03 0.69325796E+03 0.80419002E+02 0.0000E+00 0.9000E+01
      -11  1    4    4    0    0 0.45881322E+02 0.78002446E+02 0.37897411E+03 0.38962912E+03 0.51099893E-03 0.0000E+00 0.9000E+01
       11  1    4    4    0    0 0.15348216E+03 0.45253011E+02 0.85852330E+03 0.87330800E+03 0.51099893E-03 0.0000E+00 0.9000E+01
       23  1    3    3    0    0 -.21182265E+02 0.78462913E+02 0.13825560E+04 0.13879414E+04 0.91188000E+02 0.0000E+00 0.9000E+01
        2  1    1    2  502    0 -.19288669E+03 -.61762647E+02 0.52693848E+03 0.56452118E+03 0.32000000E+00 0.0000E+00 0.9000E+01
#aMCatNLO 2  0  0  2  1 0.20253370D+03 0.00000000D+00  -5  7  0 0.00000000D+00 0.00000000D+00 0.00000000D+00 0.00000000D+00 0.00000000D+00
  <mgrwgt>
 0.1542957511D-03    2    2    0
 0.269791792386748D+03 0.000000000000000D+00 0.000000000000000D+00 0.269791792386748D+03
 0.269791792386748D+03 0.000000000000000D+00 0.000000000000000D+00 -.269791792386748D+03
 0.192351274395999D+03 -.479277499628800D+02 -.160010988264998D+03 -.512953333681426D+02
 0.758506304369151D+02 0.163971084069252D+02 0.685615508120519D+02 -.279958340439328D+02
 0.111200679776166D+03 0.106549324101776D+03 0.302250377064103D+02 -.996392552069881D+01
 0.160181000164416D+03 -.750186825458217D+02 0.612243997465355D+02 0.892550929327743D+02
 0.000000000000000D+00 -.000000000000000D+00 -.000000000000000D+00 -.000000000000000D+00
 0.335552162143929D+03 0.000000000000000D+00 0.000000000000000D+00 0.335552162143929D+03
 0.504607280957574D+03 0.000000000000000D+00 0.000000000000000D+00 -.504607280957574D+03
 0.170006712826206D+03 0.147054754754298D+02 -.139955722345655D+03 -.512953333681426D+02
 0.947272086947953D+02 0.458813218915438D+02 0.780024464025099D+02 -.279958340439328D+02
 0.160324317873817D+03 0.153482155692761D+03 0.452530106603500D+02 -.996392552069881D+01
 0.151283971327407D+03 -.211822653465469D+02 0.784629126208180D+02 0.892550929327743D+02
 0.263817232379277D+03 -.192886687713188D+03 -.617626473380231D+02 -.169055118813645D+03
-.193869192261D-06 0.000000000000D+00 0.000000000000D+00 0.625331808244D-06 0.000000000000D+00  7 1 21 -24 -11 11 23 2 2 0.47806562D+00 0.68550614D-02 0.13589409D+06 0.13589409D+06 0.13589409D+06 0.11109526D+01  1  2 13  4  7  2       -2 -.237623226126D-04 0.100000000000D+01
0.585065598282D-05 0.000000000000D+00 0.000000000000D+00 0.625331808244D-06 0.131181887903D-10  7 1 21 -24 -11 11 23 2 2 0.59459167D+00 0.67401261D-02 0.13589409D+06 0.13589409D+06 0.13589409D+06 0.11109526D+01  1  2  1  4  7  2       -2 0.178058073756D-03 0.100000000000D+01
  </mgrwgt>
  </event>
  <event>
  8     66 0.29493621E-05 0.14941026E+03 0.75467711E-02 0.94418642E-01
        1 -1    0    0  501    0 0.00000000E+00 0.00000000E+00 0.16083512E+03 0.16083544E+03 0.32000000E+00 0.0000E+00 0.9000E+01
       -2 -1    0    0    0  501 0.00000000E+00 0.00000000E+00 -.12840009E+04 0.12840009E+04 0.32000000E+00 0.0000E+00 0.9000E+01
       25  2    1    2    0    0 0.16118890E+02 0.49365080E+02 -.12496085E+04 0.12862434E+04 0.30033977E+03 0.0000E+00 0.0000E+00
       23  2    3    3    0    0 -.33672761E+02 0.63246476E+02 -.10891164E+04 0.10945539E+04 0.82096001E+02 0.0000E+00 0.0000E+00
      -24  1    1    2    0    0 -.16118890E+02 -.49365080E+02 0.12644276E+03 0.15859293E+03 0.80419002E+02 0.0000E+00 0.9000E+01
      -13  1    4    4    0    0 -.54370647E+02 0.48494391E+02 -.54550288E+03 0.55034650E+03 0.10565837E+00 0.0000E+00 0.9000E+01
       13  1    4    4    0    0 0.20697885E+02 0.14752085E+02 -.54361351E+03 0.54420739E+03 0.10565837E+00 0.0000E+00 0.9000E+01
       23  1    3    3    0    0 0.49791651E+02 -.13881396E+02 -.16049214E+03 0.19168954E+03 0.91188000E+02 0.0000E+00 0.9000E+01
#aMCatNLO 1  0  0  2  2 0.45015223D+03 0.00000000D+00  -5  7  0 0.00000000D+00 0.00000000D+00 0.00000000D+00 0.00000000D+00 0.00000000D+00
  <mgrwgt>
 0.3002229479D-02    3    2    0
 0.454436676826575D+03 0.000000000000000D+00 0.000000000000000D+00 0.454436676826575D+03
 0.454436676826575D+03 0.000000000000000D+00 0.000000000000000D+00 -.454436676826575D+03
 0.408370434328222D+03 -.161188898642362D+02 -.493650801468372D+02 0.396991770608272D+03
 0.200765588248007D+03 -.543707708835391D+02 0.484944469852209D+02 -.187080007776607D+03
 0.193341054265481D+03 0.206980095583906D+02 0.147520287611073D+02 -.191663072375041D+03
 0.106396276811440D+03 0.497916511893847D+02 -.138813955994910D+02 -.182486904566240D+02
 0.000000000000000D+00 0.000000000000000D+00 0.000000000000000D+00 0.000000000000000D+00
 0.104783942449918D+04 0.000000000000000D+00 0.000000000000000D+00 0.104783942449918D+04
 0.600810075921467D+03 0.000000000000000D+00 0.000000000000000D+00 -.600810075921467D+03
 0.477264041627693D+03 -.177609617216713D+03 -.179349121597714D+03 0.396991770608272D+03
 0.229958775094661D+03 -.132911063310120D+03 -.147227097748588D+02 -.187080007776607D+03
 0.203188609781039D+03 -.516070616670584D+02 -.434463924693812D+02 -.191663072375041D+03
 0.103831051620333D+03 0.114578181019011D+02 -.447363346458601D+02 -.182486904566240D+02
 0.634407022296925D+03 0.350669924091990D+03 0.282254558487815D+03 0.447029348577716D+03
0.839053312625D-03 0.000000000000D+00 0.000000000000D+00 0.172472315759D-06 0.000000000000D+00  7 1 -2 -24 -13 13 23 21 0 0.24743892D-01 0.19753862D+00 0.22323426D+05 0.22323426D+05 0.22323426D+05 0.11794361D+01  1  2  2  2  7  2       -2 0.266902079783D-02 0.100000000000D+01
0.235139069734D-04 0.000000000000D+00 -.322218564829D-05 0.172472315759D-06 0.000000000000D+00  7 1 -2 -24 -13 13 23 21 2 0.24743892D-01 0.19753862D+00 0.22323426D+05 0.22323426D+05 0.22323426D+05 0.11794361D+01  1  2  3  2  7  2       -2 0.104048549631D-03 0.100000000000D+01
0.517878436508D-04 0.000000000000D+00 0.000000000000D+00 0.172472315759D-06 0.000000000000D+00  7 1 -2 -24 -13 13 23 21 2 0.24743892D-01 0.19753862D+00 0.22323426D+05 0.22323426D+05 0.22323426D+05 0.11794361D+01  1  2 15  2  7  2       -2 0.229160131766D-03 0.100000000000D+01
  </mgrwgt>
  </event>
  <event>
  9     66 0.29493621E-05 0.20159556E+03 0.75467711E-02 0.10484547E+00
        1 -1    0    0  501    0 0.00000000E+00 0.00000000E+00 0.66203956E+03 0.66203963E+03 0.32000000E+00 0.0000E+00 0.9000E+01
       21 -1    0    0  502  501 0.00000000E+00 0.00000000E+00 -.15431018E+03 0.15431200E+03 0.75000000E+00 0.0000E+00 0.9000E+01
       25  2    1    2    0    0 0.10772451E+03 -.17819748E+02 0.39989892E+03 0.51138454E+03 0.29945432E+03 0.0000E+00 0.0000E+00
       23  2    3    3    0    0 0.13755348E+02 0.81433589E+02 0.28027482E+03 0.30814428E+03 0.97868697E+02 0.0000E+00 0.0000E+00
      -24  1    1    2    0    0 -.91872351E+02 -.22139008E+02 -.55601437E+02 0.13597573E+03 0.80419002E+02 0.0000E+00 0.9000E+01
      -11  1    4    4    0    0 -.32057565E+02 0.32613377E+02 0.47513333E+02 0.65945710E+02 0.51099893E-03 0.0000E+00 0.9000E+01
       11  1    4    4    0    0 0.45812914E+02 0.48820212E+02 0.23276149E+03 0.24219857E+03 0.51099893E-03 0.0000E+00 0.9000E+01
       23  1    3    3    0    0 0.93969164E+02 -.99253338E+02 0.11962410E+03 0.20324027E+03 0.91188000E+02 0.0000E+00 0.9000E+01
        2  1    1    2  502    0 -.15852161E+02 0.39958756E+02 0.16343189E+03 0.16899136E+03 0.32000000E+00 0.0000E+00 0.9000E+01
#aMCatNLO 2  0  0  2  2 0.42988292D+02 0.00000000D+00  -5  7  0 0.00000000D+00 0.00000000D+00 0.00000000D+00 0.00000000D+00 0.00000000D+00
  <mgrwgt>
 0.1530780441D-03    1    2    0
 0.273261128668455D+03 0.000000000000000D+00 0.000000000000000D+00 0.273261128668455D+03
 0.273261128668455D+03 0.000000000000000D+00 0.000000000000000D+00 -.273261128668455D+03
 0.197138270017308D+03 -.975577396114907D+02 -.780777225083528D+01 -.151055644334868D+03
 0.514952195009315D+02 -.334987658950711D+02 0.362462309564096D+02 0.146901686991996D+02
 0.142492088917288D+03 0.417249287374028D+02 0.591248504090038D+02 0.122748840279588D+03
 0.155396678901384D+03 0.893315767691590D+02 -.875633091145782D+02 0.136166353560799D+02
 0.000000000000000D+00 -.000000000000000D+00 0.000000000000000D+00 0.000000000000000D+00
 0.365990286955032D+03 0.000000000000000D+00 0.000000000000000D+00 0.365990286955032D+03
 0.279133166449365D+03 0.000000000000000D+00 0.000000000000000D+00 -.279133166449365D+03
 0.195488332642627D+03 -.918723510648099D+02 -.221390078690613D+02 -.151055644334868D+03
 0.480324982581066D+02 -.320575651644252D+02 0.326133768296492D+02 0.146901686991996D+02
 0.139819576464671D+03 0.458129133469102D+02 0.488202124477629D+02 0.122748840279588D+03
 0.164869927247187D+03 0.939691639375927D+02 -.992533376614725D+02 0.136166353560799D+02
 0.969131187918049D+02 -.158521610552677D+02 0.399587562531217D+02 0.868571205056669D+02
0.187409305730D-06 0.000000000000D+00 0.000000000000D+00 0.504742320747D-07 0.899832359894D-12  7 1 21 -24 -11 11 23 2 2 0.10185229D+00 0.23740152D-01 0.49298122D+05 0.49298122D+05 0.49298122D+05 0.11478358D+01  1  2  1  4  7  2       -2 0.153078044105D-03 0.100000000000D+01
  </mgrwgt>
  </event>
  <event>
  8     66 0.29493621E-05 0.15839230E+03 0.75467711E-02 0.10443183E+00
        1 -1    0    0  501    0 0.00000000E+00 0.00000000E+00 0.30458619E+03 0.30458636E+03 0.32000000E+00 0.0000E+00 0.9000E+01
       -2 -1    0    0    0  501 0.00000000E+00 0.00000000E+00 -.29380395E+03 0.29380413E+03 0.32000000E+00 0.0000E+00 0.9000E+01
       25  2    1    2    0    0 -.15039300E+03 0.21595906E+02 0.16095569E+03 0.37012809E+03 0.29665406E+03 0.0000E+00 0.0000E+00
       23  2    3    3    0    0 -.32262238E+02 0.43592722E+02 0.18985083E+03 0.21654125E+03 0.88913425E+02 0.0000E+00 0.0000E+00
      -24  1    1    2    0    0 0.15039300E+03 -.21595906E+02 -.15017346E+03 0.22826239E+03 0.80419002E+02 0.0000E+00 0.9000E+01
      -13  1    4    4    0    0 -.98639879E+01 -.26063374E+02 0.31217350E+02 0.41846527E+02 0.10565837E+00 0.0000E+00 0.9000E+01
       13  1    4    4    0    0 -.22398250E+02 0.69656096E+02 0.15863348E+03 0.17469473E+03 0.10565837E+00 0.0000E+00 0.9000E+01
       23  1    3    3    0    0 -.11813076E+03 -.21996815E+02 -.28895141E+02 0.15358684E+03 0.91188000E+02 0.0000E+00 0.9000E+01
#aMCatNLO 1  0  0  1  2 0.30117838D+02 0.00000000D+00  -5  7  0 0.00000000D+00 0.00000000D+00 0.00000000D+00 0.00000000D+00 0.00000000D+00
  <mgrwgt>
 0.3148394988D-02    9    2    0
 0.299146668894662D+03 0.000000000000000D+00 0.000000000000000D+00 0.299146668894662D+03
 0.299146668894662D+03 0.000000000000000D+00 0.000000000000000D+00 -.299146668894662D+03
 0.231005834672147D+03 0.150393000617229D+03 -.215959065553412D+02 -.154311509238954D+03
 0.412905493607193D+02 -.986397035186267D+01 -.260635090273160D+02 0.304680989329920D+02
 0.171864437098340D+03 -.223982682138067D+02 0.696562306557985D+02 0.155511130955240D+03
 0.154132516658118D+03 -.118130762051560D+03 -.219968150731413D+02 -.316677206492784D+02
 0.000000000000000D+00 0.000000000000000D+00 -.000000000000000D+00 0.000000000000000D+00
 0.327495312169092D+03 0.000000000000000D+00 0.000000000000000D+00 0.327495312169092D+03
 0.307633154155914D+03 0.000000000000000D+00 0.000000000000000D+00 -.307633154155914D+03
 0.226543652302738D+03 0.144592246338634D+03 -.116555076868187D+02 -.154311509238954D+03
 0.404599076020262D+02 -.109003922614120D+02 -.242874560034859D+02 0.304680989329920D+02
 0.175678863172357D+03 -.268043780301931D+02 0.772067123569463D+02 0.155511130955240D+03
 0.156368494811603D+03 -.122067254435585D+03 -.152510881278544D+02 -.316677206492784D+02
 0.360775484362827D+02 0.151797783885570D+02 -.260126605387874D+02 0.198621580131776D+02
0.469423575682D-04 0.000000000000D+00 0.000000000000D+00 0.252255903693D-07 0.000000000000D+00  7 1 -2 -24 -13 13 23 21 0 0.46859440D-01 0.45200635D-01 0.44898774D+05 0.44898774D+05 0.44898774D+05 0.11514291D+01  1  2  2  1  7  1        1 0.210340828432D-02 0.100000000000D+01
-.223082560502D-05 0.000000000000D+00 -.180271013268D-06 0.252255903693D-07 0.000000000000D+00  7 1 -2 -24 -13 13 23 21 2 0.46859440D-01 0.45200635D-01 0.44898774D+05 0.44898774D+05 0.44898774D+05 0.11514291D+01  1  2  3  1  7  1        1 -.132525261028D-03 0.100000000000D+01
0.302470182266D-05 0.000000000000D+00 0.000000000000D+00 0.252255903693D-07 0.000000000000D+00  7 1 -2 -24 -13 13 23 21 2 0.46859440D-01 0.45200635D-01 0.44898774D+05 0.44898774D+05 0.44898774D+05 0.11514291D+01  1  2 15  1  7  1        1 0.179686568811D-03 0.100000000000D+01
0.137484818195D-03 0.000000000000D+00 0.000000000000D+00 0.252255903693D-07 0.000000000000D+00  7 1 -2 -24 -13 13 23 21 2 0.51921202D-01 0.45200635D-01 0.52316528D+05 0.52316528D+05 0.52316528D+05 0.11455693D+01  1  2 12  1  7  1        1 0.706452239386D-02 0.100000000000D+01
-.137168841577D-03 0.000000000000D+00 0.000000000000D+00 0.252255903693D-07 0.000000000000D+00  7 1 -2 -24 -13 13 23 21 2 0.46859440D-01 0.45200635D-01 0.44898774D+05 0.44898774D+05 0.44898774D+05 0.11514291D+01  1  2  4  1  7  1        1 -.814870355355D-02 0.100000000000D+01
-.296228179263D-03 0.000000000000D+00 -.582857552425D-04 0.252255903693D-07 0.000000000000D+00  7 1 -2 -24 -13 13 23 21 2 0.52490133D-01 0.45200635D-01 0.44898774D+05 0.44898774D+05 0.44898774D+05 0.11514291D+01  1  2  5  1  7  1        1 -.151807544104D-01 0.100000000000D+01
0.301273574789D-03 0.000000000000D+00 0.579125126092D-04 0.252255903693D-07 0.000000000000D+00  7 1 -2 -24 -13 13 23 21 2 0.46859440D-01 0.45200635D-01 0.44898774D+05 0.44898774D+05 0.44898774D+05 0.11514291D+01  1  2  6  1  7  1        1 0.178975707693D-01 0.100000000000D+01
0.228256295907D-05 0.000000000000D+00 0.000000000000D+00 0.252255903693D-07 0.000000000000D+00  7 21 -2 -24 -13 13 23 -1 2 0.51921202D-01 0.45200635D-01 0.52316528D+05 0.52316528D+05 0.52316528D+05 0.11455693D+01  1  2 12  3  7  1        1 0.517213547359D-03 0.100000000000D+01
-.511811350307D-05 0.000000000000D+00 -.105488001248D-05 0.252255903693D-07 0.000000000000D+00  7 21 -2 -24 -13 13 23 -1 2 0.52490133D-01 0.45200635D-01 0.44898774D+05 0.44898774D+05 0.44898774D+05 0.11514291D+01  1  2  5  3  7  1        1 -.115202335038D-02 0.100000000000D+01
  </mgrwgt>
  </event>
  <event>
  9     66 0.29493621E-05 0.18255726E+03 0.75467711E-02 0.97458833E-01
        1 -1    0    0  502    0 0.00000000E+00 0.00000000E+00 0.29865824E+03 0.29865841E+03 0.32000000E+00 0.0000E+00 0.9000E+01
       -2 -1    0    0    0  501 0.00000000E+00 0.00000000E+00 -.19124183E+04 0.19124183E+04 0.32000000E+00 0.0000E+00 0.9000E+01
       25  2    1    2    0    0 0.52795179E+02 -.59931987E+02 -.16343760E+04 0.16636097E+04 0.30005528E+03 0.0000E+00 0.0000E+00
       23  2    3    3    0    0 -.72236492E+02 -.11793293E+02 -.32725154E+03 0.34647651E+03 0.87150495E+02 0.0000E+00 0.0000E+00
      -24  1    1    2    0    0 0.91347649E+02 -.18873324E+03 -.86611762E+02 0.24069367E+03 0.80419002E+02 0.0000E+00 0.9000E+01
      -11  1    4    4    0    0 0.15382861E+02 -.16945027E+02 -.10618694E+03 0.10862519E+03 0.51099893E-03 0.0000E+00 0.9000E+01
       11  1    4    4    0    0 -.87619353E+02 0.51517336E+01 -.22106460E+03 0.23785132E+03 0.51099893E-03 0.0000E+00 0.9000E+01
       23  1    3    3    0    0 0.12503167E+03 -.48138694E+02 -.13071244E+04 0.13171332E+04 0.91188000E+02 0.0000E+00 0.9000E+01
       21  1    1    2  502  501 -.14414283E+03 0.24866523E+03 0.10722770E+03 0.30677336E+03 0.75000000E+00 0.0000E+00 0.9000E+01
#aMCatNLO 2  0  0  1  2 0.28742225D+03 0.00000000D+00  -5  7  0 0.00000000D+00 0.00000000D+00 0.00000000D+00 0.00000000D+00 0.00000000D+00
  <mgrwgt>
 0.8064122248D-03    1    2    0
 0.381431816055312D+03 0.000000000000000D+00 0.000000000000000D+00 0.381431816055312D+03
 0.381431816055312D+03 0.000000000000000D+00 0.000000000000000D+00 -.381431816055312D+03
 0.326660588323631D+03 0.268550337635010D+02 -.774750478965739D+02 0.305804427902140D+03
 0.231731187467368D+02 0.105649201580943D+02 -.863344832887118D+01 -.187307091284920D+02
 0.113260547293258D+03 -.106087008659006D+03 0.370108546964982D+02 -.142721687765722D+02
 0.299769377746998D+03 0.686670547374110D+02 0.490976415289469D+02 -.272801549997076D+03
 0.000000000000000D+00 -.000000000000000D+00 0.000000000000000D+00 0.000000000000000D+00
 0.132814720284642D+04 0.000000000000000D+00 0.000000000000000D+00 0.132814720284642D+04
 0.430042180112262D+03 0.000000000000000D+00 0.000000000000000D+00 -.430042180112262D+03
 0.379405053328153D+03 0.913476487012227D+02 -.188733244259646D+03 0.305804427902140D+03
 0.295737350310564D+02 0.153828610536593D+02 -.169450265575115D+02 -.187307091284920D+02
 0.889234852376302D+02 -.876193532635876D+02 0.515173358110891D+01 -.142721687765722D+02
 0.317310872230890D+03 0.125031670999427D+03 -.481386939811620D+02 -.272801549997076D+03
 0.942976237130948D+03 -.144142827490721D+03 0.248665231217210D+03 0.898105022734153D+03
0.209722343379D-02 0.000000000000D+00 0.000000000000D+00 0.115466141937D-05 0.157025086557D-09  7 1 -2 -24 -11 11 23 21 2 0.45947421D-01 0.29421812D+00 0.15394464D+06 0.15394464D+06 0.15394464D+06 0.11066634D+01  1  2  1  1  7  1        1 0.806412224752D-03 0.100000000000D+01
  </mgrwgt>
  </event>
  <event>
  8     66 0.29493621E-05 0.16212326E+03 0.75467711E-02 0.10026107E+00
        1 -1    0    0  501    0 0.00000000E+00 0.00000000E+00 0.97822708E+03 0.97822713E+03 0.32000000E+00 0.0000E+00 0.9000E+01
       -2 -1    0    0    0  501 0.00000000E+00 0.00000000E+00 -.11351936E+03 0.11351981E+03 0.32000000E+00 0.0000E+00 0.9000E+01
       25  2    1    2    0    0 -.21922815E+03 0.11646474E+03 0.63403459E+03 0.74346211E+03 0.29851470E+03 0.0000E+00 0.0000E+00
       23  2    3    3    0    0 -.52483650E+02 0.12784249E+03 0.44702389E+03 0.47658866E+03 0.90598897E+02 0.0000E+00 0.0000E+00
      -24  1    1    2    0    0 0.21922815E+03 -.11646474E+03 0.23067313E+03 0.34828483E+03 0.80419002E+02 0.0000E+00 0.9000E+01
      -11  1    4    4    0    0 -.19877087E+02 0.92175031E+01 0.13024024E+02 0.25488941E+02 0.51099893E-03 0.0000E+00 0.9000E+01
       11  1    4    4    0    0 -.32606563E+02 0.11862499E+03 0.43399987E+03 0.45109972E+03 0.51099893E-03 0.0000E+00 0.9000E+01
       23  1    3    3    0    0 -.16674450E+03 -.11377749E+02 0.18701070E+03 0.26687345E+03 0.91188000E+02 0.0000E+00 0.9000E+01
#aMCatNLO 1  0  0  2  1 0.28695099D+02 0.00000000D+00  -5  7  0 0.00000000D+00 0.00000000D+00 0.00000000D+00 0.00000000D+00 0.00000000D+00
  <mgrwgt>
 0.1099287736D-02    9    2    0
 0.333238634767375D+03 0.000000000000000D+00 0.000000000000000D+00 0.333238634767375D+03
 0.333238634767375D+03 0.000000000000000D+00 0.000000000000000D+00 -.333238634767375D+03
 0.271238163326340D+03 0.219228151293298D+03 -.116464742228320D+03 -.740128825846530D+02
 0.248553110372229D+02 -.198770866041305D+02 0.921750307451017D+01 -.117356530265847D+02
 0.175855524010386D+03 -.326065634399291D+02 0.118624988281852D+03 0.125658622866622D+03
 0.194528271160801D+03 -.166744501249238D+03 -.113777491280412D+02 -.399100872553839D+02
 0.000000000000000D+00 0.000000000000000D+00 0.000000000000000D+00 -.000000000000000D+00
 0.336171593365888D+03 0.000000000000000D+00 0.000000000000000D+00 0.336171593365888D+03
 0.411990078846282D+03 0.000000000000000D+00 0.000000000000000D+00 -.411990078846282D+03
 0.262584666699511D+03 0.207796395931863D+03 -.117585042758683D+03 -.740128825846530D+02
 0.256913569457534D+02 -.209595377662306D+02 0.911142394906954D+01 -.117356530265847D+02
 0.176917488549365D+03 -.401611574941100D+02 0.117884645660969D+03 0.125658622866622D+03
 0.201901203364517D+03 -.175233993485109D+03 -.122097108306542D+02 -.399100872553839D+02
 0.810669566530239D+02 0.285582928135868D+02 0.279868397929854D+01 -.758184854803940D+02
0.232768006904D-04 0.000000000000D+00 0.000000000000D+00 0.536207689491D-06 0.000000000000D+00  7 1 -2 -24 -11 11 23 21 0 0.15049651D+00 0.17464556D-01 0.88884505D+05 0.88884505D+05 0.88884505D+05 0.11259458D+01  1  2  2  2  7  2       -2 0.101821607286D-02 0.100000000000D+01
-.127367426428D-05 0.000000000000D+00 -.893890435734D-07 0.536207689491D-06 0.000000000000D+00  7 1 -2 -24 -11 11 23 21 2 0.15049651D+00 0.17464556D-01 0.88884505D+05 0.88884505D+05 0.88884505D+05 0.11259458D+01  1  2  3  2  7  2       -2 -.706333829282D-04 0.100000000000D+01
0.150024727854D-05 0.000000000000D+00 0.000000000000D+00 0.536207689491D-06 0.000000000000D+00  7 1 -2 -24 -11 11 23 21 2 0.15049651D+00 0.17464556D-01 0.88884505D+05 0.88884505D+05 0.88884505D+05 0.11259458D+01  1  2 15  2  7  2       -2 0.831983054727D-04 0.100000000000D+01
0.202569938670D-03 0.000000000000D+00 0.000000000000D+00 0.536207689491D-06 0.000000000000D+00  7 1 -2 -24 -11 11 23 21 2 0.15049651D+00 0.21656505D-01 0.97951114D+05 0.97951114D+05 0.97951114D+05 0.11224606D+01  1  2 12  2  7  2       -2 0.782315105156D-02 0.100000000000D+01
-.201172852246D-03 0.000000000000D+00 0.000000000000D+00 0.536207689491D-06 0.000000000000D+00  7 1 -2 -24 -11 11 23 21 2 0.15049651D+00 0.17464556D-01 0.88884505D+05 0.88884505D+05 0.88884505D+05 0.11259458D+01  1  2  4  2  7  2       -2 -.111563211301D-01 0.100000000000D+01
-.232542172383D-03 0.000000000000D+00 -.157151681652D-04 0.536207689491D-06 0.000000000000D+00  7 1 -2 -24 -11 11 23 21 2 0.15049651D+00 0.21722218D-01 0.88884505D+05 0.88884505D+05 0.88884505D+05 0.11259458D+01  1  2  5  2  7  2       -2 -.900630453126D-02 0.100000000000D+01
0.230822542009D-03 0.000000000000D+00 0.153484641613D-04 0.536207689491D-06 0.000000000000D+00  7 1 -2 -24 -11 11 23 21 2 0.15049651D+00 0.17464556D-01 0.88884505D+05 0.88884505D+05 0.88884505D+05 0.11259458D+01  1  2  6  2  7  2       -2 0.128005860332D-01 0.100000000000D+01
0.612810587386D-05 0.000000000000D+00 0.000000000000D+00 0.536207689491D-06 0.000000000000D+00  7 1 21 -24 -11 11 23 2 2 0.15049651D+00 0.21656505D-01 0.97951114D+05 0.97951114D+05 0.97951114D+05 0.11224606D+01  1  2 12  4  7  2       -2 0.299262584331D-02 0.100000000000D+01
-.689965124336D-05 0.000000000000D+00 -.480463163935D-06 0.536207689491D-06 0.000000000000D+00  7 1 21 -24 -11 11 23 2 2 0.15049651D+00 0.21722218D-01 0.88884505D+05 0.88884505D+05 0.88884505D+05 0.11259458D+01  1  2  5  4  7  2       -2 -.338523052645D-02 0.100000000000D+01
  </mgrwgt>
  </event>
  <event>
  9     66 0.29493621E-05 0.19430341E+03 0.75467711E-02 0.10602728E+00
        3 -1    0    0  502    0 0.00000000E+00 0.00000000E+00 0.34078592E+03 0.34078629E+03 0.50000000E+00 0.0000E+00 0.9000E+01
       -4 -1    0    0    0  501 0.00000000E+00 0.00000000E+00 -.16707996E+03 0.16708715E+03 0.15500000E+01 0.0000E+00 0.9000E+01
       25  2    1    2    0    0 -.64830052E+02 -.10299653E+03 0.13967193E+03 0.35268822E+03 0.30011583E+03 0.0000E+00 0.0000E+00
       23  2    3    3    0    0 0.54102806E+02 -.91404508E+02 -.10339108E+02 0.14032541E+03 0.91117653E+02 0.0000E+00 0.0000E+00
      -24  1    1    2    0    0 0.49281892E+02 0.91643074E+02 0.34333883E+02 0.13591611E+03 0.80419002E+02 0.0000E+00 0.9000E+01
      -11  1    4    4    0    0 0.32275297E+02 -.68586851E+02 0.36266210E+02 0.84030286E+02 0.51099893E-03 0.0000E+00 0.9000E+01
       11  1    4    4    0    0 0.21827509E+02 -.22817657E+02 -.46605318E+02 0.56295126E+02 0.51099893E-03 0.0000E+00 0.9000E+01
       23  1    3    3    0    0 -.11893286E+03 -.11592019E+02 0.15001104E+03 0.21236281E+03 0.91188000E+02 0.0000E+00 0.9000E+01
       21  1    1    2  502  501 0.15548160E+02 0.11353452E+02 -.29985496E+00 0.19269109E+02 0.75000000E+00 0.0000E+00 0.9000E+01
#aMCatNLO 2  0  0  1  1 0.19252173D+02 0.00000000D+00  -5  7  0 0.00000000D+00 0.00000000D+00 0.00000000D+00 0.00000000D+00 0.00000000D+00
  <mgrwgt>
 0.9939325583D-04    2    2    0
 0.228081961347037D+03 0.000000000000000D+00 0.000000000000000D+00 0.228081961347037D+03
 0.228081961347037D+03 0.000000000000000D+00 0.000000000000000D+00 -.228081961347037D+03
 0.136445717445086D+03 0.538610429200217D+02 0.949868251522777D+02 -.150568575005486D+02
 0.755652795384461D+02 0.348589483509335D+02 -.667002382462655D+02 0.678552941795025D+01
 0.782524780277904D+02 0.244893431021241D+02 -.208739530913464D+02 -.713302213248812D+02
 0.165900447682752D+03 -.113209334373079D+03 -.741263381466572D+01 0.796015494074795D+02
 0.000000000000000D+00 0.000000000000000D+00 0.000000000000000D+00 -.000000000000000D+00
 0.234813648626357D+03 0.000000000000000D+00 0.000000000000000D+00 0.234813648626357D+03
 0.242478075391993D+03 0.000000000000000D+00 0.000000000000000D+00 -.242478075391993D+03
 0.132367227136623D+03 0.492818917370372D+02 0.916430742309262D+02 -.150568575005486D+02
 0.761044963876168D+02 0.322752973480567D+02 -.685868510869645D+02 0.678552941795025D+01
 0.780069615554576D+02 0.218275084991307D+02 -.228176565312585D+02 -.713302213248812D+02
 0.170091321076172D+03 -.118932857500954D+03 -.115920188070900D+02 0.796015494074795D+02
 0.207217178624797D+02 0.155481599167293D+02 0.113534521943869D+02 -.766442676563578D+01
-.107774177738D-06 0.000000000000D+00 0.000000000000D+00 0.106602422707D-05 0.000000000000D+00  7 3 -4 -24 -11 11 23 21 2 0.50924677D-01 0.24178362D-01 0.37753816D+05 0.37753816D+05 0.37753816D+05 0.11581844D+01  1  2  8  1  7  1        3 -.297781039669D-05 0.100000000000D+01
0.442525464427D-05 0.000000000000D+00 0.000000000000D+00 0.106602422707D-05 0.205029924179D-07  7 3 -4 -24 -11 11 23 21 2 0.52427685D-01 0.25704456D-01 0.41708560D+05 0.41708560D+05 0.41708560D+05 0.11542868D+01  1  2  1  1  7  1        3 0.102371066228D-03 0.100000000000D+01
  </mgrwgt>
  </event>
  <event>
  9     66 0.29493621E-05 0.19897534E+03 0.75467711E-02 0.99890445E-01
        1 -1    0    0  501    0 0.00000000E+00 0.00000000E+00 0.11948919E+04 0.11948920E+04 0.32000000E+00 0.0000E+00 0.9000E+01
       21 -1    0    0  502  501 0.00000000E+00 0.00000000E+00 -.17451117E+03 0.17451278E+03 0.75000000E+00 0.0000E+00 0.9000E+01
       25  2    1    2    0    0 -.51493088E+02 -.23948993E+03 0.42343987E+03 0.57473540E+03 0.30168277E+03 0.0000E+00 0.0000E+00
       23  2    3    3    0    0 -.59821673E+02 0.65522088E+01 0.20981668E+03 0.23627385E+03 0.90447391E+02 0.0000E+00 0.0000E+00
      -24  1    1    2    0    0 0.20969566E+02 0.30015184E+02 -.58446695E+02 0.10594275E+03 0.80419002E+02 0.0000E+00 0.9000E+01
      -11  1    4    4    0    0 -.53038696E+02 0.27586329E+02 0.59519415E+02 0.84360356E+02 0.51099893E-03 0.0000E+00 0.9000E+01
       11  1    4    4    0    0 -.67829771E+01 -.21034120E+02 0.15029726E+03 0.15191350E+03 0.51099893E-03 0.0000E+00 0.9000E+01
       23  1    3    3    0    0 0.83285852E+01 -.24604214E+03 0.21362319E+03 0.33846154E+03 0.91188000E+02 0.0000E+00 0.9000E+01
        2  1    1    2  502    0 0.30523522E+02 0.20947475E+03 0.65538760E+03 0.68872663E+03 0.32000000E+00 0.0000E+00 0.9000E+01
#aMCatNLO 2  0  0  2  1 0.21168693D+03 0.00000000D+00  -5  7  0 0.00000000D+00 0.00000000D+00 0.00000000D+00 0.00000000D+00 0.00000000D+00
  <mgrwgt>
 0.1010684273D-03    1    2    0
 0.267063367450524D+03 0.000000000000000D+00 0.000000000000000D+00 0.267063367450524D+03
 0.267063367450524D+03 0.000000000000000D+00 0.000000000000000D+00 -.267063367450524D+03
 0.187919907875660D+03 0.306211098937520D+02 0.962511401558251D+02 -.136545748631015D+03
 0.746223309945259D+02 -.492736117218075D+02 0.534250930202378D+02 0.169222606859743D+02
 0.822530727145399D+02 -.219211306138494D+01 0.104717485517802D+02 0.815543076334891D+02
 0.189331423316321D+03 0.208446148894404D+02 -.160147981727843D+03 0.380691803115518D+02
 0.000000000000000D+00 0.000000000000000D+00 0.000000000000000D+00 0.000000000000000D+00
 0.656535496838855D+03 0.000000000000000D+00 0.000000000000000D+00 0.656535496838855D+03
 0.317611234298659D+03 0.000000000000000D+00 0.000000000000000D+00 -.317611234298659D+03
 0.162642526382319D+03 0.209695663073038D+02 0.300151837131133D+02 -.136545748631015D+03
 0.621326945886655D+02 -.530386959438970D+02 0.275863292718541D+02 0.169222606859743D+02
 0.844958466317101D+02 -.678297707244191D+01 -.210341205299013D+02 0.815543076334891D+02
 0.265274599494312D+03 0.832858517534430D+01 -.246042138610952D+03 0.380691803115518D+02
 0.399601064040508D+03 0.305235215336909D+02 0.209474746155886D+03 0.338924262540195D+03
0.449544881853D-06 0.000000000000D+00 0.000000000000D+00 0.184275315243D-06 0.139681252882D-11  7 1 21 -24 -11 11 23 2 2 0.18382962D+00 0.26847995D-01 0.10383292D+06 0.10383292D+06 0.10383292D+06 0.11203840D+01  1  2  1  4  7  2       -2 0.101068427315D-03 0.100000000000D+01
  </mgrwgt>
  </event>
  <event>
  8     66 0.29493621E-05 0.31404017E+03 0.75467711E-02 0.96401760E-01
        1 -1    0    0  501    0 0.00000000E+00 0.00000000E+00 0.14750158E+04 0.14750158E+04 0.32000000E+00 0.0000E+00 0.9000E+01
       -2 -1    0    0    0  501 0.00000000E+00 0.00000000E+00 -.76820174E+02 0.76820841E+02 0.32000000E+00 0.0000E+00 0.9000E+01
       25  2    1    2    0    0 0.22726363E+03 0.70958242E+02 0.10824267E+04 0.11482762E+04 0.30034451E+03 0.0000E+00 0.0000E+00
       23  2    3    3    0    0 0.46920817E+02 -.80771510E+02 0.39951347E+03 0.42010645E+03 0.90292938E+02 0.0000E+00 0.0000E+00
      -24  1    1    2    0    0 -.22726363E+03 -.70958242E+02 0.31576891E+03 0.40356047E+03 0.80419002E+02 0.0000E+00 0.9000E+01
      -13  1    4    4    0    0 0.26241760E+02 0.12122734E+02 0.15602789E+03 0.15868303E+03 0.10565837E+00 0.0000E+00 0.9000E+01
       13  1    4    4    0    0 0.20679057E+02 -.92894243E+02 0.24348558E+03 0.26142341E+03 0.10565837E+00 0.0000E+00 0.9000E+01
       23  1    3    3    0    0 0.18034282E+03 0.15172975E+03 0.68291325E+03 0.72816977E+03 0.91188000E+02 0.0000E+00 0.9000E+01
#aMCatNLO 1  0  0  2  1 0.20090448D+03 0.00000000D+00  -5  7  0 0.00000000D+00 0.00000000D+00 0.00000000D+00 0.00000000D+00 0.00000000D+00
  <mgrwgt>
 0.1307477900D-02    7    2    0
 0.336617759235506D+03 0.000000000000000D+00 0.000000000000000D+00 0.336617759235506D+03
 0.336617759235506D+03 0.000000000000000D+00 0.000000000000000D+00 -.336617759235506D+03
 0.274425846459749D+03 -.227263633322061D+03 -.709582421168334D+02 -.110265579832165D+03
 0.417277195934475D+02 0.262417675154212D+02 0.121228774152220D+02 0.300933225701561D+02
 0.969141136052267D+02 0.206790496654897D+02 -.928943869847091D+02 0.183127056317222D+02
 0.260167838812589D+03 0.180342816141150D+03 0.151729751686320D+03 0.618595516302868D+02
 0.000000000000000D+00 0.000000000000000D+00 0.000000000000000D+00 -.000000000000000D+00
 0.437784985171351D+03 0.000000000000000D+00 0.000000000000000D+00 0.437784985171351D+03
 0.467943360644708D+03 0.000000000000000D+00 0.000000000000000D+00 -.467943360644708D+03
 0.355427739293250D+03 -.306115857808265D+03 -.118305728548226D+03 -.110265579832165D+03
 0.349701120663607D+02 0.166398619671437D+02 0.635733185674352D+01 0.300933225701561D+02
 0.110117272729525D+03 -.523949032573871D+01 -.108457393970909D+03 0.183127056317222D+02
 0.202057770981159D+03 0.122476165269971D+03 0.116983230775770D+03 0.618595516302868D+02
 0.203155450745765D+03 0.172239320896888D+03 0.103422559886621D+03 -.301583754733574D+02
0.341909135782D-04 0.000000000000D+00 0.000000000000D+00 0.284172178976D-05 0.000000000000D+00  7 1 -2 -24 -13 13 23 21 0 0.22692556D+00 0.11818542D-01 0.98621229D+05 0.98621229D+05 0.98621229D+05 0.11222172D+01  1  2  2  2  7  2       -2 0.124895317289D-02 0.100000000000D+01
-.188836307182D-05 0.000000000000D+00 -.131302110815D-06 0.284172178976D-05 0.000000000000D+00  7 1 -2 -24 -13 13 23 21 2 0.22692556D+00 0.11818542D-01 0.98621229D+05 0.98621229D+05 0.98621229D+05 0.11222172D+01  1  2  3  2  7  2       -2 -.868709905372D-04 0.100000000000D+01
0.221991014813D-05 0.000000000000D+00 0.000000000000D+00 0.284172178976D-05 0.000000000000D+00  7 1 -2 -24 -13 13 23 21 2 0.22692556D+00 0.11818542D-01 0.98621229D+05 0.98621229D+05 0.98621229D+05 0.11222172D+01  1  2 15  2  7  2       -2 0.102123260272D-03 0.100000000000D+01
-.114643245586D-04 0.000000000000D+00 0.000000000000D+00 0.284172178976D-05 0.000000000000D+00  7 1 -2 -24 -13 13 23 21 2 0.22692556D+00 0.11818542D-01 0.98621229D+05 0.98621229D+05 0.98621229D+05 0.11222172D+01  1  2  4  2  7  2       -2 -.527397111875D-03 0.100000000000D+01
-.123129886802D-04 0.000000000000D+00 -.115444752384D-04 0.284172178976D-05 0.000000000000D+00  7 1 -2 -24 -13 13 23 21 2 0.22692556D+00 0.21916951D-01 0.98621229D+05 0.98621229D+05 0.98621229D+05 0.11222172D+01  1  2  5  2  7  2       -2 -.209116322041D-03 0.100000000000D+01
0.178314107306D-04 0.000000000000D+00 0.964572918076D-05 0.284172178976D-05 0.000000000000D+00  7 1 -2 -24 -13 13 23 21 2 0.22692556D+00 0.11818542D-01 0.98621229D+05 0.98621229D+05 0.98621229D+05 0.11222172D+01  1  2  6  2  7  2       -2 0.820304281503D-03 0.100000000000D+01
-.189138418835D-06 0.000000000000D+00 -.777431806219D-06 0.284172178976D-05 0.000000000000D+00  7 1 21 -24 -13 13 23 2 2 0.22692556D+00 0.21916951D-01 0.98621229D+05 0.98621229D+05 0.98621229D+05 0.11222172D+01  1  2  5  4  7  2       -2 -.405183900198D-04 0.100000000000D+01
  </mgrwgt>
  </event>
  <event>
  8     66 0.29493621E-05 0.24850969E+03 0.75467711E-02 0.10248169E+00
        3 -1    0    0  501    0 0.00000000E+00 0.00000000E+00 0.58828044E+02 0.58830169E+02 0.50000000E+00 0.0000E+00 0.9000E+01
       -4 -1    0    0    0  501 0.00000000E+00 0.00000000E+00 -.11376023E+04 0.11376033E+04 0.15500000E+01 0.0000E+00 0.9000E+01
       25  2    1    2    0    0 -.13701619E+03 -.75642609E+02 -.64082820E+03 0.72445979E+03 0.29947615E+03 0.0000E+00 0.0000E+00
       23  2    3    3    0    0 0.39937257E+02 -.72405695E+02 -.35716465E+03 0.37790062E+03 0.91677263E+02 0.0000E+00 0.0000E+00
      -24  1    1    2    0    0 0.13701619E+03 0.75642609E+02 -.43794604E+03 0.47197372E+03 0.80419002E+02 0.0000E+00 0.9000E+01
      -11  1    4    4    0    0 0.68595420E+02 -.58296692E+02 -.28744679E+03 0.30121337E+03 0.51099893E-03 0.0000E+00 0.9000E+01
       11  1    4    4    0    0 -.28658163E+02 -.14109003E+02 -.69717864E+02 0.76687254E+02 0.51099893E-03 0.0000E+00 0.9000E+01
       23  1    3    3    0    0 -.17695344E+03 -.32369143E+01 -.28366355E+03 0.34655917E+03 0.91188000E+02 0.0000E+00 0.9000E+01
#aMCatNLO 1  0  0  2  1 0.30214982D+02 0.00000000D+00  -5  7  0 0.00000000D+00 0.00000000D+00 0.00000000D+00 0.00000000D+00 0.00000000D+00
  <mgrwgt>
 0.2078361398D-03    4    2    0
 0.258698317972139D+03 0.000000000000000D+00 0.000000000000000D+00 0.258698317972139D+03
 0.258698317972139D+03 0.000000000000000D+00 0.000000000000000D+00 -.258698317972139D+03
 0.178277665297893D+03 0.137016188227545D+03 0.756426094415403D+02 -.286438438441081D+02
 0.972012004611985D+02 0.685954201310197D+02 -.582966924820862D+02 -.366638425945245D+02
 0.319703741092187D+02 -.286581634697209D+02 -.141090026977526D+02 -.132307599969364D+01
 0.209947396075968D+03 -.176953444888844D+03 -.323691426170157D+01 0.666307624383262D+02
 0.000000000000000D+00 0.000000000000000D+00 -.000000000000000D+00 0.000000000000000D+00
 0.308748179363295D+03 0.000000000000000D+00 0.000000000000000D+00 0.308748179363295D+03
 0.263739759555667D+03 0.000000000000000D+00 0.000000000000000D+00 -.263739759555667D+03
 0.179189572927907D+03 0.132594517740861D+03 0.850876675354198D+02 -.286438438441081D+02
 0.925851102229778D+02 0.662478692536472D+02 -.532821274026905D+02 -.366638425945245D+02
 0.319882016618791D+02 -.294492954018696D+02 -.124190787014779D+02 -.132307599969364D+01
 0.214515249012303D+03 -.182203811215565D+03 0.797830747844585D+01 0.666307624383262D+02
 0.542098050938943D+02 0.128107196229265D+02 -.273647689096972D+02 0.450084198076277D+02
0.759583747814D-04 0.000000000000D+00 0.000000000000D+00 0.116993239266D-05 0.000000000000D+00  7 3 -4 -24 -11 11 23 21 0 0.90507130D-02 0.17501598D+00 0.61757067D+05 0.61757067D+05 0.61757067D+05 0.11393144D+01  1  2  2  2  7  2       -4 0.251798320647D-03 0.100000000000D+01
-.421162608408D-05 0.000000000000D+00 -.291700159460D-06 0.116993239266D-05 0.000000000000D+00  7 3 -4 -24 -11 11 23 21 2 0.90507130D-02 0.17501598D+00 0.61757067D+05 0.61757067D+05 0.61757067D+05 0.11393144D+01  1  2  3  2  7  2       -4 -.181223334711D-04 0.100000000000D+01
0.492179787633D-05 0.000000000000D+00 0.000000000000D+00 0.116993239266D-05 0.000000000000D+00  7 3 -4 -24 -11 11 23 21 2 0.90507130D-02 0.17501598D+00 0.61757067D+05 0.61757067D+05 0.61757067D+05 0.11393144D+01  1  2 15  2  7  2       -4 0.211781531911D-04 0.100000000000D+01
-.109269724009D-04 0.000000000000D+00 0.000000000000D+00 0.116993239266D-05 0.000000000000D+00  7 3 -4 -24 -11 11 23 21 2 0.90507130D-02 0.17501598D+00 0.61757067D+05 0.61757067D+05 0.61757067D+05 0.11393144D+01  1  2  4  2  7  2       -4 -.470180005834D-04 0.100000000000D+01
  </mgrwgt>
  </event>
  <event>
  8     66 0.29493621E-05 0.16313246E+03 0.75467711E-02 0.99371286E-01
        1 -1    0    0  501    0 0.00000000E+00 0.00000000E+00 0.21902131E+04 0.21902131E+04 0.32000000E+00 0.0000E+00 0.9000E+01
       -2 -1    0    0    0  501 0.00000000E+00 0.00000000E+00 -.68859665E+02 0.68860409E+02 0.32000000E+00 0.0000E+00 0.9000E+01
       25  2    1    2    0    0 -.20654556E+03 -.48309118E+02 0.50125931E+03 0.62317408E+03 0.30346366E+03 0.0000E+00 0.0000E+00
       23  2    3    3    0    0 -.19968415E+03 0.50223231E+01 0.45723171E+03 0.50852242E+03 0.98159198E+02 0.0000E+00 0.0000E+00
      -24  1    1    2    0    0 0.20654556E+03 0.48309118E+02 0.16200941E+04 0.16358994E+04 0.80419002E+02 0.0000E+00 0.9000E+01
      -13  1    4    4    0    0 -.17912975E+03 0.35919607E+02 0.34612918E+03 0.39138613E+03 0.10565837E+00 0.0000E+00 0.9000E+01
       13  1    4    4    0    0 -.20554403E+02 -.30897284E+02 0.11110253E+03 0.11713629E+03 0.10565837E+00 0.0000E+00 0.9000E+01
       23  1    3    3    0    0 -.68614064E+01 -.53331441E+02 0.44027596E+02 0.11465166E+03 0.91188000E+02 0.0000E+00 0.9000E+01
#aMCatNLO 1  0  0  2  1 0.11301127D+03 0.00000000D+00  -5  7  0 0.00000000D+00 0.00000000D+00 0.00000000D+00 0.00000000D+00 0.00000000D+00
  <mgrwgt>
 0.1461188037D-02    9    2    0
 0.388353197685575D+03 0.000000000000000D+00 0.000000000000000D+00 0.388353197685575D+03
 0.388353197685575D+03 0.000000000000000D+00 0.000000000000000D+00 -.388353197685575D+03
 0.333233932697620D+03 0.206545561439706D+03 0.483091186393400D+02 0.244095878811172D+03
 0.193004545771234D+03 -.179129928169107D+03 0.359196788297822D+02 -.622334330987449D+02
 0.372490833464182D+02 -.205542205565122D+02 -.308973556596640D+02 0.322050317541905D+01
 0.213218833555879D+03 -.686141271408594D+01 -.533314418094582D+02 -.185082948887846D+03
 0.000000000000000D+00 0.000000000000000D+00 0.000000000000000D+00 -.000000000000000D+00
 0.429860226470118D+03 0.000000000000000D+00 0.000000000000000D+00 0.429860226470118D+03
 0.477773263331310D+03 0.000000000000000D+00 0.000000000000000D+00 -.477773263331310D+03
 0.312546893282362D+03 0.177477674150046D+03 0.117141654323984D+02 0.244095878811172D+03
 0.207155326760174D+03 -.197141924816633D+03 0.132435149960846D+02 -.622334330987449D+02
 0.430216274737426D+02 -.241673658852552D+02 -.354461170786703D+02 0.322050317541905D+01
 0.222161094108129D+03 -.264587345241796D+02 -.780034472935602D+02 -.185082948887846D+03
 0.122748548177019D+03 0.702903510760223D+02 0.884918839437475D+02 -.479130368611918D+02
0.836280494461D-04 0.000000000000D+00 0.000000000000D+00 0.736178126480D-08 0.000000000000D+00  7 1 -2 -24 -13 13 23 21 0 0.33695592D+00 0.10593854D-01 0.76319311D+05 0.76319311D+05 0.76319311D+05 0.11314824D+01  1  2  2  2  7  2       -2 0.123887371520D-02 0.100000000000D+01
-.399078531966D-05 0.000000000000D+00 -.321153729644D-06 0.736178126480D-08 0.000000000000D+00  7 1 -2 -24 -13 13 23 21 2 0.33695592D+00 0.10593854D-01 0.76319311D+05 0.76319311D+05 0.76319311D+05 0.11314824D+01  1  2  3  2  7  2       -2 -.756883511451D-04 0.100000000000D+01
0.497029749962D-05 0.000000000000D+00 0.000000000000D+00 0.736178126480D-08 0.000000000000D+00  7 1 -2 -24 -13 13 23 21 2 0.33695592D+00 0.10593854D-01 0.76319311D+05 0.76319311D+05 0.76319311D+05 0.11314824D+01  1  2 15  2  7  2       -2 0.942655623679D-04 0.100000000000D+01
0.542207980699D-04 0.000000000000D+00 0.000000000000D+00 0.736178126480D-08 0.000000000000D+00  7 1 -2 -24 -13 13 23 21 2 0.33695592D+00 0.13497291D-01 0.11275465D+06 0.11275465D+06 0.11275465D+06 0.11174688D+01  1  2 12  2  7  2       -2 0.677182118156D-03 0.100000000000D+01
-.658873860687D-04 0.000000000000D+00 0.000000000000D+00 0.736178126480D-08 0.000000000000D+00  7 1 -2 -24 -13 13 23 21 2 0.33695592D+00 0.10593854D-01 0.76319311D+05 0.76319311D+05 0.76319311D+05 0.11314824D+01  1  2  4  2  7  2       -2 -.124960558220D-02 0.100000000000D+01
-.951614087430D-04 0.000000000000D+00 -.410218051860D-04 0.736178126480D-08 0.000000000000D+00  7 1 -2 -24 -13 13 23 21 2 0.33695592D+00 0.14708250D-01 0.76319311D+05 0.76319311D+05 0.76319311D+05 0.11314824D+01  1  2  5  2  7  2       -2 -.107912425199D-02 0.100000000000D+01
0.105030271441D-03 0.000000000000D+00 0.389082716378D-04 0.736178126480D-08 0.000000000000D+00  7 1 -2 -24 -13 13 23 21 2 0.33695592D+00 0.10593854D-01 0.76319311D+05 0.76319311D+05 0.76319311D+05 0.11314824D+01  1  2  6  2  7  2       -2 0.199198088320D-02 0.100000000000D+01
0.179257630578D-05 0.000000000000D+00 0.000000000000D+00 0.736178126480D-08 0.000000000000D+00  7 1 21 -24 -13 13 23 2 2 0.33695592D+00 0.13497291D-01 0.11275465D+06 0.11275465D+06 0.11275465D+06 0.11174688D+01  1  2 12  4  7  2       -2 0.308524075717D-03 0.100000000000D+01
-.286953022925D-05 0.000000000000D+00 -.169158808129D-05 0.736178126480D-08 0.000000000000D+00  7 1 21 -24 -13 13 23 2 2 0.33695592D+00 0.14708250D-01 0.76319311D+05 0.76319311D+05 0.76319311D+05 0.11314824D+01  1  2  5  4  7  2       -2 -.445220132457D-03 0.100000000000D+01
  </mgrwgt>
  </event>
  <event>
  8     66 0.29493621E-05 0.15977758E+03 0.75467711E-02 0.81288203E-01
        1 -1    0    0  501    0 0.00000000E+00 0.00000000E+00 0.38403353E+03 0.38403366E+03 0.32000000E+00 0.0000E+00 0.9000E+01
       -2 -1    0    0    0  501 0.00000000E+00 0.00000000E+00 -.30242732E+03 0.30242749E+03 0.32000000E+00 0.0000E+00 0.9000E+01
       25  2    1    2    0    0 0.91425105E+02 -.18442781E+02 0.30083494E+03 0.43501108E+03 0.30005715E+03 0.0000E+00 0.0000E+00
       23  2    3    3    0    0 0.26765838E+02 -.57310600E+02 0.30156758E+03 0.31665857E+03 0.72998170E+02 0.0000E+00 0.0000E+00
      -24  1    1    2    0    0 -.91425105E+02 0.18442781E+02 -.21922873E+03 0.25145007E+03 0.80419002E+02 0.0000E+00 0.9000E+01
      -13  1    4    4    0    0 0.35370933E+02 -.59460019E+02 0.29971556E+03 0.30759718E+03 0.10565837E+00 0.0000E+00 0.9000E+01
       13  1    4    4    0    0 -.86050957E+01 0.21494188E+01 0.18520148E+01 0.90613903E+01 0.10565837E+00 0.0000E+00 0.9000E+01
       23  1    3    3    0    0 0.64659267E+02 0.38867819E+02 -.73263273E+00 0.11835251E+03 0.91188000E+02 0.0000E+00 0.9000E+01
#aMCatNLO 1  0  0  2  1 0.19554764D+04 0.00000000D+00  -5  7  0 0.00000000D+00 0.00000000D+00 0.00000000D+00 0.00000000D+00 0.00000000D+00
  <mgrwgt>
 0.5051429612D-02    5    2    0
 0.340796617206594D+03 0.000000000000000D+00 0.000000000000000D+00 0.340796617206594D+03
 0.340796617206594D+03 0.000000000000000D+00 0.000000000000000D+00 -.340796617206594D+03
 0.279493870790572D+03 -.914251052898757D+02 0.184427811338257D+02 -.250900222801638D+03
 0.273910055984820D+03 0.353710250493037D+02 -.594601483440899D+02 0.265028489252509D+03
 0.890381180866126D+01 -.860518747712909D+01 0.214954765635630D+01 0.779780790074710D+00
 0.119285495829136D+03 0.646592677177011D+02 0.388678195539079D+02 -.149080472409464D+02
 0.000000000000000D+00 -.000000000000000D+00 0.000000000000000D+00 -.000000000000000D+00
 0.195256397296569D+04 0.000000000000000D+00 0.000000000000000D+00 0.195256397296569D+04
 0.207777609737308D+04 0.000000000000000D+00 0.000000000000000D+00 -.207777609737308D+04
 0.725502096371314D+03 0.106860892784372D+03 -.667469777350418D+03 -.250900222801638D+03
 0.102427209867321D+04 0.291502743612789D+03 -.945473099813623D+03 0.265028489252509D+03
 0.142715071603162D+02 -.403269027056814D+01 -.136676723595517D+02 0.779780790074710D+00
 0.306813338515563D+03 0.148728692279584D+03 -.251945826651946D+03 -.149080472409464D+02
 0.195948102961836D+04 -.543059638406177D+03 0.187855637617554D+04 -.125212124407393D+03
0.150625164006D-03 0.000000000000D+00 0.000000000000D+00 0.386812721897D-07 0.000000000000D+00  7 1 -2 -24 -13 13 23 21 0 0.59082105D-01 0.46527303D-01 0.25528874D+05 0.25528874D+05 0.25528874D+05 0.11738953D+01  1  2  2  2  7  2       -2 0.474946063805D-02 0.100000000000D+01
-.252991210792D-05 0.000000000000D+00 -.578440290300D-06 0.386812721897D-07 0.000000000000D+00  7 1 -2 -24 -13 13 23 21 2 0.59082105D-01 0.46527303D-01 0.25528874D+05 0.25528874D+05 0.25528874D+05 0.11738953D+01  1  2  3  2  7  2       -2 -.109928663270D-03 0.100000000000D+01
0.944647332338D-05 0.000000000000D+00 0.000000000000D+00 0.386812721897D-07 0.000000000000D+00  7 1 -2 -24 -13 13 23 21 2 0.59082105D-01 0.46527303D-01 0.25528874D+05 0.25528874D+05 0.25528874D+05 0.11738953D+01  1  2 15  2  7  2       -2 0.410464135020D-03 0.100000000000D+01
0.654463464418D-03 0.000000000000D+00 -.144328075664D-03 0.386812721897D-07 0.000000000000D+00  7 1 -2 -24 -13 13 23 21 2 0.59082105D-01 0.65730688D+00 0.25528874D+05 0.25528874D+05 0.25528874D+05 0.11738953D+01  1  2  5  2  7  2       -2 0.543392081259D-06 0.100000000000D+01
0.166310494143D-03 0.000000000000D+00 -.434583645179D-04 0.386812721897D-07 0.000000000000D+00  7 1 21 -24 -13 13 23 2 2 0.59082105D-01 0.65730688D+00 0.25528874D+05 0.25528874D+05 0.25528874D+05 0.11738953D+01  1  2  5  4  7  2       -2 0.890109942790D-06 0.100000000000D+01
  </mgrwgt>
  </event>
  <event>
  8     66 0.29493621E-05 0.20730975E+03 0.75467711E-02 0.10484848E+00
        1 -1    0    0  501    0 0.00000000E+00 0.00000000E+00 0.46917142E+03 0.46917153E+03 0.32000000E+00 0.0000E+00 0.9000E+01
       -2 -1    0    0    0  501 0.00000000E+00 0.00000000E+00 -.10886711E+03 0.10886758E+03 0.32000000E+00 0.0000E+00 0.9000E+01
       25  2    1    2    0    0 0.79651522E+02 -.57259600E+02 0.30685803E+03 0.44039192E+03 0.30026683E+03 0.0000E+00 0.0000E+00
       23  2    3    3    0    0 0.90316478E+02 -.12722007E+03 0.10966608E+03 0.21190095E+03 0.92376139E+02 0.0000E+00 0.0000E+00
      -24  1    1    2    0    0 -.79651522E+02 0.57259600E+02 0.53446281E+02 0.13764719E+03 0.80419002E+02 0.0000E+00 0.9000E+01
      -13  1    4    4    0    0 0.44963841E+02 -.91792299E+01 0.21888534E+01 0.45943526E+02 0.10565837E+00 0.0000E+00 0.9000E+01
       13  1    4    4    0    0 0.45352636E+02 -.11804084E+03 0.10747722E+03 0.16595742E+03 0.10565837E+00 0.0000E+00 0.9000E+01
       23  1    3    3    0    0 -.10664956E+02 0.69960467E+02 0.19719195E+03 0.22849097E+03 0.91188000E+02 0.0000E+00 0.9000E+01
#aMCatNLO 1  0  0  2  1 0.29201383D+02 0.00000000D+00  -5  7  0 0.00000000D+00 0.00000000D+00 0.00000000D+00 0.00000000D+00 0.00000000D+00
  <mgrwgt>
 0.8352388576D-03    4    2    0
 0.226003325560887D+03 0.000000000000000D+00 0.000000000000000D+00 0.226003325560887D+03
 0.226003325560887D+03 0.000000000000000D+00 0.000000000000000D+00 -.226003325560887D+03
 0.133423995250240D+03 -.796515273856543D+02 0.572596041665452D+02 -.413729195245927D+02
 0.570090258187542D+02 0.449638397712043D+02 -.917909042962982D+01 -.338234598572875D+02
 0.126558785661809D+03 0.453526397168509D+02 -.118040976774488D+03 0.515675295411962D+01
 0.135014844390972D+03 -.106649521024009D+02 0.699604630375731D+02 0.700396264277606D+02
 0.000000000000000D+00 0.000000000000000D+00 0.000000000000000D+00 0.000000000000000D+00
 0.291145390845344D+03 0.000000000000000D+00 0.000000000000000D+00 0.291145390845344D+03
 0.229770848879854D+03 0.000000000000000D+00 0.000000000000000D+00 -.229770848879854D+03
 0.132950767442359D+03 -.838058824776715D+02 0.497347584822916D+02 -.413729195245927D+02
 0.562430473686106D+02 0.431975713673525D+02 -.123783588796225D+02 -.338234598572875D+02
 0.132082564779731D+03 0.413188941759755D+02 -.125347360569884D+03 0.515675295411962D+01
 0.131672550658845D+03 -.148241829784903D+02 0.624267857725038D+02 0.700396264277606D+02
 0.679673094756526D+02 0.141135999128338D+02 0.255641751947112D+02 0.613745419654901D+02
0.649903060347D-05 0.000000000000D+00 0.000000000000D+00 0.523187172461D-06 0.000000000000D+00  7 1 -2 -24 -13 13 23 21 0 0.72180262D-01 0.16748831D-01 0.42977333D+05 0.42977333D+05 0.42977333D+05 0.11531223D+01  1  2  2  2  7  2       -2 0.913015407576D-03 0.100000000000D+01
-.357785069723D-06 0.000000000000D+00 -.249579887514D-07 0.523187172461D-06 0.000000000000D+00  7 1 -2 -24 -13 13 23 21 2 0.72180262D-01 0.16748831D-01 0.42977333D+05 0.42977333D+05 0.42977333D+05 0.11531223D+01  1  2  3  2  7  2       -2 -.668347719653D-04 0.100000000000D+01
0.429638403549D-06 0.000000000000D+00 0.000000000000D+00 0.523187172461D-06 0.000000000000D+00  7 1 -2 -24 -13 13 23 21 2 0.72180262D-01 0.16748831D-01 0.42977333D+05 0.42977333D+05 0.42977333D+05 0.11531223D+01  1  2 15  2  7  2       -2 0.802570793438D-04 0.100000000000D+01
-.488212775990D-06 0.000000000000D+00 0.000000000000D+00 0.523187172461D-06 0.000000000000D+00  7 1 -2 -24 -13 13 23 21 2 0.72180262D-01 0.16748831D-01 0.42977333D+05 0.42977333D+05 0.42977333D+05 0.11531223D+01  1  2  4  2  7  2       -2 -.911988574009D-04 0.100000000000D+01
  </mgrwgt>
  </event>
  <event>
  8     66 0.29493621E-05 0.64174514E+03 0.75467711E-02 0.88533291E-01
        1 -1    0    0  501    0 0.00000000E+00 0.00000000E+00 0.18988719E+04 0.18988719E+04 0.32000000E+00 0.0000E+00 0.9000E+01
       -2 -1    0    0    0  501 0.00000000E+00 0.00000000E+00 -.89375575E+03 0.89375581E+03 0.32000000E+00 0.0000E+00 0.9000E+01
       25  2    1    2    0    0 -.50464174E+03 -.69298956E+03 0.15337385E+04 0.17822780E+04 0.29876976E+03 0.0000E+00 0.0000E+00
       23  2    3    3    0    0 -.30984442E+02 -.96361164E+02 0.17468015E+03 0.22161422E+03 0.91401300E+02 0.0000E+00 0.0000E+00
      -24  1    1    2    0    0 0.50464174E+03 0.69298956E+03 -.52862231E+03 0.10103497E+04 0.80419002E+02 0.0000E+00 0.9000E+01
      -13  1    4    4    0    0 -.11684190E+02 -.79908146E+02 0.51344436E+02 0.95697933E+02 0.10565837E+00 0.0000E+00 0.9000E+01
       13  1    4    4    0    0 -.19300253E+02 -.16453018E+02 0.12333571E+03 0.12591629E+03 0.10565837E+00 0.0000E+00 0.9000E+01
       23  1    3    3    0    0 -.47365730E+03 -.59662840E+03 0.13590583E+04 0.15606638E+04 0.91188000E+02 0.0000E+00 0.9000E+01
#aMCatNLO 1  0  0  2  1 0.42522269D+02 0.00000000D+00  -5  7  0 0.00000000D+00 0.00000000D+00 0.00000000D+00 0.00000000D+00 0.00000000D+00
  <mgrwgt>
 0.1296718521D-02    9    2    0
 0.130273857081886D+04 0.000000000000000D+00 0.000000000000000D+00 0.130273857081886D+04
 0.130273857081886D+04 0.000000000000000D+00 0.000000000000000D+00 -.130273857081886D+04
 0.128684970508384D+04 0.504641741851549D+03 0.692989562956408D+03 -.956356170856086D+03
 0.827647112292624D+02 -.116841794378128D+02 -.799082309410928D+02 0.181149662873866D+02
 0.873815413328408D+02 -.193002627921520D+02 -.164529327942826D+02 0.836201807240552D+02
 0.114848118399177D+04 -.473657299621585D+03 -.596628399221033D+03 0.854621023844644D+03
 0.000000000000000D+00 -.000000000000000D+00 -.000000000000000D+00 -.000000000000000D+00
 0.132066536174826D+04 0.000000000000000D+00 0.000000000000000D+00 0.132066536174826D+04
 0.132837411653468D+04 0.000000000000000D+00 0.000000000000000D+00 -.132837411653468D+04
 0.130092575560251D+04 0.515104125527771D+03 0.711330598220935D+03 -.956356170856086D+03
 0.815484626896263D+02 -.110198608001590D+02 -.787436501020452D+02 0.181149662873866D+02
 0.870038672198051D+02 -.185952220807262D+02 -.152169643045610D+02 0.836201807240552D+02
 0.113634602193898D+04 -.464419736616030D+03 -.580434530396644D+03 0.854621023844644D+03
 0.432153708320206D+02 -.210693060308558D+02 -.369354534176857D+02 -.770875478642109D+01
0.371197945696D-02 0.000000000000D+00 0.000000000000D+00 0.192190515126D-04 0.000000000000D+00  7 1 -2 -24 -13 13 23 21 0 0.29213414D+00 0.13750089D+00 0.75200845D+06 0.75200845D+06 0.75200845D+06 0.10562041D+01  1  2  2  2  7  2       -2 0.514143920309D-03 0.100000000000D+01
-.164692729238D-03 0.000000000000D+00 -.142549785014D-04 0.192190515126D-04 0.000000000000D+00  7 1 -2 -24 -13 13 23 21 2 0.29213414D+00 0.13750089D+00 0.75200845D+06 0.75200845D+06 0.75200845D+06 0.10562041D+01  1  2  3  2  7  2       -2 -.254477444650D-04 0.100000000000D+01
0.234911897195D-03 0.000000000000D+00 0.000000000000D+00 0.192190515126D-04 0.000000000000D+00  7 1 -2 -24 -13 13 23 21 2 0.29213414D+00 0.13750089D+00 0.75200845D+06 0.75200845D+06 0.75200845D+06 0.10562041D+01  1  2 15  2  7  2       -2 0.362977646875D-04 0.100000000000D+01
0.403628988562D-02 0.000000000000D+00 0.000000000000D+00 0.192190515126D-04 0.000000000000D+00  7 1 -2 -24 -13 13 23 21 2 0.29213414D+00 0.14113691D+00 0.78936260D+06 0.78936260D+06 0.78936260D+06 0.10547711D+01  1  2 12  2  7  2       -2 0.577261781932D-03 0.100000000000D+01
-.346277781450D-02 0.000000000000D+00 0.000000000000D+00 0.192190515126D-04 0.000000000000D+00  7 1 -2 -24 -13 13 23 21 2 0.29213414D+00 0.13750089D+00 0.75200845D+06 0.75200845D+06 0.75200845D+06 0.10562041D+01  1  2  4  2  7  2       -2 -.535056315906D-03 0.100000000000D+01
-.939301639277D-01 0.000000000000D+00 -.140444767215D-01 0.192190515126D-04 0.000000000000D+00  7 1 -2 -24 -13 13 23 21 2 0.29213414D+00 0.14175349D+00 0.75200845D+06 0.75200845D+06 0.75200845D+06 0.10562041D+01  1  2  5  2  7  2       -2 -.133599607138D-01 0.100000000000D+01
0.943207024022D-01 0.000000000000D+00 0.140379642854D-01 0.192190515126D-04 0.000000000000D+00  7 1 -2 -24 -13 13 23 21 2 0.29213414D+00 0.13750089D+00 0.75200845D+06 0.75200845D+06 0.75200845D+06 0.10562041D+01  1  2  6  2  7  2       -2 0.145741050233D-01 0.100000000000D+01
0.100145949368D-03 0.000000000000D+00 0.000000000000D+00 0.192190515126D-04 0.000000000000D+00  7 1 21 -24 -13 13 23 2 2 0.29213414D+00 0.14113691D+00 0.78936260D+06 0.78936260D+06 0.78936260D+06 0.10547711D+01  1  2 12  4  7  2       -2 0.119712965870D-03 0.100000000000D+01
-.508055747299D-03 0.000000000000D+00 -.766677860119D-04 0.192190515126D-04 0.000000000000D+00  7 1 21 -24 -13 13 23 2 2 0.29213414D+00 0.14175349D+00 0.75200845D+06 0.75200845D+06 0.75200845D+06 0.10562041D+01  1  2  5  4  7  2       -2 -.604338160845D-03 0.100000000000D+01
  </mgrwgt>
  </event>
  <event>
  8     66 0.29493621E-05 0.95839173E+02 0.75467711E-02 0.10331257E+00
        3 -1    0    0  501    0 0.00000000E+00 0.00000000E+00 0.75083554E+03 0.75083571E+03 0.50000000E+00 0.0000E+00 0.9000E+01
       -4 -1    0    0    0  501 0.00000000E+00 0.00000000E+00 -.89056159E+02 0.89069646E+02 0.15500000E+01 0.0000E+00 0.9000E+01
       25  2    1    2    0    0 -.95772442E+02 -.42712319E+01 0.63978127E+03 0.71285522E+03 0.29941924E+03 0.0000E+00 0.0000E+00
       23  2    3    3    0    0 -.14525416E+02 -.98276917E+02 0.44223999E+03 0.46230391E+03 0.90990976E+02 0.0000E+00 0.0000E+00
      -24  1    1    2    0    0 0.95772442E+02 0.42712319E+01 0.21998110E+02 0.12705014E+03 0.80419002E+02 0.0000E+00 0.9000E+01
      -11  1    4    4    0    0 -.61745966E+01 -.10444065E+03 0.43919906E+03 0.45148841E+03 0.51099893E-03 0.0000E+00 0.9000E+01
       11  1    4    4    0    0 -.83508193E+01 0.61637302E+01 0.30409326E+01 0.10815499E+02 0.51099893E-03 0.0000E+00 0.9000E+01
       23  1    3    3    0    0 -.81247026E+02 0.94005685E+02 0.19754128E+03 0.25055131E+03 0.91188000E+02 0.0000E+00 0.9000E+01
#aMCatNLO 1  0  0  2  1 0.10018882D+03 0.00000000D+00  -5  7  0 0.00000000D+00 0.00000000D+00 0.00000000D+00 0.00000000D+00 0.00000000D+00
  <mgrwgt>
 0.1224043777D-03    9    2    0
 0.258596718830682D+03 0.000000000000000D+00 0.000000000000000D+00 0.258596718830682D+03
 0.258596718830682D+03 0.000000000000000D+00 0.000000000000000D+00 -.258596718830682D+03
 0.178177420490430D+03 0.957724418795883D+02 0.427123187624648D+01 -.126843892927224D+03
 0.171221533641764D+03 -.617459664904978D+01 -.104440647104496D+03 0.135539068800303D+03
 0.136729677898814D+02 -.835081929614559D+01 0.616373023924948D+01 -.890069069252604D+01
 0.154121515739289D+03 -.812470259343930D+02 0.940056849889998D+02 0.205514819447039D+00
 0.000000000000000D+00 0.000000000000000D+00 -.000000000000000D+00 -.000000000000000D+00
 0.289402103166811D+03 0.000000000000000D+00 0.000000000000000D+00 0.289402103166811D+03
 0.359928751068402D+03 0.000000000000000D+00 0.000000000000000D+00 -.359928751068402D+03
 0.164139715657484D+03 0.645900732348117D+02 0.146075175282354D+02 -.126843892927224D+03
 0.169174139029699D+03 -.371819352525776D+02 -.941623801529025D+02 0.135539068800303D+03
 0.158383673318880D+02 -.110390672212186D+02 0.705482670384007D+01 -.890069069252604D+01
 0.177655951114306D+03 -.111469314528759D+03 0.104023724719299D+03 0.205514819447039D+00
 0.122522681101835D+03 0.951002437677430D+02 -.315236887984721D+02 -.705266479015903D+02
0.130671043993D-04 0.000000000000D+00 0.000000000000D+00 0.171526685782D-05 0.000000000000D+00  7 3 -4 -24 -11 11 23 21 0 0.11551421D+00 0.13701998D-01 0.38859212D+05 0.38859212D+05 0.38859212D+05 0.11570512D+01  1  2  2  2  7  2       -4 0.124008032414D-03 0.100000000000D+01
-.660926699408D-06 0.000000000000D+00 -.501811215408D-07 0.171526685782D-05 0.000000000000D+00  7 3 -4 -24 -11 11 23 21 2 0.11551421D+00 0.13701998D-01 0.38859212D+05 0.38859212D+05 0.38859212D+05 0.11570512D+01  1  2  3  2  7  2       -4 -.839709158131D-05 0.100000000000D+01
0.797919964201D-06 0.000000000000D+00 0.000000000000D+00 0.171526685782D-05 0.000000000000D+00  7 3 -4 -24 -11 11 23 21 2 0.11551421D+00 0.13701998D-01 0.38859212D+05 0.38859212D+05 0.38859212D+05 0.11570512D+01  1  2 15  2  7  2       -4 0.101375947136D-04 0.100000000000D+01
0.648252366826D-05 0.000000000000D+00 0.000000000000D+00 0.171526685782D-05 0.000000000000D+00  7 3 -4 -24 -11 11 23 21 2 0.11551421D+00 0.19637145D-01 0.61592883D+05 0.61592883D+05 0.61592883D+05 0.11394139D+01  1  2 12  2  7  2       -4 0.424806350517D-04 0.100000000000D+01
-.106492057833D-04 0.000000000000D+00 0.000000000000D+00 0.171526685782D-05 0.000000000000D+00  7 3 -4 -24 -11 11 23 21 2 0.11551421D+00 0.13701998D-01 0.38859212D+05 0.38859212D+05 0.38859212D+05 0.11570512D+01  1  2  4  2  7  2       -4 -.135298447333D-03 0.100000000000D+01
-.120783591737D-04 0.000000000000D+00 -.524536334360D-05 0.171526685782D-05 0.000000000000D+00  7 3 -4 -24 -11 11 23 21 2 0.11551421D+00 0.21233850D-01 0.38859212D+05 0.38859212D+05 0.38859212D+05 0.11570512D+01  1  2  5  2  7  2       -4 -.701903295440D-04 0.100000000000D+01
0.135236405383D-04 0.000000000000D+00 0.477941703567D-05 0.171526685782D-05 0.000000000000D+00  7 3 -4 -24 -11 11 23 21 2 0.11551421D+00 0.13701998D-01 0.38859212D+05 0.38859212D+05 0.38859212D+05 0.11570512D+01  1  2  6  2  7  2       -4 0.171818218593D-03 0.100000000000D+01
0.285724378776D-06 0.000000000000D+00 0.000000000000D+00 0.171526685782D-05 0.000000000000D+00  7 3 21 -24 -11 11 23 4 2 0.11551421D+00 0.19637145D-01 0.61592883D+05 0.61592883D+05 0.61592883D+05 0.11394139D+01  1  2 12  4  7  2       -4 0.391234196889D-04 0.100000000000D+01
-.413259670508D-06 0.000000000000D+00 -.267096667746D-06 0.171526685782D-05 0.000000000000D+00  7 3 21 -24 -11 11 23 4 2 0.11551421D+00 0.21233850D-01 0.38859212D+05 0.38859212D+05 0.38859212D+05 0.11570512D+01  1  2  5  4  7  2       -4 -.512776542851D-04 0.100000000000D+01
  </mgrwgt>
  </event>
  <event>
  9     66 0.29493621E-05 0.23252778E+03 0.75467711E-02 0.10276588E+00
       21 -1    0    0  501  502 0.00000000E+00 0.00000000E+00 0.85041489E+02 0.85044796E+02 0.75000000E+00 0.0000E+00 0.9000E+01
       -2 -1    0    0    0  501 0.00000000E+00 0.00000000E+00 -.99885976E+03 0.99885981E+03 0.32000000E+00 0.0000E+00 0.9000E+01
       25  2    1    2    0    0 -.43410713E+02 0.13788639E+03 -.47256310E+03 0.57766739E+03 0.29914308E+03 0.0000E+00 0.0000E+00
       23  2    3    3    0    0 -.21900630E+02 0.17686790E+03 -.18409006E+03 0.27186649E+03 0.90886440E+02 0.0000E+00 0.0000E+00
      -24  1    1    2    0    0 0.94102689E+02 -.13864454E+03 -.27113596E+03 0.32872412E+03 0.80419002E+02 0.0000E+00 0.9000E+01
      -13  1    4    4    0    0 -.33095124E+01 0.87767688E+02 -.15163329E+03 0.17523352E+03 0.10565837E+00 0.0000E+00 0.9000E+01
       13  1    4    4    0    0 -.18591118E+02 0.89100215E+02 -.32456767E+02 0.96632970E+02 0.10565837E+00 0.0000E+00 0.9000E+01
       23  1    3    3    0    0 -.21510082E+02 -.38981514E+02 -.28847305E+03 0.30580090E+03 0.91188000E+02 0.0000E+00 0.9000E+01
       -1  1    1    2    0  502 -.50691976E+02 0.75815022E+00 -.17011921E+03 0.17751309E+03 0.32000000E+00 0.0000E+00 0.9000E+01
#aMCatNLO 2  0  0  1  1 0.50697645D+02 0.00000000D+00  -5  7  0 0.00000000D+00 0.00000000D+00 0.00000000D+00 0.00000000D+00 0.00000000D+00
  <mgrwgt>
 0.1448504928D-03    1    2    0
 0.257821172027067D+03 0.000000000000000D+00 0.000000000000000D+00 0.257821172027067D+03
 0.257821172027067D+03 0.000000000000000D+00 0.000000000000000D+00 -.257821172027067D+03
 0.177320254744662D+03 0.762928603386551D+02 -.138378176434519D+03 -.247720333137097D+01
 0.897810669473628D+02 -.120711972039402D+02 0.878987266538733D+02 -.137382689192665D+02
 0.125007639712730D+03 -.307258846628527D+02 0.892817043067012D+02 0.819243997495470D+02
 0.123533382649379D+03 -.334957784718622D+02 -.388022545260557D+02 -.657089274989096D+02
 0.000000000000000D+00 -.000000000000000D+00 0.000000000000000D+00 -.000000000000000D+00
 0.270837639800662D+03 0.000000000000000D+00 0.000000000000000D+00 0.270837639800662D+03
 0.313642172471847D+03 0.000000000000000D+00 0.000000000000000D+00 -.313642172471847D+03
 0.185878931868299D+03 0.941026895676382D+02 -.138644540599047D+03 -.247720333137097D+01
 0.888980289388906D+02 -.330949205201098D+01 0.877676864152145D+02 -.137382689192665D+02
 0.122458508683003D+03 -.185911387566654D+02 0.891002168026095D+02 0.819243997495470D+02
 0.120893161474534D+03 -.215100825498162D+02 -.389815128355836D+02 -.657089274989096D+02
 0.663511813077836D+02 -.506919762091456D+02 0.758150216807046D+00 -.428045326711851D+02
0.755178602075D-06 0.000000000000D+00 0.000000000000D+00 0.446428580210D-06 0.120576558815D-10  7 21 -2 -24 -13 13 23 -1 2 0.13083546D-01 0.15367078D+00 0.66792735D+05 0.66792735D+05 0.66792735D+05 0.11363953D+01  1  2  1  3  7  1        1 0.144850492822D-03 0.100000000000D+01
  </mgrwgt>
  </event>
  <event>
  9     66 0.29493621E-05 0.20218145E+03 0.75467711E-02 0.10497271E+00
        1 -1    0    0  502    0 0.00000000E+00 0.00000000E+00 0.26639468E+04 0.26639468E+04 0.32000000E+00 0.0000E+00 0.9000E+01
       -2 -1    0    0    0  501 0.00000000E+00 0.00000000E+00 -.58654122E+02 0.58654994E+02 0.32000000E+00 0.0000E+00 0.9000E+01
       25  2    1    2    0    0 -.99443992E+02 -.11886490E+03 0.51836356E+03 0.61874267E+03 0.30020615E+03 0.0000E+00 0.0000E+00
       23  2    3    3    0    0 -.10588893E+03 -.53662687E+02 0.47255484E+03 0.49747207E+03 0.10039044E+03 0.0000E+00 0.0000E+00
      -24  1    1    2    0    0 0.66626178E+02 0.97669364E+02 0.20287105E+04 0.20337433E+04 0.80419002E+02 0.0000E+00 0.9000E+01
      -13  1    4    4    0    0 -.71038866E+02 0.11349103E+02 0.14692208E+03 0.16358921E+03 0.10565837E+00 0.0000E+00 0.9000E+01
       13  1    4    4    0    0 -.34850068E+02 -.65011790E+02 0.32563276E+03 0.33388286E+03 0.10565837E+00 0.0000E+00 0.9000E+01
       23  1    3    3    0    0 0.64449429E+01 -.65202217E+02 0.45808725E+02 0.12127059E+03 0.91188000E+02 0.0000E+00 0.9000E+01
       21  1    1    2  502  501 0.32817814E+02 0.21195540E+02 0.58218602E+02 0.70115818E+02 0.75000000E+00 0.0000E+00 0.9000E+01
#aMCatNLO 2  0  0  1  1 0.39067375D+02 0.00000000D+00  -5  7  0 0.00000000D+00 0.00000000D+00 0.00000000D+00 0.00000000D+00 0.00000000D+00
  <mgrwgt>
 0.3351618998D-03    1    2    0
 0.369651643627264D+03 0.000000000000000D+00 0.000000000000000D+00 0.369651643627264D+03
 0.369651643627264D+03 0.000000000000000D+00 0.000000000000000D+00 -.369651643627264D+03
 0.313073700242846D+03 0.803766903885294D+02 0.106550196956654D+03 0.271541100019982D+03
 0.779191498884750D+02 -.675222357253641D+02 0.136204319837438D+02 -.364228696640889D+02
 0.726186152436591D+02 -.315554286848145D+02 -.628840196750027D+02 0.179810530820098D+02
 0.275691821879547D+03 0.187009740216492D+02 -.572866092653954D+02 -.253099283437902D+03
 0.000000000000000D+00 0.000000000000000D+00 0.000000000000000D+00 -.000000000000000D+00
 0.379301069776667D+03 0.000000000000000D+00 0.000000000000000D+00 0.379301069776667D+03
 0.411943035064831D+03 0.000000000000000D+00 0.000000000000000D+00 -.411943035064831D+03
 0.306887824997482D+03 0.666261778842638D+02 0.976693636601940D+02 0.271541100019982D+03
 0.806346985523818D+02 -.710389002066644D+02 0.113491776571635D+02 -.364228696640889D+02
 0.759235480283523D+02 -.348500377699359D+02 -.650118584775848D+02 0.179810530820098D+02
 0.276888724551854D+03 0.644494618125468D+01 -.652022225993388D+02 -.253099283437902D+03
 0.509093087114276D+02 0.328178139110818D+02 0.211955397595661D+02 -.326419652881639D+02
0.275246580368D-04 0.000000000000D+00 0.000000000000D+00 0.127785094457D-06 0.591150485513D-09  7 1 -2 -24 -13 13 23 21 2 0.40983510D+00 0.90237149D-02 0.48409813D+05 0.48409813D+05 0.48409813D+05 0.11485321D+01  1  2  1  1  7  1        1 0.335161899823D-03 0.100000000000D+01
  </mgrwgt>
  </event>
  <event>
  9     66 0.29493621E-05 0.16122014E+03 0.75467711E-02 0.10588196E+00
        1 -1    0    0  501    0 0.00000000E+00 0.00000000E+00 0.19995143E+04 0.19995144E+04 0.32000000E+00 0.0000E+00 0.9000E+01
       -2 -1    0    0    0  502 0.00000000E+00 0.00000000E+00 -.58875602E+02 0.58876472E+02 0.32000000E+00 0.0000E+00 0.9000E+01
       25  2    1    2    0    0 -.12886862E+02 -.29569587E+02 0.17809643E+04 0.18063024E+04 0.29975630E+03 0.0000E+00 0.0000E+00
       23  2    3    3    0    0 0.14816612E+01 0.69506144E+02 0.13429174E+04 0.13478017E+04 0.91154180E+02 0.0000E+00 0.0000E+00
      -24  1    1    2    0    0 0.85345066E+02 0.32986533E+02 0.89515747E+02 0.15116936E+03 0.80419002E+02 0.0000E+00 0.9000E+01
      -11  1    4    4    0    0 0.22441331E+02 0.47131249E+02 0.12200787E+04 0.12211949E+04 0.51099893E-03 0.0000E+00 0.9000E+01
       11  1    4    4    0    0 -.20959670E+02 0.22374895E+02 0.12283872E+03 0.12660686E+03 0.51099893E-03 0.0000E+00 0.9000E+01
       23  1    3    3    0    0 -.14368523E+02 -.99075730E+02 0.43804692E+03 0.45850061E+03 0.91188000E+02 0.0000E+00 0.9000E+01
       21  1    1    2  501  502 -.72458203E+02 -.34169463E+01 0.70158649E+02 0.10091910E+03 0.75000000E+00 0.0000E+00 0.9000E+01
#aMCatNLO 2  0  0  2  1 0.72538726D+02 0.00000000D+00  -5  7  0 0.00000000D+00 0.00000000D+00 0.00000000D+00 0.00000000D+00 0.00000000D+00
  <mgrwgt>
 0.2922006285D-03    2    2    0
 0.286242014027547D+03 0.000000000000000D+00 0.000000000000000D+00 0.286242014027547D+03
 0.286242014027547D+03 0.000000000000000D+00 0.000000000000000D+00 -.286242014027547D+03
 0.213413237768019D+03 0.578602396892321D+02 0.316904178648609D+02 -.186348877589627D+03
 0.186091645171099D+03 -.112030696381642D+01 0.460201412161822D+02 0.180308047289176D+03
 0.340694210322545D+02 -.250800308101448D+02 0.221805892455830D+02 0.630388489377323D+01
 0.138909724083722D+03 -.316599019152709D+02 -.998911483266262D+02 -.263054593321968D+00
 0.000000000000000D+00 -.000000000000000D+00 -.000000000000000D+00 -.000000000000000D+00
 0.301424435232163D+03 0.000000000000000D+00 0.000000000000000D+00 0.301424435232163D+03
 0.390554291563102D+03 0.000000000000000D+00 0.000000000000000D+00 -.390554291563102D+03
 0.222632009600529D+03 0.853450655088712D+02 0.329865329910885D+02 -.186348877589627D+03
 0.187712439240374D+03 0.224413307623606D+02 0.471312486780229D+02 0.180308047289176D+03
 0.312998825113863D+02 -.209596696029292D+02 0.223748950971551D+02 0.630388489377323D+01
 0.135417042430447D+03 -.143685234612958D+02 -.990757304915417D+02 -.263054593321968D+00
 0.114917353012529D+03 -.724582032070068D+02 -.341694627472464D+01 -.891298563309397D+02
-.287988140665D-04 0.000000000000D+00 0.000000000000D+00 0.411416423510D-05 0.000000000000D+00  7 1 -2 -24 -11 11 23 21 2 0.29212214D+00 0.91855421D-02 0.42566109D+05 0.42566109D+05 0.42566109D+05 0.11534955D+01  1  2 13  2  7  2       -2 -.111209909697D-02 0.100000000000D+01
0.413578966392D-04 0.000000000000D+00 0.000000000000D+00 0.411416423510D-05 0.574601657702D-08  7 1 -2 -24 -11 11 23 21 2 0.30761645D+00 0.90578182D-02 0.42566109D+05 0.42566109D+05 0.42566109D+05 0.11534955D+01  1  2  1  2  7  2       -2 0.140429972550D-02 0.100000000000D+01
  </mgrwgt>
  </event>
  <event>
  9     66 0.29493621E-05 0.19022743E+03 0.75467711E-02 0.10358355E+00
       21 -1    0    0  501  502 0.00000000E+00 0.00000000E+00 0.61376710E+03 0.61376756E+03 0.75000000E+00 0.0000E+00 0.9000E+01
       -2 -1    0    0    0  501 0.00000000E+00 0.00000000E+00 -.27339842E+03 0.27339860E+03 0.32000000E+00 0.0000E+00 0.9000E+01
       25  2    1    2    0    0 0.50268348E+02 -.22079697E+01 0.50650628E+03 0.59066861E+03 0.29968152E+03 0.0000E+00 0.0000E+00
       23  2    3    3    0    0 -.39693345E+02 0.97097450E+02 0.27643577E+03 0.30923947E+03 0.90602622E+02 0.0000E+00 0.0000E+00
      -24  1    1    2    0    0 0.29190570E+02 0.56540720E+02 0.22108272E+01 0.10257215E+03 0.80419002E+02 0.0000E+00 0.9000E+01
      -13  1    4    4    0    0 -.28844796E+02 0.88673914E+00 0.13360111E+03 0.13668240E+03 0.10565837E+00 0.0000E+00 0.9000E+01
       13  1    4    4    0    0 -.10848549E+02 0.96210711E+02 0.14283466E+03 0.17255707E+03 0.10565837E+00 0.0000E+00 0.9000E+01
       23  1    3    3    0    0 0.89961693E+02 -.99305419E+02 0.23007050E+03 0.28142914E+03 0.91188000E+02 0.0000E+00 0.9000E+01
       -1  1    1    2    0  502 -.79458918E+02 -.54332751E+02 -.16834842E+03 0.19392540E+03 0.32000000E+00 0.0000E+00 0.9000E+01
#aMCatNLO 2  0  0  1  1 0.96258856D+02 0.00000000D+00  -5  7  0 0.00000000D+00 0.00000000D+00 0.00000000D+00 0.00000000D+00 0.00000000D+00
  <mgrwgt>
 0.2382664961D-04    1    2    0
 0.230501566650840D+03 0.000000000000000D+00 0.000000000000000D+00 0.230501566650840D+03
 0.230501566650840D+03 0.000000000000000D+00 0.000000000000000D+00 -.230501566650840D+03
 0.140109779523257D+03 0.457486944043105D+01 0.397088950836228D+02 -.107544449343171D+03
 0.629766104824292D+02 -.390641427597994D+02 -.610120123935422D+01 0.490185838405653D+02
 0.923980697128789D+02 -.272284414790160D+02 0.850105094825159D+02 0.238585108255504D+02
 0.165518673583115D+03 0.617177147983844D+02 -.118618203326784D+03 0.346673546770556D+02
 0.000000000000000D+00 -.000000000000000D+00 -.000000000000000D+00 -.000000000000000D+00
 0.240483418145261D+03 0.000000000000000D+00 0.000000000000000D+00 0.240483418145261D+03
 0.697774364103799D+03 0.000000000000000D+00 0.000000000000000D+00 -.697774364103799D+03
 0.148600024086503D+03 0.291905703238972D+02 0.565407218186889D+02 -.107544449343171D+03
 0.568826095706180D+02 -.288448198547160D+02 0.886610048342767D+00 0.490185838405653D+02
 0.997168205458593D+02 -.108485242931725D+02 0.962108376516007D+02 0.238585108255504D+02
 0.165746037712294D+03 0.899616917764489D+02 -.993054188135758D+02 0.346673546770556D+02
 0.467312290333785D+03 -.794589179524576D+02 -.543327507050565D+02 -.457290945958538D+03
0.369537947021D-06 0.000000000000D+00 0.000000000000D+00 0.111073518290D-05 0.137162410442D-10  7 21 -2 -24 -13 13 23 -1 2 0.94425736D-01 0.42061335D-01 0.59186654D+05 0.59186654D+05 0.59186654D+05 0.11409072D+01  1  2  1  3  7  1        1 0.238266496063D-04 0.100000000000D+01
  </mgrwgt>
  </event>
  <event>
  8     66 0.29493621E-05 0.10720085E+03 0.75467711E-02 0.10343009E+00
        1 -1    0    0  501    0 0.00000000E+00 0.00000000E+00 0.24888119E+03 0.24888140E+03 0.32000000E+00 0.0000E+00 0.9000E+01
       -2 -1    0    0    0  501 0.00000000E+00 0.00000000E+00 -.31424027E+03 0.31424043E+03 0.32000000E+00 0.0000E+00 0.9000E+01
       25  2    1    2    0    0 0.10785924E+03 0.98609329E+02 0.78147820E+02 0.34307897E+03 0.30039754E+03 0.0000E+00 0.0000E+00
       23  2    3    3    0    0 0.61480607E+02 -.19913074E+02 -.67009754E+02 0.12957368E+03 0.90125666E+02 0.0000E+00 0.0000E+00
      -24  1    1    2    0    0 -.10785924E+03 -.98609329E+02 -.14350690E+03 0.22004286E+03 0.80419002E+02 0.0000E+00 0.9000E+01
      -13  1    4    4    0    0 -.21167933E+02 0.21413931E+01 -.29001858E+02 0.35969235E+02 0.10565837E+00 0.0000E+00 0.9000E+01
       13  1    4    4    0    0 0.82648540E+02 -.22054468E+02 -.38007896E+02 0.93604444E+02 0.10565837E+00 0.0000E+00 0.9000E+01
       23  1    3    3    0    0 0.46378631E+02 0.11852240E+03 0.14515757E+03 0.21350529E+03 0.91188000E+02 0.0000E+00 0.9000E+01
#aMCatNLO 1  0  0  2  1 0.61696811D+02 0.00000000D+00  -5  7  0 0.00000000D+00 0.00000000D+00 0.00000000D+00 0.00000000D+00 0.00000000D+00
  <mgrwgt>
 0.8643265295D-03    9    2    0
 0.279658001408462D+03 0.000000000000000D+00 0.000000000000000D+00 0.279658001408462D+03
 0.279658001408462D+03 0.000000000000000D+00 0.000000000000000D+00 -.279658001408462D+03
 0.204770578903764D+03 -.107859238712479D+03 -.986093297689254D+02 -.118770192965659D+03
 0.328248837266574D+02 -.211680748340696D+02 0.214142649006553D+01 -.249959975211123D+02
 0.898000210799993D+02 0.826486821138019D+02 -.220545003886671D+02 -.273283395658486D+02
 0.231920519106503D+03 0.463786314327465D+02 0.118522403667527D+03 0.171094530052620D+03
 0.000000000000000D+00 0.000000000000000D+00 0.000000000000000D+00 -.000000000000000D+00
 0.289286999838906D+03 0.000000000000000D+00 0.000000000000000D+00 0.289286999838906D+03
 0.401315918879327D+03 0.000000000000000D+00 0.000000000000000D+00 -.401315918879327D+03
 0.220200440234625D+03 -.115552091790743D+03 -.120674658776548D+03 -.118770192965659D+03
 0.335696301217774D+02 -.223699526498187D+02 -.130590691948579D+01 -.249959975211123D+02
 0.896405753536276D+02 0.794004367453563D+02 -.313714081760722D+02 -.273283395658486D+02
 0.219297882289243D+03 0.382106465306605D+02 0.950942590818646D+02 0.171094530052620D+03
 0.127894390718960D+03 0.203109611645445D+02 0.582577147902410D+02 -.112028919040421D+03
0.150154892075D-04 0.000000000000D+00 0.000000000000D+00 0.106000220234D-05 0.000000000000D+00  7 1 -2 -24 -13 13 23 21 0 0.38289443D-01 0.48344686D-01 0.46266450D+05 0.46266450D+05 0.46266450D+05 0.11502718D+01  1  2  2  2  7  2       -2 0.768033136708D-03 0.100000000000D+01
-.764315106665D-06 0.000000000000D+00 -.576634322260D-07 0.106000220234D-05 0.000000000000D+00  7 1 -2 -24 -13 13 23 21 2 0.38289443D-01 0.48344686D-01 0.46266450D+05 0.46266450D+05 0.46266450D+05 0.11502718D+01  1  2  3  2  7  2       -2 -.517265924187D-04 0.100000000000D+01
0.951026273916D-06 0.000000000000D+00 0.000000000000D+00 0.106000220234D-05 0.000000000000D+00  7 1 -2 -24 -13 13 23 21 2 0.38289443D-01 0.48344686D-01 0.46266450D+05 0.46266450D+05 0.46266450D+05 0.11502718D+01  1  2 15  2  7  2       -2 0.643626535985D-04 0.100000000000D+01
0.362750364666D-04 0.000000000000D+00 0.000000000000D+00 0.106000220234D-05 0.000000000000D+00  7 1 -2 -24 -13 13 23 21 2 0.38289443D-01 0.69927817D-01 0.60535964D+05 0.60535964D+05 0.60535964D+05 0.11400618D+01  1  2 12  2  7  2       -2 0.113981220123D-02 0.100000000000D+01
-.374592852925D-04 0.000000000000D+00 0.000000000000D+00 0.106000220234D-05 0.000000000000D+00  7 1 -2 -24 -13 13 23 21 2 0.38289443D-01 0.48344686D-01 0.46266450D+05 0.46266450D+05 0.46266450D+05 0.11502718D+01  1  2  4  2  7  2       -2 -.253513395944D-02 0.100000000000D+01
-.418614256989D-04 0.000000000000D+00 -.636298578676D-05 0.106000220234D-05 0.000000000000D+00  7 1 -2 -24 -13 13 23 21 2 0.38289443D-01 0.70799926D-01 0.46266450D+05 0.46266450D+05 0.46266450D+05 0.11502718D+01  1  2  5  2  7  2       -2 -.130895557079D-02 0.100000000000D+01
0.416570471131D-04 0.000000000000D+00 0.592645126557D-05 0.106000220234D-05 0.000000000000D+00  7 1 -2 -24 -13 13 23 21 2 0.38289443D-01 0.48344686D-01 0.46266450D+05 0.46266450D+05 0.46266450D+05 0.11502718D+01  1  2  6  2  7  2       -2 0.281922610007D-02 0.100000000000D+01
0.162842730687D-05 0.000000000000D+00 0.000000000000D+00 0.106000220234D-05 0.000000000000D+00  7 1 21 -24 -13 13 23 2 2 0.38289443D-01 0.69927817D-01 0.60535964D+05 0.60535964D+05 0.60535964D+05 0.11400618D+01  1  2 12  4  7  2       -2 0.527976577399D-03 0.100000000000D+01
-.172133921821D-05 0.000000000000D+00 -.292576085520D-06 0.106000220234D-05 0.000000000000D+00  7 1 21 -24 -13 13 23 2 2 0.38289443D-01 0.70799926D-01 0.46266450D+05 0.46266450D+05 0.46266450D+05 0.11502718D+01  1  2  5  4  7  2       -2 -.559268016887D-03 0.100000000000D+01
  </mgrwgt>
  </event>
  <event>
  8     66 0.29493621E-05 0.54467095E+03 0.75467711E-02 0.84052902E-01
        1 -1    0    0  501    0 0.00000000E+00 0.00000000E+00 0.31063382E+04 0.31063383E+04 0.32000000E+00 0.0000E+00 0.9000E+01
       -2 -1    0    0    0  501 0.00000000E+00 0.00000000E+00 -.26720753E+03 0.26720772E+03 0.32000000E+00 0.0000E+00 0.9000E+01
       25  2    1    2    0    0 -.19156650E+03 0.49378368E+03 0.14360508E+03 0.62530188E+03 0.29976653E+03 0.0000E+00 0.0000E+00
       23  2    3    3    0    0 -.93923121E+02 0.19913768E+03 -.62354691E+02 0.24178502E+03 0.78067427E+02 0.0000E+00 0.0000E+00
      -24  1    1    2    0    0 0.19156650E+03 -.49378368E+03 0.26955256E+04 0.27482441E+04 0.80419002E+02 0.0000E+00 0.9000E+01
      -13  1    4    4    0    0 -.65896145E+01 0.90410381E+02 -.45140807E+02 0.10126778E+03 0.10565837E+00 0.0000E+00 0.9000E+01
       13  1    4    4    0    0 -.87333507E+02 0.10872729E+03 -.17213884E+02 0.14051724E+03 0.10565837E+00 0.0000E+00 0.9000E+01
       23  1    3    3    0    0 -.97643383E+02 0.29464600E+03 0.20595978E+03 0.38351685E+03 0.91188000E+02 0.0000E+00 0.9000E+01
#aMCatNLO 1  0  0  1  2 0.12380533D+04 0.00000000D+00  -5  7  0 0.00000000D+00 0.00000000D+00 0.00000000D+00 0.00000000D+00 0.00000000D+00
  <mgrwgt>
 0.4056296344D-02    3    2    0
 0.911063843398693D+03 0.000000000000000D+00 0.000000000000000D+00 0.911063843398693D+03
 0.911063843398693D+03 0.000000000000000D+00 0.000000000000000D+00 -.911063843398693D+03
 0.888180497915404D+03 0.191566504529301D+03 -.493783676932271D+03 0.708433014236743D+03
 0.257826098960121D+03 -.658946659111034D+01 0.904103472694991D+02 -.241364548643018D+03
 0.286979855249840D+03 -.873336547024224D+02 0.108727328271832D+03 -.250815944793003D+03
 0.389141234672020D+03 -.976433832357678D+02 0.294646001390940D+03 -.216252520800723D+03
 0.000000000000000D+00 0.000000000000000D+00 0.000000000000000D+00 -.000000000000000D+00
 0.122670556809999D+04 0.000000000000000D+00 0.000000000000000D+00 0.122670556809999D+04
 0.416119942370060D+04 0.000000000000000D+00 0.000000000000000D+00 -.416119942370060D+04
 0.129754987400712D+04 -.148152341589830D+03 -.107393761811495D+04 0.708433014236743D+03
 0.260961657857696D+03 -.872224579201655D+02 -.472904257176305D+02 -.241364548643018D+03
 0.313190757887716D+03 -.180615639886334D+03 -.505747297800564D+02 -.250815944793003D+03
 0.331233299797689D+03 -.209608156552433D+03 0.103438462405865D+03 -.216252520800723D+03
 0.318496940225037D+04 0.625598595948762D+03 0.106836431120677D+04 -.293449385560061D+04
0.124583002819D-01 0.000000000000D+00 0.000000000000D+00 0.366845045205D-06 0.000000000000D+00  7 1 -2 -24 -13 13 23 21 0 0.47789821D+00 0.41108867D-01 0.29666644D+06 0.29666644D+06 0.29666644D+06 0.10849111D+01  1  2  2  1  7  1        1 0.394862225103D-02 0.100000000000D+01
-.469426740413D-03 0.000000000000D+00 -.478431534283D-04 0.366845045205D-06 0.000000000000D+00  7 1 -2 -24 -13 13 23 21 2 0.47789821D+00 0.41108867D-01 0.29666644D+06 0.29666644D+06 0.29666644D+06 0.10849111D+01  1  2  3  1  7  1        1 -.175122887826D-03 0.100000000000D+01
0.758053195508D-03 0.000000000000D+00 0.000000000000D+00 0.366845045205D-06 0.000000000000D+00  7 1 -2 -24 -13 13 23 21 2 0.47789821D+00 0.41108867D-01 0.29666644D+06 0.29666644D+06 0.29666644D+06 0.10849111D+01  1  2 15  1  7  1        1 0.282796980433D-03 0.100000000000D+01
  </mgrwgt>
  </event>
  <event>
  8     66 0.29493621E-05 0.26350942E+03 0.75467711E-02 0.94188038E-01
        1 -1    0    0  501    0 0.00000000E+00 0.00000000E+00 0.10404636E+04 0.10404636E+04 0.32000000E+00 0.0000E+00 0.9000E+01
       -2 -1    0    0    0  501 0.00000000E+00 0.00000000E+00 -.49144304E+03 0.49144315E+03 0.32000000E+00 0.0000E+00 0.9000E+01
       25  2    1    2    0    0 0.49028579E+03 0.37933150E+02 0.79061838E+03 0.97814162E+03 0.29977412E+03 0.0000E+00 0.0000E+00
       23  2    3    3    0    0 0.21409527E+03 0.90322924E+02 0.21392462E+03 0.33013171E+03 0.96063471E+02 0.0000E+00 0.0000E+00
      -24  1    1    2    0    0 -.49028579E+03 -.37933150E+02 -.24159787E+03 0.55376513E+03 0.80419002E+02 0.0000E+00 0.9000E+01
      -13  1    4    4    0    0 0.21208381E+03 0.10096003E+03 0.18420879E+03 0.29850521E+03 0.10565837E+00 0.0000E+00 0.9000E+01
       13  1    4    4    0    0 0.20114617E+01 -.10637111E+02 0.29715830E+02 0.31626505E+02 0.10565837E+00 0.0000E+00 0.9000E+01
       23  1    3    3    0    0 0.27619052E+03 -.52389774E+02 0.57669377E+03 0.64800991E+03 0.91188000E+02 0.0000E+00 0.9000E+01
#aMCatNLO 1  0  0  1  2 0.12380533D+04 0.00000000D+00  -5  7  0 0.00000000D+00 0.00000000D+00 0.00000000D+00 0.00000000D+00 0.00000000D+00
  <mgrwgt>
 0.3431458326D-05    1    2    0
 0.715072511173232D+03 0.000000000000000D+00 0.000000000000000D+00 0.715072511173232D+03
 0.715072511173232D+03 0.000000000000000D+00 0.000000000000000D+00 -.715072511173232D+03
 0.685915569971534D+03 -.490285789297051D+03 -.379331498850026D+02 -.471374452137761D+03
 0.249029381499364D+03 0.212084060882905D+03 0.100960169537046D+03 0.827225974956227D+02
 0.224689546965394D+02 0.201120756668047D+01 -.106372456966822D+02 0.196890318011649D+02
 0.472731116179025D+03 0.276190520847465D+03 -.523897739553616D+02 0.368962822840973D+03
 0.000000000000000D+00 -.000000000000000D+00 0.000000000000000D+00 -.000000000000000D+00
 0.727958045931073D+03 0.000000000000000D+00 0.000000000000000D+00 0.727958045931073D+03
 0.793524501372080D+03 0.000000000000000D+00 0.000000000000000D+00 -.793524501372080D+03
 0.669090156340186D+03 -.465032030832654D+03 -.525904699394033D+02 -.471374452137761D+03
 0.254984604453545D+03 0.221477561749192D+03 0.955081672609273D+02 0.827225974956227D+02
 0.227950705979542D+02 0.285481046792054D+01 -.111268741113884D+02 0.196890318011649D+02
 0.484604020980887D+03 0.294032740886729D+03 -.627454257671594D+02 0.368962822840973D+03
 0.900086949305798D+02 -.533330822711872D+02 0.309546025570238D+02 -.655664554410078D+02
0.116618124693D-05 0.000000000000D+00 0.000000000000D+00 0.240241969074D-05 0.000000000000D+00  7 1 -2 -24 -13 13 23 21 2 0.16007133D+00 0.75606634D-01 0.27015716D+06 0.27015716D+06 0.27015716D+06 0.10879346D+01  1  2 14  1  7  1        1 0.343145832554D-05 0.100000000000D+01
  </mgrwgt>
  </event>
  <event>
  8     66 0.29493621E-05 0.22438616E+03 0.75467711E-02 0.98992601E-01
        1 -1    0    0  501    0 0.00000000E+00 0.00000000E+00 0.79626767E+03 0.79626773E+03 0.32000000E+00 0.0000E+00 0.9000E+01
       -2 -1    0    0    0  501 0.00000000E+00 0.00000000E+00 -.10479332E+03 0.10479380E+03 0.32000000E+00 0.0000E+00 0.9000E+01
       25  2    1    2    0    0 0.37636569E+02 0.13532196E+03 0.65636991E+03 0.73544728E+03 0.30055399E+03 0.0000E+00 0.0000E+00
       23  2    3    3    0    0 0.47108586E+02 0.16311780E+03 0.58653319E+03 0.61689456E+03 0.87812795E+02 0.0000E+00 0.0000E+00
      -24  1    1    2    0    0 -.37636569E+02 -.13532196E+03 0.35104448E+02 0.16561426E+03 0.80419002E+02 0.0000E+00 0.9000E+01
      -13  1    4    4    0    0 0.38884148E+02 0.13326355E+02 0.13043971E+03 0.13676293E+03 0.10565837E+00 0.0000E+00 0.9000E+01
       13  1    4    4    0    0 0.82244384E+01 0.14979145E+03 0.45609347E+03 0.48013163E+03 0.10565837E+00 0.0000E+00 0.9000E+01
       23  1    3    3    0    0 -.94720177E+01 -.27795841E+02 0.69836720E+02 0.11855272E+03 0.91188000E+02 0.0000E+00 0.9000E+01
#aMCatNLO 1  0  0  1  2 0.20562783D+03 0.00000000D+00  -5  7  0 0.00000000D+00 0.00000000D+00 0.00000000D+00 0.00000000D+00 0.00000000D+00
  <mgrwgt>
 0.1474795144D-02    3    2    0
 0.288866366889883D+03 0.000000000000000D+00 0.000000000000000D+00 0.288866366889883D+03
 0.288866366889883D+03 0.000000000000000D+00 0.000000000000000D+00 -.288866366889883D+03
 0.216284807617822D+03 -.376365689758551D+02 -.135321961367160D+03 -.143469012331508D+03
 0.571821090157486D+02 0.388841919092379D+02 0.133261581081525D+02 0.397520656209339D+02
 0.202950816872301D+03 0.822439450791158D+01 0.149791643036058D+03 0.136688906209211D+03
 0.101315000273895D+03 -.947201744129441D+01 -.277958397770510D+02 -.329719594986370D+02
 0.000000000000000D+00 -.000000000000000D+00 0.000000000000000D+00 -.000000000000000D+00
 0.369582871696451D+03 0.000000000000000D+00 0.000000000000000D+00 0.369582871696451D+03
 0.474499809921956D+03 0.000000000000000D+00 0.000000000000000D+00 -.474499809921956D+03
 0.257585495037460D+03 0.153711666657501D+02 -.197644734398056D+03 -.143469012331508D+03
 0.660496538810689D+02 0.526690538718483D+02 -.288111452780026D+01 0.397520656209339D+02
 0.176707671448447D+03 0.506934765968930D+02 0.998594787618188D+02 0.136688906209211D+03
 0.112892792509964D+03 0.144895391041018D+02 -.559681552319599D+02 -.329719594986370D+02
 0.230847068741467D+03 -.133223236238593D+03 0.156634525395998D+03 -.104916938225504D+03
0.207117555192D-04 0.000000000000D+00 0.000000000000D+00 0.216708210840D-06 0.000000000000D+00  7 1 -2 -24 -13 13 23 21 0 0.12250276D+00 0.16122091D-01 0.50349150D+05 0.50349150D+05 0.50349150D+05 0.11470297D+01  1  2  2  1  7  1        1 0.144812175394D-02 0.100000000000D+01
-.106138879754D-05 0.000000000000D+00 -.795385947244D-07 0.216708210840D-06 0.000000000000D+00  7 1 -2 -24 -13 13 23 21 2 0.12250276D+00 0.16122091D-01 0.50349150D+05 0.50349150D+05 0.50349150D+05 0.11470297D+01  1  2  3  1  7  1        1 -.976364455058D-04 0.100000000000D+01
0.135135057333D-05 0.000000000000D+00 0.000000000000D+00 0.216708210840D-06 0.000000000000D+00  7 1 -2 -24 -13 13 23 21 2 0.12250276D+00 0.16122091D-01 0.50349150D+05 0.50349150D+05 0.50349150D+05 0.11470297D+01  1  2 15  1  7  1        1 0.124309835301D-03 0.100000000000D+01
  </mgrwgt>
  </event>
  <event>
  8     66 0.29493621E-05 0.77896911E+02 0.75467711E-02 0.10536839E+00
        1 -1    0    0  501    0 0.00000000E+00 0.00000000E+00 0.75016705E+03 0.75016712E+03 0.32000000E+00 0.0000E+00 0.9000E+01
       -2 -1    0    0    0  501 0.00000000E+00 0.00000000E+00 -.12751869E+03 0.12751909E+03 0.32000000E+00 0.0000E+00 0.9000E+01
       25  2    1    2    0    0 0.47357799E+02 -.86910275E+01 0.69561031E+03 0.75890507E+03 0.29957453E+03 0.0000E+00 0.0000E+00
       23  2    3    3    0    0 0.12679903E+03 0.53948581E+02 0.43028396E+03 0.46066363E+03 0.89879094E+02 0.0000E+00 0.0000E+00
      -24  1    1    2    0    0 -.47357799E+02 0.86910275E+01 -.72961954E+02 0.11878113E+03 0.80419002E+02 0.0000E+00 0.9000E+01
      -13  1    4    4    0    0 0.15831137E+02 0.10784025E+01 0.31278730E+01 0.16173516E+02 0.10565837E+00 0.0000E+00 0.9000E+01
       13  1    4    4    0    0 0.11096789E+03 0.52870178E+02 0.42715608E+03 0.44449011E+03 0.10565837E+00 0.0000E+00 0.9000E+01
       23  1    3    3    0    0 -.79441230E+02 -.62639608E+02 0.26532636E+03 0.29824144E+03 0.91188000E+02 0.0000E+00 0.9000E+01
#aMCatNLO 1  0  0  1  2 0.57604603D+02 0.00000000D+00  -5  7  0 0.00000000D+00 0.00000000D+00 0.00000000D+00 0.00000000D+00 0.00000000D+00
  <mgrwgt>
 0.9993472613D-03    9    2    0
 0.309290353107529D+03 0.000000000000000D+00 0.000000000000000D+00 0.309290353107529D+03
 0.309290353107529D+03 0.000000000000000D+00 0.000000000000000D+00 -.309290353107529D+03
 0.241976838815176D+03 -.473577990632713D+02 0.869102746981613D+01 -.223085811915543D+03
 0.197994406340860D+02 0.158310058458831D+02 0.107833097823313D+01 -.118420566470395D+02
 0.200709393059047D+03 0.110968023016018D+03 0.528702500274494D+02 0.158666615871400D+03
 0.156095033706748D+03 -.794412297986296D+02 -.626396084754987D+02 0.762612526911822D+02
 0.000000000000000D+00 -.000000000000000D+00 0.000000000000000D+00 0.000000000000000D+00
 0.401842224911021D+03 0.000000000000000D+00 0.000000000000000D+00 0.401842224911021D+03
 0.319723375082257D+03 0.000000000000000D+00 0.000000000000000D+00 -.319723375082257D+03
 0.238796004663118D+03 -.279846358074388D+02 -.242828528086776D+01 -.223085811915543D+03
 0.211137275830308D+02 0.174796378306872D+02 0.132091357592000D+00 -.118420566470395D+02
 0.208089393053302D+03 0.127440928525495D+03 0.434155530399970D+02 0.158666615871400D+03
 0.153257971564875D+03 -.669755792193449D+02 -.697943237690933D+02 0.762612526911822D+02
 0.100308503128952D+03 -.499603513293986D+02 0.286749646523720D+02 0.821188498287646D+02
0.170611223790D-04 0.000000000000D+00 0.000000000000D+00 0.189517359838D-05 0.000000000000D+00  7 1 -2 -24 -13 13 23 21 0 0.11541035D+00 0.19618296D-01 0.33987879D+05 0.33987879D+05 0.33987879D+05 0.11623401D+01  1  2  2  1  7  1        1 0.954714541569D-03 0.100000000000D+01
-.639328959756D-06 0.000000000000D+00 -.655192022321D-07 0.189517359838D-05 0.000000000000D+00  7 1 -2 -24 -13 13 23 21 2 0.11541035D+00 0.19618296D-01 0.33987879D+05 0.33987879D+05 0.33987879D+05 0.11623401D+01  1  2  3  1  7  1        1 -.483344435558D-04 0.100000000000D+01
0.106503468115D-05 0.000000000000D+00 0.000000000000D+00 0.189517359838D-05 0.000000000000D+00  7 1 -2 -24 -13 13 23 21 2 0.11541035D+00 0.19618296D-01 0.33987879D+05 0.33987879D+05 0.33987879D+05 0.11623401D+01  1  2 15  1  7  1        1 0.805185779484D-04 0.100000000000D+01
0.382600399426D-04 0.000000000000D+00 0.000000000000D+00 0.189517359838D-05 0.000000000000D+00  7 1 -2 -24 -13 13 23 21 2 0.15147269D+00 0.19618296D-01 0.45761449D+05 0.45761449D+05 0.45761449D+05 0.11506947D+01  1  2 12  1  7  1        1 0.183048794641D-02 0.100000000000D+01
-.417655501817D-04 0.000000000000D+00 0.000000000000D+00 0.189517359838D-05 0.000000000000D+00  7 1 -2 -24 -13 13 23 21 2 0.11541035D+00 0.19618296D-01 0.33987879D+05 0.33987879D+05 0.33987879D+05 0.11623401D+01  1  2  4  1  7  1        1 -.315755230078D-02 0.100000000000D+01
-.473380650985D-04 0.000000000000D+00 -.896888503576D-05 0.189517359838D-05 0.000000000000D+00  7 1 -2 -24 -13 13 23 21 2 0.15240275D+00 0.19618296D-01 0.33987879D+05 0.33987879D+05 0.33987879D+05 0.11623401D+01  1  2  5  1  7  1        1 -.229677302277D-02 0.100000000000D+01
0.482890613052D-04 0.000000000000D+00 0.863305315392D-05 0.189517359838D-05 0.000000000000D+00  7 1 -2 -24 -13 13 23 21 2 0.11541035D+00 0.19618296D-01 0.33987879D+05 0.33987879D+05 0.33987879D+05 0.11623401D+01  1  2  6  1  7  1        1 0.365074172287D-02 0.100000000000D+01
0.137712975363D-05 0.000000000000D+00 0.000000000000D+00 0.189517359838D-05 0.000000000000D+00  7 21 -2 -24 -13 13 23 -1 2 0.15147269D+00 0.19618296D-01 0.45761449D+05 0.45761449D+05 0.45761449D+05 0.11506947D+01  1  2 12  3  7  1        1 0.962874326089D-04 0.100000000000D+01
-.155328633519D-05 0.000000000000D+00 -.328102935126D-06 0.189517359838D-05 0.000000000000D+00  7 21 -2 -24 -13 13 23 -1 2 0.15240275D+00 0.19618296D-01 0.33987879D+05 0.33987879D+05 0.33987879D+05 0.11623401D+01  1  2  5  3  7  1        1 -.110743192990D-03 0.100000000000D+01
  </mgrwgt>
  </event>
  <event>
  9     66 -.29493621E-05 0.18119367E+03 0.75467711E-02 0.10653226E+00
        1 -1    0    0  501    0 0.00000000E+00 0.00000000E+00 0.26328245E+04 0.26328245E+04 0.32000000E+00 0.0000E+00 0.9000E+01
       -2 -1    0    0    0  502 0.00000000E+00 0.00000000E+00 -.41666666E+02 0.41667895E+02 0.32000000E+00 0.0000E+00 0.9000E+01
       25  2    1    2    0    0 0.79324778E+02 0.29418980E+02 0.62370607E+03 0.69742344E+03 0.30038690E+03 0.0000E+00 0.0000E+00
       23  2    3    3    0    0 -.16130897E+02 -.17815668E+01 0.51571603E+03 0.52403843E+03 0.91596255E+02 0.0000E+00 0.0000E+00
      -24  1    1    2    0    0 -.10743560E+03 -.15815910E+02 0.18667253E+04 0.18716098E+04 0.80419002E+02 0.0000E+00 0.9000E+01
      -11  1    4    4    0    0 0.14407247E+02 -.40525870E+02 0.20891836E+03 0.21329978E+03 0.51099893E-03 0.0000E+00 0.9000E+01
       11  1    4    4    0    0 -.30538144E+02 0.38744303E+02 0.30679767E+03 0.31073866E+03 0.51099893E-03 0.0000E+00 0.9000E+01
       23  1    3    3    0    0 0.95455674E+02 0.31200547E+02 0.10799004E+03 0.17338500E+03 0.91188000E+02 0.0000E+00 0.9000E+01
       21  1    1    2  501  502 0.28110821E+02 -.13603071E+02 0.10072639E+03 0.10545914E+03 0.75000000E+00 0.0000E+00 0.9000E+01
#aMCatNLO 2  0  0  2  1 0.31229182D+02 0.00000000D+00  -5  7  0 0.00000000D+00 0.00000000D+00 0.00000000D+00 0.00000000D+00 0.00000000D+00
  <mgrwgt>
 -.3038918049D-03    3    2    0
 0.314923770938293D+03 0.000000000000000D+00 0.000000000000000D+00 0.314923770938293D+03
 0.314923770938293D+03 0.000000000000000D+00 0.000000000000000D+00 -.314923770938293D+03
 0.248427460405528D+03 -.962624018228559D+02 -.212227167832255D+02 0.213382598673846D+03
 0.454612464047662D+02 0.163999268200177D+02 -.414901446054115D+02 0.873700323881017D+01
 0.521616351308608D+02 -.281639683852788D+02 0.375954186919255D+02 0.226762333225096D+02
 0.283797199935431D+03 0.108026443388117D+03 0.251174426967115D+02 -.244795835235166D+03
 0.000000000000000D+00 0.000000000000000D+00 -.000000000000000D+00 -.000000000000000D+00
 0.328155928988716D+03 0.000000000000000D+00 0.000000000000000D+00 0.328155928988716D+03
 0.334291553172931D+03 0.000000000000000D+00 0.000000000000000D+00 -.334291553172931D+03
 0.252570584789349D+03 -.107435599001242D+03 -.158159096135551D+02 0.213382598673846D+03
 0.438890658155082D+02 0.144072470761293D+02 -.405258695680968D+02 0.873700323881017D+01
 0.542946662636055D+02 -.305381438092556D+02 0.387443028026655D+02 0.226762333225096D+02
 0.279866954435786D+03 0.954556743011275D+02 0.312005470528474D+02 -.244795835235166D+03
 0.318262108573978D+02 0.281108214332411D+02 -.136030706738609D+02 -.613562418421507D+01
-.521407764790D-04 0.000000000000D+00 0.000000000000D+00 0.307440183384D-05 0.000000000000D+00  7 1 -2 -24 -11 11 23 21 2 0.38871208D+00 0.65305688D-02 0.38877891D+05 0.38877891D+05 0.38877891D+05 0.11570323D+01  1  2 13  2  7  2       -2 -.130933840698D-02 0.100000000000D+01
-.829726462763D-07 0.000000000000D+00 0.000000000000D+00 0.307440183384D-05 0.000000000000D+00  7 1 -2 -24 -11 11 23 21 2 0.38871208D+00 0.60388763D-02 0.32831146D+05 0.32831146D+05 0.32831146D+05 0.11637195D+01  1  2  8  2  7  2       -2 -.237896673771D-05 0.100000000000D+01
0.461162149649D-04 0.000000000000D+00 0.000000000000D+00 0.307440183384D-05 0.225533396034D-07  7 1 -2 -24 -11 11 23 21 2 0.40504460D+00 0.64102666D-02 0.38877891D+05 0.38877891D+05 0.38877891D+05 0.11570323D+01  1  2  1  2  7  2       -2 0.100782556883D-02 0.100000000000D+01
  </mgrwgt>
  </event>
  <event>
  9     66 0.29493621E-05 0.60008567E+03 0.75467711E-02 0.91804077E-01
        1 -1    0    0  501    0 0.00000000E+00 0.00000000E+00 0.17552418E+04 0.17552418E+04 0.32000000E+00 0.0000E+00 0.9000E+01
       -2 -1    0    0    0  502 0.00000000E+00 0.00000000E+00 -.24764697E+03 0.24764718E+03 0.32000000E+00 0.0000E+00 0.9000E+01
       25  2    1    2    0    0 -.54513485E+03 0.27952891E+03 0.85483287E+03 0.10932751E+04 0.29866826E+03 0.0000E+00 0.0000E+00
       23  2    3    3    0    0 -.11060204E+03 -.20017955E+02 0.18001685E+03 0.23174214E+03 0.93085019E+02 0.0000E+00 0.0000E+00
      -24  1    1    2    0    0 0.48717667E+03 -.21303429E+03 0.50607776E+03 0.73844880E+03 0.80419002E+02 0.0000E+00 0.9000E+01
      -13  1    4    4    0    0 -.86873671E+02 -.43856011E+02 0.79227237E+02 0.12548845E+03 0.10565837E+00 0.0000E+00 0.9000E+01
       13  1    4    4    0    0 -.23728368E+02 0.23838056E+02 0.10078962E+03 0.10625369E+03 0.10565837E+00 0.0000E+00 0.9000E+01
       23  1    3    3    0    0 -.43453281E+03 0.29954687E+03 0.67481602E+03 0.86153294E+03 0.91188000E+02 0.0000E+00 0.9000E+01
       21  1    1    2  501  502 0.57958178E+02 -.66494620E+02 0.14668417E+03 0.17116511E+03 0.75000000E+00 0.0000E+00 0.9000E+01
#aMCatNLO 2  0  0  2  1 0.88208191D+02 0.00000000D+00  -5  7  0 0.00000000D+00 0.00000000D+00 0.00000000D+00 0.00000000D+00 0.00000000D+00
  <mgrwgt>
 0.5385761202D-03    1    2    0
 0.611423320684519D+03 0.000000000000000D+00 0.000000000000000D+00 0.611423320684519D+03
 0.611423320684519D+03 0.000000000000000D+00 0.000000000000000D+00 -.611423320684519D+03
 0.577594258128957D+03 0.513662924068862D+03 -.243421606490377D+03 -.635942843331084D+02
 0.980664504299915D+02 -.821969258401223D+02 -.492217557554511D+02 -.209263671649460D+02
 0.445692165232544D+02 -.215642061641748D+02 0.213553229567964D+02 0.326397036661888D+02
 0.502616716286836D+03 -.409901792064565D+03 0.271288039289031D+03 0.518809478318656D+02
 0.000000000000000D+00 0.000000000000000D+00 -.000000000000000D+00 0.000000000000000D+00
 0.674040052445670D+03 0.000000000000000D+00 0.000000000000000D+00 0.674040052445670D+03
 0.644885315950649D+03 0.000000000000000D+00 0.000000000000000D+00 -.644885315950649D+03
 0.541512848441719D+03 0.487176669164748D+03 -.213034290889507D+03 -.635942843331084D+02
 0.995405389617518D+02 -.868737517320628D+02 -.438560977980236D+02 -.209263671649460D+02
 0.468683142533154D+02 -.237282865580276D+02 0.238381425985967D+02 0.326397036661888D+02
 0.538102194213498D+03 -.434532809225659D+03 0.299546866169396D+03 0.518809478318656D+02
 0.929014725260346D+02 0.579581783510010D+02 -.664946200804625D+02 0.291547364950203D+02
0.149187923170D-03 0.000000000000D+00 0.000000000000D+00 0.784806665549D-06 0.626588751064D-09  7 1 -2 -24 -13 13 23 21 2 0.27003659D+00 0.38099464D-01 0.41765188D+06 0.41765188D+06 0.41765188D+06 0.10740782D+01  1  2  1  2  7  2       -2 0.538576120151D-03 0.100000000000D+01
  </mgrwgt>
  </event>
  <event>
  8     66 0.29493621E-05 0.36492508E+03 0.75467711E-02 0.89527820E-01
        1 -1    0    0  501    0 0.00000000E+00 0.00000000E+00 0.16746467E+04 0.16746468E+04 0.32000000E+00 0.0000E+00 0.9000E+01
       -2 -1    0    0    0  501 0.00000000E+00 0.00000000E+00 -.30852459E+03 0.30852476E+03 0.32000000E+00 0.0000E+00 0.9000E+01
       25  2    1    2    0    0 0.25138608E+02 -.30852503E+03 -.13257070E+03 0.45073323E+03 0.29960942E+03 0.0000E+00 0.0000E+00
       23  2    3    3    0    0 0.11934373E+03 -.11723475E+03 -.10475312E+03 0.21716173E+03 0.90548803E+02 0.0000E+00 0.0000E+00
      -24  1    1    2    0    0 -.25138608E+02 0.30852503E+03 0.14986928E+04 0.15324383E+04 0.80419002E+02 0.0000E+00 0.9000E+01
      -13  1    4    4    0    0 -.29163523E+01 0.46447671E+01 0.89148766E+01 0.10467338E+02 0.10565837E+00 0.0000E+00 0.9000E+01
       13  1    4    4    0    0 0.12226008E+03 -.12187952E+03 -.11366800E+03 0.20669439E+03 0.10565837E+00 0.0000E+00 0.9000E+01
       23  1    3    3    0    0 -.94205124E+02 -.19129028E+03 -.27817578E+02 0.23357150E+03 0.91188000E+02 0.0000E+00 0.9000E+01
#aMCatNLO 1  0  0  1  1 0.65167064D+03 0.00000000D+00  -5  7  0 0.00000000D+00 0.00000000D+00 0.00000000D+00 0.00000000D+00 0.00000000D+00
  <mgrwgt>
 0.2460209971D-02    3    2    0
 0.718797531187833D+03 0.000000000000000D+00 0.000000000000000D+00 0.718797531187833D+03
 0.718797531187833D+03 0.000000000000000D+00 0.000000000000000D+00 -.718797531187833D+03
 0.689826024061666D+03 -.251386078369068D+02 0.308525034215406D+03 0.611206250930698D+03
 0.596757613248120D+01 -.291652273172516D+01 0.464493937612130D+01 0.235167987711931D+01
 0.393153521245455D+03 0.122260254803068D+03 -.121879691980050D+03 -.353224379178501D+03
 0.348647940936065D+03 -.942051242344356D+02 -.191290281611477D+03 -.260333551629317D+03
 0.000000000000000D+00 -.000000000000000D+00 -.000000000000000D+00 -.000000000000000D+00
 0.870500469589444D+03 0.000000000000000D+00 0.000000000000000D+00 0.870500469589444D+03
 0.209510062866721D+04 0.000000000000000D+00 0.000000000000000D+00 -.209510062866721D+04
 0.878391267353125D+03 0.122150726407898D+03 0.613685686218216D+03 0.611206250930698D+03
 0.787365582311912D+01 -.161653334184343D+01 0.733831572850328D+01 0.235167987711931D+01
 0.405995664285780D+03 0.197317552119936D+03 0.336273846472041D+02 -.353224379178501D+03
 0.286141830388117D+03 -.345847110967893D+02 -.677660343260512D+02 -.260333551629317D+03
 0.138719868040651D+04 -.283267034089201D+03 -.586885352267872D+03 -.122460015907777D+04
0.953777033184D-03 0.000000000000D+00 0.000000000000D+00 0.274036512198D-04 0.000000000000D+00  7 1 -2 -24 -13 13 23 21 0 0.25763797D+00 0.47465337D-01 0.13317031D+06 0.13317031D+06 0.13317031D+06 0.11116537D+01  1  2  2  1  7  1        1 0.235041619376D-02 0.100000000000D+01
-.233821878115D-04 0.000000000000D+00 -.366275494269D-05 0.274036512198D-04 0.000000000000D+00  7 1 -2 -24 -13 13 23 21 2 0.25763797D+00 0.47465337D-01 0.13317031D+06 0.13317031D+06 0.13317031D+06 0.11116537D+01  1  2  3  1  7  1        1 -.712069050521D-04 0.100000000000D+01
0.594351342072D-04 0.000000000000D+00 0.000000000000D+00 0.274036512198D-04 0.000000000000D+00  7 1 -2 -24 -13 13 23 21 2 0.25763797D+00 0.47465337D-01 0.13317031D+06 0.13317031D+06 0.13317031D+06 0.11116537D+01  1  2 15  1  7  1        1 0.181000682757D-03 0.100000000000D+01
  </mgrwgt>
  </event>
  <event>
  8     66 0.29493621E-05 0.24603156E+03 0.75467711E-02 0.98272899E-01
        1 -1    0    0  501    0 0.00000000E+00 0.00000000E+00 0.20062585E+04 0.20062586E+04 0.32000000E+00 0.0000E+00 0.9000E+01
       -2 -1    0    0    0  501 0.00000000E+00 0.00000000E+00 -.36311359E+02 0.36312769E+02 0.32000000E+00 0.0000E+00 0.9000E+01
       25  2    1    2    0    0 0.12578731E+03 0.12002420E+03 0.13482631E+04 0.13920434E+04 0.29957174E+03 0.0000E+00 0.0000E+00
       23  2    3    3    0    0 0.11691933E+03 -.86731591E+01 0.98121319E+03 0.99244044E+03 0.91724297E+02 0.0000E+00 0.0000E+00
      -24  1    1    2    0    0 -.12578731E+03 -.12002420E+03 0.62168406E+03 0.65052790E+03 0.80419002E+02 0.0000E+00 0.9000E+01
      -13  1    4    4    0    0 0.40182677E+02 0.35812908E+02 0.51977462E+03 0.52255418E+03 0.10565837E+00 0.0000E+00 0.9000E+01
       13  1    4    4    0    0 0.76736657E+02 -.44486067E+02 0.46143857E+03 0.46988625E+03 0.10565837E+00 0.0000E+00 0.9000E+01
       23  1    3    3    0    0 0.88679785E+01 0.12869736E+03 0.36704992E+03 0.39960299E+03 0.91188000E+02 0.0000E+00 0.9000E+01
#aMCatNLO 1  0  0  1  1 0.21082983D+03 0.00000000D+00  -5  7  0 0.00000000D+00 0.00000000D+00 0.00000000D+00 0.00000000D+00 0.00000000D+00
  <mgrwgt>
 0.1368730078D-02    6    2    0
 0.269910056887222D+03 0.000000000000000D+00 0.000000000000000D+00 0.269910056887222D+03
 0.269910056887222D+03 0.000000000000000D+00 0.000000000000000D+00 -.269910056887222D+03
 0.192776943318345D+03 -.125787313304383D+03 -.120024204484938D+03 -.216211949303647D+02
 0.804446599051999D+02 0.401826292370389D+02 0.358130133061316D+02 0.597840086711890D+02
 0.940435268710308D+02 0.767367051817941D+02 -.444861724554202D+02 0.312512957243586D+02
 0.172554983679868D+03 0.886797888554961D+01 0.128697363634227D+03 -.694141094651829D+02
 0.000000000000000D+00 0.000000000000000D+00 0.000000000000000D+00 0.000000000000000D+00
 0.412885843861882D+03 0.000000000000000D+00 0.000000000000000D+00 0.412885843861882D+03
 0.380020225492891D+03 0.000000000000000D+00 0.000000000000000D+00 -.380020225492891D+03
 0.261041912882563D+03 -.210722637073410D+03 -.129630854666736D+03 -.216211949303647D+02
 0.691961636362725D+02 0.121763187391513D+02 0.326453462402162D+02 0.597840086711890D+02
 0.731340899966988D+02 0.454482630609386D+02 -.480250665792110D+02 0.312512957243586D+02
 0.176157790880409D+03 -.563960179823125D+02 0.121315648235338D+03 -.694141094651829D+02
 0.213376111958829D+03 0.209494073255632D+03 0.236949267703928D+02 0.328656183689909D+02
0.169215718276D-04 0.000000000000D+00 0.000000000000D+00 0.103159481617D-05 0.000000000000D+00  7 1 -2 -24 -13 13 23 21 0 0.30865527D+00 0.55864733D-02 0.60531529D+05 0.60531529D+05 0.60531529D+05 0.11400645D+01  1  2  2  1  7  1        1 0.875370296896D-03 0.100000000000D+01
-.930280163900D-06 0.000000000000D+00 -.649832913703D-07 0.103159481617D-05 0.000000000000D+00  7 1 -2 -24 -13 13 23 21 2 0.30865527D+00 0.55864733D-02 0.60531529D+05 0.60531529D+05 0.60531529D+05 0.11400645D+01  1  2  3  1  7  1        1 -.625494836912D-04 0.100000000000D+01
0.108829989619D-05 0.000000000000D+00 0.000000000000D+00 0.103159481617D-05 0.000000000000D+00  7 1 -2 -24 -13 13 23 21 2 0.30865527D+00 0.55864733D-02 0.60531529D+05 0.60531529D+05 0.60531529D+05 0.11400645D+01  1  2 15  1  7  1        1 0.731742965719D-04 0.100000000000D+01
-.590609963561D-05 0.000000000000D+00 -.446876412029D-05 0.103159481617D-05 0.000000000000D+00  7 1 -2 -24 -13 13 23 21 2 0.53039589D+00 0.55864733D-02 0.60531529D+05 0.60531529D+05 0.60531529D+05 0.11400645D+01  1  2  5  1  7  1        1 -.379357061649D-04 0.100000000000D+01
0.774575404668D-05 0.000000000000D+00 0.388530340915D-05 0.103159481617D-05 0.000000000000D+00  7 1 -2 -24 -13 13 23 21 2 0.30865527D+00 0.55864733D-02 0.60531529D+05 0.60531529D+05 0.60531529D+05 0.11400645D+01  1  2  6  1  7  1        1 0.520803232424D-03 0.100000000000D+01
-.135563168425D-06 0.000000000000D+00 -.268705074884D-06 0.103159481617D-05 0.000000000000D+00  7 21 -2 -24 -13 13 23 -1 2 0.53039589D+00 0.55864733D-02 0.60531529D+05 0.60531529D+05 0.60531529D+05 0.11400645D+01  1  2  5  3  7  1        1 -.132557991251D-06 0.100000000000D+01
  </mgrwgt>
  </event>
  <event>
  8     66 0.29493621E-05 0.24258502E+03 0.75467711E-02 0.97503009E-01
        3 -1    0    0  501    0 0.00000000E+00 0.00000000E+00 0.19353426E+03 0.19353490E+03 0.50000000E+00 0.0000E+00 0.9000E+01
       -4 -1    0    0    0  501 0.00000000E+00 0.00000000E+00 -.39606349E+03 0.39606652E+03 0.15500000E+01 0.0000E+00 0.9000E+01
       25  2    1    2    0    0 0.54282650E+02 0.15486406E+03 -.21904812E+03 0.40610872E+03 0.30002121E+03 0.0000E+00 0.0000E+00
       23  2    3    3    0    0 -.55920999E+02 0.10500898E+03 -.20414145E+03 0.25389889E+03 0.92934759E+02 0.0000E+00 0.0000E+00
      -24  1    1    2    0    0 -.54282650E+02 -.15486406E+03 0.16518892E+02 0.18349271E+03 0.80419002E+02 0.0000E+00 0.9000E+01
      -13  1    4    4    0    0 -.36278469E+02 0.12055409E+03 -.16861855E+03 0.21043204E+03 0.10565837E+00 0.0000E+00 0.9000E+01
       13  1    4    4    0    0 -.19642530E+02 -.15545110E+02 -.35522896E+02 0.43466846E+02 0.10565837E+00 0.0000E+00 0.9000E+01
       23  1    3    3    0    0 0.11020365E+03 0.49855076E+02 -.14906674E+02 0.15220983E+03 0.91188000E+02 0.0000E+00 0.9000E+01
#aMCatNLO 1  0  0  1  1 0.24836678D+03 0.00000000D+00  -5  7  0 0.00000000D+00 0.00000000D+00 0.00000000D+00 0.00000000D+00 0.00000000D+00
  <mgrwgt>
 0.1444866910D-03    5    2    0
 0.276862669231576D+03 0.000000000000000D+00 0.000000000000000D+00 0.276862669231576D+03
 0.276862669231576D+03 0.000000000000000D+00 0.000000000000000D+00 -.276862669231576D+03
 0.201423180967343D+03 -.542826500886073D+02 -.154864060773404D+03 0.847030014625328D+02
 0.162392671591222D+03 -.362784923733651D+02 0.120554266963445D+03 -.102576408079813D+03
 0.332901449412075D+02 -.196425078540150D+02 -.155452833783907D+02 -.219260073907014D+02
 0.156619340963380D+03 0.110203650315987D+03 0.498550771883493D+02 0.397994140079818D+02
 0.000000000000000D+00 -.000000000000000D+00 0.000000000000000D+00 0.000000000000000D+00
 0.462078683690373D+03 0.000000000000000D+00 0.000000000000000D+00 0.462078683690373D+03
 0.400647885747067D+03 0.000000000000000D+00 0.000000000000000D+00 -.400647885747067D+03
 0.226490948758205D+03 0.295130192645651D+02 -.191794987296720D+03 0.847030014625328D+02
 0.141282451614154D+03 0.231882521139512D+02 0.943457291214032D+02 -.102576408079813D+03
 0.312354409463621D+02 -.700687774915646D+01 -.211141335418946D+02 -.219260073907014D+02
 0.207866603479671D+03 0.181578586460343D+03 0.183982901884876D+02 0.397994140079818D+02
 0.255851124639048D+03 -.227272980089703D+03 0.100165101528724D+03 0.614307979433062D+02
0.164484968140D-04 0.000000000000D+00 0.000000000000D+00 0.932048533546D-06 0.000000000000D+00  7 3 -4 -24 -13 13 23 21 0 0.29774784D-01 0.60933127D-01 0.58847492D+05 0.58847492D+05 0.58847492D+05 0.11411231D+01  1  2  2  1  7  1        3 0.138946457371D-03 0.100000000000D+01
-.894396664424D-06 0.000000000000D+00 -.631665587544D-07 0.932048533546D-06 0.000000000000D+00  7 3 -4 -24 -13 13 23 21 2 0.29774784D-01 0.60933127D-01 0.58847492D+05 0.58847492D+05 0.58847492D+05 0.11411231D+01  1  2  3  1  7  1        3 -.983821729966D-05 0.100000000000D+01
0.105831241460D-05 0.000000000000D+00 0.000000000000D+00 0.932048533546D-06 0.000000000000D+00  7 3 -4 -24 -13 13 23 21 2 0.29774784D-01 0.60933127D-01 0.58847492D+05 0.58847492D+05 0.58847492D+05 0.11411231D+01  1  2 15  1  7  1        3 0.116412637926D-04 0.100000000000D+01
-.137135681708D-05 0.000000000000D+00 -.535601215426D-05 0.932048533546D-06 0.000000000000D+00  7 3 -4 -24 -13 13 23 21 2 0.69244405D-01 0.60933127D-01 0.58847492D+05 0.58847492D+05 0.58847492D+05 0.11411231D+01  1  2  5  1  7  1        3 -.284869073657D-05 0.100000000000D+01
0.212448515653D-06 0.000000000000D+00 -.492574245139D-06 0.932048533546D-06 0.000000000000D+00  7 21 -4 -24 -13 13 23 -3 2 0.69244405D-01 0.60933127D-01 0.58847492D+05 0.58847492D+05 0.58847492D+05 0.11411231D+01  1  2  5  3  7  1        3 0.658587785427D-05 0.100000000000D+01
  </mgrwgt>
  </event>
  <event>
  8     66 0.29493621E-05 0.17667781E+03 0.75467711E-02 0.10088448E+00
        1 -1    0    0  501    0 0.00000000E+00 0.00000000E+00 0.19491434E+04 0.19491434E+04 0.32000000E+00 0.0000E+00 0.9000E+01
       -2 -1    0    0    0  501 0.00000000E+00 0.00000000E+00 -.61609726E+02 0.61610557E+02 0.32000000E+00 0.0000E+00 0.9000E+01
       25  2    1    2    0    0 -.23687719E+03 -.99417009E+02 0.83382172E+03 0.92320139E+03 0.30174096E+03 0.0000E+00 0.0000E+00
       23  2    3    3    0    0 -.13818699E+03 0.17930375E+02 0.63690989E+03 0.65749538E+03 0.85022500E+02 0.0000E+00 0.0000E+00
      -24  1    1    2    0    0 0.23687719E+03 0.99417009E+02 0.10537119E+04 0.10875526E+04 0.80419002E+02 0.0000E+00 0.9000E+01
      -11  1    4    4    0    0 -.94541285E+02 0.14887739E+02 0.56702148E+03 0.57504179E+03 0.51099893E-03 0.0000E+00 0.9000E+01
       11  1    4    4    0    0 -.43645703E+02 0.30426360E+01 0.69888409E+02 0.82453592E+02 0.51099893E-03 0.0000E+00 0.9000E+01
       23  1    3    3    0    0 -.98690198E+02 -.11734738E+03 0.19691183E+03 0.26570601E+03 0.91188000E+02 0.0000E+00 0.9000E+01
#aMCatNLO 1  0  0  1  2 0.98553784D+01 0.00000000D+00  -5  7  0 0.00000000D+00 0.00000000D+00 0.00000000D+00 0.00000000D+00 0.00000000D+00
  <mgrwgt>
 0.5396551061D-02   11    2    0
 0.346535787270060D+03 0.000000000000000D+00 0.000000000000000D+00 0.346535787270060D+03
 0.346535787270060D+03 0.000000000000000D+00 0.000000000000000D+00 -.346535787270060D+03
 0.285517278399728D+03 0.236877186007921D+03 0.994170086840175D+02 0.951754035647217D+02
 0.124078712398436D+03 -.945412848010180D+02 0.148877387562130D+02 0.789672563367461D+02
 0.488797448787210D+02 -.436457030218863D+02 0.304263602353540D+01 -.217950552456847D+02
 0.234595838863235D+03 -.986901981850170D+02 -.117347383463766D+03 -.152347604655783D+03
 0.000000000000000D+00 -.000000000000000D+00 -.000000000000000D+00 0.000000000000000D+00
 0.356092439587781D+03 0.000000000000000D+00 0.000000000000000D+00 0.356092439587781D+03
 0.349121030363291D+03 0.000000000000000D+00 0.000000000000000D+00 -.349121030363291D+03
 0.288524717265261D+03 0.239031246776988D+03 0.102883439576828D+03 0.951754035647217D+02
 0.123561511034766D+03 -.936120285895060D+02 0.163831480246883D+02 0.789672563367461D+02
 0.485938623595135D+02 -.432799387137748D+02 0.363124369669513D+01 -.217950552456847D+02
 0.232461551372059D+03 -.969375912175718D+02 -.114526993704038D+03 -.152347604655783D+03
 0.120718279194723D+02 -.520168825613564D+01 -.837083759417368D+01 0.697140922448978D+01
0.558904158335D-04 0.000000000000D+00 0.000000000000D+00 0.187399201838D-07 0.000000000000D+00  7 1 -2 -24 -11 11 23 21 0 0.29986828D+00 0.94784853D-02 0.86154565D+05 0.86154565D+05 0.86154565D+05 0.11270722D+01  1  2  2  1  7  1        1 0.140977423424D-02 0.100000000000D+01
-.300094580572D-05 0.000000000000D+00 -.214633913085D-06 0.187399201838D-07 0.000000000000D+00  7 1 -2 -24 -11 11 23 21 2 0.29986828D+00 0.94784853D-02 0.86154565D+05 0.86154565D+05 0.86154565D+05 0.11270722D+01  1  2  3  1  7  1        1 -.961554425047D-04 0.100000000000D+01
0.352292169475D-05 0.000000000000D+00 0.000000000000D+00 0.187399201838D-07 0.000000000000D+00  7 1 -2 -24 -11 11 23 21 2 0.29986828D+00 0.94784853D-02 0.86154565D+05 0.86154565D+05 0.86154565D+05 0.11270722D+01  1  2 15  1  7  1        1 0.112880443833D-03 0.100000000000D+01
0.997380566290D-04 0.000000000000D+00 0.000000000000D+00 0.187399201838D-07 0.000000000000D+00  7 1 -2 -24 -11 11 23 21 2 0.30923648D+00 0.94784853D-02 0.88886844D+05 0.88886844D+05 0.88886844D+05 0.11259449D+01  1  2 12  1  7  1        1 0.290749004029D-02 0.100000000000D+01
-.995593320003D-04 0.000000000000D+00 0.000000000000D+00 0.187399201838D-07 0.000000000000D+00  7 1 -2 -24 -11 11 23 21 2 0.29986828D+00 0.94784853D-02 0.86154565D+05 0.86154565D+05 0.86154565D+05 0.11270722D+01  1  2  4  1  7  1        1 -.319005148500D-02 0.100000000000D+01
-.151377182378D-02 0.000000000000D+00 -.182371524422D-03 0.187399201838D-07 0.000000000000D+00  7 1 -2 -24 -11 11 23 21 2 0.30908052D+00 0.94784853D-02 0.86154565D+05 0.86154565D+05 0.86154565D+05 0.11270722D+01  1  2  5  1  7  1        1 -.443217212645D-01 0.100000000000D+01
0.151867828321D-02 0.000000000000D+00 0.182288068640D-03 0.187399201838D-07 0.000000000000D+00  7 1 -2 -24 -11 11 23 21 2 0.29986828D+00 0.94784853D-02 0.86154565D+05 0.86154565D+05 0.86154565D+05 0.11270722D+01  1  2  6  1  7  1        1 0.486610528139D-01 0.100000000000D+01
0.270355147759D-10 0.000000000000D+00 0.000000000000D+00 0.187399201838D-07 0.130499170896D-08  7 1 -2 -24 -11 11 23 21 2 0.30813795D+00 0.95491972D-02 0.88886844D+05 0.88886844D+05 0.88886844D+05 0.11259449D+01  1  2 11  1  7  1        1 0.787607314138D-09 0.100000000000D+01
0.261274482633D-05 0.000000000000D+00 0.000000000000D+00 0.187399201838D-07 0.000000000000D+00  7 21 -2 -24 -11 11 23 -1 2 0.30923648D+00 0.94784853D-02 0.88886844D+05 0.88886844D+05 0.88886844D+05 0.11259449D+01  1  2 12  3  7  1        1 0.405007157319D-04 0.100000000000D+01
-.815127426308D-05 0.000000000000D+00 -.989285485667D-06 0.187399201838D-07 0.000000000000D+00  7 21 -2 -24 -11 11 23 -1 2 0.30908052D+00 0.94784853D-02 0.86154565D+05 0.86154565D+05 0.86154565D+05 0.11270722D+01  1  2  5  3  7  1        1 -.127219784795D-03 0.100000000000D+01
0.152954912903D-12 0.000000000000D+00 0.000000000000D+00 0.187399201838D-07 0.646059653671D-11  7 21 -2 -24 -11 11 23 -1 2 0.30813795D+00 0.95491972D-02 0.88886844D+05 0.88886844D+05 0.88886844D+05 0.11259449D+01  1  2 11  3  7  1        1 0.238290486545D-11 0.100000000000D+01
  </mgrwgt>
  </event>
  <event>
  8     66 0.29493621E-05 0.97480813E+03 0.75467711E-02 0.79150688E-01
        1 -1    0    0  501    0 0.00000000E+00 0.00000000E+00 0.17625572E+04 0.17625573E+04 0.32000000E+00 0.0000E+00 0.9000E+01
       -2 -1    0    0    0  501 0.00000000E+00 0.00000000E+00 -.89118908E+03 0.89118913E+03 0.32000000E+00 0.0000E+00 0.9000E+01
       25  2    1    2    0    0 0.96123720E+03 -.80347922E+01 -.37773438E+03 0.10755304E+04 0.30006796E+03 0.0000E+00 0.0000E+00
       23  2    3    3    0    0 0.31669715E+03 0.72377880E+02 -.47253736E+02 0.34107085E+03 0.92524387E+02 0.0000E+00 0.0000E+00
      -24  1    1    2    0    0 -.96123720E+03 0.80347922E+01 0.12491025E+04 0.15782161E+04 0.80419002E+02 0.0000E+00 0.9000E+01
      -13  1    4    4    0    0 0.10520317E+03 -.10337970E+01 -.51545850E+02 0.11715699E+03 0.10565837E+00 0.0000E+00 0.9000E+01
       13  1    4    4    0    0 0.21149398E+03 0.73411677E+02 0.42921143E+01 0.22391385E+03 0.10565837E+00 0.0000E+00 0.9000E+01
       23  1    3    3    0    0 0.64454005E+03 -.80412672E+02 -.33048064E+03 0.73445951E+03 0.91188000E+02 0.0000E+00 0.9000E+01
#aMCatNLO 1  0  0  2  2 0.22070720D+04 0.00000000D+00  -5  7  0 0.00000000D+00 0.00000000D+00 0.00000000D+00 0.00000000D+00 0.00000000D+00
  <mgrwgt>
 0.1596949223D-02    5    2    0
 0.125330438422675D+04 0.000000000000000D+00 0.000000000000000D+00 0.125330438422675D+04
 0.125330438422675D+04 0.000000000000000D+00 0.000000000000000D+00 -.125330438422675D+04
 0.123663374037557D+04 -.961237200414411D+03 0.803479216597699D+01 0.773792141686141D+03
 0.141952770690142D+03 0.105203030320917D+03 -.103389403407369D+01 -.952987018853372D+02
 0.235565629904170D+03 0.211494122328274D+03 0.734117739300212D+02 -.732947041824236D+02
 0.892456627483609D+03 0.644540047765220D+03 -.804126720619245D+02 -.605198735618380D+03
 0.000000000000000D+00 0.000000000000000D+00 -.000000000000000D+00 -.000000000000000D+00
 0.248032850157050D+04 0.000000000000000D+00 0.000000000000000D+00 0.248032850157050D+04
 0.317254948154826D+04 0.000000000000000D+00 0.000000000000000D+00 -.317254948154826D+04
 0.179361420882253D+04 -.114903825823043D+04 0.113646008144732D+04 0.773792141686141D+03
 0.173032233909508D+03 0.856816848562163D+02 0.116262462862630D+03 -.952987018853372D+02
 0.347057349573695D+03 0.175385786083769D+03 0.290373063956882D+03 -.732947041824236D+02
 0.102609473490070D+04 0.525636914632010D+03 0.634031133327842D+03 -.605198735618380D+03
 0.231307945591233D+04 0.362333872658436D+03 -.217712674159468D+04 -.692220979977753D+03
0.927974038480D-02 0.000000000000D+00 0.000000000000D+00 0.680695500960D-04 0.000000000000D+00  7 1 -2 -24 -13 13 23 21 0 0.27116266D+00 0.13710602D+00 0.95025088D+06 0.95025088D+06 0.95025088D+06 0.10493424D+01  1  2  2  2  7  2       -2 0.157270663093D-02 0.100000000000D+01
-.475956779592D-03 0.000000000000D+00 -.356366464894D-04 0.680695500960D-04 0.000000000000D+00  7 1 -2 -24 -13 13 23 21 2 0.27116266D+00 0.13710602D+00 0.95025088D+06 0.95025088D+06 0.95025088D+06 0.10493424D+01  1  2  3  2  7  2       -2 -.888206273702D-04 0.100000000000D+01
0.590248865269D-03 0.000000000000D+00 0.000000000000D+00 0.680695500960D-04 0.000000000000D+00  7 1 -2 -24 -13 13 23 21 2 0.27116266D+00 0.13710602D+00 0.95025088D+06 0.95025088D+06 0.95025088D+06 0.10493424D+01  1  2 15  2  7  2       -2 0.110149233640D-03 0.100000000000D+01
0.326239014476D-02 0.000000000000D+00 -.286186318258D-02 0.680695500960D-04 0.000000000000D+00  7 1 -2 -24 -13 13 23 21 2 0.27116266D+00 0.50603004D+00 0.95025088D+06 0.95025088D+06 0.95025088D+06 0.10493424D+01  1  2  5  2  7  2       -2 0.106180311132D-05 0.100000000000D+01
0.572280792181D-03 0.000000000000D+00 -.440942530954D-03 0.680695500960D-04 0.000000000000D+00  7 1 21 -24 -13 13 23 2 2 0.27116266D+00 0.50603004D+00 0.95025088D+06 0.95025088D+06 0.95025088D+06 0.10493424D+01  1  2  5  4  7  2       -2 0.185218317083D-05 0.100000000000D+01
  </mgrwgt>
  </event>
  <event>
  8     66 0.29493621E-05 0.32347174E+03 0.75467711E-02 0.96261729E-01
        1 -1    0    0  501    0 0.00000000E+00 0.00000000E+00 0.35357066E+03 0.35357081E+03 0.32000000E+00 0.0000E+00 0.9000E+01
       -2 -1    0    0    0  501 0.00000000E+00 0.00000000E+00 -.31480243E+03 0.31480260E+03 0.32000000E+00 0.0000E+00 0.9000E+01
       25  2    1    2    0    0 -.22829878E+03 -.11996710E+03 0.40394929E+02 0.39822104E+03 0.30072547E+03 0.0000E+00 0.0000E+00
       23  2    3    3    0    0 -.17754621E+02 0.37160686E+02 0.63379366E+02 0.11918427E+03 0.92150975E+02 0.0000E+00 0.0000E+00
      -24  1    1    2    0    0 0.22829878E+03 0.11996710E+03 -.16267017E+01 0.27015236E+03 0.80419002E+02 0.0000E+00 0.9000E+01
      -11  1    4    4    0    0 0.16924265E+02 0.56514036E+02 0.49831381E+02 0.77223271E+02 0.51099893E-03 0.0000E+00 0.9000E+01
       11  1    4    4    0    0 -.34678886E+02 -.19353350E+02 0.13547985E+02 0.41960996E+02 0.51099893E-03 0.0000E+00 0.9000E+01
       23  1    3    3    0    0 -.21054416E+03 -.15712779E+03 -.22984437E+02 0.27903677E+03 0.91188000E+02 0.0000E+00 0.9000E+01
#aMCatNLO 1  0  0  1  1 0.19124421D+03 0.00000000D+00  -5  7  0 0.00000000D+00 0.00000000D+00 0.00000000D+00 0.00000000D+00 0.00000000D+00
  <mgrwgt>
 0.1160688864D-02    4    2    0
 0.333624050668438D+03 0.000000000000000D+00 0.000000000000000D+00 0.333624050668438D+03
 0.333624050668438D+03 0.000000000000000D+00 0.000000000000000D+00 -.333624050668438D+03
 0.270702484661538D+03 0.228298777089051D+03 0.119967104174531D+03 -.173257479833026D+02
 0.744582197492091D+02 0.169242648329449D+02 0.565140357559445D+02 0.454286199511021D+02
 0.412446019830665D+02 -.346788862515599D+02 -.193533499337464D+02 0.111328292646075D+02
 0.280842794943063D+03 -.210544155670436D+03 -.157127789996729D+03 -.392357012324070D+02
 0.000000000000000D+00 0.000000000000000D+00 -.000000000000000D+00 -.000000000000000D+00
 0.402396170840946D+03 0.000000000000000D+00 0.000000000000000D+00 0.402396170840946D+03
 0.512285313271068D+03 0.000000000000000D+00 0.000000000000000D+00 -.512285313271068D+03
 0.260770498320065D+03 0.176350454238750D+03 0.173592547611729D+03 -.173257479833026D+02
 0.857151860087462D+02 0.126826714202456D+01 0.726754779847284D+02 0.454286199511021D+02
 0.458369418500960D+02 -.431905891945190D+02 -.105668517432809D+02 0.111328292646075D+02
 0.301791469573081D+03 -.267493189480081D+03 -.983401906325940D+02 -.392357012324070D+02
 0.220567388360025D+03 0.133065057293826D+03 -.137360983220582D+03 -.109889142430122D+03
0.444528448903D-04 0.000000000000D+00 0.000000000000D+00 0.120586056754D-05 0.000000000000D+00  7 1 -2 -24 -11 11 23 21 0 0.54395510D-01 0.48431167D-01 0.10463397D+06 0.10463397D+06 0.10463397D+06 0.11201112D+01  1  2  2  1  7  1        1 0.142264143075D-02 0.100000000000D+01
-.246673495109D-05 0.000000000000D+00 -.170710629082D-06 0.120586056754D-05 0.000000000000D+00  7 1 -2 -24 -11 11 23 21 2 0.54395510D-01 0.48431167D-01 0.10463397D+06 0.10463397D+06 0.10463397D+06 0.11201112D+01  1  2  3  1  7  1        1 -.990468547784D-04 0.100000000000D+01
0.287596206633D-05 0.000000000000D+00 0.000000000000D+00 0.120586056754D-05 0.000000000000D+00  7 1 -2 -24 -11 11 23 21 2 0.54395510D-01 0.48431167D-01 0.10463397D+06 0.10463397D+06 0.10463397D+06 0.11201112D+01  1  2 15  1  7  1        1 0.115478558816D-03 0.100000000000D+01
-.693308446414D-05 0.000000000000D+00 0.000000000000D+00 0.120586056754D-05 0.000000000000D+00  7 1 -2 -24 -11 11 23 21 2 0.54395510D-01 0.48431167D-01 0.10463397D+06 0.10463397D+06 0.10463397D+06 0.11201112D+01  1  2  4  1  7  1        1 -.278384270585D-03 0.100000000000D+01
  </mgrwgt>
  </event>
  <event>
  8     66 0.29493621E-05 0.29873637E+03 0.75467711E-02 0.77204315E-01
        1 -1    0    0  501    0 0.00000000E+00 0.00000000E+00 0.67195678E+03 0.67195686E+03 0.32000000E+00 0.0000E+00 0.9000E+01
       -2 -1    0    0    0  501 0.00000000E+00 0.00000000E+00 -.32000905E+03 0.32000921E+03 0.32000000E+00 0.0000E+00 0.9000E+01
       25  2    1    2    0    0 0.14556987E+03 0.18681380E+03 0.55194279E+03 0.67172362E+03 0.30080192E+03 0.0000E+00 0.0000E+00
       23  2    3    3    0    0 0.11292973E+03 0.20668839E+03 0.25548091E+03 0.35920918E+03 0.91035826E+02 0.0000E+00 0.0000E+00
      -24  1    1    2    0    0 -.14556987E+03 -.18681380E+03 -.19999506E+03 0.32024244E+03 0.80419002E+02 0.0000E+00 0.9000E+01
      -13  1    4    4    0    0 0.12278616E+03 0.20427689E+03 0.22766902E+03 0.32960383E+03 0.10565837E+00 0.0000E+00 0.9000E+01
       13  1    4    4    0    0 -.98564269E+01 0.24115037E+01 0.27811887E+02 0.29605350E+02 0.10565837E+00 0.0000E+00 0.9000E+01
       23  1    3    3    0    0 0.32640138E+02 -.19874596E+02 0.29646188E+03 0.31251444E+03 0.91188000E+02 0.0000E+00 0.9000E+01
#aMCatNLO 1  0  0  2  1 0.32796128D+04 0.00000000D+00  -5  7  0 0.00000000D+00 0.00000000D+00 0.00000000D+00 0.00000000D+00 0.00000000D+00
  <mgrwgt>
 0.2062976882D-02    3    2    0
 0.463715824447512D+03 0.000000000000000D+00 0.000000000000000D+00 0.463715824447512D+03
 0.463715824447512D+03 0.000000000000000D+00 0.000000000000000D+00 -.463715824447512D+03
 0.418421608483885D+03 -.145569866865048D+03 -.186813796602961D+03 -.335439183387318D+03
 0.266142006765531D+03 0.122786334538596D+03 0.204277161063349D+03 0.118431099309508D+03
 0.211108445331994D+02 -.985660557775295D+01 0.241123177334143D+01 0.185121863842376D+02
 0.221757189112408D+03 0.326401379042048D+02 -.198745962337295D+02 0.198495897693572D+03
 0.000000000000000D+00 0.000000000000000D+00 -.000000000000000D+00 0.000000000000000D+00
 0.417368214063649D+04 0.000000000000000D+00 0.000000000000000D+00 0.417368214063649D+04
 0.279295112527279D+04 0.000000000000000D+00 0.000000000000000D+00 -.279295112527279D+04
 0.187339397986130D+04 -.182549845571744D+04 0.241192309678095D+03 -.335439183387318D+03
 0.735632986181103D+03 -.611526870593066D+03 0.391362813277807D+03 0.118431099309508D+03
 0.113461752695716D+03 -.108499949532059D+03 0.275432247857747D+02 0.185121863842376D+02
 0.685735065671229D+03 -.632562678031760D+03 0.149603361951648D+03 0.198495897693572D+03
 0.355840948149994D+04 0.317808795387433D+04 -.809701709693324D+03 0.138073101536370D+04
0.156987279058D-03 0.000000000000D+00 0.000000000000D+00 0.619483943507D-05 0.000000000000D+00  7 1 -2 -24 -13 13 23 21 0 0.10337798D+00 0.49232179D-01 0.89243420D+05 0.89243420D+05 0.89243420D+05 0.11258005D+01  1  2  2  2  7  2       -2 0.200740684393D-02 0.100000000000D+01
-.667126469186D-05 0.000000000000D+00 -.602872487282D-06 0.619483943507D-05 0.000000000000D+00  7 1 -2 -24 -13 13 23 21 2 0.10337798D+00 0.49232179D-01 0.89243420D+05 0.89243420D+05 0.89243420D+05 0.11258005D+01  1  2  3  2  7  2       -2 -.108118999169D-03 0.100000000000D+01
0.101001017834D-04 0.000000000000D+00 0.000000000000D+00 0.619483943507D-05 0.000000000000D+00  7 1 -2 -24 -13 13 23 21 2 0.10337798D+00 0.49232179D-01 0.89243420D+05 0.89243420D+05 0.89243420D+05 0.11258005D+01  1  2 15  2  7  2       -2 0.163689037501D-03 0.100000000000D+01
  </mgrwgt>
  </event>
  <event>
  8     66 0.29493621E-05 0.35572157E+03 0.75467711E-02 0.94351771E-01
        1 -1    0    0  501    0 0.00000000E+00 0.00000000E+00 0.27514525E+04 0.27514525E+04 0.32000000E+00 0.0000E+00 0.9000E+01
       -2 -1    0    0    0  501 0.00000000E+00 0.00000000E+00 -.51816715E+02 0.51817703E+02 0.32000000E+00 0.0000E+00 0.9000E+01
       25  2    1    2    0    0 -.30190498E+03 0.61041150E+02 0.13811047E+04 0.14468543E+04 0.30176913E+03 0.0000E+00 0.0000E+00
       23  2    3    3    0    0 -.23842832E+03 0.10481626E+03 0.65601008E+03 0.71199175E+03 0.93533494E+02 0.0000E+00 0.0000E+00
      -24  1    1    2    0    0 0.30190498E+03 -.61041150E+02 0.13185311E+04 0.13564159E+04 0.80419002E+02 0.0000E+00 0.9000E+01
      -11  1    4    4    0    0 -.17289779E+03 0.11459918E+03 0.44814400E+03 0.49382148E+03 0.51099893E-03 0.0000E+00 0.9000E+01
       11  1    4    4    0    0 -.65530535E+02 -.97829179E+01 0.20786608E+03 0.21817027E+03 0.51099893E-03 0.0000E+00 0.9000E+01
       23  1    3    3    0    0 -.63476664E+02 -.43775111E+02 0.72509457E+03 0.73486253E+03 0.91188000E+02 0.0000E+00 0.9000E+01
#aMCatNLO 1  0  0  2  1 0.26095039D+03 0.00000000D+00  -5  7  0 0.00000000D+00 0.00000000D+00 0.00000000D+00 0.00000000D+00 0.00000000D+00
  <mgrwgt>
 0.1635233934D-02    3    2    0
 0.377587923498896D+03 0.000000000000000D+00 0.000000000000000D+00 0.377587923498896D+03
 0.377587923498896D+03 0.000000000000000D+00 0.000000000000000D+00 -.377587923498896D+03
 0.321576208355794D+03 0.301904984178208D+03 -.610411504209599D+02 0.455126390111638D+02
 0.231058092054854D+03 -.172897785717315D+03 0.114599179553991D+03 -.101790105823851D+03
 0.667758289895531D+02 -.655305345473235D+02 -.978291794156705D+01 -.830992754075760D+01
 0.135765717597590D+03 -.634766639135688D+02 -.437751111914638D+02 0.645873943534448D+02
 0.000000000000000D+00 0.000000000000000D+00 -.000000000000000D+00 0.000000000000000D+00
 0.597416489058243D+03 0.000000000000000D+00 0.000000000000000D+00 0.597416489058243D+03
 0.485508067011848D+03 0.000000000000000D+00 0.000000000000000D+00 -.485508067011848D+03
 0.233983573984080D+03 0.211718410431169D+03 -.372157401475690D+02 0.455126390111638D+02
 0.312341284563734D+03 -.261110304894101D+03 0.137903085815374D+03 -.101790105823851D+03
 0.916796110628164D+02 -.912533346566374D+02 -.298749107787661D+01 -.830992754075760D+01
 0.160985935308914D+03 -.111649724095660D+03 -.310487942323305D+02 0.645873943534448D+02
 0.283934151150546D+03 0.252294953215230D+03 -.666510603575975D+02 0.111908422046395D+03
0.173712608597D-03 0.000000000000D+00 0.000000000000D+00 0.122326059615D-06 0.000000000000D+00  7 1 -2 -24 -11 11 23 21 0 0.42330046D+00 0.79718797D-02 0.12653783D+06 0.12653783D+06 0.12653783D+06 0.11134290D+01  1  2  2  2  7  2       -2 0.161816850287D-02 0.100000000000D+01
-.960894281586D-05 0.000000000000D+00 -.667102156592D-06 0.122326059615D-06 0.000000000000D+00  7 1 -2 -24 -11 11 23 21 2 0.42330046D+00 0.79718797D-02 0.12653783D+06 0.12653783D+06 0.12653783D+06 0.11134290D+01  1  2  3  2  7  2       -2 -.110966794559D-03 0.100000000000D+01
0.110866889746D-04 0.000000000000D+00 0.000000000000D+00 0.122326059615D-06 0.000000000000D+00  7 1 -2 -24 -11 11 23 21 2 0.42330046D+00 0.79718797D-02 0.12653783D+06 0.12653783D+06 0.12653783D+06 0.11134290D+01  1  2 15  2  7  2       -2 0.128032225954D-03 0.100000000000D+01
  </mgrwgt>
  </event>
  <event>
  8     66 0.29493621E-05 0.84535079E+02 0.75467711E-02 0.98004044E-01
        1 -1    0    0  501    0 0.00000000E+00 0.00000000E+00 0.19725395E+04 0.19725395E+04 0.32000000E+00 0.0000E+00 0.9000E+01
       -2 -1    0    0    0  501 0.00000000E+00 0.00000000E+00 -.44019429E+02 0.44020592E+02 0.32000000E+00 0.0000E+00 0.9000E+01
       25  2    1    2    0    0 0.13549740E+03 -.14858748E+03 0.13921341E+04 0.14381010E+04 0.29943190E+03 0.0000E+00 0.0000E+00
       23  2    3    3    0    0 0.12824313E+03 -.17807022E+03 0.11984271E+04 0.12218616E+04 0.92535688E+02 0.0000E+00 0.0000E+00
      -24  1    1    2    0    0 -.13549740E+03 0.14858748E+03 0.53638600E+03 0.57845911E+03 0.80419002E+02 0.0000E+00 0.9000E+01
      -13  1    4    4    0    0 0.12494863E+03 -.10473076E+03 0.75545787E+03 0.77285011E+03 0.10565837E+00 0.0000E+00 0.9000E+01
       13  1    4    4    0    0 0.32945058E+01 -.73339464E+02 0.44296927E+03 0.44901148E+03 0.10565837E+00 0.0000E+00 0.9000E+01
       23  1    3    3    0    0 0.72542684E+01 0.29482749E+02 0.19370695E+03 0.21623943E+03 0.91188000E+02 0.0000E+00 0.9000E+01
#aMCatNLO 1  0  0  1  2 0.17608595D+03 0.00000000D+00  -5  7  0 0.00000000D+00 0.00000000D+00 0.00000000D+00 0.00000000D+00 0.00000000D+00
  <mgrwgt>
 0.1271503342D-02    9    2    0
 0.294671448168024D+03 0.000000000000000D+00 0.000000000000000D+00 0.294671448168024D+03
 0.294671448168024D+03 0.000000000000000D+00 0.000000000000000D+00 -.294671448168024D+03
 0.224090938089777D+03 -.135497400229999D+03 0.148587475919672D+03 -.575477984836784D+02
 0.172366740805903D+03 0.124948783285285D+03 -.104730802235754D+03 0.559424164175235D+02
 0.868483611607963D+02 0.329434849628112D+01 -.733394226801922D+02 0.464016614491041D+02
 0.106036856279572D+03 0.725426844843273D+01 0.294827489962749D+02 -.447962793829491D+02
 0.000000000000000D+00 -.000000000000000D+00 -.000000000000000D+00 0.000000000000000D+00
 0.497051714476203D+03 0.000000000000000D+00 0.000000000000000D+00 0.497051714476203D+03
 0.348446735922554D+03 0.000000000000000D+00 0.000000000000000D+00 -.348446735922554D+03
 0.243763158983599D+03 -.932265387047698D+02 0.202361866699491D+03 -.575477984836784D+02
 0.178366528738140D+03 0.156637716997587D+03 -.644180893324682D+02 0.559424164175235D+02
 0.740230990809200D+02 0.178291687784524D+02 -.548491180692624D+02 0.464016614491041D+02
 0.118933638812309D+03 0.275804699389793D+02 0.553404926660988D+02 -.447962793829491D+02
 0.230412024783789D+03 -.108820817010249D+03 -.138435151963860D+03 0.148604978553649D+03
0.274639997416D-04 0.000000000000D+00 0.000000000000D+00 0.579837197344D-06 0.000000000000D+00  7 1 -2 -24 -13 13 23 21 0 0.30346771D+00 0.67723114D-02 0.75387279D+05 0.75387279D+05 0.75387279D+05 0.11319324D+01  1  2  2  1  7  1        1 0.111666680553D-02 0.100000000000D+01
-.151651436532D-05 0.000000000000D+00 -.105468990445D-06 0.579837197344D-06 0.000000000000D+00  7 1 -2 -24 -13 13 23 21 2 0.30346771D+00 0.67723114D-02 0.75387279D+05 0.75387279D+05 0.75387279D+05 0.11319324D+01  1  2  3  1  7  1        1 -.790036848646D-04 0.100000000000D+01
0.177453925087D-05 0.000000000000D+00 0.000000000000D+00 0.579837197344D-06 0.000000000000D+00  7 1 -2 -24 -13 13 23 21 2 0.30346771D+00 0.67723114D-02 0.75387279D+05 0.75387279D+05 0.75387279D+05 0.11319324D+01  1  2 15  1  7  1        1 0.924456391326D-04 0.100000000000D+01
0.480422581234D-05 0.000000000000D+00 0.000000000000D+00 0.579837197344D-06 0.000000000000D+00  7 1 -2 -24 -13 13 23 21 2 0.52373576D+00 0.67723114D-02 0.14069042D+06 0.14069042D+06 0.14069042D+06 0.11097545D+01  1  2 12  1  7  1        1 0.227626032400D-04 0.100000000000D+01
-.146173799503D-04 0.000000000000D+00 0.000000000000D+00 0.579837197344D-06 0.000000000000D+00  7 1 -2 -24 -13 13 23 21 2 0.30346771D+00 0.67723114D-02 0.75387279D+05 0.75387279D+05 0.75387279D+05 0.11319324D+01  1  2  4  1  7  1        1 -.761500784663D-03 0.100000000000D+01
-.162541056367D-04 0.000000000000D+00 -.716740707977D-05 0.579837197344D-06 0.000000000000D+00  7 1 -2 -24 -13 13 23 21 2 0.53343796D+00 0.67723114D-02 0.75387279D+05 0.75387279D+05 0.75387279D+05 0.11319324D+01  1  2  5  1  7  1        1 -.736292669947D-04 0.100000000000D+01
0.183121320342D-04 0.000000000000D+00 0.616101106274D-05 0.579837197344D-06 0.000000000000D+00  7 1 -2 -24 -13 13 23 21 2 0.30346771D+00 0.67723114D-02 0.75387279D+05 0.75387279D+05 0.75387279D+05 0.11319324D+01  1  2  6  1  7  1        1 0.953981011665D-03 0.100000000000D+01
0.290781308988D-06 0.000000000000D+00 0.000000000000D+00 0.579837197344D-06 0.000000000000D+00  7 21 -2 -24 -13 13 23 -1 2 0.52373576D+00 0.67723114D-02 0.14069042D+06 0.14069042D+06 0.14069042D+06 0.11097545D+01  1  2 12  3  7  1        1 0.210370610444D-06 0.100000000000D+01
-.644693928114D-06 0.000000000000D+00 -.446015139095D-06 0.579837197344D-06 0.000000000000D+00  7 21 -2 -24 -13 13 23 -1 2 0.53343796D+00 0.67723114D-02 0.75387279D+05 0.75387279D+05 0.75387279D+05 0.11319324D+01  1  2  5  3  7  1        1 -.429351260385D-06 0.100000000000D+01
  </mgrwgt>
  </event>
  <event>
  8     66 0.29493621E-05 0.19824511E+03 0.75467711E-02 0.95919261E-01
        1 -1    0    0  501    0 0.00000000E+00 0.00000000E+00 0.32763904E+03 0.32763920E+03 0.32000000E+00 0.0000E+00 0.9000E+01
       -2 -1    0    0    0  501 0.00000000E+00 0.00000000E+00 -.33968403E+03 0.33968418E+03 0.32000000E+00 0.0000E+00 0.9000E+01
       25  2    1    2    0    0 0.10927130E+03 0.22658645E+02 0.22657602E+03 0.39189493E+03 0.29965198E+03 0.0000E+00 0.0000E+00
       23  2    3    3    0    0 0.65719162E+02 -.62127277E+02 -.17834310E+00 0.12956263E+03 0.92777348E+02 0.0000E+00 0.0000E+00
      -24  1    1    2    0    0 -.10927130E+03 -.22658645E+02 -.23862101E+03 0.27542846E+03 0.80419002E+02 0.0000E+00 0.9000E+01
      -11  1    4    4    0    0 0.76746614E+02 -.76864311E+02 -.93065751E+01 0.10901733E+03 0.51099893E-03 0.0000E+00 0.9000E+01
       11  1    4    4    0    0 -.11027452E+02 0.14737034E+02 0.91282320E+01 0.20545303E+02 0.51099893E-03 0.0000E+00 0.9000E+01
       23  1    3    3    0    0 0.43552139E+02 0.84785922E+02 0.22675437E+03 0.26233230E+03 0.91188000E+02 0.0000E+00 0.9000E+01
#aMCatNLO 1  0  0  2  2 0.37331652D+03 0.00000000D+00  -5  7  0 0.00000000D+00 0.00000000D+00 0.00000000D+00 0.00000000D+00 0.00000000D+00
  <mgrwgt>
 0.1347952372D-02    5    2    0
 0.333607335493085D+03 0.000000000000000D+00 0.000000000000000D+00 0.333607335493085D+03
 0.333607335493085D+03 0.000000000000000D+00 0.000000000000000D+00 -.333607335493085D+03
 0.271165592734862D+03 -.109271300837890D+03 -.226586454510680D+02 -.233687679025653D+03
 0.108867080693122D+03 0.767466142287909D+02 -.768643107355144D+02 -.734004075016491D+01
 0.207134395177969D+02 -.110274522087246D+02 0.147370337721224D+02 0.950061629795943D+01
 0.266468558040390D+03 0.435521388178239D+02 0.847859224144601D+02 0.231527103477858D+03
 0.000000000000000D+00 0.000000000000000D+00 0.000000000000000D+00 -.000000000000000D+00
 0.514676075925475D+03 0.000000000000000D+00 0.000000000000000D+00 0.514676075925475D+03
 0.645428568410336D+03 0.000000000000000D+00 0.000000000000000D+00 -.645428568410336D+03
 0.350916598935002D+03 -.186299206189782D+03 -.165402291091747D+03 -.233687679025653D+03
 0.142204853291413D+03 0.456582059341191D+02 -.134475545480566D+03 -.734004075016491D+01
 0.194088802912616D+02 -.159955067425708D+02 0.553052331771981D+01 0.950061629795943D+01
 0.252022243561921D+03 -.206487994608340D+02 -.341875319665481D+02 0.231527103477858D+03
 0.395552068256214D+03 0.177285306459067D+03 0.328534845221141D+03 -.130752492484861D+03
0.386724325255D-04 0.000000000000D+00 0.000000000000D+00 0.235559805575D-05 0.000000000000D+00  7 1 -2 -24 -11 11 23 21 0 0.50406031D-01 0.52259105D-01 0.39301125D+05 0.39301125D+05 0.39301125D+05 0.11566081D+01  1  2  2  2  7  2       -2 0.119316618845D-02 0.100000000000D+01
-.144087151640D-05 0.000000000000D+00 -.148512323583D-06 0.235559805575D-05 0.000000000000D+00  7 1 -2 -24 -11 11 23 21 2 0.50406031D-01 0.52259105D-01 0.39301125D+05 0.39301125D+05 0.39301125D+05 0.11566081D+01  1  2  3  2  7  2       -2 -.594698888671D-04 0.100000000000D+01
0.237998563821D-05 0.000000000000D+00 0.000000000000D+00 0.235559805575D-05 0.000000000000D+00  7 1 -2 -24 -11 11 23 21 2 0.50406031D-01 0.52259105D-01 0.39301125D+05 0.39301125D+05 0.39301125D+05 0.11566081D+01  1  2 15  2  7  2       -2 0.982304666297D-04 0.100000000000D+01
0.103863200901D-04 0.000000000000D+00 -.117737958237D-04 0.235559805575D-05 0.000000000000D+00  7 1 -2 -24 -11 11 23 21 2 0.50406031D-01 0.14237359D+00 0.39301125D+05 0.39301125D+05 0.39301125D+05 0.11566081D+01  1  2  5  2  7  2       -2 0.438459832488D-04 0.100000000000D+01
0.184190770996D-05 0.000000000000D+00 -.131842855197D-05 0.235559805575D-05 0.000000000000D+00  7 1 21 -24 -11 11 23 2 2 0.50406031D-01 0.14237359D+00 0.39301125D+05 0.39301125D+05 0.39301125D+05 0.11566081D+01  1  2  5  4  7  2       -2 0.721796227300D-04 0.100000000000D+01
  </mgrwgt>
  </event>
  <event>
  9     66 0.29493621E-05 0.19799570E+03 0.75467711E-02 0.97803233E-01
       21 -1    0    0  501  502 0.00000000E+00 0.00000000E+00 0.32290334E+03 0.32290421E+03 0.75000000E+00 0.0000E+00 0.9000E+01
       -4 -1    0    0    0  501 0.00000000E+00 0.00000000E+00 -.66220682E+03 0.66220863E+03 0.15500000E+01 0.0000E+00 0.9000E+01
       25  2    1    2    0    0 -.12834802E+03 -.15710740E+03 -.34485867E+03 0.50059476E+03 0.30085157E+03 0.0000E+00 0.0000E+00
       23  2    3    3    0    0 -.71509147E+02 -.10666921E+02 -.28697104E+03 0.30995977E+03 0.92170176E+02 0.0000E+00 0.0000E+00
      -24  1    1    2    0    0 -.14056703E+03 0.95566608E+02 -.66402021E+02 0.19942044E+03 0.80419002E+02 0.0000E+00 0.9000E+01
      -13  1    4    4    0    0 -.98951388E+01 0.37587663E+02 -.97519379E+02 0.10497993E+03 0.10565837E+00 0.0000E+00 0.9000E+01
       13  1    4    4    0    0 -.61614009E+02 -.48254585E+02 -.18945166E+03 0.20497983E+03 0.10565837E+00 0.0000E+00 0.9000E+01
       23  1    3    3    0    0 -.56838868E+02 -.14644048E+03 -.57887633E+02 0.19063499E+03 0.91188000E+02 0.0000E+00 0.9000E+01
       -3  1    1    2    0  502 0.26891505E+03 0.61540794E+02 0.71957213E+02 0.28509764E+03 0.50000000E+00 0.0000E+00 0.9000E+01
#aMCatNLO 2  0  0  1  2 0.27586695D+03 0.00000000D+00  -5  7  0 0.00000000D+00 0.00000000D+00 0.00000000D+00 0.00000000D+00 0.00000000D+00
  <mgrwgt>
 0.2336283157D-04    1    2    0
 0.247377926433077D+03 0.000000000000000D+00 0.000000000000000D+00 0.247377926433077D+03
 0.247377926433077D+03 0.000000000000000D+00 0.000000000000000D+00 -.247377926433077D+03
 0.162442658855933D+03 -.491732250097261D+02 0.116481947895305D+03 0.627244068801998D+02
 0.667680146807524D+02 0.219567684422312D+02 0.448770152165821D+02 -.442935842897600D+02
 0.930487990117144D+02 -.870142927979752D+01 -.361457215137262D+02 -.852985987121901D+02
 0.172496380317753D+03 0.359178858472925D+02 -.125213241598161D+03 0.668677761217503D+02
 0.000000000000000D+00 0.000000000000000D+00 0.000000000000000D+00 0.000000000000000D+00
 0.633462223137459D+03 0.000000000000000D+00 0.000000000000000D+00 0.633462223137459D+03
 0.337557522836882D+03 0.000000000000000D+00 0.000000000000000D+00 -.337557522836882D+03
 0.198226228607821D+03 -.140567040272261D+03 0.955666140675347D+02 0.627244068801998D+02
 0.589294030909004D+02 -.989506845887833D+01 0.375877714105247D+02 -.442935842897600D+02
 0.115761224059604D+03 -.616140739155608D+02 -.482546987250191D+02 -.852985987121901D+02
 0.193551083703374D+03 -.568388654747310D+02 -.146440481243498D+03 0.668677761217503D+02
 0.404551806512642D+03 0.268915048121431D+03 0.615407944904581D+02 0.295904700300577D+03
0.146950555507D-05 0.000000000000D+00 0.000000000000D+00 0.279541180627D-06 0.572300910166D-11  7 21 -4 -24 -13 13 23 -3 2 0.49677623D-01 0.10187814D+00 0.14541663D+06 0.14541663D+06 0.14541663D+06 0.11086170D+01  1  2  1  3  7  1        3 0.233628315695D-04 0.100000000000D+01
  </mgrwgt>
  </event>
  <event>
  9     66 0.29493621E-05 0.18338396E+03 0.75467711E-02 0.99233126E-01
       21 -1    0    0  501  502 0.00000000E+00 0.00000000E+00 0.12730361E+04 0.12730363E+04 0.75000000E+00 0.0000E+00 0.9000E+01
       -2 -1    0    0    0  501 0.00000000E+00 0.00000000E+00 -.10492051E+03 0.10492100E+03 0.32000000E+00 0.0000E+00 0.9000E+01
       25  2    1    2    0    0 0.12234382E+03 0.12334278E+03 0.38956608E+03 0.52209452E+03 0.30106395E+03 0.0000E+00 0.0000E+00
       23  2    3    3    0    0 -.64686499E+02 0.58224641E+02 0.13440721E+03 0.18647268E+03 0.95563133E+02 0.0000E+00 0.0000E+00
      -24  1    1    2    0    0 0.56666821E+01 0.79066351E+02 0.19948057E+03 0.22922328E+03 0.80419002E+02 0.0000E+00 0.9000E+01
      -11  1    4    4    0    0 -.75075974E+02 0.34351024E+02 0.46425093E+02 0.94718974E+02 0.51099893E-03 0.0000E+00 0.9000E+01
       11  1    4    4    0    0 0.10389475E+02 0.23873617E+02 0.87982115E+02 0.91753710E+02 0.51099893E-03 0.0000E+00 0.9000E+01
       23  1    3    3    0    0 0.18703032E+03 0.65118136E+02 0.25515887E+03 0.33562183E+03 0.91188000E+02 0.0000E+00 0.9000E+01
       -1  1    1    2    0  502 -.12801051E+03 -.20240913E+03 0.57906894E+03 0.62663951E+03 0.32000000E+00 0.0000E+00 0.9000E+01
#aMCatNLO 2  0  0  1  2 0.23949143D+03 0.00000000D+00  -5  7  0 0.00000000D+00 0.00000000D+00 0.00000000D+00 0.00000000D+00 0.00000000D+00
  <mgrwgt>
 0.3257868017D-04    1    2    0
 0.200091438325657D+03 0.000000000000000D+00 0.000000000000000D+00 0.200091438325657D+03
 0.200091438325657D+03 0.000000000000000D+00 0.000000000000000D+00 -.200091438325657D+03
 0.949241644061231D+02 -.256872416882398D+02 0.294897987095356D+02 0.318417716270810D+02
 0.116134548243195D+03 -.106111007535435D+03 -.147213113001957D+02 -.448438442717455D+02
 0.273585550127522D+02 0.928169406728564D+00 0.891347907075149D+01 0.258491571389374D+02
 0.161765608989244D+03 0.130870079816946D+03 -.236819664800914D+02 -.128470844942729D+02
 0.000000000000000D+00 -.000000000000000D+00 -.000000000000000D+00 0.000000000000000D+00
 0.442945124359585D+03 0.000000000000000D+00 0.000000000000000D+00 0.442945124359585D+03
 0.301545277045646D+03 0.000000000000000D+00 0.000000000000000D+00 -.301545277045646D+03
 0.117323118616197D+03 0.566668067536673D+01 0.790663551533260D+02 0.318417716270810D+02
 0.939540569650659D+02 -.750759727242448D+02 0.343510228469945D+02 -.448438442717455D+02
 0.366888220196736D+02 0.103894753818733D+02 0.238736159323898D+02 0.258491571389374D+02
 0.218405613381770D+03 0.187030322819183D+03 0.651181340243723D+02 -.128470844942729D+02
 0.278118790422526D+03 -.128010506152179D+03 -.202409127957082D+03 0.141399847313939D+03
0.851093945766D-06 0.000000000000D+00 0.000000000000D+00 0.149182506206D-07 0.377435661934D-12  7 21 -2 -24 -11 11 23 -1 2 0.19585171D+00 0.16141667D-01 0.11527253D+06 0.11527253D+06 0.11527253D+06 0.11166916D+01  1  2  1  3  7  1        1 0.325786801655D-04 0.100000000000D+01
  </mgrwgt>
  </event>
  <event>
  9     66 -.29493621E-05 0.23831155E+03 0.75467711E-02 0.10235374E+00
        1 -1    0    0  501    0 0.00000000E+00 0.00000000E+00 0.14630244E+03 0.14630279E+03 0.32000000E+00 0.0000E+00 0.9000E+01
       -2 -1    0    0    0  502 0.00000000E+00 0.00000000E+00 -.67412445E+03 0.67412453E+03 0.32000000E+00 0.0000E+00 0.9000E+01
       25  2    1    2    0    0 -.17723984E+03 -.74934832E+02 -.16473662E+03 0.39230785E+03 0.29956318E+03 0.0000E+00 0.0000E+00
       23  2    3    3    0    0 -.11468121E+03 0.56424095E+02 -.42176178E+01 0.15725391E+03 0.91518006E+02 0.0000E+00 0.0000E+00
      -24  1    1    2    0    0 0.12377535E+03 0.57352028E+02 -.32067437E+03 0.35764348E+03 0.80419002E+02 0.0000E+00 0.9000E+01
      -13  1    4    4    0    0 -.10468110E+03 0.16995251E+02 -.28584762E+02 0.10983656E+03 0.10565837E+00 0.0000E+00 0.9000E+01
       13  1    4    4    0    0 -.10000114E+02 0.39428843E+02 0.24367145E+02 0.47417348E+02 0.10565837E+00 0.0000E+00 0.9000E+01
       23  1    3    3    0    0 -.62558631E+02 -.13135893E+03 -.16051901E+03 0.23505394E+03 0.91188000E+02 0.0000E+00 0.9000E+01
       21  1    1    2  501  502 0.53464493E+02 0.17582804E+02 -.42411022E+02 0.70475984E+02 0.75000000E+00 0.0000E+00 0.9000E+01
#aMCatNLO 2  0  0  2  1 0.56281498D+02 0.00000000D+00  -5  7  0 0.00000000D+00 0.00000000D+00 0.00000000D+00 0.00000000D+00 0.00000000D+00
  <mgrwgt>
 -.1023416210D-03    2    2    0
 0.284444878573639D+03 0.000000000000000D+00 0.000000000000000D+00 0.284444878573639D+03
 0.284444878573639D+03 0.000000000000000D+00 0.000000000000000D+00 -.284444878573639D+03
 0.211257689975120D+03 0.142907661281100D+03 0.636440485301567D+02 -.117001842092810D+03
 0.111091544727623D+03 -.938570962625944D+02 0.205549394520979D+02 0.557644264315903D+02
 0.835792522686771D+02 -.219634274457814D+01 0.419952486464692D+02 0.722292640102385D+02
 0.162961270175857D+03 -.468542222739277D+02 -.126194236628724D+03 -.109918483490188D+02
 0.000000000000000D+00 0.000000000000000D+00 0.000000000000000D+00 0.000000000000000D+00
 0.316154936281757D+03 0.000000000000000D+00 0.000000000000000D+00 0.316154936281757D+03
 0.311950397594055D+03 0.000000000000000D+00 0.000000000000000D+00 -.311950397594055D+03
 0.196891441071583D+03 0.123775350590008D+03 0.573520282647764D+02 -.117001842092810D+03
 0.119819311562473D+03 -.104681223789605D+03 0.169952215040341D+02 0.557644264315903D+02
 0.828957319345801D+02 -.999998822068947D+01 0.394288730386135D+02 0.722292640102385D+02
 0.172060518840976D+03 -.625586314425022D+02 -.131358926996757D+03 -.109918483490188D+02
 0.564383304662002D+02 0.534644928627891D+02 0.175828041893327D+02 0.420453868770174D+01
-.164901717047D-04 0.000000000000D+00 0.000000000000D+00 0.158284934894D-05 0.000000000000D+00  7 1 -2 -24 -13 13 23 21 2 0.20250397D-01 0.10846648D+00 0.71042563D+05 0.71042563D+05 0.71042563D+05 0.11341142D+01  1  2 13  2  7  2       -2 -.428316049397D-03 0.100000000000D+01
0.129088078876D-04 0.000000000000D+00 0.000000000000D+00 0.158284934894D-05 0.346468616441D-08  7 1 -2 -24 -13 13 23 21 2 0.22507921D-01 0.10371066D+00 0.71042563D+05 0.71042563D+05 0.71042563D+05 0.11341142D+01  1  2  1  2  7  2       -2 0.325974428379D-03 0.100000000000D+01
  </mgrwgt>
  </event>
  <event>
  9     66 0.29493621E-05 0.17825220E+03 0.75467711E-02 0.10508472E+00
        1 -1    0    0  501    0 0.00000000E+00 0.00000000E+00 0.91389881E+02 0.91390441E+02 0.32000000E+00 0.0000E+00 0.9000E+01
       -2 -1    0    0    0  502 0.00000000E+00 0.00000000E+00 -.81987752E+03 0.81987758E+03 0.32000000E+00 0.0000E+00 0.9000E+01
       25  2    1    2    0    0 -.94793339E+02 0.32211830E+02 -.52281929E+03 0.61062602E+03 0.29916675E+03 0.0000E+00 0.0000E+00
       23  2    3    3    0    0 -.66401734E+02 -.56419141E+02 -.83074112E+02 0.15198389E+03 0.92765746E+02 0.0000E+00 0.0000E+00
      -24  1    1    2    0    0 0.71696943E+02 -.99691879E+02 -.15260653E+03 0.21174251E+03 0.80419002E+02 0.0000E+00 0.9000E+01
      -11  1    4    4    0    0 -.39597565E+02 -.24946745E+02 0.11996873E+02 0.48313892E+02 0.51099893E-03 0.0000E+00 0.9000E+01
       11  1    4    4    0    0 -.26804170E+02 -.31472396E+02 -.95070986E+02 0.10366999E+03 0.51099893E-03 0.0000E+00 0.9000E+01
       23  1    3    3    0    0 -.28391605E+02 0.88630971E+02 -.43974518E+03 0.45864214E+03 0.91188000E+02 0.0000E+00 0.9000E+01
       21  1    1    2  501  502 0.23096396E+02 0.67480049E+02 -.53061813E+02 0.88899488E+02 0.75000000E+00 0.0000E+00 0.9000E+01
#aMCatNLO 2  0  0  2  1 0.71323212D+02 0.00000000D+00  -5  7  0 0.00000000D+00 0.00000000D+00 0.00000000D+00 0.00000000D+00 0.00000000D+00
  <mgrwgt>
 0.1691790234D-03    1    2    0
 0.231842058429697D+03 0.000000000000000D+00 0.000000000000000D+00 0.231842058429697D+03
 0.231842058429697D+03 0.000000000000000D+00 0.000000000000000D+00 -.231842058429697D+03
 0.142305318166511D+03 0.789705105813674D+02 -.784409135511683D+02 0.373399138172217D+02
 0.975596374317680D+02 -.346574326559864D+02 -.105133095292718D+02 0.905881644601297D+02
 0.394637260633626D+02 -.247165474466563D+02 -.253730525966139D+02 -.173978780042503D+02
 0.184355435197752D+03 -.195965304787246D+02 0.114327275677054D+03 -.110530200273101D+03
 0.000000000000000D+00 0.000000000000000D+00 0.000000000000000D+00 0.000000000000000D+00
 0.291775472188741D+03 0.000000000000000D+00 0.000000000000000D+00 0.291775472188741D+03
 0.256799506691260D+03 0.000000000000000D+00 0.000000000000000D+00 -.256799506691260D+03
 0.151460910775842D+03 0.716969425919634D+02 -.996918792969825D+02 0.373399138172217D+02
 0.101963340281645D+03 -.395975646414491D+02 -.249467451905324D+02 0.905881644601297D+02
 0.448515479265150D+02 -.268041695675467D+02 -.314723956213679D+02 -.173978780042503D+02
 0.170861665660535D+03 -.283916045190383D+02 0.886309712725466D+02 -.110530200273101D+03
 0.794375142354641D+02 0.230963961360707D+02 0.674800488363362D+02 0.349759654974803D+02
0.572598867928D-05 0.000000000000D+00 0.000000000000D+00 0.163546213430D-06 0.233264576592D-09  7 1 -2 -24 -11 11 23 21 2 0.14059936D-01 0.12613421D+00 0.47642819D+05 0.47642819D+05 0.47642819D+05 0.11491447D+01  1  2  1  2  7  2       -2 0.169179023358D-03 0.100000000000D+01
  </mgrwgt>
  </event>
  <event>
  8     66 0.29493621E-05 0.18463139E+03 0.75467711E-02 0.10385951E+00
        1 -1    0    0  501    0 0.00000000E+00 0.00000000E+00 0.89307214E+02 0.89307787E+02 0.32000000E+00 0.0000E+00 0.9000E+01
       -2 -1    0    0    0  501 0.00000000E+00 0.00000000E+00 -.79607527E+03 0.79607533E+03 0.32000000E+00 0.0000E+00 0.9000E+01
       25  2    1    2    0    0 0.10028041E+03 0.51386931E+01 -.22559137E+03 0.38730604E+03 0.29838219E+03 0.0000E+00 0.0000E+00
       23  2    3    3    0    0 0.13405105E+03 0.32842072E+02 -.30968158E+02 0.16798577E+03 0.90619558E+02 0.0000E+00 0.0000E+00
      -24  1    1    2    0    0 -.10028041E+03 -.51386931E+01 -.48117668E+03 0.49807708E+03 0.80419002E+02 0.0000E+00 0.9000E+01
      -11  1    4    4    0    0 0.38649494E+02 0.11969036E+00 0.31057788E+02 0.49582093E+02 0.51099893E-03 0.0000E+00 0.9000E+01
       11  1    4    4    0    0 0.95401559E+02 0.32722382E+02 -.62025947E+02 0.11840367E+03 0.51099893E-03 0.0000E+00 0.9000E+01
       23  1    3    3    0    0 -.33770646E+02 -.27703379E+02 -.19462322E+03 0.21932027E+03 0.91188000E+02 0.0000E+00 0.9000E+01
#aMCatNLO 1  0  0  2  2 0.96745013D+02 0.00000000D+00  -5  7  0 0.00000000D+00 0.00000000D+00 0.00000000D+00 0.00000000D+00 0.00000000D+00
  <mgrwgt>
 0.3367309856D-03    4    2    0
 0.266637480547232D+03 0.000000000000000D+00 0.000000000000000D+00 0.266637480547232D+03
 0.266637480547232D+03 0.000000000000000D+00 0.000000000000000D+00 -.266637480547232D+03
 0.189224586803592D+03 -.100280407584034D+03 -.513869310341376D+01 -.138766573729370D+03
 0.123481891083975D+03 0.386494942928532D+02 0.119690357226350D+00 0.117277362226475D+03
 0.114377497377237D+03 0.954015588195705D+02 0.327223819314837D+02 0.539444177075451D+02
 0.106190985829659D+03 -.337706455283902D+02 -.277033791852963D+02 -.324552062046504D+02
 0.000000000000000D+00 0.000000000000000D+00 -.000000000000000D+00 0.000000000000000D+00
 0.324586530538190D+03 0.000000000000000D+00 0.000000000000000D+00 0.324586530538190D+03
 0.314647214053220D+03 0.000000000000000D+00 0.000000000000000D+00 -.314647214053220D+03
 0.199117560072252D+03 -.114973264001011D+03 0.265626308019636D+02 -.138766573729370D+03
 0.122568699986633D+03 0.293402137138674D+02 0.202054048422232D+02 0.117277362226475D+03
 0.114352557837794D+03 0.867475976501271D+02 0.513941785046864D+02 0.539444177075451D+02
 0.105940685066955D+03 -.417966097639280D+02 -.103865495190266D+02 -.324552062046504D+02
 0.972542416277772D+02 0.406820624009449D+02 -.877756646298465D+02 0.993931648497024D+01
0.261833605743D-04 0.000000000000D+00 0.000000000000D+00 0.210442852668D-06 0.000000000000D+00  7 1 -2 -24 -11 11 23 21 0 0.13739620D-01 0.12247317D+00 0.34088751D+05 0.34088751D+05 0.34088751D+05 0.11622222D+01  1  2  2  2  7  2       -2 0.652395670127D-03 0.100000000000D+01
-.121573084143D-05 0.000000000000D+00 -.100550998842D-06 0.210442852668D-06 0.000000000000D+00  7 1 -2 -24 -11 11 23 21 2 0.13739620D-01 0.12247317D+00 0.34088751D+05 0.34088751D+05 0.34088751D+05 0.11622222D+01  1  2  3  2  7  2       -2 -.409167821594D-04 0.100000000000D+01
0.164900548031D-05 0.000000000000D+00 0.000000000000D+00 0.210442852668D-06 0.000000000000D+00  7 1 -2 -24 -11 11 23 21 2 0.13739620D-01 0.12247317D+00 0.34088751D+05 0.34088751D+05 0.34088751D+05 0.11622222D+01  1  2 15  2  7  2       -2 0.554991250680D-04 0.100000000000D+01
-.981239177091D-05 0.000000000000D+00 0.000000000000D+00 0.210442852668D-06 0.000000000000D+00  7 1 -2 -24 -11 11 23 21 2 0.13739620D-01 0.12247317D+00 0.34088751D+05 0.34088751D+05 0.34088751D+05 0.11622222D+01  1  2  4  2  7  2       -2 -.330247027443D-03 0.100000000000D+01
  </mgrwgt>
  </event>
  <event>
  8     66 0.29493621E-05 0.18422665E+03 0.75467711E-02 0.95799836E-01
        1 -1    0    0  501    0 0.00000000E+00 0.00000000E+00 0.22506207E+04 0.22506207E+04 0.32000000E+00 0.0000E+00 0.9000E+01
       -2 -1    0    0    0  501 0.00000000E+00 0.00000000E+00 -.80336091E+02 0.80336729E+02 0.32000000E+00 0.0000E+00 0.9000E+01
       25  2    1    2    0    0 -.25281389E+02 -.25358940E+03 0.19357081E+04 0.19753733E+04 0.30031162E+03 0.0000E+00 0.0000E+00
       23  2    3    3    0    0 0.35134318E+02 -.17839680E+02 0.96831823E+03 0.97368153E+03 0.94142662E+02 0.0000E+00 0.0000E+00
      -24  1    1    2    0    0 0.25281389E+02 0.25358940E+03 0.23457648E+03 0.35558413E+03 0.80419002E+02 0.0000E+00 0.9000E+01
      -13  1    4    4    0    0 0.14169482E+01 -.53015758E+02 0.54153350E+03 0.54412427E+03 0.10565837E+00 0.0000E+00 0.9000E+01
       13  1    4    4    0    0 0.33717370E+02 0.35176078E+02 0.42678473E+03 0.42955725E+03 0.10565837E+00 0.0000E+00 0.9000E+01
       23  1    3    3    0    0 -.60415708E+02 -.23574972E+03 0.96738985E+03 0.10016917E+04 0.91188000E+02 0.0000E+00 0.9000E+01
#aMCatNLO 1  0  0  1  2 0.22627026D+03 0.00000000D+00  -5  7  0 0.00000000D+00 0.00000000D+00 0.00000000D+00 0.00000000D+00 0.00000000D+00
  <mgrwgt>
 0.1314440488D-02    7    2    0
 0.425213870948903D+03 0.000000000000000D+00 0.000000000000000D+00 0.425213870948903D+03
 0.425213870948903D+03 0.000000000000000D+00 0.000000000000000D+00 -.425213870948903D+03
 0.375991669847529D+03 0.252813893732452D+02 0.253589401173797D+03 -.264491562822023D+03
 0.109414026230794D+03 0.141690803497649D+01 -.530158672900623D+02 0.957013026198486D+02
 0.882324558130762D+02 0.337174104948237D+02 0.351761881726617D+02 0.735577206958692D+02
 0.276789590006406D+03 -.604157079030454D+02 -.235749722056396D+03 0.952325395063058D+02
 0.000000000000000D+00 -.000000000000000D+00 -.000000000000000D+00 0.000000000000000D+00
 0.859683565382877D+03 0.000000000000000D+00 0.000000000000000D+00 0.859683565382877D+03
 0.470505907771282D+03 0.000000000000000D+00 0.000000000000000D+00 -.470505907771282D+03
 0.443667559077973D+03 0.970905684929176D+02 0.333153600805278D+03 -.264491562822023D+03
 0.103001652915767D+03 0.200263435337484D+02 -.323967088592731D+02 0.957013026198486D+02
 0.104260631229068D+03 0.505814560382727D+02 0.538614635464025D+02 0.735577206958692D+02
 0.229084687317747D+03 -.160967820489126D+02 -.186644581079440D+03 0.952325395063058D+02
 0.450174942613603D+03 -.151601586016026D+03 -.167973774412966D+03 0.389177657611595D+03
0.123510491032D-03 0.000000000000D+00 0.000000000000D+00 0.126027276371D-05 0.000000000000D+00  7 1 -2 -24 -13 13 23 21 0 0.34624938D+00 0.12359449D-01 0.98874261D+05 0.98874261D+05 0.98874261D+05 0.11221257D+01  1  2  2  1  7  1        1 0.130035170505D-02 0.100000000000D+01
-.610185251039D-05 0.000000000000D+00 -.474312806623D-06 0.126027276371D-05 0.000000000000D+00  7 1 -2 -24 -13 13 23 21 2 0.34624938D+00 0.12359449D-01 0.98874261D+05 0.98874261D+05 0.98874261D+05 0.11221257D+01  1  2  3  1  7  1        1 -.808912862240D-04 0.100000000000D+01
0.798569251826D-05 0.000000000000D+00 0.000000000000D+00 0.126027276371D-05 0.000000000000D+00  7 1 -2 -24 -13 13 23 21 2 0.34624938D+00 0.12359449D-01 0.98874261D+05 0.98874261D+05 0.98874261D+05 0.11221257D+01  1  2 15  1  7  1        1 0.105865052964D-03 0.100000000000D+01
0.204254548016D-04 0.000000000000D+00 0.000000000000D+00 0.126027276371D-05 0.000000000000D+00  7 1 -2 -24 -13 13 23 21 2 0.70073682D+00 0.12359449D-01 0.20376516D+06 0.20376516D+06 0.20376516D+06 0.10972038D+01  1  2 12  1  7  1        1 0.308369329700D-05 0.100000000000D+01
-.940718355826D-04 0.000000000000D+00 -.277947216264D-04 0.126027276371D-05 0.000000000000D+00  7 1 -2 -24 -13 13 23 21 2 0.70827773D+00 0.12359449D-01 0.98874261D+05 0.98874261D+05 0.98874261D+05 0.11221257D+01  1  2  5  1  7  1        1 -.139381304701D-04 0.100000000000D+01
0.155741358080D-05 0.000000000000D+00 0.000000000000D+00 0.126027276371D-05 0.000000000000D+00  7 21 -2 -24 -13 13 23 -1 2 0.70073682D+00 0.12359449D-01 0.20376516D+06 0.20376516D+06 0.20376516D+06 0.10972038D+01  1  2 12  3  7  1        1 0.123765918019D-07 0.100000000000D+01
-.558496732717D-05 0.000000000000D+00 -.215105738143D-05 0.126027276371D-05 0.000000000000D+00  7 21 -2 -24 -13 13 23 -1 2 0.70827773D+00 0.12359449D-01 0.98874261D+05 0.98874261D+05 0.98874261D+05 0.11221257D+01  1  2  5  3  7  1        1 -.429230036952D-07 0.100000000000D+01
  </mgrwgt>
  </event>
  <event>
  9     66 0.29493621E-05 0.38840925E+03 0.75467711E-02 0.93793994E-01
        1 -1    0    0  501    0 0.00000000E+00 0.00000000E+00 0.22963600E+04 0.22963601E+04 0.32000000E+00 0.0000E+00 0.9000E+01
       21 -1    0    0  502  501 0.00000000E+00 0.00000000E+00 -.39500846E+03 0.39500917E+03 0.75000000E+00 0.0000E+00 0.9000E+01
       25  2    1    2    0    0 0.21835739E+03 0.23562765E+03 -.17798994E+03 0.47477684E+03 0.30088584E+03 0.0000E+00 0.0000E+00
       23  2    3    3    0    0 0.15683372E+02 -.13039437E+02 0.73778260E+01 0.93216179E+02 0.90657755E+02 0.0000E+00 0.0000E+00
      -24  1    1    2    0    0 -.97139040E+01 -.38932632E+03 0.17648022E+04 0.18090504E+04 0.80419002E+02 0.0000E+00 0.9000E+01
      -11  1    4    4    0    0 0.48409403E+02 0.57551601E+01 0.21017607E+02 0.53087964E+02 0.51099893E-03 0.0000E+00 0.9000E+01
       11  1    4    4    0    0 -.32726031E+02 -.18794597E+02 -.13639780E+02 0.40128215E+02 0.51099893E-03 0.0000E+00 0.9000E+01
       23  1    3    3    0    0 0.20267402E+03 0.24866709E+03 -.18536776E+03 0.38156066E+03 0.91188000E+02 0.0000E+00 0.9000E+01
        2  1    1    2  502    0 -.20864348E+03 0.15369866E+03 0.31453928E+03 0.40754195E+03 0.32000000E+00 0.0000E+00 0.9000E+01
#aMCatNLO 2  0  0  2  2 0.25914356D+03 0.00000000D+00  -5  7  0 0.00000000D+00 0.00000000D+00 0.00000000D+00 0.00000000D+00 0.00000000D+00
  <mgrwgt>
 0.1214838689D-03    1    2    0
 0.810977557008988D+03 0.000000000000000D+00 0.000000000000000D+00 0.810977557008988D+03
 0.810977557008988D+03 0.000000000000000D+00 0.000000000000000D+00 -.810977557008988D+03
 0.785062822061169D+03 -.111686803876523D+03 -.314207275448837D+03 0.706155977474624D+03
 0.485075062291007D+02 0.418890925953473D+02 0.105583915788475D+02 -.220636000999923D+02
 0.722763845645489D+02 -.417537197236159D+02 -.121442882039033D+02 -.577323039466192D+02
 0.716108401163157D+03 0.111551431004792D+03 0.315793172073892D+03 -.626360073428013D+03
 0.000000000000000D+00 -.000000000000000D+00 0.000000000000000D+00 0.000000000000000D+00
 0.974472740229483D+03 0.000000000000000D+00 0.000000000000000D+00 0.974472740229483D+03
 0.930844351020823D+03 0.000000000000000D+00 0.000000000000000D+00 -.930844351020823D+03
 0.810427554653109D+03 -.971390397362003D+01 -.389326316774369D+03 0.706155977474624D+03
 0.535106959483662D+02 0.484094026334065D+02 0.575516013529113D+01 -.220636000999923D+02
 0.689728129290799D+02 -.327260311285611D+02 -.187945973869479D+02 -.577323039466192D+02
 0.709615580065375D+03 0.202674016856039D+03 0.248667089567982D+03 -.626360073428013D+03
 0.262790447654376D+03 -.208643484387265D+03 0.153698664458043D+03 0.436283892086609D+02
0.184971891431D-04 0.000000000000D+00 0.000000000000D+00 0.115311455332D-04 0.261923711186D-10  7 1 21 -24 -11 11 23 2 2 0.35328618D+00 0.60770583D-01 0.28987689D+06 0.28987689D+06 0.28987689D+06 0.10856565D+01  1  2  1  4  7  2       -2 0.121483868917D-03 0.100000000000D+01
  </mgrwgt>
  </event>
  <event>
  8     66 0.29493621E-05 0.38760570E+03 0.75467711E-02 0.95355855E-01
        1 -1    0    0  501    0 0.00000000E+00 0.00000000E+00 0.96528734E+03 0.96528739E+03 0.32000000E+00 0.0000E+00 0.9000E+01
       -2 -1    0    0    0  501 0.00000000E+00 0.00000000E+00 -.18372707E+03 0.18372735E+03 0.32000000E+00 0.0000E+00 0.9000E+01
       25  2    1    2    0    0 0.21086867E+03 -.25411541E+03 0.23181080E+03 0.50269289E+03 0.29987274E+03 0.0000E+00 0.0000E+00
       23  2    3    3    0    0 -.31817313E+02 -.74453245E+02 0.11118945E+03 0.16499518E+03 0.91130068E+02 0.0000E+00 0.0000E+00
      -24  1    1    2    0    0 -.21086867E+03 0.25411541E+03 0.54974946E+03 0.64632185E+03 0.80419002E+02 0.0000E+00 0.9000E+01
      -11  1    4    4    0    0 -.19747929E+02 -.94492279E+02 0.10024572E+03 0.13916888E+03 0.51099893E-03 0.0000E+00 0.9000E+01
       11  1    4    4    0    0 -.12069384E+02 0.20039034E+02 0.10943732E+02 0.25826309E+02 0.51099893E-03 0.0000E+00 0.9000E+01
       23  1    3    3    0    0 0.24268599E+03 -.17966216E+03 0.12062135E+03 0.33769771E+03 0.91188000E+02 0.0000E+00 0.9000E+01
#aMCatNLO 1  0  0  2  2 0.15037731D+03 0.00000000D+00  -5  7  0 0.00000000D+00 0.00000000D+00 0.00000000D+00 0.00000000D+00 0.00000000D+00
  <mgrwgt>
 0.9575585043D-03    4    2    0
 0.421128963392820D+03 0.000000000000000D+00 0.000000000000000D+00 0.421128963392820D+03
 0.421128963392820D+03 0.000000000000000D+00 0.000000000000000D+00 -.421128963392820D+03
 0.371585682731079D+03 -.210868672281253D+03 0.254115408736651D+03 0.150228045814679D+03
 0.968337780570840D+02 -.197479289242850D+02 -.944922791737336D+02 0.761636741256484D+01
 0.250773808093882D+02 -.120693843592973D+02 0.200390343244685D+02 -.903560140717791D+01
 0.348761085188089D+03 0.242685985564835D+03 -.179662163887386D+03 -.148808811820066D+03
 0.000000000000000D+00 0.000000000000000D+00 -.000000000000000D+00 0.000000000000000D+00
 0.547771022921176D+03 0.000000000000000D+00 0.000000000000000D+00 0.547771022921176D+03
 0.474906374797093D+03 0.000000000000000D+00 0.000000000000000D+00 -.474906374797093D+03
 0.435959962578785D+03 -.263036273236623D+03 0.303046739348596D+03 0.150228045814679D+03
 0.893950433220782D+02 -.317783459001196D+02 -.832081813876822D+02 0.761636741256484D+01
 0.294932740886971D+02 -.155946589553905D+02 0.233456149147260D+02 -.903560140717791D+01
 0.300728572493540D+03 0.200728831212806D+03 -.140307864407678D+03 -.148808811820066D+03
 0.167100545235168D+03 0.109680446879328D+03 -.102876308467961D+03 0.728646481240832D+02
0.648979535794D-04 0.000000000000D+00 0.000000000000D+00 0.712500824345D-05 0.000000000000D+00  7 1 -2 -24 -11 11 23 21 0 0.14850577D+00 0.28265728D-01 0.15023818D+06 0.15023818D+06 0.15023818D+06 0.11074975D+01  1  2  2  2  7  2       -2 0.128039576645D-02 0.100000000000D+01
-.357527859694D-05 0.000000000000D+00 -.249225229769D-06 0.712500824345D-05 0.000000000000D+00  7 1 -2 -24 -11 11 23 21 2 0.14850577D+00 0.28265728D-01 0.15023818D+06 0.15023818D+06 0.15023818D+06 0.11074975D+01  1  2  3  2  7  2       -2 -.865184331936D-04 0.100000000000D+01
0.417834675212D-05 0.000000000000D+00 0.000000000000D+00 0.712500824345D-05 0.000000000000D+00  7 1 -2 -24 -11 11 23 21 2 0.14850577D+00 0.28265728D-01 0.15023818D+06 0.15023818D+06 0.15023818D+06 0.11074975D+01  1  2 15  2  7  2       -2 0.101112124421D-03 0.100000000000D+01
-.139439610833D-04 0.000000000000D+00 0.000000000000D+00 0.712500824345D-05 0.000000000000D+00  7 1 -2 -24 -11 11 23 21 2 0.14850577D+00 0.28265728D-01 0.15023818D+06 0.15023818D+06 0.15023818D+06 0.11074975D+01  1  2  4  2  7  2       -2 -.337430953345D-03 0.100000000000D+01
  </mgrwgt>
  </event>
  <event>
  8     66 0.29493621E-05 0.12099977E+03 0.75467711E-02 0.95135183E-01
        1 -1    0    0  501    0 0.00000000E+00 0.00000000E+00 0.92844407E+03 0.92844412E+03 0.32000000E+00 0.0000E+00 0.9000E+01
       -2 -1    0    0    0  501 0.00000000E+00 0.00000000E+00 -.20958552E+03 0.20958577E+03 0.32000000E+00 0.0000E+00 0.9000E+01
       25  2    1    2    0    0 0.21508310E+03 -.30348469E+03 0.26699538E+03 0.54725817E+03 0.29973533E+03 0.0000E+00 0.0000E+00
       23  2    3    3    0    0 -.20913707E+02 -.29480665E+02 0.98047998E+02 0.13783031E+03 0.89873758E+02 0.0000E+00 0.0000E+00
      -24  1    1    2    0    0 -.21508310E+03 0.30348469E+03 0.45186316E+03 0.59077172E+03 0.80419002E+02 0.0000E+00 0.9000E+01
      -13  1    4    4    0    0 0.17902359E+01 -.42849370E+02 0.75138179E+01 0.43540121E+02 0.10565837E+00 0.0000E+00 0.9000E+01
       13  1    4    4    0    0 -.22703943E+02 0.13368705E+02 0.90534181E+02 0.94290192E+02 0.10565837E+00 0.0000E+00 0.9000E+01
       23  1    3    3    0    0 0.23599680E+03 -.27400403E+03 0.16894738E+03 0.40942785E+03 0.91188000E+02 0.0000E+00 0.9000E+01
#aMCatNLO 1  0  0  1  2 0.12576469D+03 0.00000000D+00  -5  7  0 0.00000000D+00 0.00000000D+00 0.00000000D+00 0.00000000D+00 0.00000000D+00
  <mgrwgt>
 0.1290451029D-02    9    2    0
 0.441121985641674D+03 0.000000000000000D+00 0.000000000000000D+00 0.441121985641674D+03
 0.441121985641674D+03 0.000000000000000D+00 0.000000000000000D+00 -.441121985641674D+03
 0.393870852575977D+03 -.215083097642757D+03 0.303484690851397D+03 0.101505350015578D+03
 0.500412476050465D+02 0.179026967240865D+01 -.428494479272329D+02 -.257846118586452D+02
 0.478595336516563D+02 -.227039766348787D+02 0.133687830023019D+02 0.399542243993582D+02
 0.390472337450668D+03 0.235996804605227D+03 -.274004025926466D+03 -.115674962556291D+03
 0.000000000000000D+00 -.000000000000000D+00 -.000000000000000D+00 0.000000000000000D+00
 0.644106509914293D+03 0.000000000000000D+00 0.000000000000000D+00 0.644106509914293D+03
 0.465499244591005D+03 0.000000000000000D+00 0.000000000000000D+00 -.465499244591005D+03
 0.390131264457599D+03 -.165523107909149D+03 0.328685187100402D+03 0.101505350015578D+03
 0.480060354716689D+02 0.798824061804329D+01 -.396978745631853D+02 -.257846118586452D+02
 0.463222078309696D+02 -.167503624295585D+02 0.163961047038530D+02 0.399542243993582D+02
 0.406703318334035D+03 0.286389547760128D+03 -.248380087308274D+03 -.115674962556291D+03
 0.218442928411024D+03 -.112104318039464D+03 -.570033299327954D+02 0.178607265323288D+03
0.638750612710D-04 0.000000000000D+00 0.000000000000D+00 0.381939211009D-05 0.000000000000D+00  7 1 -2 -24 -13 13 23 21 0 0.14283757D+00 0.32243950D-01 0.16922772D+06 0.16922772D+06 0.16922772D+06 0.11034419D+01  1  2  2  1  7  1        1 0.106368034068D-02 0.100000000000D+01
-.352758086908D-05 0.000000000000D+00 -.245297053971D-06 0.381939211009D-05 0.000000000000D+00  7 1 -2 -24 -13 13 23 21 2 0.14283757D+00 0.32243950D-01 0.16922772D+06 0.16922772D+06 0.16922772D+06 0.11034419D+01  1  2  3  1  7  1        1 -.715246505378D-04 0.100000000000D+01
0.408380277053D-05 0.000000000000D+00 0.000000000000D+00 0.381939211009D-05 0.000000000000D+00  7 1 -2 -24 -13 13 23 21 2 0.14283757D+00 0.32243950D-01 0.16922772D+06 0.16922772D+06 0.16922772D+06 0.11034419D+01  1  2 15  1  7  1        1 0.828025144904D-04 0.100000000000D+01
0.970416579154D-04 0.000000000000D+00 0.000000000000D+00 0.381939211009D-05 0.000000000000D+00  7 1 -2 -24 -13 13 23 21 2 0.21108355D+00 0.32243950D-01 0.22862691D+06 0.22862691D+06 0.22862691D+06 0.10933910D+01  1  2 12  1  7  1        1 0.914299319730D-03 0.100000000000D+01
-.102097102471D-03 0.000000000000D+00 0.000000000000D+00 0.381939211009D-05 0.000000000000D+00  7 1 -2 -24 -13 13 23 21 2 0.14283757D+00 0.32243950D-01 0.16922772D+06 0.16922772D+06 0.16922772D+06 0.11034419D+01  1  2  4  1  7  1        1 -.207010408724D-02 0.100000000000D+01
-.124452068166D-03 0.000000000000D+00 -.248658577527D-04 0.381939211009D-05 0.000000000000D+00  7 1 -2 -24 -13 13 23 21 2 0.21341278D+00 0.32243950D-01 0.16922772D+06 0.16922772D+06 0.16922772D+06 0.11034419D+01  1  2  5  1  7  1        1 -.117910446668D-02 0.100000000000D+01
0.126018784295D-03 0.000000000000D+00 0.229878004812D-04 0.381939211009D-05 0.000000000000D+00  7 1 -2 -24 -13 13 23 21 2 0.14283757D+00 0.32243950D-01 0.16922772D+06 0.16922772D+06 0.16922772D+06 0.11034419D+01  1  2  6  1  7  1        1 0.255513618040D-02 0.100000000000D+01
0.453896122596D-05 0.000000000000D+00 0.000000000000D+00 0.381939211009D-05 0.000000000000D+00  7 21 -2 -24 -13 13 23 -1 2 0.21108355D+00 0.32243950D-01 0.22862691D+06 0.22862691D+06 0.22862691D+06 0.10933910D+01  1  2 12  3  7  1        1 0.379309569751D-04 0.100000000000D+01
-.508731570910D-05 0.000000000000D+00 -.118691023287D-05 0.381939211009D-05 0.000000000000D+00  7 21 -2 -24 -13 13 23 -1 2 0.21341278D+00 0.32243950D-01 0.16922772D+06 0.16922772D+06 0.16922772D+06 0.11034419D+01  1  2  5  3  7  1        1 -.426650788689D-04 0.100000000000D+01
  </mgrwgt>
  </event>
  <event>
  8     66 0.29493621E-05 0.25802113E+03 0.75467711E-02 0.99058653E-01
        1 -1    0    0  501    0 0.00000000E+00 0.00000000E+00 0.19393748E+04 0.19393748E+04 0.32000000E+00 0.0000E+00 0.9000E+01
       -2 -1    0    0    0  501 0.00000000E+00 0.00000000E+00 -.11447158E+03 0.11447203E+03 0.32000000E+00 0.0000E+00 0.9000E+01
       25  2    1    2    0    0 0.56793927E+02 -.14890763E+03 0.18433743E+04 0.18743826E+04 0.29980372E+03 0.0000E+00 0.0000E+00
       23  2    3    3    0    0 0.31244010E+01 -.20150973E+03 0.12450746E+04 0.12645259E+04 0.90548739E+02 0.0000E+00 0.0000E+00
      -24  1    1    2    0    0 -.56793927E+02 0.14890763E+03 -.18471060E+02 0.17946428E+03 0.80419002E+02 0.0000E+00 0.9000E+01
      -13  1    4    4    0    0 0.44151802E+02 -.12472340E+03 0.67538871E+03 0.68822615E+03 0.10565837E+00 0.0000E+00 0.9000E+01
       13  1    4    4    0    0 -.41027401E+02 -.76786325E+02 0.56968589E+03 0.57629976E+03 0.10565837E+00 0.0000E+00 0.9000E+01
       23  1    3    3    0    0 0.53669526E+02 0.52602101E+02 0.59829968E+03 0.60985667E+03 0.91188000E+02 0.0000E+00 0.9000E+01
#aMCatNLO 1  0  0  2  1 0.14141626D+03 0.00000000D+00  -5  7  0 0.00000000D+00 0.00000000D+00 0.00000000D+00 0.00000000D+00 0.00000000D+00
  <mgrwgt>
 0.1177921020D-02    4    2    0
 0.471172776308690D+03 0.000000000000000D+00 0.000000000000000D+00 0.471172776308690D+03
 0.471172776308690D+03 0.000000000000000D+00 0.000000000000000D+00 -.471172776308690D+03
 0.426913505260864D+03 -.567939272899915D+02 0.148907626580786D+03 -.387800069093345D+03
 0.192065560191681D+03 0.441519174281580D+02 -.124723467575875D+03 0.139225874876084D+03
 0.152820565957031D+03 -.410275164743088D+02 -.767862595838074D+02 0.125597526291347D+03
 0.170545921207805D+03 0.536695263361423D+02 0.526021005788962D+02 0.122976667925914D+03
 0.000000000000000D+00 0.000000000000000D+00 -.000000000000000D+00 0.000000000000000D+00
 0.765836592093531D+03 0.000000000000000D+00 0.000000000000000D+00 0.765836592093531D+03
 0.493725372177012D+03 0.000000000000000D+00 0.000000000000000D+00 -.493725372177012D+03
 0.454321487316629D+03 -.988603637549755D+02 0.199445563431863D+03 -.387800069093345D+03
 0.175591751166447D+03 0.266015102616230D+02 -.103638692072456D+03 0.139225874876084D+03
 0.149614136551425D+03 -.554644717757173D+02 -.594419348285661D+02 0.125597526291347D+03
 0.173370153814175D+03 0.372524255162080D+02 0.723253401550899D+02 0.122976667925914D+03
 0.306664435421867D+03 0.904708997528619D+02 -.108690276685931D+03 0.272111219916518D+03
0.122615411666D-03 0.000000000000D+00 0.000000000000D+00 0.101452123585D-04 0.000000000000D+00  7 1 -2 -24 -13 13 23 21 0 0.29836539D+00 0.17611049D-01 0.66574903D+05 0.66574903D+05 0.66574903D+05 0.11365164D+01  1  2  2  2  7  2       -2 0.119376352591D-02 0.100000000000D+01
-.380857834361D-05 0.000000000000D+00 -.470875466178D-06 0.101452123585D-04 0.000000000000D+00  7 1 -2 -24 -13 13 23 21 2 0.29836539D+00 0.17611049D-01 0.66574903D+05 0.66574903D+05 0.66574903D+05 0.11365164D+01  1  2  3  2  7  2       -2 -.478947140047D-04 0.100000000000D+01
0.766169783222D-05 0.000000000000D+00 0.000000000000D+00 0.101452123585D-04 0.000000000000D+00  7 1 -2 -24 -13 13 23 21 2 0.29836539D+00 0.17611049D-01 0.66574903D+05 0.66574903D+05 0.66574903D+05 0.11365164D+01  1  2 15  2  7  2       -2 0.963495544421D-04 0.100000000000D+01
-.511291245196D-05 0.000000000000D+00 0.000000000000D+00 0.101452123585D-04 0.000000000000D+00  7 1 -2 -24 -13 13 23 21 2 0.29836539D+00 0.17611049D-01 0.66574903D+05 0.66574903D+05 0.66574903D+05 0.11365164D+01  1  2  4  2  7  2       -2 -.642973460237D-04 0.100000000000D+01
  </mgrwgt>
  </event>
  <event>
  8     66 0.29493621E-05 0.72561626E+02 0.75467711E-02 0.10985008E+00
        1 -1    0    0  501    0 0.00000000E+00 0.00000000E+00 0.43180349E+03 0.43180360E+03 0.32000000E+00 0.0000E+00 0.9000E+01
       -2 -1    0    0    0  501 0.00000000E+00 0.00000000E+00 -.11605781E+03 0.11605825E+03 0.32000000E+00 0.0000E+00 0.9000E+01
       25  2    1    2    0    0 0.46534789E+02 0.16466324E+02 0.33477470E+03 0.45160207E+03 0.29905468E+03 0.0000E+00 0.0000E+00
       23  2    3    3    0    0 -.18104203E+02 -.21783778E+02 0.31790303E+03 0.33226568E+03 0.92389666E+02 0.0000E+00 0.0000E+00
      -24  1    1    2    0    0 -.46534789E+02 -.16466324E+02 -.19029029E+02 0.96259786E+02 0.80419002E+02 0.0000E+00 0.9000E+01
      -13  1    4    4    0    0 -.31825080E+02 -.51853089E+02 0.16573309E+03 0.17654758E+03 0.10565837E+00 0.0000E+00 0.9000E+01
       13  1    4    4    0    0 0.13720877E+02 0.30069310E+02 0.15216994E+03 0.15571810E+03 0.10565837E+00 0.0000E+00 0.9000E+01
       23  1    3    3    0    0 0.64638992E+02 0.38250103E+02 0.16871674E+02 0.11933639E+03 0.91188000E+02 0.0000E+00 0.9000E+01
#aMCatNLO 1  0  0  2  1 0.93983611D+01 0.00000000D+00  -5  7  0 0.00000000D+00 0.00000000D+00 0.00000000D+00 0.00000000D+00 0.00000000D+00
  <mgrwgt>
 0.7665794059D-03    8    2    0
 0.223862280552072D+03 0.000000000000000D+00 0.000000000000000D+00 0.223862280552072D+03
 0.223862280552072D+03 0.000000000000000D+00 0.000000000000000D+00 -.223862280552072D+03
 0.131208796923243D+03 -.465347925713598D+02 -.164663255438477D+02 -.911696530600990D+02
 0.991551243057238D+02 -.318251359448188D+02 -.518531910092471D+02 0.782952487724248D+02
 0.832319739554288D+02 0.137209354110673D+02 0.300694136071049D+02 0.763880081248840D+02
 0.134128665919748D+03 0.646389931051113D+02 0.382501029459899D+02 -.635136038372098D+02
 0.000000000000000D+00 -.000000000000000D+00 0.000000000000000D+00 0.000000000000000D+00
 0.229862060021353D+03 0.000000000000000D+00 0.000000000000000D+00 0.229862060021353D+03
 0.227622617614594D+03 0.000000000000000D+00 0.000000000000000D+00 -.227622617614594D+03
 0.130972271792975D+03 -.449831280302083D+02 -.187385318998397D+02 -.911696530600990D+02
 0.996991011362030D+02 -.306482582549565D+02 -.535765718665206D+02 0.782952487724248D+02
 0.828914826840027D+02 0.147041028013869D+02 0.286296957208983D+02 0.763880081248840D+02
 0.134260336960861D+03 0.662273980233001D+02 0.359240951941344D+02 -.635136038372098D+02
 0.966148506190570D+01 -.530011453952225D+01 0.776131285132764D+01 0.223944240675851D+01
0.279209641875D-05 0.000000000000D+00 0.000000000000D+00 0.178695606915D-06 0.000000000000D+00  7 1 -2 -24 -13 13 23 21 0 0.66431349D-01 0.17855091D-01 0.23468800D+05 0.23468800D+05 0.23468800D+05 0.11773604D+01  1  2  2  2  7  2       -2 0.393716298397D-03 0.100000000000D+01
-.127980512895D-06 0.000000000000D+00 -.107223854239D-07 0.178695606915D-06 0.000000000000D+00  7 1 -2 -24 -13 13 23 21 2 0.66431349D-01 0.17855091D-01 0.23468800D+05 0.23468800D+05 0.23468800D+05 0.11773604D+01  1  2  3  2  7  2       -2 -.250158758614D-04 0.100000000000D+01
0.176141464951D-06 0.000000000000D+00 0.000000000000D+00 0.178695606915D-06 0.000000000000D+00  7 1 -2 -24 -13 13 23 21 2 0.66431349D-01 0.17855091D-01 0.23468800D+05 0.23468800D+05 0.23468800D+05 0.11773604D+01  1  2 15  2  7  2       -2 0.344297184126D-04 0.100000000000D+01
0.346681224227D-05 0.000000000000D+00 0.000000000000D+00 0.178695606915D-06 0.000000000000D+00  7 1 -2 -24 -13 13 23 21 2 0.66431349D-01 0.18389177D-01 0.24904752D+05 0.24904752D+05 0.24904752D+05 0.11749114D+01  1  2 12  2  7  2       -2 0.644029446992D-03 0.100000000000D+01
-.211129548313D-05 0.000000000000D+00 0.000000000000D+00 0.178695606915D-06 0.000000000000D+00  7 1 -2 -24 -13 13 23 21 2 0.66431349D-01 0.17855091D-01 0.23468800D+05 0.23468800D+05 0.23468800D+05 0.11773604D+01  1  2  4  2  7  2       -2 -.412687092107D-03 0.100000000000D+01
0.126995718115D-09 0.000000000000D+00 0.000000000000D+00 0.178695606915D-06 0.148995456188D-07  7 1 -2 -24 -13 13 23 21 2 0.68211789D-01 0.18155013D-01 0.24904752D+05 0.24904752D+05 0.24904752D+05 0.11749114D+01  1  2 11  2  7  2       -2 0.232530803603D-07 0.100000000000D+01
0.527701957941D-07 0.000000000000D+00 0.000000000000D+00 0.178695606915D-06 0.000000000000D+00  7 1 21 -24 -13 13 23 2 2 0.66431349D-01 0.18389177D-01 0.24904752D+05 0.24904752D+05 0.24904752D+05 0.11749114D+01  1  2 12  4  7  2       -2 0.132080748793D-03 0.100000000000D+01
0.117609631533D-11 0.000000000000D+00 0.000000000000D+00 0.178695606915D-06 0.459818833227D-10  7 1 21 -24 -13 13 23 2 2 0.68211789D-01 0.18155013D-01 0.24904752D+05 0.24904752D+05 0.24904752D+05 0.11749114D+01  1  2 11  4  7  2       -2 0.290815153636D-08 0.100000000000D+01
  </mgrwgt>
  </event>
  <event>
  8     66 0.29493621E-05 0.23426371E+03 0.75467711E-02 0.96539427E-01
        1 -1    0    0  501    0 0.00000000E+00 0.00000000E+00 0.18151051E+04 0.18151051E+04 0.32000000E+00 0.0000E+00 0.9000E+01
       -2 -1    0    0    0  501 0.00000000E+00 0.00000000E+00 -.13799335E+03 0.13799372E+03 0.32000000E+00 0.0000E+00 0.9000E+01
       25  2    1    2    0    0 0.30682635E+03 -.15521677E+03 0.14798068E+04 0.15485854E+04 0.30008984E+03 0.0000E+00 0.0000E+00
       23  2    3    3    0    0 0.15992300E+02 0.22377860E+02 0.21073002E+03 0.23139315E+03 0.91537564E+02 0.0000E+00 0.0000E+00
      -24  1    1    2    0    0 -.30682635E+03 0.15521677E+03 0.19730493E+03 0.40451342E+03 0.80419002E+02 0.0000E+00 0.9000E+01
      -11  1    4    4    0    0 0.47327950E+02 0.84173335E+01 0.60376800E+02 0.77176061E+02 0.51099893E-03 0.0000E+00 0.9000E+01
       11  1    4    4    0    0 -.31335650E+02 0.13960527E+02 0.15035322E+03 0.15421709E+03 0.51099893E-03 0.0000E+00 0.9000E+01
       23  1    3    3    0    0 0.29083405E+03 -.17759463E+03 0.12690768E+04 0.13171922E+04 0.91188000E+02 0.0000E+00 0.9000E+01
#aMCatNLO 1  0  0  2  1 0.57111456D+02 0.00000000D+00  -5  7  0 0.00000000D+00 0.00000000D+00 0.00000000D+00 0.00000000D+00 0.00000000D+00
  <mgrwgt>
 0.1001316482D-02    9    2    0
 0.500472588094334D+03 0.000000000000000D+00 0.000000000000000D+00 0.500472588094334D+03
 0.500472588094334D+03 0.000000000000000D+00 0.000000000000000D+00 -.500472588094334D+03
 0.458718703361632D+03 -.306826351315284D+03 0.155216774263145D+03 -.292781447474563D+03
 0.494271166309604D+02 0.473279503850311D+02 0.841733352917683D+01 -.115001507408030D+02
 0.489957537077786D+02 -.313356501443255D+02 0.139605268731960D+02 0.349823469888530D+02
 0.443803602488296D+03 0.290834051074578D+03 -.177594634665518D+03 0.269299251226513D+03
 0.000000000000000D+00 0.000000000000000D+00 0.000000000000000D+00 -.000000000000000D+00
 0.510956023565731D+03 0.000000000000000D+00 0.000000000000000D+00 0.510956023565731D+03
 0.585617197074116D+03 0.000000000000000D+00 0.000000000000000D+00 -.585617197074116D+03
 0.456809847631025D+03 -.315347291135228D+03 0.130549342881084D+03 -.292781447474563D+03
 0.481718652492988D+02 0.464195843376939D+02 0.578768731456129D+01 -.115001507408030D+02
 0.489063080218611D+02 -.322468369940881D+02 0.113227146637792D+02 0.349823469888530D+02
 0.448685150567009D+03 0.282527545563072D+03 -.201641296073710D+03 0.269299251226513D+03
 0.940000491706530D+02 0.186469982285502D+02 0.539815512142850D+02 -.746611735083849D+02
0.106641253657D-03 0.000000000000D+00 0.000000000000D+00 0.127028486031D-04 0.000000000000D+00  7 1 -2 -24 -11 11 23 21 0 0.27924697D+00 0.21229776D-01 0.15534116D+06 0.15534116D+06 0.15534116D+06 0.11063548D+01  1  2  2  2  7  2       -2 0.891346550161D-03 0.100000000000D+01
-.551352231386D-05 0.000000000000D+00 -.409530493328D-06 0.127028486031D-04 0.000000000000D+00  7 1 -2 -24 -11 11 23 21 2 0.27924697D+00 0.21229776D-01 0.15534116D+06 0.15534116D+06 0.15534116D+06 0.11063548D+01  1  2  3  2  7  2       -2 -.564078186670D-04 0.100000000000D+01
0.674847638830D-05 0.000000000000D+00 0.000000000000D+00 0.127028486031D-04 0.000000000000D+00  7 1 -2 -24 -11 11 23 21 2 0.27924697D+00 0.21229776D-01 0.15534116D+06 0.15534116D+06 0.15534116D+06 0.11063548D+01  1  2 15  2  7  2       -2 0.690424035163D-04 0.100000000000D+01
0.389330340735D-03 0.000000000000D+00 0.000000000000D+00 0.127028486031D-04 0.000000000000D+00  7 1 -2 -24 -11 11 23 21 2 0.27924697D+00 0.25038925D-01 0.17960547D+06 0.17960547D+06 0.17960547D+06 0.11014310D+01  1  2 12  2  7  2       -2 0.296712553926D-02 0.100000000000D+01
-.395823820683D-03 0.000000000000D+00 0.000000000000D+00 0.127028486031D-04 0.000000000000D+00  7 1 -2 -24 -11 11 23 21 2 0.27924697D+00 0.21229776D-01 0.15534116D+06 0.15534116D+06 0.15534116D+06 0.11063548D+01  1  2  4  2  7  2       -2 -.404959969873D-02 0.100000000000D+01
-.569980229853D-03 0.000000000000D+00 -.864622811462D-04 0.127028486031D-04 0.000000000000D+00  7 1 -2 -24 -11 11 23 21 2 0.27924697D+00 0.25311441D-01 0.15534116D+06 0.15534116D+06 0.15534116D+06 0.11063548D+01  1  2  5  2  7  2       -2 -.432798158107D-02 0.100000000000D+01
0.577551542961D-03 0.000000000000D+00 0.851424196238D-04 0.127028486031D-04 0.000000000000D+00  7 1 -2 -24 -11 11 23 21 2 0.27924697D+00 0.21229776D-01 0.15534116D+06 0.15534116D+06 0.15534116D+06 0.11063548D+01  1  2  6  2  7  2       -2 0.590882213794D-02 0.100000000000D+01
0.958816390331D-05 0.000000000000D+00 0.000000000000D+00 0.127028486031D-04 0.000000000000D+00  7 1 21 -24 -11 11 23 2 2 0.27924697D+00 0.25038925D-01 0.17960547D+06 0.17960547D+06 0.17960547D+06 0.11014310D+01  1  2 12  4  7  2       -2 0.884950882929D-03 0.100000000000D+01
-.139641447588D-04 0.000000000000D+00 -.223903107052D-05 0.127028486031D-04 0.000000000000D+00  7 1 21 -24 -11 11 23 2 2 0.27924697D+00 0.25311441D-01 0.15534116D+06 0.15534116D+06 0.15534116D+06 0.11063548D+01  1  2  5  4  7  2       -2 -.128598193370D-02 0.100000000000D+01
  </mgrwgt>
  </event>
  <event>
  8     66 0.29493621E-05 0.75403836E+03 0.75467711E-02 0.83830628E-01
        1 -1    0    0  501    0 0.00000000E+00 0.00000000E+00 0.32688876E+03 0.32688891E+03 0.32000000E+00 0.0000E+00 0.9000E+01
       -2 -1    0    0    0  501 0.00000000E+00 0.00000000E+00 -.23523847E+04 0.23523847E+04 0.32000000E+00 0.0000E+00 0.9000E+01
       25  2    1    2    0    0 0.38355101E+03 -.61343098E+03 -.17186685E+04 0.18893247E+04 0.30383822E+03 0.0000E+00 0.0000E+00
       23  2    3    3    0    0 0.38745618E+03 -.49154764E+03 -.13878846E+04 0.15251764E+04 0.90542543E+02 0.0000E+00 0.0000E+00
      -24  1    1    2    0    0 -.38355101E+03 0.61343098E+03 -.30682746E+03 0.78994889E+03 0.80419002E+02 0.0000E+00 0.9000E+01
      -11  1    4    4    0    0 0.12554770E+02 -.34680891E+02 -.46368934E+02 0.59249173E+02 0.51099893E-03 0.0000E+00 0.9000E+01
       11  1    4    4    0    0 0.37490141E+03 -.45686675E+03 -.13415156E+04 0.14659272E+04 0.51099893E-03 0.0000E+00 0.9000E+01
       23  1    3    3    0    0 -.39051640E+01 -.12188334E+03 -.33078391E+03 0.36414838E+03 0.91188000E+02 0.0000E+00 0.9000E+01
#aMCatNLO 1  0  0  2  1 0.11061654D+04 0.00000000D+00  -5  7  0 0.00000000D+00 0.00000000D+00 0.00000000D+00 0.00000000D+00 0.00000000D+00
  <mgrwgt>
 0.3201155335D-02    3    2    0
 0.876908401739581D+03 0.000000000000000D+00 0.000000000000000D+00 0.876908401739581D+03
 0.876908401739581D+03 0.000000000000000D+00 0.000000000000000D+00 -.876908401739581D+03
 0.852433083809350D+03 -.383551011942511D+03 0.613430980955944D+03 0.443583136807128D+03
 0.369620471889534D+02 0.125547702470109D+02 -.346808911859096D+02 -.240966034832648D+01
 0.690143667681701D+03 0.374901405694461D+03 -.456866752104806D+03 -.356398637582515D+03
 0.174278004799158D+03 -.390516399896075D+01 -.121883337665228D+03 -.847748388762869D+02
 0.000000000000000D+00 0.000000000000000D+00 0.000000000000000D+00 0.000000000000000D+00
 0.221723845698441D+04 0.000000000000000D+00 0.000000000000000D+00 0.221723845698441D+04
 0.129589119078195D+04 0.000000000000000D+00 0.000000000000000D+00 -.129589119078195D+04
 0.664476420643979D+03 -.453504892938597D+03 0.180635020022596D+03 0.443583136807128D+03
 0.640299588142455D+02 0.789741741959233D+01 -.634953538525490D+02 -.240966034832648D+01
 0.106268212661504D+04 0.294067996278061D+03 -.956973002190443D+03 -.356398637582515D+03
 0.282329123215640D+03 -.249620830843369D+02 -.252159877009214D+03 -.847748388762869D+02
 0.143961201847746D+04 0.176501562325280D+03 0.109199321302961D+04 0.921347266202457D+03
0.346933007648D-01 0.000000000000D+00 0.000000000000D+00 0.951269610806D-06 0.000000000000D+00  7 1 -2 -24 -11 11 23 21 0 0.50290591D-01 0.36190535D+00 0.56857385D+06 0.56857385D+06 0.56857385D+06 0.10645878D+01  1  2  2  2  7  2       -2 0.316542583392D-02 0.100000000000D+01
-.187400152758D-02 0.000000000000D+00 -.133231409893D-03 0.951269610806D-06 0.000000000000D+00  7 1 -2 -24 -11 11 23 21 2 0.50290591D-01 0.36190535D+00 0.56857385D+06 0.56857385D+06 0.56857385D+06 0.10645878D+01  1  2  3  2  7  2       -2 -.193784668561D-03 0.100000000000D+01
0.221952493560D-02 0.000000000000D+00 0.000000000000D+00 0.951269610806D-06 0.000000000000D+00  7 1 -2 -24 -11 11 23 21 2 0.50290591D-01 0.36190535D+00 0.56857385D+06 0.56857385D+06 0.56857385D+06 0.10645878D+01  1  2 15  2  7  2       -2 0.229514169374D-03 0.100000000000D+01
  </mgrwgt>
  </event>
  <event>
  8     66 0.29493621E-05 0.26403526E+03 0.75467711E-02 0.10112415E+00
        1 -1    0    0  501    0 0.00000000E+00 0.00000000E+00 0.55972653E+03 0.55972663E+03 0.32000000E+00 0.0000E+00 0.9000E+01
       -2 -1    0    0    0  501 0.00000000E+00 0.00000000E+00 -.29392082E+03 0.29392100E+03 0.32000000E+00 0.0000E+00 0.9000E+01
       25  2    1    2    0    0 -.13586422E+02 -.18292513E+03 0.45671707E+03 0.57695184E+03 0.30105939E+03 0.0000E+00 0.0000E+00
       23  2    3    3    0    0 -.10819754E+03 -.10443563E+03 0.14086961E+03 0.22597217E+03 0.92766724E+02 0.0000E+00 0.0000E+00
      -24  1    1    2    0    0 0.13586422E+02 0.18292513E+03 -.19091136E+03 0.27669578E+03 0.80419002E+02 0.0000E+00 0.9000E+01
      -11  1    4    4    0    0 0.15309586E+02 -.19692404E+02 0.33101699E+02 0.41447517E+02 0.51099893E-03 0.0000E+00 0.9000E+01
       11  1    4    4    0    0 -.12350712E+03 -.84743231E+02 0.10776791E+03 0.18452465E+03 0.51099893E-03 0.0000E+00 0.9000E+01
       23  1    3    3    0    0 0.94611113E+02 -.78489496E+02 0.31584746E+03 0.35097967E+03 0.91188000E+02 0.0000E+00 0.9000E+01
#aMCatNLO 1  0  0  1  1 0.50094342D+02 0.00000000D+00  -5  7  0 0.00000000D+00 0.00000000D+00 0.00000000D+00 0.00000000D+00 0.00000000D+00
  <mgrwgt>
 0.2042206382D-03    4    2    0
 0.405604977321812D+03 0.000000000000000D+00 0.000000000000000D+00 0.405604977321812D+03
 0.405604977321812D+03 0.000000000000000D+00 0.000000000000000D+00 -.405604977321812D+03
 0.353725968020560D+03 0.135864216859949D+02 0.182925131089680D+03 -.291562429094191D+03
 0.327695113637771D+02 0.153095855959158D+02 -.196924037556966D+02 0.212524515815157D+02
 0.158866027723667D+03 -.123507120597569D+03 -.847432310473817D+02 0.529432783084357D+02
 0.265848447535620D+03 0.946111133156587D+02 -.784894962866015D+02 0.217366699204240D+03
 0.000000000000000D+00 -.000000000000000D+00 -.000000000000000D+00 -.000000000000000D+00
 0.423757817693189D+03 0.000000000000000D+00 0.000000000000000D+00 0.423757817693189D+03
 0.442473873223844D+03 0.000000000000000D+00 0.000000000000000D+00 -.442473873223844D+03
 0.365536211396927D+03 0.192459312777742D+02 0.204378203236045D+03 -.291562429094191D+03
 0.318972597909007D+02 0.158184156471715D+02 -.177636204180584D+02 0.212524515815157D+02
 0.152163164768695D+03 -.121059789501057D+03 -.754663193771919D+02 0.529432783084357D+02
 0.263158575433065D+03 0.987736014963032D+02 -.627110692339347D+02 0.217366699204240D+03
 0.534764795274452D+02 -.127781589201921D+02 -.484371942068596D+02 -.187160555306547D+02
0.611779465816D-04 0.000000000000D+00 0.000000000000D+00 0.118474809265D-05 0.000000000000D+00  7 1 -2 -24 -11 11 23 21 0 0.86111795D-01 0.45218609D-01 0.69714620D+05 0.69714620D+05 0.69714620D+05 0.11348105D+01  1  2  2  1  7  1        1 0.120587833950D-02 0.100000000000D+01
-.263718746730D-05 0.000000000000D+00 -.234939423397D-06 0.118474809265D-05 0.000000000000D+00  7 1 -2 -24 -11 11 23 21 2 0.86111795D-01 0.45218609D-01 0.69714620D+05 0.69714620D+05 0.69714620D+05 0.11348105D+01  1  2  3  1  7  1        1 -.669416283797D-04 0.100000000000D+01
0.390722075616D-05 0.000000000000D+00 0.000000000000D+00 0.118474809265D-05 0.000000000000D+00  7 1 -2 -24 -11 11 23 21 2 0.86111795D-01 0.45218609D-01 0.69714620D+05 0.69714620D+05 0.69714620D+05 0.11348105D+01  1  2 15  1  7  1        1 0.991797978338D-04 0.100000000000D+01
-.407306678797D-04 0.000000000000D+00 0.000000000000D+00 0.118474809265D-05 0.000000000000D+00  7 1 -2 -24 -11 11 23 21 2 0.86111795D-01 0.45218609D-01 0.69714620D+05 0.69714620D+05 0.69714620D+05 0.11348105D+01  1  2  4  1  7  1        1 -.103389587076D-02 0.100000000000D+01
  </mgrwgt>
  </event>
  <event>
  8     66 0.29493621E-05 0.52132185E+03 0.75467711E-02 0.89628149E-01
        1 -1    0    0  501    0 0.00000000E+00 0.00000000E+00 0.18787977E+04 0.18787977E+04 0.32000000E+00 0.0000E+00 0.9000E+01
       -2 -1    0    0    0  501 0.00000000E+00 0.00000000E+00 -.15391119E+03 0.15391152E+03 0.32000000E+00 0.0000E+00 0.9000E+01
       25  2    1    2    0    0 -.20532418E+03 0.44744857E+03 0.96060957E+03 0.11200457E+04 0.29893717E+03 0.0000E+00 0.0000E+00
       23  2    3    3    0    0 -.44716186E+02 0.29270967E+03 0.37360301E+03 0.48551361E+03 0.92009592E+02 0.0000E+00 0.0000E+00
      -24  1    1    2    0    0 0.20532418E+03 -.44744857E+03 0.76427692E+03 0.91266350E+03 0.80419002E+02 0.0000E+00 0.9000E+01
      -13  1    4    4    0    0 -.52935021E+02 0.28906858E+03 0.33390010E+03 0.44480563E+03 0.10565837E+00 0.0000E+00 0.9000E+01
       13  1    4    4    0    0 0.82188355E+01 0.36410822E+01 0.39702912E+02 0.40707973E+02 0.10565837E+00 0.0000E+00 0.9000E+01
       23  1    3    3    0    0 -.16060799E+03 0.15473891E+03 0.58700655E+03 0.63453211E+03 0.91188000E+02 0.0000E+00 0.9000E+01
#aMCatNLO 1  0  0  2  1 0.45243997D+03 0.00000000D+00  -5  7  0 0.00000000D+00 0.00000000D+00 0.00000000D+00 0.00000000D+00 0.00000000D+00
  <mgrwgt>
 0.1551719554D-02    3    2    0
 0.537743757200693D+03 0.000000000000000D+00 0.000000000000000D+00 0.537743757200693D+03
 0.537743757200693D+03 0.000000000000000D+00 0.000000000000000D+00 -.537743757200693D+03
 0.499204856238029D+03 0.205324180506199D+03 -.447448572838259D+03 -.192361145173232D+02
 0.305183601773469D+03 -.529351018508177D+02 0.289068959371869D+03 -.823045716296241D+02
 0.132628625018035D+02 0.821891616694554D+01 0.364070586007536D+01 0.975183057804427D+01
 0.257836193888083D+03 -.160607994822327D+03 0.154738907606315D+03 0.917888555689030D+02
 0.000000000000000D+00 -.000000000000000D+00 -.000000000000000D+00 0.000000000000000D+00
 0.895396917364024D+03 0.000000000000000D+00 0.000000000000000D+00 0.895396917364024D+03
 0.747410258751984D+03 0.000000000000000D+00 0.000000000000000D+00 -.747410258751984D+03
 0.432398882540804D+03 0.309174253107673D+03 -.290762498926107D+03 -.192361145173232D+02
 0.420150026954463D+03 0.279211107942982D+02 0.411062542942936D+03 -.823045716296241D+02
 0.175754816906703D+02 0.116566055513781D+02 0.882739508891435D+01 0.975183057804427D+01
 0.296655501225992D+03 -.987963034373254D+02 0.247998652182055D+03 0.917888555689030D+02
 0.476027283704078D+03 -.249955666016024D+03 -.377126091287797D+03 0.147986658612040D+03
0.249008718757D-03 0.000000000000D+00 0.000000000000D+00 0.223769697686D-05 0.000000000000D+00  7 1 -2 -24 -13 13 23 21 0 0.28904582D+00 0.23678672D-01 0.27177647D+06 0.27177647D+06 0.27177647D+06 0.10877408D+01  1  2  2  2  7  2       -2 0.153578815506D-02 0.100000000000D+01
-.138176386002D-04 0.000000000000D+00 -.956259045528D-06 0.223769697686D-05 0.000000000000D+00  7 1 -2 -24 -13 13 23 21 2 0.28904582D+00 0.23678672D-01 0.27177647D+06 0.27177647D+06 0.27177647D+06 0.10877408D+01  1  2  3  2  7  2       -2 -.100832714125D-03 0.100000000000D+01
0.160008022534D-04 0.000000000000D+00 0.000000000000D+00 0.223769697686D-05 0.000000000000D+00  7 1 -2 -24 -13 13 23 21 2 0.28904582D+00 0.23678672D-01 0.27177647D+06 0.27177647D+06 0.27177647D+06 0.10877408D+01  1  2 15  2  7  2       -2 0.116764113325D-03 0.100000000000D+01
  </mgrwgt>
  </event>
  <event>
  8     66 0.29493621E-05 0.10463095E+03 0.75467711E-02 0.10498516E+00
        1 -1    0    0  501    0 0.00000000E+00 0.00000000E+00 0.22811184E+04 0.22811184E+04 0.32000000E+00 0.0000E+00 0.9000E+01
       -2 -1    0    0    0  501 0.00000000E+00 0.00000000E+00 -.19363915E+02 0.19366559E+02 0.32000000E+00 0.0000E+00 0.9000E+01
       25  2    1    2    0    0 -.43270202E+01 -.14022079E+02 0.20742810E+04 0.20959639E+04 0.30034602E+03 0.0000E+00 0.0000E+00
       23  2    3    3    0    0 -.61852773E+02 0.95819395E+02 0.94172329E+03 0.95299560E+03 0.91382334E+02 0.0000E+00 0.0000E+00
      -24  1    1    2    0    0 0.43270202E+01 0.14022079E+02 0.18747347E+03 0.20452105E+03 0.80419002E+02 0.0000E+00 0.9000E+01
      -11  1    4    4    0    0 -.73714063E+00 -.12236498E+02 0.24358928E+02 0.27269629E+02 0.51099893E-03 0.0000E+00 0.9000E+01
       11  1    4    4    0    0 -.61115632E+02 0.10805589E+03 0.91736436E+03 0.92572597E+03 0.51099893E-03 0.0000E+00 0.9000E+01
       23  1    3    3    0    0 0.57525753E+02 -.10984147E+03 0.11325577E+04 0.11429683E+04 0.91188000E+02 0.0000E+00 0.9000E+01
#aMCatNLO 1  0  0  2  1 0.62702666D+02 0.00000000D+00  -5  7  0 0.00000000D+00 0.00000000D+00 0.00000000D+00 0.00000000D+00 0.00000000D+00
  <mgrwgt>
 0.4733985146D-03    7    2    0
 0.210177185308149D+03 0.000000000000000D+00 0.000000000000000D+00 0.210177185308149D+03
 0.210177185308149D+03 0.000000000000000D+00 0.000000000000000D+00 -.210177185308149D+03
 0.110570138973744D+03 0.432702023349691D+01 0.140220792631793D+02 -.744526552067721D+02
 0.181738459688620D+02 -.737140618147151D+00 -.122364978205424D+02 -.134169080676905D+02
 0.130284662679674D+03 -.611156322235187D+02 0.108055892659767D+03 0.395334907259282D+02
 0.161325722994018D+03 0.575257526081690D+02 -.109841474102404D+03 0.483360725485344D+02
 0.000000000000000D+00 -.000000000000000D+00 -.000000000000000D+00 -.000000000000000D+00
 0.214558446981387D+03 0.000000000000000D+00 0.000000000000000D+00 0.214558446981387D+03
 0.690605508834555D+03 0.000000000000000D+00 0.000000000000000D+00 -.690605508834555D+03
 0.113977068802086D+03 0.811197217597851D+01 0.302415988073148D+02 -.744526552067721D+02
 0.165724194507351D+02 -.151460011843744D+00 -.972670161046666D+01 -.134169080676905D+02
 0.145350989520210D+03 -.564695370547351D+02 0.127965638553289D+03 0.395334907259282D+02
 0.149104723639345D+03 0.627583463849011D+02 -.874184266455362D+02 0.483360725485344D+02
 0.480158754403566D+03 -.142493214943007D+02 -.610621091046005D+02 -.476047061853168D+03
0.205942122480D-04 0.000000000000D+00 0.000000000000D+00 0.113489510015D-05 0.000000000000D+00  7 1 -2 -24 -11 11 23 21 0 0.35094149D+00 0.29792689D-02 0.34607484D+05 0.34607484D+05 0.34607484D+05 0.11616223D+01  1  2  2  2  7  2       -2 0.179246104157D-02 0.100000000000D+01
-.112340496949D-05 0.000000000000D+00 -.790871976130D-07 0.113489510015D-05 0.000000000000D+00  7 1 -2 -24 -11 11 23 21 2 0.35094149D+00 0.29792689D-02 0.34607484D+05 0.34607484D+05 0.34607484D+05 0.11616223D+01  1  2  3  2  7  2       -2 -.131938272056D-03 0.100000000000D+01
0.130986885684D-05 0.000000000000D+00 0.000000000000D+00 0.113489510015D-05 0.000000000000D+00  7 1 -2 -24 -11 11 23 21 2 0.35094149D+00 0.29792689D-02 0.34607484D+05 0.34607484D+05 0.34607484D+05 0.11616223D+01  1  2 15  2  7  2       -2 0.153837519225D-03 0.100000000000D+01
0.223815509940D-03 0.000000000000D+00 0.000000000000D+00 0.113489510015D-05 0.000000000000D+00  7 1 -2 -24 -11 11 23 21 2 0.35094149D+00 0.97298751D-02 0.48323892D+05 0.48323892D+05 0.48323892D+05 0.11486002D+01  1  2 12  2  7  2       -2 0.440663200907D-02 0.100000000000D+01
-.243887648910D-03 0.000000000000D+00 -.702048339753D-05 0.113489510015D-05 0.000000000000D+00  7 1 -2 -24 -11 11 23 21 2 0.35094149D+00 0.99690756D-02 0.34607484D+05 0.34607484D+05 0.34607484D+05 0.11616223D+01  1  2  5  2  7  2       -2 -.478490948673D-02 0.100000000000D+01
0.306191586287D-04 0.000000000000D+00 0.000000000000D+00 0.113489510015D-05 0.000000000000D+00  7 1 21 -24 -11 11 23 2 2 0.35094149D+00 0.97298751D-02 0.48323892D+05 0.48323892D+05 0.48323892D+05 0.11486002D+01  1  2 12  4  7  2       -2 0.896238348739D-02 0.100000000000D+01
-.339318003700D-04 0.000000000000D+00 -.984405308289D-06 0.113489510015D-05 0.000000000000D+00  7 1 21 -24 -11 11 23 2 2 0.35094149D+00 0.99690756D-02 0.34607484D+05 0.34607484D+05 0.34607484D+05 0.11616223D+01  1  2  5  4  7  2       -2 -.992506778384D-02 0.100000000000D+01
  </mgrwgt>
  </event>
  <event>
  9     66 0.29493621E-05 0.37666542E+03 0.75467711E-02 0.95275041E-01
        1 -1    0    0  501    0 0.00000000E+00 0.00000000E+00 0.23507787E+03 0.23507809E+03 0.32000000E+00 0.0000E+00 0.9000E+01
       21 -1    0    0  502  501 0.00000000E+00 0.00000000E+00 -.24454082E+04 0.24454083E+04 0.75000000E+00 0.0000E+00 0.9000E+01
       25  2    1    2    0    0 -.20659207E+03 0.27691341E+03 -.45286647E+03 0.64364365E+03 0.29971283E+03 0.0000E+00 0.0000E+00
       23  2    3    3    0    0 0.36400683E+02 0.54651817E+02 -.64875497E+02 0.12663500E+03 0.86693493E+02 0.0000E+00 0.0000E+00
      -24  1    1    2    0    0 0.41387619E+02 -.31846377E+03 -.66940001E+02 0.33775773E+03 0.80419002E+02 0.0000E+00 0.9000E+01
      -11  1    4    4    0    0 -.22985238E+02 0.35349216E+01 0.23755005E+01 0.23376481E+02 0.51099893E-03 0.0000E+00 0.9000E+01
       11  1    4    4    0    0 0.59385922E+02 0.51116896E+02 -.67250998E+02 0.10325852E+03 0.51099893E-03 0.0000E+00 0.9000E+01
       23  1    3    3    0    0 -.24299275E+03 0.22226160E+03 -.38799097E+03 0.51700865E+03 0.91188000E+02 0.0000E+00 0.9000E+01
        2  1    1    2  502    0 0.16520445E+03 0.41550352E+02 -.16905238E+04 0.16990850E+04 0.32000000E+00 0.0000E+00 0.9000E+01
#aMCatNLO 2  0  0  2  1 0.17034947D+03 0.00000000D+00  -5  7  0 0.00000000D+00 0.00000000D+00 0.00000000D+00 0.00000000D+00 0.00000000D+00
  <mgrwgt>
 0.3001570610D-04    2    2    0
 0.407409791863078D+03 0.000000000000000D+00 0.000000000000000D+00 0.407409791863078D+03
 0.407409791863078D+03 0.000000000000000D+00 0.000000000000000D+00 -.407409791863078D+03
 0.356257017248389D+03 0.112860477924479D+03 -.300487722259330D+03 0.131990483287266D+03
 0.251910056229777D+02 -.175460630400788D+02 0.490292139062600D+01 0.173978101474817D+02
 0.961136580452347D+02 0.770226624403102D+02 0.555526888110288D+02 -.148068733805397D+02
 0.337257902809554D+03 -.172337077324710D+03 0.240032112057675D+03 -.134581420054208D+03
 0.000000000000000D+00 0.000000000000000D+00 0.000000000000000D+00 -.000000000000000D+00
 0.423937609653557D+03 0.000000000000000D+00 0.000000000000000D+00 0.423937609653557D+03
 0.135600550760115D+04 0.000000000000000D+00 0.000000000000000D+00 -.135600550760115D+04
 0.356399788260754D+03 0.413876190496644D+02 -.318463766273235D+03 0.131990483287266D+03
 0.290430827098630D+02 -.229852384070327D+02 0.353492160252513D+01 0.173978101474817D+02
 0.797425120097474D+02 0.593859218276593D+02 0.511168955531975D+02 -.148068733805397D+02
 0.367250738032364D+03 -.242992750958540D+03 0.222261597220729D+03 -.134581420054208D+03
 0.947506996241981D+03 0.165204448488249D+03 0.415503518967828D+02 -.932067897947595D+03
-.703918105076D-04 0.000000000000D+00 0.000000000000D+00 0.431835397618D-06 0.000000000000D+00  7 1 21 -24 -11 11 23 2 2 0.34755873D-01 0.37178532D+00 0.22312472D+06 0.22312472D+06 0.22312472D+06 0.10941944D+01  1  2 13  4  7  2       -2 -.840105267078D-04 0.100000000000D+01
0.107778660092D-03 0.000000000000D+00 0.000000000000D+00 0.431835397618D-06 0.248972047867D-10  7 1 21 -24 -11 11 23 2 2 0.36165850D-01 0.37621665D+00 0.22312472D+06 0.22312472D+06 0.22312472D+06 0.10941944D+01  1  2  1  4  7  2       -2 0.114026232811D-03 0.100000000000D+01
  </mgrwgt>
  </event>
  <event>
  8     66 0.29493621E-05 0.88501405E+02 0.75467711E-02 0.10131766E+00
        1 -1    0    0  501    0 0.00000000E+00 0.00000000E+00 0.10491044E+04 0.10491045E+04 0.32000000E+00 0.0000E+00 0.9000E+01
       -2 -1    0    0    0  501 0.00000000E+00 0.00000000E+00 -.10969076E+03 0.10969123E+03 0.32000000E+00 0.0000E+00 0.9000E+01
       25  2    1    2    0    0 0.10868451E+03 -.14686647E+03 0.22459733E+03 0.41662882E+03 0.29958893E+03 0.0000E+00 0.0000E+00
       23  2    3    3    0    0 -.47574559E+02 -.12779483E+03 0.76061506E+02 0.18176978E+03 0.93059356E+02 0.0000E+00 0.0000E+00
      -24  1    1    2    0    0 -.10868451E+03 0.14686647E+03 0.71481635E+03 0.74216690E+03 0.80419002E+02 0.0000E+00 0.9000E+01
      -11  1    4    4    0    0 0.16216484E+02 -.82785774E+02 0.55694087E+02 0.10108556E+03 0.51099893E-03 0.0000E+00 0.9000E+01
       11  1    4    4    0    0 -.63791043E+02 -.45009057E+02 0.20367420E+02 0.80684225E+02 0.51099893E-03 0.0000E+00 0.9000E+01
       23  1    3    3    0    0 0.15625907E+03 -.19071640E+02 0.14853583E+03 0.23485904E+03 0.91188000E+02 0.0000E+00 0.9000E+01
#aMCatNLO 1  0  0  1  2 0.34297494D+02 0.00000000D+00  -5  7  0 0.00000000D+00 0.00000000D+00 0.00000000D+00 0.00000000D+00 0.00000000D+00
  <mgrwgt>
 0.9754460338D-03    6    2    0
 0.339230549553125D+03 0.000000000000000D+00 0.000000000000000D+00 0.339230549553125D+03
 0.339230549553125D+03 0.000000000000000D+00 0.000000000000000D+00 -.339230549553125D+03
 0.277851707625172D+03 -.108684511299164D+03 0.146866470793080D+03 0.193267359469469D+03
 0.955363914010956D+02 0.162164844856155D+02 -.827857738402887D+02 -.448413131223395D+02
 0.109605550932718D+03 -.637910431098171D+02 -.450090573711576D+02 -.769302565235940D+02
 0.195467449147264D+03 0.156259069923365D+03 -.190716395816333D+02 -.714957898235360D+02
 0.000000000000000D+00 -.000000000000000D+00 0.000000000000000D+00 -.000000000000000D+00
 0.355173020120728D+03 0.000000000000000D+00 0.000000000000000D+00 0.355173020120728D+03
 0.358625224500565D+03 0.000000000000000D+00 0.000000000000000D+00 -.358625224500565D+03
 0.269125687036425D+03 -.102632680144212D+03 0.134445826259397D+03 0.193267359469469D+03
 0.997796200999907D+02 0.183774869968699D+02 -.872209676422054D+02 -.448413131223395D+02
 0.110378440207499D+03 -.613571107678845D+02 -.500044063265635D+02 -.769302565235940D+02
 0.200043700305071D+03 0.160635058254413D+03 -.280528213350309D+02 -.714957898235360D+02
 0.344707969723062D+02 -.150227543391860D+02 0.308323690444030D+02 -.345220437983676D+01
0.171375450848D-04 0.000000000000D+00 0.000000000000D+00 0.110045586690D-05 0.000000000000D+00  7 1 -2 -24 -11 11 23 21 0 0.16140072D+00 0.16875542D-01 0.73977450D+05 0.73977450D+05 0.73977450D+05 0.11326249D+01  1  2  2  1  7  1        1 0.703332208298D-03 0.100000000000D+01
-.895587432596D-06 0.000000000000D+00 -.658126855449D-07 0.110045586690D-05 0.000000000000D+00  7 1 -2 -24 -11 11 23 21 2 0.16140072D+00 0.16875542D-01 0.73977450D+05 0.73977450D+05 0.73977450D+05 0.11326249D+01  1  2  3  1  7  1        1 -.471511291027D-04 0.100000000000D+01
0.111201421572D-05 0.000000000000D+00 0.000000000000D+00 0.110045586690D-05 0.000000000000D+00  7 1 -2 -24 -11 11 23 21 2 0.16140072D+00 0.16875542D-01 0.73977450D+05 0.73977450D+05 0.73977450D+05 0.11326249D+01  1  2 15  1  7  1        1 0.585456248501D-04 0.100000000000D+01
0.292081682534D-04 0.000000000000D+00 0.000000000000D+00 0.110045586690D-05 0.000000000000D+00  7 1 -2 -24 -11 11 23 21 2 0.17336794D+00 0.16875542D-01 0.83146875D+05 0.83146875D+05 0.83146875D+05 0.11283596D+01  1  2 12  1  7  1        1 0.133844671199D-02 0.100000000000D+01
-.208400558772D-04 0.000000000000D+00 0.000000000000D+00 0.110045586690D-05 0.000000000000D+00  7 1 -2 -24 -11 11 23 21 2 0.16140072D+00 0.16875542D-01 0.73977450D+05 0.73977450D+05 0.73977450D+05 0.11326249D+01  1  2  4  1  7  1        1 -.109719289196D-02 0.100000000000D+01
0.353423484921D-06 0.000000000000D+00 0.000000000000D+00 0.110045586690D-05 0.000000000000D+00  7 21 -2 -24 -11 11 23 -1 2 0.17336794D+00 0.16875542D-01 0.83146875D+05 0.83146875D+05 0.83146875D+05 0.11283596D+01  1  2 12  3  7  1        1 0.194655097070D-04 0.100000000000D+01
  </mgrwgt>
  </event>
  <event>
  9     66 0.29493621E-05 0.33717908E+03 0.75467711E-02 0.90893319E-01
        1 -1    0    0  501    0 0.00000000E+00 0.00000000E+00 0.15304031E+04 0.15304031E+04 0.32000000E+00 0.0000E+00 0.9000E+01
       -2 -1    0    0    0  502 0.00000000E+00 0.00000000E+00 -.44476432E+03 0.44476443E+03 0.32000000E+00 0.0000E+00 0.9000E+01
       25  2    1    2    0    0 -.83637845E+02 -.18861923E+02 0.76989443E+02 0.32151106E+03 0.30015150E+03 0.0000E+00 0.0000E+00
       23  2    3    3    0    0 -.11463622E+03 -.59452903E+02 0.12965233E+03 0.20447620E+03 0.91239679E+02 0.0000E+00 0.0000E+00
      -24  1    1    2    0    0 0.18046630E+03 0.56217105E+03 0.91792911E+03 0.10943790E+04 0.80419002E+02 0.0000E+00 0.9000E+01
      -11  1    4    4    0    0 -.14439818E+02 0.22876565E+02 0.12857752E+02 0.29952752E+02 0.51099893E-03 0.0000E+00 0.9000E+01
       11  1    4    4    0    0 -.10019640E+03 -.82329468E+02 0.11679458E+03 0.17452345E+03 0.51099893E-03 0.0000E+00 0.9000E+01
       23  1    3    3    0    0 0.30998373E+02 0.40590980E+02 -.52662888E+02 0.11703486E+03 0.91188000E+02 0.0000E+00 0.9000E+01
       21  1    1    2  501  502 -.96828458E+02 -.54330912E+03 0.90720198E+02 0.55927745E+03 0.75000000E+00 0.0000E+00 0.9000E+01
#aMCatNLO 2  0  0  2  2 0.55187005D+03 0.00000000D+00  -5  7  0 0.00000000D+00 0.00000000D+00 0.00000000D+00 0.00000000D+00 0.00000000D+00
  <mgrwgt>
 0.7515786775D-04    1    2    0
 0.421402783794352D+03 0.000000000000000D+00 0.000000000000000D+00 0.421402783794352D+03
 0.421402783794352D+03 0.000000000000000D+00 0.000000000000000D+00 -.421402783794352D+03
 0.371792463717607D+03 0.127956633187023D+03 0.267536772920635D+03 0.209316973228384D+03
 0.220531615366408D+02 -.171325131058098D+02 0.776772271397508D+01 -.115100570059067D+02
 0.219904974347094D+03 -.118505100438673D+03 -.185060466115055D+03 -.820748401733262D+01
 0.229054967987362D+03 0.768098035745945D+01 -.902440295195552D+02 -.189599432205145D+03
 0.000000000000000D+00 -.000000000000000D+00 -.000000000000000D+00 -.000000000000000D+00
 0.639514973658380D+03 0.000000000000000D+00 0.000000000000000D+00 0.639514973658380D+03
 0.106435105664148D+04 0.000000000000000D+00 0.000000000000000D+00 -.106435105664148D+04
 0.631573576945144D+03 0.180466302265464D+03 0.562171046573951D+03 0.209316973228384D+03
 0.293994385265174D+02 -.144398178250753D+02 0.228765651830402D+02 -.115100570059067D+02
 0.129941612291428D+03 -.100196399776971D+03 -.823294678880794D+02 -.820748401733262D+01
 0.216498782538814D+03 0.309983730622536D+02 0.405909801774835D+02 -.189599432205145D+03
 0.696452619997953D+03 -.968284577256715D+02 -.543309124046395D+03 -.424836082983096D+03
0.485044263960D-04 0.000000000000D+00 0.000000000000D+00 0.110066804923D-04 0.427186645207D-09  7 1 -2 -24 -11 11 23 21 2 0.23544657D+00 0.68425272D-01 0.49632065D+06 0.49632065D+06 0.49632065D+06 0.10687372D+01  1  2  1  2  7  2       -2 0.751578677512D-04 0.100000000000D+01
  </mgrwgt>
  </event>
  <event>
  8     66 0.29493621E-05 0.40818726E+03 0.75467711E-02 0.94529688E-01
        1 -1    0    0  501    0 0.00000000E+00 0.00000000E+00 0.12195856E+04 0.12195857E+04 0.32000000E+00 0.0000E+00 0.9000E+01
       -2 -1    0    0    0  501 0.00000000E+00 0.00000000E+00 -.17119701E+03 0.17119731E+03 0.32000000E+00 0.0000E+00 0.9000E+01
       25  2    1    2    0    0 0.17583211E+03 0.33103626E+03 0.34796274E+03 0.59230596E+03 0.29874128E+03 0.0000E+00 0.0000E+00
       23  2    3    3    0    0 0.14063057E+03 0.27232510E+03 0.12739949E+03 0.34401270E+03 0.90422265E+02 0.0000E+00 0.0000E+00
      -24  1    1    2    0    0 -.17583211E+03 -.33103626E+03 0.70042588E+03 0.79847703E+03 0.80419002E+02 0.0000E+00 0.9000E+01
      -11  1    4    4    0    0 0.10166888E+03 0.10108699E+03 0.47087687E+02 0.15090524E+03 0.51099893E-03 0.0000E+00 0.9000E+01
       11  1    4    4    0    0 0.38961693E+02 0.17123811E+03 0.80311806E+02 0.19310746E+03 0.51099893E-03 0.0000E+00 0.9000E+01
       23  1    3    3    0    0 0.35201537E+02 0.58711156E+02 0.22056325E+03 0.24829327E+03 0.91188000E+02 0.0000E+00 0.9000E+01
#aMCatNLO 1  0  0  2  1 0.17406632D+03 0.00000000D+00  -5  7  0 0.00000000D+00 0.00000000D+00 0.00000000D+00 0.00000000D+00 0.00000000D+00
  <mgrwgt>
 0.6511051640D-03    4    2    0
 0.456935067744982D+03 0.000000000000000D+00 0.000000000000000D+00 0.456935067744982D+03
 0.456935067744982D+03 0.000000000000000D+00 0.000000000000000D+00 -.456935067744982D+03
 0.411644642357121D+03 -.175832109876536D+03 -.331036256859288D+03 0.149940526235934D+03
 0.175637912890232D+03 0.101668880058349D+03 0.101086989531674D+03 -.101457063921351D+03
 0.201749217546156D+03 0.389616926065802D+02 0.171238111299513D+03 -.993088240202867D+02
 0.124838362696456D+03 0.352015372116072D+02 0.587111560281008D+02 0.508253617057037D+02
 0.000000000000000D+00 0.000000000000000D+00 -.000000000000000D+00 0.000000000000000D+00
 0.567250213838465D+03 0.000000000000000D+00 0.000000000000000D+00 0.567250213838465D+03
 0.539339394491296D+03 0.000000000000000D+00 0.000000000000000D+00 -.539339394491296D+03
 0.414723738894868D+03 -.242375709584601D+03 -.290345342039477D+03 0.149940526235934D+03
 0.172319187560064D+03 0.736495142001545D+02 0.118220622735210D+03 -.101457063921351D+03
 0.216060415873385D+03 0.531742737184187D+01 0.191811328511204D+03 -.993088240202867D+02
 0.127196452857214D+03 0.149063465203927D+02 0.711215137377986D+02 0.508253617057037D+02
 0.176289813144229D+03 0.148502421492212D+03 -.908081229447362D+02 0.279108193471693D+02
0.727002857733D-04 0.000000000000D+00 0.000000000000D+00 0.911238778697D-06 0.000000000000D+00  7 1 -2 -24 -11 11 23 21 0 0.18762859D+00 0.26338028D-01 0.16661684D+06 0.16661684D+06 0.16661684D+06 0.11039691D+01  1  2  2  2  7  2       -2 0.105365564916D-02 0.100000000000D+01
-.397640465899D-05 0.000000000000D+00 -.279188239794D-06 0.911238778697D-06 0.000000000000D+00  7 1 -2 -24 -11 11 23 21 2 0.18762859D+00 0.26338028D-01 0.16661684D+06 0.16661684D+06 0.16661684D+06 0.11039691D+01  1  2  3  2  7  2       -2 -.702371720299D-04 0.100000000000D+01
0.464309572601D-05 0.000000000000D+00 0.000000000000D+00 0.911238778697D-06 0.000000000000D+00  7 1 -2 -24 -11 11 23 21 2 0.18762859D+00 0.26338028D-01 0.16661684D+06 0.16661684D+06 0.16661684D+06 0.11039691D+01  1  2 15  2  7  2       -2 0.820132610301D-04 0.100000000000D+01
-.234566693409D-04 0.000000000000D+00 0.000000000000D+00 0.911238778697D-06 0.000000000000D+00  7 1 -2 -24 -11 11 23 21 2 0.18762859D+00 0.26338028D-01 0.16661684D+06 0.16661684D+06 0.16661684D+06 0.11039691D+01  1  2  4  2  7  2       -2 -.414326574137D-03 0.100000000000D+01
  </mgrwgt>
  </event>
  <event>
  9     66 0.29493621E-05 0.21027503E+03 0.75467711E-02 0.10308715E+00
        1 -1    0    0  501    0 0.00000000E+00 0.00000000E+00 0.99356135E+03 0.99356140E+03 0.32000000E+00 0.0000E+00 0.9000E+01
       21 -1    0    0  502  501 0.00000000E+00 0.00000000E+00 -.87353469E+02 0.87356688E+02 0.75000000E+00 0.0000E+00 0.9000E+01
       25  2    1    2    0    0 -.67103450E+02 0.24783302E+02 0.61748803E+03 0.69317634E+03 0.30673261E+03 0.0000E+00 0.0000E+00
       23  2    3    3    0    0 -.93408587E+02 -.46597647E+02 0.52449005E+03 0.54234175E+03 0.90267677E+02 0.0000E+00 0.0000E+00
      -24  1    1    2    0    0 0.12354093E+03 -.81182881E+02 0.24360895E+03 0.29608370E+03 0.80419002E+02 0.0000E+00 0.9000E+01
      -13  1    4    4    0    0 -.38648912E+02 -.68691595E+02 0.31167688E+03 0.32148836E+03 0.10565837E+00 0.0000E+00 0.9000E+01
       13  1    4    4    0    0 -.54759675E+02 0.22093947E+02 0.21281317E+03 0.22085339E+03 0.10565837E+00 0.0000E+00 0.9000E+01
       23  1    3    3    0    0 0.26305137E+02 0.71380950E+02 0.92997974E+02 0.15083459E+03 0.91188000E+02 0.0000E+00 0.9000E+01
        2  1    1    2  502    0 -.56437476E+02 0.56399579E+02 0.45110903E+02 0.91658045E+02 0.32000000E+00 0.0000E+00 0.9000E+01
#aMCatNLO 2  0  0  2  1 0.79787851D+02 0.00000000D+00  -5  7  0 0.00000000D+00 0.00000000D+00 0.00000000D+00 0.00000000D+00 0.00000000D+00
  <mgrwgt>
 0.1573606267D-03    2    2    0
 0.240198526613865D+03 0.000000000000000D+00 0.000000000000000D+00 0.240198526613865D+03
 0.240198526613865D+03 0.000000000000000D+00 0.000000000000000D+00 -.240198526613865D+03
 0.149006132237840D+03 0.104888930128918D+03 -.625431746778259D+02 -.286753400631972D+02
 0.998308950066967D+02 -.504214062273488D+02 -.569267600565104D+02 0.646779203543471D+02
 0.823595884828466D+02 -.637852017791019D+02 0.311135802539871D+02 0.417910872416809D+02
 0.149200437500348D+03 0.931767787753279D+01 0.883563544803491D+02 -.777936675328308D+02
 0.000000000000000D+00 -.000000000000000D+00 0.000000000000000D+00 -.000000000000000D+00
 0.261486155592198D+03 0.000000000000000D+00 0.000000000000000D+00 0.261486155592198D+03
 0.331920614048125D+03 0.000000000000000D+00 0.000000000000000D+00 -.331920614048125D+03
 0.170712457787335D+03 0.123541585036031D+03 -.811833044933947D+02 -.286753400631972D+02
 0.101958209432533D+03 -.386488579722601D+02 -.686914031503588D+02 0.646779203543471D+02
 0.723414658052489D+02 -.547598104836657D+02 0.220942494283745D+02 0.417910872416809D+02
 0.141965720646135D+03 0.263045595853137D+02 0.713808793122536D+02 -.777936675328308D+02
 0.106428915969072D+03 -.564374761654184D+02 0.563995789031254D+02 -.704344584559268D+02
-.251101554351D-06 0.000000000000D+00 0.000000000000D+00 0.572373373922D-08 0.000000000000D+00  7 1 21 -24 -13 13 23 2 2 0.14041170D+00 0.13743308D-01 0.63679296D+05 0.63679296D+05 0.63679296D+05 0.11381702D+01  1  2 13  4  7  2       -2 -.327282346424D-03 0.100000000000D+01
0.412386134305D-06 0.000000000000D+00 0.000000000000D+00 0.572373373922D-08 0.327044888884D-12  7 1 21 -24 -13 13 23 2 2 0.15285571D+00 0.13439235D-01 0.63679296D+05 0.63679296D+05 0.63679296D+05 0.11381702D+01  1  2  1  4  7  2       -2 0.484642973086D-03 0.100000000000D+01
  </mgrwgt>
  </event>
  <event>
  8     66 0.29493621E-05 0.74405877E+02 0.75467711E-02 0.10422366E+00
        1 -1    0    0  501    0 0.00000000E+00 0.00000000E+00 0.28836918E+03 0.28836936E+03 0.32000000E+00 0.0000E+00 0.9000E+01
       -2 -1    0    0    0  501 0.00000000E+00 0.00000000E+00 -.20260382E+03 0.20260407E+03 0.32000000E+00 0.0000E+00 0.9000E+01
       25  2    1    2    0    0 0.62507015E+02 0.11562667E+03 0.74797366E+02 0.33649312E+03 0.30059328E+03 0.0000E+00 0.0000E+00
       23  2    3    3    0    0 0.27462861E+02 -.69817551E+02 0.23784979E+02 0.12077301E+03 0.91606199E+02 0.0000E+00 0.0000E+00
      -24  1    1    2    0    0 -.62507015E+02 -.11562667E+03 0.10967994E+02 0.15448031E+03 0.80419002E+02 0.0000E+00 0.9000E+01
      -11  1    4    4    0    0 0.27389305E+02 -.61895213E+01 -.27308877E+02 0.39169618E+02 0.51099893E-03 0.0000E+00 0.9000E+01
       11  1    4    4    0    0 0.73556057E-01 -.63628030E+02 0.51093856E+02 0.81603393E+02 0.51099893E-03 0.0000E+00 0.9000E+01
       23  1    3    3    0    0 0.35044153E+02 0.18544422E+03 0.51012387E+02 0.21572011E+03 0.91188000E+02 0.0000E+00 0.9000E+01
#aMCatNLO 1  0  0  1  2 0.86548231D+01 0.00000000D+00  -5  7  0 0.00000000D+00 0.00000000D+00 0.00000000D+00 0.00000000D+00 0.00000000D+00
  <mgrwgt>
 0.7710217142D-03   11    2    0
 0.241712230684692D+03 0.000000000000000D+00 0.000000000000000D+00 0.241712230684692D+03
 0.241712230684692D+03 0.000000000000000D+00 0.000000000000000D+00 -.241712230684692D+03
 0.154946757043159D+03 -.625070146559630D+02 -.115626666235844D+03 -.162674133716797D+02
 0.446262011539297D+02 0.273893051597533D+02 -.618952124679976D+01 -.346844867200356D+02
 0.738130097672008D+02 0.735560599260854D-01 -.636280297252102D+02 0.374142864917492D+02
 0.210038493405094D+03 0.350441534362835D+02 0.185444217207854D+03 0.135376135999660D+02
 0.000000000000000D+00 -.000000000000000D+00 0.000000000000000D+00 0.000000000000000D+00
 0.254485598736205D+03 0.000000000000000D+00 0.000000000000000D+00 0.254485598736205D+03
 0.243221481335800D+03 0.000000000000000D+00 0.000000000000000D+00 -.243221481335800D+03
 0.157027555832516D+03 -.624721989110267D+02 -.118418887690180D+03 -.162674133716797D+02
 0.447502694667584D+02 0.273992794053114D+02 -.698945537111772D+01 -.346844867200356D+02
 0.749639085587067D+02 0.901592834193627D-01 -.649596076343989D+02 0.374142864917492D+02
 0.206760195623954D+03 0.350906673839007D+02 0.181713800331803D+03 0.135376135999660D+02
 0.142051505900688D+02 -.107907161604764D+00 0.865415036389381D+01 0.112641174004057D+02
0.458276309441D-05 0.000000000000D+00 0.000000000000D+00 0.617157853904D-06 0.000000000000D+00  7 1 -2 -24 -11 11 23 21 0 0.44364522D-01 0.31169851D-01 0.51847349D+05 0.51847349D+05 0.51847349D+05 0.11459120D+01  1  2  2  1  7  1        1 0.433452234766D-03 0.100000000000D+01
-.253493993192D-06 0.000000000000D+00 -.175990169518D-07 0.617157853904D-06 0.000000000000D+00  7 1 -2 -24 -11 11 23 21 2 0.44364522D-01 0.31169851D-01 0.51847349D+05 0.51847349D+05 0.51847349D+05 0.11459120D+01  1  2  3  1  7  1        1 -.314835767143D-04 0.100000000000D+01
0.300477956976D-06 0.000000000000D+00 0.000000000000D+00 0.617157853904D-06 0.000000000000D+00  7 1 -2 -24 -11 11 23 21 2 0.44364522D-01 0.31169851D-01 0.51847349D+05 0.51847349D+05 0.51847349D+05 0.11459120D+01  1  2 15  1  7  1        1 0.373189150966D-04 0.100000000000D+01
0.338954631736D-04 0.000000000000D+00 0.000000000000D+00 0.617157853904D-06 0.000000000000D+00  7 1 -2 -24 -11 11 23 21 2 0.46843150D-01 0.31169851D-01 0.53914614D+05 0.53914614D+05 0.53914614D+05 0.11444270D+01  1  2 12  1  7  1        1 0.391277759617D-02 0.100000000000D+01
-.345955847780D-04 0.000000000000D+00 0.000000000000D+00 0.617157853904D-06 0.000000000000D+00  7 1 -2 -24 -11 11 23 21 2 0.44364522D-01 0.31169851D-01 0.51847349D+05 0.51847349D+05 0.51847349D+05 0.11459120D+01  1  2  4  1  7  1        1 -.429672014559D-02 0.100000000000D+01
-.107396806107D-03 0.000000000000D+00 -.111972096333D-04 0.617157853904D-06 0.000000000000D+00  7 1 -2 -24 -11 11 23 21 2 0.46916326D-01 0.31169851D-01 0.51847349D+05 0.51847349D+05 0.51847349D+05 0.11459120D+01  1  2  5  1  7  1        1 -.124041404715D-01 0.100000000000D+01
0.107871766979D-03 0.000000000000D+00 0.111797218034D-04 0.617157853904D-06 0.000000000000D+00  7 1 -2 -24 -11 11 23 21 2 0.44364522D-01 0.31169851D-01 0.51847349D+05 0.51847349D+05 0.51847349D+05 0.11459120D+01  1  2  6  1  7  1        1 0.133975129282D-01 0.100000000000D+01
0.413324874113D-07 0.000000000000D+00 0.000000000000D+00 0.617157853904D-06 0.576428486638D-07  7 1 -2 -24 -11 11 23 21 2 0.46708981D-01 0.31364476D-01 0.53914614D+05 0.53914614D+05 0.53914614D+05 0.11444270D+01  1  2 11  1  7  1        1 0.473705216685D-05 0.100000000000D+01
0.514575350922D-06 0.000000000000D+00 0.000000000000D+00 0.617157853904D-06 0.000000000000D+00  7 21 -2 -24 -11 11 23 -1 2 0.46843150D-01 0.31169851D-01 0.53914614D+05 0.53914614D+05 0.53914614D+05 0.11444270D+01  1  2 12  3  7  1        1 0.284506099760D-03 0.100000000000D+01
-.102525535631D-05 0.000000000000D+00 -.108168773831D-06 0.617157853904D-06 0.000000000000D+00  7 21 -2 -24 -11 11 23 -1 2 0.46916326D-01 0.31169851D-01 0.51847349D+05 0.51847349D+05 0.51847349D+05 0.11459120D+01  1  2  5  3  7  1        1 -.567151587873D-03 0.100000000000D+01
0.386546510826D-09 0.000000000000D+00 0.000000000000D+00 0.617157853904D-06 0.517355688086D-09  7 21 -2 -24 -11 11 23 -1 2 0.46708981D-01 0.31364476D-01 0.53914614D+05 0.53914614D+05 0.53914614D+05 0.11444270D+01  1  2 11  3  7  1        1 0.212669641873D-06 0.100000000000D+01
  </mgrwgt>
  </event>
  <event>
  8     66 0.29493621E-05 0.15372993E+03 0.75467711E-02 0.99454822E-01
        1 -1    0    0  501    0 0.00000000E+00 0.00000000E+00 0.91253243E+03 0.91253249E+03 0.32000000E+00 0.0000E+00 0.9000E+01
       -2 -1    0    0    0  501 0.00000000E+00 0.00000000E+00 -.19785864E+03 0.19785890E+03 0.32000000E+00 0.0000E+00 0.9000E+01
       25  2    1    2    0    0 -.14653055E+03 -.12771019E+03 -.90285974E+01 0.35673797E+03 0.29899727E+03 0.0000E+00 0.0000E+00
       23  2    3    3    0    0 0.47147679E+02 -.87013070E+02 0.22491690E+02 0.13656465E+03 0.91377511E+02 0.0000E+00 0.0000E+00
      -24  1    1    2    0    0 0.14653055E+03 0.12771019E+03 0.72370239E+03 0.75365341E+03 0.80419002E+02 0.0000E+00 0.9000E+01
      -11  1    4    4    0    0 0.65618778E+02 -.84501229E+02 0.36720588E+02 0.11311359E+03 0.51099893E-03 0.0000E+00 0.9000E+01
       11  1    4    4    0    0 -.18471100E+02 -.25118410E+01 -.14228897E+02 0.23451064E+02 0.51099893E-03 0.0000E+00 0.9000E+01
       23  1    3    3    0    0 -.19367823E+03 -.40697124E+02 -.31520288E+02 0.22017332E+03 0.91188000E+02 0.0000E+00 0.9000E+01
#aMCatNLO 1  0  0  1  2 0.11124265D+03 0.00000000D+00  -5  7  0 0.00000000D+00 0.00000000D+00 0.00000000D+00 0.00000000D+00 0.00000000D+00
  <mgrwgt>
 0.1275321517D-02    9    2    0
 0.424914813246836D+03 0.000000000000000D+00 0.000000000000000D+00 0.424914813246836D+03
 0.424914813246836D+03 0.000000000000000D+00 0.000000000000000D+00 -.424914813246836D+03
 0.376121413178878D+03 0.146530550841233D+03 0.127710193900780D+03 0.311799624023660D+03
 0.116914151476350D+03 0.656187784122155D+02 -.845012289295377D+02 -.471448517287035D+02
 0.426072214969496D+02 -.184710999024615D+02 -.251184104219918D+01 -.383129801328758D+02
 0.314186840341495D+03 -.193678229350987D+03 -.406971239290427D+02 -.226341792162081D+03
 0.000000000000000D+00 -.000000000000000D+00 0.000000000000000D+00 0.000000000000000D+00
 0.759140508519945D+03 0.000000000000000D+00 0.000000000000000D+00 0.759140508519945D+03
 0.437897673712924D+03 0.000000000000000D+00 0.000000000000000D+00 -.437897673712924D+03
 0.366769817542739D+03 0.156177336409315D+03 0.802652923545344D+02 0.311799624023660D+03
 0.130462412476547D+03 0.688310772903496D+02 -.100299984166146D+03 -.471448517287035D+02
 0.428111533451379D+02 -.173619028738799D+02 -.796710315464397D+01 -.383129801328758D+02
 0.317036146482905D+03 -.185481507478762D+03 -.810103100660225D+02 -.226341792162081D+03
 0.339958652385541D+03 -.221650033470227D+02 0.109012105032278D+03 0.321242834807021D+03
0.941221484001D-04 0.000000000000D+00 0.000000000000D+00 0.367531142691D-05 0.000000000000D+00  7 1 -2 -24 -11 11 23 21 0 0.14038963D+00 0.30439815D-01 0.76697600D+05 0.76697600D+05 0.76697600D+05 0.11313015D+01  1  2  2  1  7  1        1 0.182063037715D-02 0.100000000000D+01
-.406396431876D-05 0.000000000000D+00 -.361453832787D-06 0.367531142691D-05 0.000000000000D+00  7 1 -2 -24 -11 11 23 21 2 0.14038963D+00 0.30439815D-01 0.76697600D+05 0.76697600D+05 0.76697600D+05 0.11313015D+01  1  2  3  1  7  1        1 -.100608932810D-03 0.100000000000D+01
0.572042531883D-05 0.000000000000D+00 0.000000000000D+00 0.367531142691D-05 0.000000000000D+00  7 1 -2 -24 -11 11 23 21 2 0.14038963D+00 0.30439815D-01 0.76697600D+05 0.76697600D+05 0.76697600D+05 0.11313015D+01  1  2 15  1  7  1        1 0.141616865062D-03 0.100000000000D+01
0.255559875110D-03 0.000000000000D+00 0.000000000000D+00 0.367531142691D-05 0.000000000000D+00  7 1 -2 -24 -11 11 23 21 2 0.25142629D+00 0.30439815D-01 0.11126239D+06 0.11126239D+06 0.11126239D+06 0.11179384D+01  1  2 12  1  7  1        1 0.191598449394D-02 0.100000000000D+01
-.279756198926D-03 0.000000000000D+00 0.000000000000D+00 0.367531142691D-05 0.000000000000D+00  7 1 -2 -24 -11 11 23 21 2 0.14038963D+00 0.30439815D-01 0.76697600D+05 0.76697600D+05 0.76697600D+05 0.11313015D+01  1  2  4  1  7  1        1 -.692574304626D-02 0.100000000000D+01
-.297779871415D-03 0.000000000000D+00 -.297305797643D-04 0.367531142691D-05 0.000000000000D+00  7 1 -2 -24 -11 11 23 21 2 0.25316392D+00 0.30439815D-01 0.76697600D+05 0.76697600D+05 0.76697600D+05 0.11313015D+01  1  2  5  1  7  1        1 -.228258740807D-02 0.100000000000D+01
0.271284010486D-03 0.000000000000D+00 0.252185367356D-04 0.367531142691D-05 0.000000000000D+00  7 1 -2 -24 -11 11 23 21 2 0.14038963D+00 0.30439815D-01 0.76697600D+05 0.76697600D+05 0.76697600D+05 0.11313015D+01  1  2  6  1  7  1        1 0.671600256365D-02 0.100000000000D+01
0.163518846779D-04 0.000000000000D+00 0.000000000000D+00 0.367531142691D-05 0.000000000000D+00  7 21 -2 -24 -11 11 23 -1 2 0.25142629D+00 0.30439815D-01 0.11126239D+06 0.11126239D+06 0.11126239D+06 0.11179384D+01  1  2 12  3  7  1        1 0.879682834885D-04 0.100000000000D+01
-.176634994080D-04 0.000000000000D+00 -.192177806716D-05 0.367531142691D-05 0.000000000000D+00  7 21 -2 -24 -11 11 23 -1 2 0.25316392D+00 0.30439815D-01 0.76697600D+05 0.76697600D+05 0.76697600D+05 0.11313015D+01  1  2  5  3  7  1        1 -.979416787313D-04 0.100000000000D+01
  </mgrwgt>
  </event>
  <event>
  8     66 0.29493621E-05 0.23561186E+03 0.75467711E-02 0.10374398E+00
        1 -1    0    0  501    0 0.00000000E+00 0.00000000E+00 0.21848212E+03 0.21848235E+03 0.32000000E+00 0.0000E+00 0.9000E+01
       -2 -1    0    0    0  501 0.00000000E+00 0.00000000E+00 -.39743093E+03 0.39743106E+03 0.32000000E+00 0.0000E+00 0.9000E+01
       25  2    1    2    0    0 0.18836003E+03 -.87560087E+02 -.72330494E+02 0.36897020E+03 0.29624490E+03 0.0000E+00 0.0000E+00
       23  2    3    3    0    0 0.40998319E+02 -.40542624E+02 -.14344729E+03 0.17584080E+03 0.83775278E+02 0.0000E+00 0.0000E+00
      -24  1    1    2    0    0 -.18836003E+03 0.87560087E+02 -.10661832E+03 0.24694321E+03 0.80419002E+02 0.0000E+00 0.9000E+01
      -11  1    4    4    0    0 0.81513299E+01 -.34595757E+02 -.13739205E+03 0.14191506E+03 0.51099893E-03 0.0000E+00 0.9000E+01
       11  1    4    4    0    0 0.32846990E+02 -.59468667E+01 -.60552411E+01 0.33925741E+02 0.51099893E-03 0.0000E+00 0.9000E+01
       23  1    3    3    0    0 0.14736171E+03 -.47017463E+02 0.71116792E+02 0.19312940E+03 0.91188000E+02 0.0000E+00 0.9000E+01
#aMCatNLO 1  0  0  2  2 0.11368569D+02 0.00000000D+00  -5  7  0 0.00000000D+00 0.00000000D+00 0.00000000D+00 0.00000000D+00 0.00000000D+00
  <mgrwgt>
 0.1569047625D-02    4    2    0
 0.294672128899178D+03 0.000000000000000D+00 0.000000000000000D+00 0.294672128899178D+03
 0.294672128899178D+03 0.000000000000000D+00 0.000000000000000D+00 -.294672128899178D+03
 0.225702403453082D+03 -.188360026658950D+03 0.875600866507538D+02 -.364429767291239D+02
 0.106595160948011D+03 0.815132991026543D+01 -.345957569251130D+02 -.100494864351392D+03
 0.336165837236355D+02 0.328469895040299D+02 -.594686665979267D+01 0.397300373785217D+01
 0.223430109673627D+03 0.147361707244655D+03 -.470174630658481D+02 0.132964837342664D+03
 0.000000000000000D+00 0.000000000000000D+00 -.000000000000000D+00 0.000000000000000D+00
 0.307832641051186D+03 0.000000000000000D+00 0.000000000000000D+00 0.307832641051186D+03
 0.297192373644348D+03 0.000000000000000D+00 0.000000000000000D+00 -.297192373644348D+03
 0.229074141232158D+03 -.190636679360717D+03 0.913088832278653D+02 -.364429767291239D+02
 0.105962961688811D+03 0.708724463621380D+01 -.328436059580272D+02 -.100494864351392D+03
 0.331958860014402D+02 0.325125202102879D+02 -.539612067093108D+01 0.397300373785217D+01
 0.221220909670257D+03 0.145135743842709D+03 -.433521328310199D+02 0.132964837342664D+03
 0.155711161028672D+02 0.590117067150654D+01 -.971702376788711D+01 0.106402674068389D+02
0.809243002584D-04 0.000000000000D+00 0.000000000000D+00 0.186115638716D-08 0.000000000000D+00  7 1 -2 -24 -11 11 23 21 0 0.33612661D-01 0.61143248D-01 0.55512948D+05 0.55512948D+05 0.55512948D+05 0.11433212D+01  1  2  2  2  7  2       -2 0.306671177460D-02 0.100000000000D+01
-.422231000003D-05 0.000000000000D+00 -.310770620850D-06 0.186115638716D-08 0.000000000000D+00  7 1 -2 -24 -11 11 23 21 2 0.33612661D-01 0.61143248D-01 0.55512948D+05 0.55512948D+05 0.55512948D+05 0.11433212D+01  1  2  3  2  7  2       -2 -.209160963463D-03 0.100000000000D+01
0.522545561753D-05 0.000000000000D+00 0.000000000000D+00 0.186115638716D-08 0.000000000000D+00  7 1 -2 -24 -11 11 23 21 2 0.33612661D-01 0.61143248D-01 0.55512948D+05 0.55512948D+05 0.55512948D+05 0.11433212D+01  1  2 15  2  7  2       -2 0.258853881284D-03 0.100000000000D+01
-.312363316330D-04 0.000000000000D+00 0.000000000000D+00 0.186115638716D-08 0.000000000000D+00  7 1 -2 -24 -11 11 23 21 2 0.33612661D-01 0.61143248D-01 0.55512948D+05 0.55512948D+05 0.55512948D+05 0.11433212D+01  1  2  4  2  7  2       -2 -.154735706742D-02 0.100000000000D+01
  </mgrwgt>
  </event>
  <event>
  7     66 0.29493621E-05 0.55897662E+03 0.75467711E-02 0.81018346E-01
        1 -1    0    0  501    0 0.00000000E+00 0.00000000E+00 0.14439249E+04 0.14439249E+04 0.32000000E+00 0.0000E+00 0.9000E+01
       -2 -1    0    0    0  501 0.00000000E+00 0.00000000E+00 -.57129803E+03 0.57129812E+03 0.32000000E+00 0.0000E+00 0.9000E+01
       23  2    1    2    0    0 0.65568067E+02 -.16627842E+02 -.16446488E+03 0.20093177E+03 0.93537273E+02 0.0000E+00 0.0000E+00
      -24  1    1    2    0    0 -.52752755E+03 0.12960524E+03 0.11865949E+04 0.13075005E+04 0.80419002E+02 0.0000E+00 0.9000E+01
      -11  1    3    3    0    0 0.50690934E+02 0.12201415E+02 -.15988131E+03 0.16816801E+03 0.51099893E-03 0.0000E+00 0.9000E+01
       11  1    3    3    0    0 0.14877133E+02 -.28829257E+02 -.45835771E+01 0.32763765E+02 0.51099893E-03 0.0000E+00 0.9000E+01
       23  1    1    2    0    0 0.46195948E+03 -.11297740E+03 -.14950317E+03 0.50679079E+03 0.91188000E+02 0.0000E+00 0.9000E+01
#aMCatNLO 1  0  0  1  2 0.18994948D+04 0.00000000D+00  -5  7  0 0.00000000D+00 0.00000000D+00 0.00000000D+00 0.00000000D+00 0.00000000D+00
  <mgrwgt>
 0.2807986875D-02    3    2    0
 0.908246433277243D+03 0.000000000000000D+00 0.000000000000000D+00 0.908246433277243D+03
 0.908246433277243D+03 0.000000000000000D+00 0.000000000000000D+00 -.908246433277243D+03
 0.880515734552201D+03 -.527527548480126D+03 0.129605239029118D+03 0.688300741282752D+03
 0.263371673588366D+03 0.506909344588749D+02 0.122014154217127D+02 -.258159239761294D+03
 0.385501366787937D+02 0.148771331064589D+02 -.288292570438130D+02 -.208244540573850D+02
 0.634055321735125D+03 0.461959480914792D+03 -.112977397407018D+03 -.409317047464073D+03
 0.000000000000000D+00 0.000000000000000D+00 -.000000000000000D+00 -.000000000000000D+00
 0.182525603717039D+04 0.000000000000000D+00 0.000000000000000D+00 0.182525603717039D+04
 0.307889041989710D+04 0.000000000000000D+00 0.000000000000000D+00 -.307889041989710D+04
 0.169220711283401D+04 -.113608557483659D+04 0.104529869079104D+04 0.688300741282752D+03
 0.362355173090723D+03 -.973199930454819D+02 0.234912531264524D+03 -.258159239761294D+03
 0.220593002502668D+02 0.540431679953141D+00 -.725691217685484D+01 -.208244540573850D+02
 0.551633897906848D+03 0.181493712085266D+03 0.309037688809484D+03 -.409317047464073D+03
 0.227589097298564D+04 0.105137142411686D+04 -.158199199868819D+04 -.125363438272670D+04
0.301082531963D-02 0.000000000000D+00 0.000000000000D+00 0.826492350648D-08 0.000000000000D+00  7 1 -2 -24 -11 11 23 21 0 0.22214230D+00 0.87892015D-01 0.31245487D+06 0.31245487D+06 0.31245487D+06 0.10832473D+01  1  2  2  1  7  1        1 0.273944292553D-02 0.100000000000D+01
-.119348981899D-03 0.000000000000D+00 -.115623619959D-04 0.826492350648D-08 0.000000000000D+00  7 1 -2 -24 -11 11 23 21 2 0.22214230D+00 0.87892015D-01 0.31245487D+06 0.31245487D+06 0.31245487D+06 0.10832473D+01  1  2  3  1  7  1        1 -.127423820545D-03 0.100000000000D+01
0.183549306144D-03 0.000000000000D+00 0.000000000000D+00 0.826492350648D-08 0.000000000000D+00  7 1 -2 -24 -11 11 23 21 2 0.22214230D+00 0.87892015D-01 0.31245487D+06 0.31245487D+06 0.31245487D+06 0.10832473D+01  1  2 15  1  7  1        1 0.195967770107D-03 0.100000000000D+01
  </mgrwgt>
  </event>
  <event>
  8     66 0.29493621E-05 0.23701636E+03 0.75467711E-02 0.10293522E+00
        1 -1    0    0  501    0 0.00000000E+00 0.00000000E+00 0.96171528E+03 0.96171533E+03 0.32000000E+00 0.0000E+00 0.9000E+01
       -2 -1    0    0    0  501 0.00000000E+00 0.00000000E+00 -.61531701E+03 0.61531710E+03 0.32000000E+00 0.0000E+00 0.9000E+01
       25  2    1    2    0    0 -.13599477E+03 -.10255070E+03 -.55647245E+03 0.65472339E+03 0.29998317E+03 0.0000E+00 0.0000E+00
       23  2    3    3    0    0 -.16179681E+03 -.99909421E+02 -.24089194E+03 0.32521006E+03 0.10757583E+03 0.0000E+00 0.0000E+00
      -24  1    1    2    0    0 0.13599477E+03 0.10255070E+03 0.90287072E+03 0.92230904E+03 0.80419002E+02 0.0000E+00 0.9000E+01
      -11  1    4    4    0    0 -.10114551E+02 -.11453517E+02 -.96990446E+02 0.98186729E+02 0.51099893E-03 0.0000E+00 0.9000E+01
       11  1    4    4    0    0 -.15168225E+03 -.88455904E+02 -.14390150E+03 0.22702333E+03 0.51099893E-03 0.0000E+00 0.9000E+01
       23  1    3    3    0    0 0.25802039E+02 -.26412820E+01 -.31558051E+03 0.32951332E+03 0.91188000E+02 0.0000E+00 0.9000E+01
#aMCatNLO 1  0  0  2  1 0.28917209D+02 0.00000000D+00  -5  7  0 0.00000000D+00 0.00000000D+00 0.00000000D+00 0.00000000D+00 0.00000000D+00
  <mgrwgt>
 0.9084983752D-03    4    2    0
 0.769259307524625D+03 0.000000000000000D+00 0.000000000000000D+00 0.769259307524625D+03
 0.769259307524625D+03 0.000000000000000D+00 0.000000000000000D+00 -.769259307524625D+03
 0.742115442313347D+03 0.135994766751721D+03 0.102550702658863D+03 0.717813966544175D+03
 0.122482092108633D+03 -.101145508806143D+02 -.114535168584183D+02 -.121525206024780D+03
 0.265105918382612D+03 -.151682254441372D+03 -.884559038044655D+02 -.198618213493139D+03
 0.408815162244658D+03 0.258020385702652D+02 -.264128199597891D+01 -.397670547026257D+03
 0.000000000000000D+00 -.000000000000000D+00 -.000000000000000D+00 0.000000000000000D+00
 0.800847165491447D+03 0.000000000000000D+00 0.000000000000000D+00 0.800847165491447D+03
 0.776041851076732D+03 0.000000000000000D+00 0.000000000000000D+00 -.776041851076732D+03
 0.745192463386271D+03 0.149557109510508D+03 0.105926257190122D+03 0.717813966544175D+03
 0.122267251276099D+03 -.788275040927187D+01 -.108980402473420D+02 -.121525206024780D+03
 0.261984651501532D+03 -.146875863682405D+03 -.872596330425486D+02 -.198618213493139D+03
 0.409345981417096D+03 0.332626200811544D+02 -.784405188423527D+00 -.397670547026257D+03
 0.380986689871819D+02 -.280611154999854D+02 -.698417871180739D+01 0.248053144147151D+02
0.755804489526D-03 0.000000000000D+00 0.000000000000D+00 0.433562312241D-06 0.000000000000D+00  7 1 -2 -24 -11 11 23 21 0 0.14795621D+00 0.94664167D-01 0.56176755D+05 0.56176755D+05 0.56176755D+05 0.11428722D+01  1  2  2  2  7  2       -2 0.139368464167D-02 0.100000000000D+01
0.287715379336D-04 0.000000000000D+00 -.290248824767D-05 0.433562312241D-06 0.000000000000D+00  7 1 -2 -24 -11 11 23 21 2 0.14795621D+00 0.94664167D-01 0.56176755D+05 0.56176755D+05 0.56176755D+05 0.11428722D+01  1  2  3  2  7  2       -2 0.692968469943D-04 0.100000000000D+01
0.456971182184D-04 0.000000000000D+00 0.000000000000D+00 0.433562312241D-06 0.000000000000D+00  7 1 -2 -24 -11 11 23 21 2 0.14795621D+00 0.94664167D-01 0.56176755D+05 0.56176755D+05 0.56176755D+05 0.11428722D+01  1  2 15  2  7  2       -2 0.110062458829D-03 0.100000000000D+01
-.275914402633D-03 0.000000000000D+00 0.000000000000D+00 0.433562312241D-06 0.000000000000D+00  7 1 -2 -24 -11 11 23 21 2 0.14795621D+00 0.94664167D-01 0.56176755D+05 0.56176755D+05 0.56176755D+05 0.11428722D+01  1  2  4  2  7  2       -2 -.664545572326D-03 0.100000000000D+01
  </mgrwgt>
  </event>
  <event>
  8     66 0.29493621E-05 0.88602865E+02 0.75467711E-02 0.10631449E+00
        1 -1    0    0  501    0 0.00000000E+00 0.00000000E+00 0.42608123E+03 0.42608135E+03 0.32000000E+00 0.0000E+00 0.9000E+01
       -2 -1    0    0    0  501 0.00000000E+00 0.00000000E+00 -.44861938E+03 0.44861949E+03 0.32000000E+00 0.0000E+00 0.9000E+01
       25  2    1    2    0    0 -.86463556E+02 -.57431953E+02 0.35429359E+03 0.47564727E+03 0.29990332E+03 0.0000E+00 0.0000E+00
       23  2    3    3    0    0 -.53782652E+02 -.57402876E+02 0.13338113E+02 0.12119850E+03 0.91233256E+02 0.0000E+00 0.0000E+00
      -24  1    1    2    0    0 0.86463556E+02 0.57431953E+02 -.37683174E+03 0.39905357E+03 0.80419002E+02 0.0000E+00 0.9000E+01
      -11  1    4    4    0    0 0.24901414E+01 0.17980625E+02 -.14348191E+02 0.23138156E+02 0.51099893E-03 0.0000E+00 0.9000E+01
       11  1    4    4    0    0 -.56272793E+02 -.75383500E+02 0.27686304E+02 0.98060343E+02 0.51099893E-03 0.0000E+00 0.9000E+01
       23  1    3    3    0    0 -.32680904E+02 -.29077972E-01 0.34095548E+03 0.35444877E+03 0.91188000E+02 0.0000E+00 0.9000E+01
#aMCatNLO 1  0  0  2  1 0.49550014D+02 0.00000000D+00  -5  7  0 0.00000000D+00 0.00000000D+00 0.00000000D+00 0.00000000D+00 0.00000000D+00
  <mgrwgt>
 0.9593305425D-03    9    2    0
 0.437205213709428D+03 0.000000000000000D+00 0.000000000000000D+00 0.437205213709428D+03
 0.437205213709428D+03 0.000000000000000D+00 0.000000000000000D+00 -.437205213709428D+03
 0.389473174897741D+03 0.864635561479446D+02 0.574319534956971D+02 -.366671190832434D+03
 0.227760121049481D+02 0.249014137279629D+01 0.179806246004858D+02 -.137565643357866D+02
 0.988065325368269D+02 -.562727934635220D+02 -.753835001242577D+02 0.302230292455747D+02
 0.363354707879341D+03 -.326809040572188D+02 -.290779719252043D-01 0.350204725922646D+03
 0.000000000000000D+00 -.000000000000000D+00 -.000000000000000D+00 -.000000000000000D+00
 0.453726309783616D+03 0.000000000000000D+00 0.000000000000000D+00 0.453726309783616D+03
 0.476706400012093D+03 0.000000000000000D+00 0.000000000000000D+00 -.476706400012093D+03
 0.393605445545447D+03 0.876285047873946D+02 0.795708097917176D+02 -.366671190832434D+03
 0.238374621811502D+02 0.255948601078282D+01 0.192984603601878D+02 -.137565643357866D+02
 0.945316446087718D+02 -.559851734972253D+02 -.699175277319346D+02 0.302230292455747D+02
 0.363838669475989D+03 -.315990932230938D+02 0.205298151716215D+02 0.350204725922646D+03
 0.546194879843506D+02 -.260372407785830D+01 -.494815575915924D+02 -.229800902284766D+02
0.577087221015D-04 0.000000000000D+00 0.000000000000D+00 0.130474610594D-04 0.000000000000D+00  7 1 -2 -24 -11 11 23 21 0 0.65550976D-01 0.69018384D-01 0.28967631D+05 0.28967631D+05 0.28967631D+05 0.11687496D+01  1  2  2  2  7  2       -2 0.721406154120D-03 0.100000000000D+01
0.263523932074D-06 0.000000000000D+00 -.221616687925D-06 0.130474610594D-04 0.000000000000D+00  7 1 -2 -24 -11 11 23 21 2 0.65550976D-01 0.69018384D-01 0.28967631D+05 0.28967631D+05 0.28967631D+05 0.11687496D+01  1  2  3  2  7  2       -2 0.449988482428D-05 0.100000000000D+01
0.355147461352D-05 0.000000000000D+00 0.000000000000D+00 0.130474610594D-04 0.000000000000D+00  7 1 -2 -24 -11 11 23 21 2 0.65550976D-01 0.69018384D-01 0.28967631D+05 0.28967631D+05 0.28967631D+05 0.11687496D+01  1  2 15  2  7  2       -2 0.606443088163D-04 0.100000000000D+01
0.116227999748D-03 0.000000000000D+00 0.000000000000D+00 0.130474610594D-04 0.000000000000D+00  7 1 -2 -24 -11 11 23 21 2 0.65550976D-01 0.76471283D-01 0.40070905D+05 0.40070905D+05 0.40070905D+05 0.11558491D+01  1  2 12  2  7  2       -2 0.154624248905D-02 0.100000000000D+01
-.120120144932D-03 0.000000000000D+00 0.000000000000D+00 0.130474610594D-04 0.000000000000D+00  7 1 -2 -24 -11 11 23 21 2 0.65550976D-01 0.69018384D-01 0.28967631D+05 0.28967631D+05 0.28967631D+05 0.11687496D+01  1  2  4  2  7  2       -2 -.205114887674D-02 0.100000000000D+01
-.220386644643D-03 0.000000000000D+00 -.650179230260D-04 0.130474610594D-04 0.000000000000D+00  7 1 -2 -24 -11 11 23 21 2 0.65550976D-01 0.77498747D-01 0.28967631D+05 0.28967631D+05 0.28967631D+05 0.11687496D+01  1  2  5  2  7  2       -2 -.293665786621D-02 0.100000000000D+01
0.226830770696D-03 0.000000000000D+00 0.645837501574D-04 0.130474610594D-04 0.000000000000D+00  7 1 -2 -24 -11 11 23 21 2 0.65550976D-01 0.69018384D-01 0.28967631D+05 0.28967631D+05 0.28967631D+05 0.11687496D+01  1  2  6  2  7  2       -2 0.387331934031D-02 0.100000000000D+01
0.192912702134D-05 0.000000000000D+00 0.000000000000D+00 0.130474610594D-04 0.000000000000D+00  7 1 21 -24 -11 11 23 2 2 0.65550976D-01 0.76471283D-01 0.40070905D+05 0.40070905D+05 0.40070905D+05 0.11558491D+01  1  2 12  4  7  2       -2 0.264616069907D-03 0.100000000000D+01
-.377845272892D-05 0.000000000000D+00 -.119790415571D-05 0.130474610594D-04 0.000000000000D+00  7 1 21 -24 -11 11 23 2 2 0.65550976D-01 0.77498747D-01 0.28967631D+05 0.28967631D+05 0.28967631D+05 0.11687496D+01  1  2  5  4  7  2       -2 -.523590961554D-03 0.100000000000D+01
  </mgrwgt>
  </event>
  <event>
  8     66 0.29493621E-05 0.20755836E+03 0.75467711E-02 0.96736794E-01
        1 -1    0    0  501    0 0.00000000E+00 0.00000000E+00 0.64573599E+03 0.64573607E+03 0.32000000E+00 0.0000E+00 0.9000E+01
       -2 -1    0    0    0  501 0.00000000E+00 0.00000000E+00 -.29762325E+03 0.29762342E+03 0.32000000E+00 0.0000E+00 0.9000E+01
       25  2    1    2    0    0 0.15243496E+03 0.30386682E+03 0.53120363E+01 0.45392001E+03 0.30073858E+03 0.0000E+00 0.0000E+00
       23  2    3    3    0    0 -.49775808E+02 0.11783766E+03 0.44578154E+02 0.16176744E+03 0.88420291E+02 0.0000E+00 0.0000E+00
      -24  1    1    2    0    0 -.15243496E+03 -.30386682E+03 0.34280070E+03 0.48943948E+03 0.80419002E+02 0.0000E+00 0.9000E+01
      -13  1    4    4    0    0 -.55785883E+02 0.12934291E+03 0.47134445E+02 0.14853726E+03 0.10565837E+00 0.0000E+00 0.9000E+01
       13  1    4    4    0    0 0.60100752E+01 -.11505247E+02 -.25562912E+01 0.13230174E+02 0.10565837E+00 0.0000E+00 0.9000E+01
       23  1    3    3    0    0 0.20221077E+03 0.18602917E+03 -.39266118E+02 0.29215257E+03 0.91188000E+02 0.0000E+00 0.9000E+01
#aMCatNLO 1  0  0  2  1 0.40463583D+02 0.00000000D+00  -5  7  0 0.00000000D+00 0.00000000D+00 0.00000000D+00 0.00000000D+00 0.00000000D+00
  <mgrwgt>
 0.1108531274D-02    9    2    0
 0.438390421472088D+03 0.000000000000000D+00 0.000000000000000D+00 0.438390421472088D+03
 0.438390421472088D+03 0.000000000000000D+00 0.000000000000000D+00 -.438390421472088D+03
 0.390501328309157D+03 -.152434964029093D+03 -.303866823491702D+03 0.174506752818787D+03
 0.141102643515522D+03 -.557859713523653D+02 0.129343106299214D+03 -.826088737436529D+01
 0.152495693354820D+02 0.601016343901800D+01 -.115054483823596D+02 -.800324670835670D+01
 0.329927301784014D+03 0.202210771942440D+03 0.186029165574848D+03 -.158242618736065D+03
 0.000000000000000D+00 -.000000000000000D+00 -.000000000000000D+00 -.000000000000000D+00
 0.440332372720380D+03 0.000000000000000D+00 0.000000000000000D+00 0.440332372720380D+03
 0.716300058455457D+03 0.000000000000000D+00 0.000000000000000D+00 -.716300058455457D+03
 0.376130238915677D+03 -.150245509533113D+03 -.286322232385422D+03 0.174506752818787D+03
 0.146857275367261D+03 -.549635748244710D+02 0.135933154567229D+03 -.826088737436529D+01
 0.147732564100630D+02 0.609590685687458D+01 -.108183670983636D+02 -.800324670835670D+01
 0.339953276183393D+03 0.204123911325038D+03 0.201359581556833D+03 -.158242618736065D+03
 0.278918384299443D+03 -.501073382432846D+01 -.401521366402770D+02 -.275967685735077D+03
0.655807411368D-04 0.000000000000D+00 0.000000000000D+00 0.626000010103D-06 0.000000000000D+00  7 1 -2 -24 -13 13 23 21 0 0.99344017D-01 0.45788212D-01 0.15708676D+06 0.15708676D+06 0.15708676D+06 0.11059733D+01  1  2  2  2  7  2       -2 0.100943436968D-02 0.100000000000D+01
-.359833519282D-05 0.000000000000D+00 -.251847313771D-06 0.626000010103D-06 0.000000000000D+00  7 1 -2 -24 -13 13 23 21 2 0.99344017D-01 0.45788212D-01 0.15708676D+06 0.15708676D+06 0.15708676D+06 0.11059733D+01  1  2  3  2  7  2       -2 -.677474018993D-04 0.100000000000D+01
0.428581258474D-05 0.000000000000D+00 0.000000000000D+00 0.626000010103D-06 0.000000000000D+00  7 1 -2 -24 -13 13 23 21 2 0.99344017D-01 0.45788212D-01 0.15708676D+06 0.15708676D+06 0.15708676D+06 0.11059733D+01  1  2 15  2  7  2       -2 0.806908339788D-04 0.100000000000D+01
0.138939618514D-02 0.000000000000D+00 0.000000000000D+00 0.626000010103D-06 0.000000000000D+00  7 1 -2 -24 -13 13 23 21 2 0.99344017D-01 0.74860950D-01 0.17371495D+06 0.17371495D+06 0.17371495D+06 0.11025563D+01  1  2 12  2  7  2       -2 0.944185751923D-02 0.100000000000D+01
-.124335952382D-02 0.000000000000D+00 0.000000000000D+00 0.626000010103D-06 0.000000000000D+00  7 1 -2 -24 -13 13 23 21 2 0.99344017D-01 0.45788212D-01 0.15708676D+06 0.15708676D+06 0.15708676D+06 0.11059733D+01  1  2  4  2  7  2       -2 -.234092636877D-01 0.100000000000D+01
-.139574889626D-02 0.000000000000D+00 -.237810744560D-04 0.626000010103D-06 0.000000000000D+00  7 1 -2 -24 -13 13 23 21 2 0.99344017D-01 0.74939997D-01 0.15708676D+06 0.15708676D+06 0.15708676D+06 0.11059733D+01  1  2  5  2  7  2       -2 -.955467088358D-02 0.100000000000D+01
0.125471178084D-02 0.000000000000D+00 0.211607019320D-04 0.626000010103D-06 0.000000000000D+00  7 1 -2 -24 -13 13 23 21 2 0.99344017D-01 0.45788212D-01 0.15708676D+06 0.15708676D+06 0.15708676D+06 0.11059733D+01  1  2  6  2  7  2       -2 0.236229975056D-01 0.100000000000D+01
0.772978415836D-04 0.000000000000D+00 0.000000000000D+00 0.626000010103D-06 0.000000000000D+00  7 1 21 -24 -13 13 23 2 2 0.99344017D-01 0.74860950D-01 0.17371495D+06 0.17371495D+06 0.17371495D+06 0.11025563D+01  1  2 12  4  7  2       -2 0.517827873917D-02 0.100000000000D+01
-.767275981445D-04 0.000000000000D+00 -.132527270237D-05 0.626000010103D-06 0.000000000000D+00  7 1 21 -24 -13 13 23 2 2 0.99344017D-01 0.74939997D-01 0.15708676D+06 0.15708676D+06 0.15708676D+06 0.11059733D+01  1  2  5  4  7  2       -2 -.519304572025D-02 0.100000000000D+01
  </mgrwgt>
  </event>
  <event>
  8     66 0.29493621E-05 0.22004723E+03 0.75467711E-02 0.10426234E+00
        1 -1    0    0  501    0 0.00000000E+00 0.00000000E+00 0.95205858E+03 0.95205863E+03 0.32000000E+00 0.0000E+00 0.9000E+01
       -2 -1    0    0    0  501 0.00000000E+00 0.00000000E+00 -.39367909E+03 0.39367922E+03 0.32000000E+00 0.0000E+00 0.9000E+01
       25  2    1    2    0    0 0.12127016E+03 -.57675785E+02 -.31695055E+03 0.45652312E+03 0.29987124E+03 0.0000E+00 0.0000E+00
       23  2    3    3    0    0 0.14795211E+02 0.54360902E+02 -.23857353E+03 0.26069835E+03 0.88725932E+02 0.0000E+00 0.0000E+00
      -24  1    1    2    0    0 -.12127016E+03 0.57675785E+02 0.87533003E+03 0.88921473E+03 0.80419002E+02 0.0000E+00 0.9000E+01
      -11  1    4    4    0    0 -.33669208E+02 0.34860064E+01 -.61618979E+02 0.70304100E+02 0.51099893E-03 0.0000E+00 0.9000E+01
       11  1    4    4    0    0 0.48464419E+02 0.50874896E+02 -.17695455E+03 0.19039425E+03 0.51099893E-03 0.0000E+00 0.9000E+01
       23  1    3    3    0    0 0.10647495E+03 -.11203669E+03 -.78377019E+02 0.19582478E+03 0.91188000E+02 0.0000E+00 0.9000E+01
#aMCatNLO 1  0  0  1  1 0.18386931D+02 0.00000000D+00  -5  7  0 0.00000000D+00 0.00000000D+00 0.00000000D+00 0.00000000D+00 0.00000000D+00
  <mgrwgt>
 0.1739604371D-02    4    2    0
 0.612213753707141D+03 0.000000000000000D+00 0.000000000000000D+00 0.612213753707141D+03
 0.612213753707141D+03 0.000000000000000D+00 0.000000000000000D+00 -.612213753707141D+03
 0.578134339148223D+03 -.121270164420750D+03 0.576757851498803D+02 0.556542136029870D+03
 0.105369783706098D+03 -.336692083874229D+02 0.348600644189021D+01 -.997848860495475D+02
 0.289954721241062D+03 0.484644192307175D+02 0.508748959457131D+02 -.281312433783373D+03
 0.250968663318899D+03 0.106474953577455D+03 -.112036687537484D+03 -.175444816196950D+03
 0.000000000000000D+00 0.000000000000000D+00 -.000000000000000D+00 -.000000000000000D+00
 0.612451231286946D+03 0.000000000000000D+00 0.000000000000000D+00 0.612451231286946D+03
 0.111402265033129D+04 0.000000000000000D+00 0.000000000000000D+00 -.111402265033129D+04
 0.580211765322820D+03 -.129351233020198D+03 0.608899499434588D+02 0.556542136029870D+03
 0.105870815801811D+03 -.351429041757740D+02 0.407215430848383D+01 -.997848860495475D+02
 0.289593511208589D+03 0.444212675293070D+02 0.524830193880334D+02 -.281312433783373D+03
 0.248889463346446D+03 0.102987750749231D+03 -.110649687239118D+03 -.175444816196950D+03
 0.501908325938565D+03 0.170851189174336D+02 -.679543640085791D+01 -.501571419044339D+03
0.317445557219D-03 0.000000000000D+00 0.000000000000D+00 0.547788894503D-05 0.000000000000D+00  7 1 -2 -24 -11 11 23 21 0 0.14647056D+00 0.60566028D-01 0.48420784D+05 0.48420784D+05 0.48420784D+05 0.11485234D+01  1  2  2  1  7  1        1 0.158649562525D-02 0.100000000000D+01
0.481497877796D-05 0.000000000000D+00 -.121907452506D-05 0.547788894503D-05 0.000000000000D+00  7 1 -2 -24 -11 11 23 21 2 0.14647056D+00 0.60566028D-01 0.48420784D+05 0.48420784D+05 0.48420784D+05 0.11485234D+01  1  2  3  1  7  1        1 0.317426881619D-04 0.100000000000D+01
0.195467666405D-04 0.000000000000D+00 0.000000000000D+00 0.547788894503D-05 0.000000000000D+00  7 1 -2 -24 -11 11 23 21 2 0.14647056D+00 0.60566028D-01 0.48420784D+05 0.48420784D+05 0.48420784D+05 0.11485234D+01  1  2 15  1  7  1        1 0.128861817810D-03 0.100000000000D+01
-.113701544589D-05 0.000000000000D+00 0.000000000000D+00 0.547788894503D-05 0.000000000000D+00  7 1 -2 -24 -11 11 23 21 2 0.14647056D+00 0.60566028D-01 0.48420784D+05 0.48420784D+05 0.48420784D+05 0.11485234D+01  1  2  4  1  7  1        1 -.749576029272D-05 0.100000000000D+01
  </mgrwgt>
  </event>
  <event>
  9     66 0.29493621E-05 0.28729186E+03 0.75467711E-02 0.10057356E+00
        1 -1    0    0  502    0 0.00000000E+00 0.00000000E+00 0.18607415E+04 0.18607415E+04 0.32000000E+00 0.0000E+00 0.9000E+01
       -2 -1    0    0    0  501 0.00000000E+00 0.00000000E+00 -.76455181E+02 0.76455850E+02 0.32000000E+00 0.0000E+00 0.9000E+01
       25  2    1    2    0    0 -.16188274E+03 -.14568029E+03 0.58296284E+03 0.69051964E+03 0.29923725E+03 0.0000E+00 0.0000E+00
       23  2    3    3    0    0 -.19921064E+00 -.21527160E+02 0.32801888E+02 0.96762207E+02 0.88450565E+02 0.0000E+00 0.0000E+00
      -24  1    1    2    0    0 0.18334557E+03 0.17324553E+03 0.11705400E+04 0.12001087E+04 0.80419002E+02 0.0000E+00 0.9000E+01
      -11  1    4    4    0    0 0.38419040E+02 -.29455349E+02 0.30612140E+02 0.57277774E+02 0.51099893E-03 0.0000E+00 0.9000E+01
       11  1    4    4    0    0 -.38618251E+02 0.79281890E+01 0.21897481E+01 0.39484433E+02 0.51099893E-03 0.0000E+00 0.9000E+01
       23  1    3    3    0    0 -.16168352E+03 -.12415313E+03 0.55016096E+03 0.59375743E+03 0.91188000E+02 0.0000E+00 0.9000E+01
       21  1    1    2  502  501 -.21462839E+02 -.27565238E+02 0.30783433E+02 0.46569067E+02 0.75000000E+00 0.0000E+00 0.9000E+01
#aMCatNLO 2  0  0  1  1 0.34935595D+02 0.00000000D+00  -5  7  0 0.00000000D+00 0.00000000D+00 0.00000000D+00 0.00000000D+00 0.00000000D+00
  <mgrwgt>
 0.3546770266D-03    1    2    0
 0.353016480217831D+03 0.000000000000000D+00 0.000000000000000D+00 0.353016480217831D+03
 0.353016480217831D+03 0.000000000000000D+00 0.000000000000000D+00 -.353016480217831D+03
 0.294183735068185D+03 0.174226370038971D+03 0.161533515003582D+03 0.153717108800318D+03
 0.773333113285465D+02 0.360707702894318D+02 -.324712882847212D+02 -.602076075666146D+02
 0.101158128499139D+03 -.416765046928150D+02 0.400040034441157D+01 -.920870930973638D+02
 0.233357785539792D+03 -.168620635635587D+03 -.133062627063272D+03 -.142240813633927D+01
 0.000000000000000D+00 -.000000000000000D+00 -.000000000000000D+00 -.000000000000000D+00
 0.360948011601967D+03 0.000000000000000D+00 0.000000000000000D+00 0.360948011601967D+03
 0.394133589829983D+03 0.000000000000000D+00 0.000000000000000D+00 -.394133589829983D+03
 0.306146660620086D+03 0.183345574241221D+03 0.173245527280470D+03 0.153717108800318D+03
 0.772566906139616D+02 0.384190401845846D+02 -.294553490392013D+02 -.602076075666146D+02
 0.100171144512675D+03 -.386182508284903D+02 0.792818899903706D+01 -.920870930973638D+02
 0.223322269725893D+03 -.161683524489836D+03 -.124153129139635D+03 -.142240813633927D+01
 0.481848359593344D+02 -.214628391074791D+02 -.275652381006709D+02 -.331855782280157D+02
0.136363715956D-04 0.000000000000D+00 0.000000000000D+00 0.267687764358D-06 0.149277608981D-08  7 1 -2 -24 -11 11 23 21 2 0.28626570D+00 0.11762295D-01 0.93283275D+05 0.93283275D+05 0.93283275D+05 0.11242084D+01  1  2  1  1  7  1        1 0.354677026581D-03 0.100000000000D+01
  </mgrwgt>
  </event>
  <event>
  8     66 0.29493621E-05 0.25902791E+03 0.75467711E-02 0.94626489E-01
        1 -1    0    0  501    0 0.00000000E+00 0.00000000E+00 0.39230316E+03 0.39230329E+03 0.32000000E+00 0.0000E+00 0.9000E+01
       -2 -1    0    0    0  501 0.00000000E+00 0.00000000E+00 -.33542226E+03 0.33542242E+03 0.32000000E+00 0.0000E+00 0.9000E+01
       25  2    1    2    0    0 0.23054994E+03 -.31742430E+02 -.14812974E+03 0.40732372E+03 0.29968206E+03 0.0000E+00 0.0000E+00
       23  2    3    3    0    0 0.36818337E+02 0.39691865E+01 0.52759430E+02 0.11155530E+03 0.91047692E+02 0.0000E+00 0.0000E+00
      -24  1    1    2    0    0 -.23054994E+03 0.31742430E+02 0.20501063E+03 0.32040198E+03 0.80419002E+02 0.0000E+00 0.9000E+01
      -13  1    4    4    0    0 0.30857329E+02 -.15398873E+02 -.17329442E+02 0.38595605E+02 0.10565837E+00 0.0000E+00 0.9000E+01
       13  1    4    4    0    0 0.59610081E+01 0.19368060E+02 0.70088872E+02 0.72959691E+02 0.10565837E+00 0.0000E+00 0.9000E+01
       23  1    3    3    0    0 0.19373160E+03 -.35711616E+02 -.20088917E+03 0.29576842E+03 0.91188000E+02 0.0000E+00 0.9000E+01
#aMCatNLO 1  0  0  2  2 0.38986734D+03 0.00000000D+00  -5  7  0 0.00000000D+00 0.00000000D+00 0.00000000D+00 0.00000000D+00 0.00000000D+00
  <mgrwgt>
 0.1688510768D-02    3    2    0
 0.362749660553951D+03 0.000000000000000D+00 0.000000000000000D+00 0.362749660553951D+03
 0.362749660553951D+03 0.000000000000000D+00 0.000000000000000D+00 -.362749660553951D+03
 0.305311892285999D+03 -.230549935793479D+03 0.317424296068979D+02 0.180519475085545D+03
 0.400726787915237D+02 0.308573625011380D+02 -.153989199597554D+02 -.204087243372788D+02
 0.676884871219966D+02 0.596097455740505D+01 0.193681064463307D+02 0.645838565267999D+02
 0.312426262908383D+03 0.193731598734936D+03 -.357116160934732D+02 -.224694607275066D+03
 0.000000000000000D+00 0.000000000000000D+00 0.000000000000000D+00 0.000000000000000D+00
 0.710266690575870D+03 0.000000000000000D+00 0.000000000000000D+00 0.710266690575870D+03
 0.539126981523101D+03 0.000000000000000D+00 0.000000000000000D+00 -.539126981523101D+03
 0.458455247680316D+03 -.412586417619147D+03 -.299860848109142D+02 0.180519475085545D+03
 0.324458803558973D+02 0.135732680651751D+02 -.212599510118219D+02 -.204087243372788D+02
 0.704668023116766D+02 -.269669972262749D+02 0.820224144711163D+01 0.645838565267999D+02
 0.262249580591162D+03 0.567631913935713D+02 -.821575604589175D+02 -.224694607275066D+03
 0.425776161159920D+03 0.369216955386675D+03 0.125201354834542D+03 0.171139709052769D+03
0.666714026233D-04 0.000000000000D+00 0.000000000000D+00 0.665298932789D-05 0.000000000000D+00  7 1 -2 -24 -13 13 23 21 0 0.60354354D-01 0.51603447D-01 0.67095456D+05 0.67095456D+05 0.67095456D+05 0.11362276D+01  1  2  2  2  7  2       -2 0.165225993925D-02 0.100000000000D+01
-.319318686878D-05 0.000000000000D+00 -.256035741057D-06 0.665298932789D-05 0.000000000000D+00  7 1 -2 -24 -13 13 23 21 2 0.60354354D-01 0.51603447D-01 0.67095456D+05 0.67095456D+05 0.67095456D+05 0.11362276D+01  1  2  3  2  7  2       -2 -.102163026003D-03 0.100000000000D+01
0.432623545028D-05 0.000000000000D+00 0.000000000000D+00 0.665298932789D-05 0.000000000000D+00  7 1 -2 -24 -13 13 23 21 2 0.60354354D-01 0.51603447D-01 0.67095456D+05 0.67095456D+05 0.67095456D+05 0.11362276D+01  1  2 15  2  7  2       -2 0.138413855176D-03 0.100000000000D+01
  </mgrwgt>
  </event>
  <event>
  8     66 0.29493621E-05 0.49728140E+03 0.75467711E-02 0.88182602E-01
        1 -1    0    0  501    0 0.00000000E+00 0.00000000E+00 0.32124695E+03 0.32124711E+03 0.32000000E+00 0.0000E+00 0.9000E+01
       -2 -1    0    0    0  501 0.00000000E+00 0.00000000E+00 -.11975408E+04 0.11975409E+04 0.32000000E+00 0.0000E+00 0.9000E+01
       25  2    1    2    0    0 0.18883462E+03 0.42198871E+03 -.31281942E+02 0.55222428E+03 0.30039992E+03 0.0000E+00 0.0000E+00
       23  2    3    3    0    0 0.95584814E+02 0.32798835E+02 -.39750225E+02 0.14167435E+03 0.90990770E+02 0.0000E+00 0.0000E+00
      -24  1    1    2    0    0 -.18883462E+03 -.42198871E+03 -.84501192E+03 0.96656368E+03 0.80419002E+02 0.0000E+00 0.9000E+01
      -11  1    4    4    0    0 0.17995782E+02 -.15245689E+02 -.44422083E+02 0.50295135E+02 0.51099893E-03 0.0000E+00 0.9000E+01
       11  1    4    4    0    0 0.77589033E+02 0.48044524E+02 0.46718576E+01 0.91379213E+02 0.51099893E-03 0.0000E+00 0.9000E+01
       23  1    3    3    0    0 0.93249802E+02 0.38918987E+03 0.84682831E+01 0.41054993E+03 0.91188000E+02 0.0000E+00 0.9000E+01
#aMCatNLO 1  0  0  2  1 0.65556286D+03 0.00000000D+00  -5  7  0 0.00000000D+00 0.00000000D+00 0.00000000D+00 0.00000000D+00 0.00000000D+00
  <mgrwgt>
 0.1005668042D-02    5    2    0
 0.620247115055959D+03 0.000000000000000D+00 0.000000000000000D+00 0.620247115055959D+03
 0.620247115055959D+03 0.000000000000000D+00 0.000000000000000D+00 -.620247115055959D+03
 0.586481179290527D+03 -.188834616420561D+03 -.421988709394162D+03 -.351795358827808D+03
 0.301983244918936D+02 0.179957816368352D+02 -.152456888528956D+02 -.188589399701505D+02
 0.115179551249365D+03 0.775890327955944D+02 0.480445239575946D+02 0.702708668904653D+02
 0.508635175080132D+03 0.932498019881315D+02 0.389189874289463D+03 0.300383431907493D+03
 0.000000000000000D+00 -.000000000000000D+00 0.000000000000000D+00 -.000000000000000D+00
 0.932471038261073D+03 0.000000000000000D+00 0.000000000000000D+00 0.932471038261073D+03
 0.116676588215987D+04 0.000000000000000D+00 0.000000000000000D+00 -.116676588215987D+04
 0.726592528559149D+03 0.638201070733492D+02 -.627404579234140D+03 -.351795358827808D+03
 0.466175857259963D+02 0.327762942919982D+02 -.272626890567896D+02 -.188589399701505D+02
 0.146072109114414D+03 0.127857700591578D+03 0.717458897987895D+01 0.702708668904653D+02
 0.483781778528480D+03 0.284205442563152D+03 0.233937209834473D+03 0.300383431907493D+03
 0.696172918492903D+03 -.508659544520078D+03 0.413555469476577D+03 -.234294843898797D+03
0.681294941148D-03 0.000000000000D+00 0.000000000000D+00 0.140841392899D-04 0.000000000000D+00  7 1 -2 -24 -11 11 23 21 0 0.49422623D-01 0.18423706D+00 0.24728879D+06 0.24728879D+06 0.24728879D+06 0.10908155D+01  1  2  2  2  7  2       -2 0.992297060257D-03 0.100000000000D+01
-.356028437218D-04 0.000000000000D+00 -.261635196309D-05 0.140841392899D-04 0.000000000000D+00  7 1 -2 -24 -11 11 23 21 2 0.49422623D-01 0.18423706D+00 0.24728879D+06 0.24728879D+06 0.24728879D+06 0.10908155D+01  1  2  3  2  7  2       -2 -.617012358048D-04 0.100000000000D+01
0.431847556662D-04 0.000000000000D+00 0.000000000000D+00 0.140841392899D-04 0.000000000000D+00  7 1 -2 -24 -11 11 23 21 2 0.49422623D-01 0.18423706D+00 0.24728879D+06 0.24728879D+06 0.24728879D+06 0.10908155D+01  1  2 15  2  7  2       -2 0.748410102673D-04 0.100000000000D+01
-.481919979461D-04 0.000000000000D+00 -.177248357123D-03 0.140841392899D-04 0.000000000000D+00  7 1 -2 -24 -11 11 23 21 2 0.49422623D-01 0.41519688D+00 0.24728879D+06 0.24728879D+06 0.24728879D+06 0.10908155D+01  1  2  5  2  7  2       -2 -.236063680185D-05 0.100000000000D+01
0.695369968458D-05 0.000000000000D+00 -.156413068690D-04 0.140841392899D-04 0.000000000000D+00  7 1 21 -24 -11 11 23 2 2 0.49422623D-01 0.41519688D+00 0.24728879D+06 0.24728879D+06 0.24728879D+06 0.10908155D+01  1  2  5  4  7  2       -2 0.259184396401D-05 0.100000000000D+01
  </mgrwgt>
  </event>
  <event>
  8     66 0.29493621E-05 0.37455822E+03 0.75467711E-02 0.91007401E-01
        1 -1    0    0  501    0 0.00000000E+00 0.00000000E+00 0.20476201E+04 0.20476201E+04 0.32000000E+00 0.0000E+00 0.9000E+01
       -2 -1    0    0    0  501 0.00000000E+00 0.00000000E+00 -.38219214E+03 0.38219227E+03 0.32000000E+00 0.0000E+00 0.9000E+01
       25  2    1    2    0    0 0.65175792E+03 -.98017033E+02 0.16072017E+04 0.17632891E+04 0.30281283E+03 0.0000E+00 0.0000E+00
       23  2    3    3    0    0 0.38361810E+03 0.26325351E+02 0.68027896E+03 0.78611926E+03 0.85721359E+02 0.0000E+00 0.0000E+00
      -24  1    1    2    0    0 -.65175792E+03 0.98017033E+02 0.58226260E+02 0.66652324E+03 0.80419002E+02 0.0000E+00 0.9000E+01
      -11  1    4    4    0    0 0.12769359E+03 0.40557010E+02 0.28630420E+03 0.31610223E+03 0.51099893E-03 0.0000E+00 0.9000E+01
       11  1    4    4    0    0 0.25592451E+03 -.14231659E+02 0.39397476E+03 0.47001703E+03 0.51099893E-03 0.0000E+00 0.9000E+01
       23  1    3    3    0    0 0.26813981E+03 -.12434238E+03 0.92692270E+03 0.97716986E+03 0.91188000E+02 0.0000E+00 0.9000E+01
#aMCatNLO 1  0  0  1  2 0.30192860D+02 0.00000000D+00  -5  7  0 0.00000000D+00 0.00000000D+00 0.00000000D+00 0.00000000D+00 0.00000000D+00
  <mgrwgt>
 0.2453479029D-02    9    2    0
 0.884638054777043D+03 0.000000000000000D+00 0.000000000000000D+00 0.884638054777043D+03
 0.884638054777043D+03 0.000000000000000D+00 0.000000000000000D+00 -.884638054777043D+03
 0.860552387200757D+03 -.651757917551350D+03 0.980170328706773D+02 -.547437186660632D+03
 0.164615400511911D+03 0.127693590405059D+03 0.405570097252151D+02 0.956436407572956D+02
 0.274641487738026D+03 0.255924512579071D+03 -.142316588485407D+02 0.986308802279483D+02
 0.469466834103393D+03 0.268139814567220D+03 -.124342383747352D+03 0.353162665675388D+03
 0.000000000000000D+00 -.000000000000000D+00 -.000000000000000D+00 0.000000000000000D+00
 0.905872554507950D+03 0.000000000000000D+00 0.000000000000000D+00 0.905872554507950D+03
 0.895564992183898D+03 0.000000000000000D+00 0.000000000000000D+00 -.895564992183898D+03
 0.851895087378712D+03 -.639118714875890D+03 0.105346185987426D+03 -.547437186660632D+03
 0.166871650198967D+03 0.130140224290431D+03 0.419757506716935D+02 0.956436407572956D+02
 0.278337766621046D+03 0.260005932286782D+03 -.118649470598604D+02 0.986308802279483D+02
 0.472429208567697D+03 0.275091744573399D+03 -.120311135829227D+03 0.353162665675388D+03
 0.319038339254247D+02 -.261191862747229D+02 -.151458537700314D+02 0.103075623240528D+02
0.823145266774D-03 0.000000000000D+00 0.000000000000D+00 0.764436600822D-07 0.000000000000D+00  7 1 -2 -24 -11 11 23 21 0 0.31501848D+00 0.58798803D-01 0.46484355D+06 0.46484355D+06 0.46484355D+06 0.10707554D+01  1  2  2  1  7  1        1 0.695629235544D-03 0.100000000000D+01
-.419586038100D-04 0.000000000000D+00 -.316109456354D-05 0.764436600822D-07 0.000000000000D+00  7 1 -2 -24 -11 11 23 21 2 0.31501848D+00 0.58798803D-01 0.46484355D+06 0.46484355D+06 0.46484355D+06 0.10707554D+01  1  2  3  1  7  1        1 -.406539655970D-04 0.100000000000D+01
0.522318103945D-04 0.000000000000D+00 0.000000000000D+00 0.764436600822D-07 0.000000000000D+00  7 1 -2 -24 -11 11 23 21 2 0.31501848D+00 0.58798803D-01 0.46484355D+06 0.46484355D+06 0.46484355D+06 0.10707554D+01  1  2 15  1  7  1        1 0.506077426329D-04 0.100000000000D+01
0.109913192977D-02 0.000000000000D+00 0.000000000000D+00 0.764436600822D-07 0.000000000000D+00  7 1 -2 -24 -11 11 23 21 2 0.32448998D+00 0.58798803D-01 0.48561345D+06 0.48561345D+06 0.48561345D+06 0.10694077D+01  1  2 12  1  7  1        1 0.963066758399D-03 0.100000000000D+01
-.101516588560D-02 0.000000000000D+00 0.000000000000D+00 0.764436600822D-07 0.000000000000D+00  7 1 -2 -24 -11 11 23 21 2 0.31501848D+00 0.58798803D-01 0.46484355D+06 0.46484355D+06 0.46484355D+06 0.10707554D+01  1  2  4  1  7  1        1 -.983600864681D-03 0.100000000000D+01
-.199078466644D-01 0.000000000000D+00 -.272041684813D-02 0.764436600822D-07 0.000000000000D+00  7 1 -2 -24 -11 11 23 21 2 0.32435667D+00 0.58798803D-01 0.46484355D+06 0.46484355D+06 0.46484355D+06 0.10707554D+01  1  2  5  1  7  1        1 -.175589329331D-01 0.100000000000D+01
0.199799513005D-01 0.000000000000D+00 0.271925650434D-02 0.764436600822D-07 0.000000000000D+00  7 1 -2 -24 -11 11 23 21 2 0.31501848D+00 0.58798803D-01 0.46484355D+06 0.46484355D+06 0.46484355D+06 0.10707554D+01  1  2  6  1  7  1        1 0.193587054631D-01 0.100000000000D+01
0.253739056628D-04 0.000000000000D+00 0.000000000000D+00 0.764436600822D-07 0.000000000000D+00  7 21 -2 -24 -11 11 23 -1 2 0.32448998D+00 0.58798803D-01 0.48561345D+06 0.48561345D+06 0.48561345D+06 0.10694077D+01  1  2 12  3  7  1        1 0.100451539499D-04 0.100000000000D+01
-.103578742771D-03 0.000000000000D+00 -.142687509188D-04 0.764436600822D-07 0.000000000000D+00  7 21 -2 -24 -11 11 23 -1 2 0.32435667D+00 0.58798803D-01 0.46484355D+06 0.46484355D+06 0.46484355D+06 0.10707554D+01  1  2  5  3  7  1        1 -.413875608465D-04 0.100000000000D+01
  </mgrwgt>
  </event>
  <event>
  8     66 0.29493621E-05 0.18638682E+03 0.75467711E-02 0.98660005E-01
        1 -1    0    0  501    0 0.00000000E+00 0.00000000E+00 0.90269560E+03 0.90269566E+03 0.32000000E+00 0.0000E+00 0.9000E+01
       -2 -1    0    0    0  501 0.00000000E+00 0.00000000E+00 -.45388715E+02 0.45389843E+02 0.32000000E+00 0.0000E+00 0.9000E+01
       25  2    1    2    0    0 -.48801991E+02 0.23262968E+02 0.70092040E+03 0.76411065E+03 0.29942088E+03 0.0000E+00 0.0000E+00
       23  2    3    3    0    0 -.21376149E+02 0.12757335E+03 0.44575311E+03 0.47246286E+03 0.88280325E+02 0.0000E+00 0.0000E+00
      -24  1    1    2    0    0 0.48801991E+02 -.23262968E+02 0.15638648E+03 0.18397486E+03 0.80419002E+02 0.0000E+00 0.9000E+01
      -13  1    4    4    0    0 -.29272337E+02 0.61731437E+02 0.34598794E+03 0.35266883E+03 0.10565837E+00 0.0000E+00 0.9000E+01
       13  1    4    4    0    0 0.78961877E+01 0.65841917E+02 0.99765168E+02 0.11979402E+03 0.10565837E+00 0.0000E+00 0.9000E+01
       23  1    3    3    0    0 -.27425843E+02 -.10431039E+03 0.25516730E+03 0.29164779E+03 0.91188000E+02 0.0000E+00 0.9000E+01
#aMCatNLO 1  0  0  2  1 0.26083492D+03 0.00000000D+00  -5  7  0 0.00000000D+00 0.00000000D+00 0.00000000D+00 0.00000000D+00 0.00000000D+00
  <mgrwgt>
 0.3399859052D-02    3    2    0
 0.202417280568349D+03 0.000000000000000D+00 0.000000000000000D+00 0.202417280568349D+03
 0.202417280568349D+03 0.000000000000000D+00 0.000000000000000D+00 -.202417280568349D+03
 0.996770164922040D+02 0.488020444185691D+02 -.232629930122068D+02 -.233556262835874D+02
 0.932291439932648D+02 -.292724043677439D+02 0.617314296900938D+02 0.634352443099669D+02
 0.692766690976316D+02 0.789622684072519D+01 0.658419100654781D+02 -.200436863344059D+02
 0.142651731553597D+03 -.274258668915504D+02 -.104310346743365D+03 -.200359316919735D+02
 0.000000000000000D+00 -.000000000000000D+00 0.000000000000000D+00 0.000000000000000D+00
 0.134486302580812D+04 0.000000000000000D+00 0.000000000000000D+00 0.134486302580812D+04
 0.256198890264273D+03 0.000000000000000D+00 0.000000000000000D+00 -.256198890264273D+03
 0.150465498421130D+03 0.122372942739387D+03 -.255348363408208D+02 -.233556262835874D+02
 0.908255518048464D+02 0.248610135949063D+02 0.600598088826758D+02 0.634352443099669D+02
 0.861865444419285D+02 0.536204344185908D+02 0.644299627016039D+02 -.200436863344059D+02
 0.154109240134736D+03 0.598562621828854D+02 -.107005588029944D+03 -.200359316919735D+02
 0.111947508126975D+04 -.260710652935770D+03 0.805065278648510D+01 0.108866413554384D+04
0.162285822163D-04 0.000000000000D+00 0.000000000000D+00 0.492766278035D-07 0.000000000000D+00  7 1 -2 -24 -13 13 23 21 0 0.13887634D+00 0.69829704D-02 0.34740048D+05 0.34740048D+05 0.34740048D+05 0.11614706D+01  1  2  2  2  7  2       -2 0.336064022695D-02 0.100000000000D+01
-.894125609905D-06 0.000000000000D+00 -.623220287943D-07 0.492766278035D-07 0.000000000000D+00  7 1 -2 -24 -13 13 23 21 2 0.13887634D+00 0.69829704D-02 0.34740048D+05 0.34740048D+05 0.34740048D+05 0.11614706D+01  1  2  3  2  7  2       -2 -.249779297319D-03 0.100000000000D+01
0.103451577045D-05 0.000000000000D+00 0.000000000000D+00 0.492766278035D-07 0.000000000000D+00  7 1 -2 -24 -13 13 23 21 2 0.13887634D+00 0.69829704D-02 0.34740048D+05 0.34740048D+05 0.34740048D+05 0.11614706D+01  1  2 15  2  7  2       -2 0.288998122127D-03 0.100000000000D+01
  </mgrwgt>
  </event>
  <event>
  8     66 0.29493621E-05 0.19998117E+03 0.75467711E-02 0.98754467E-01
        1 -1    0    0  501    0 0.00000000E+00 0.00000000E+00 0.18620666E+04 0.18620666E+04 0.32000000E+00 0.0000E+00 0.9000E+01
       -2 -1    0    0    0  501 0.00000000E+00 0.00000000E+00 -.77834002E+02 0.77834660E+02 0.32000000E+00 0.0000E+00 0.9000E+01
       25  2    1    2    0    0 0.23564936E+03 0.12657716E+03 0.14481212E+04 0.15028767E+04 0.30005160E+03 0.0000E+00 0.0000E+00
       23  2    3    3    0    0 0.11294566E+03 -.50580541E+02 0.37647847E+03 0.40598362E+03 0.88156352E+02 0.0000E+00 0.0000E+00
      -24  1    1    2    0    0 -.23564936E+03 -.12657716E+03 0.33611139E+03 0.43702458E+03 0.80419002E+02 0.0000E+00 0.9000E+01
      -13  1    4    4    0    0 0.28120812E+02 -.29041034E+02 0.24321888E+03 0.24655547E+03 0.10565837E+00 0.0000E+00 0.9000E+01
       13  1    4    4    0    0 0.84824851E+02 -.21539507E+02 0.13325959E+03 0.15942815E+03 0.10565837E+00 0.0000E+00 0.9000E+01
       23  1    3    3    0    0 0.12270370E+03 0.17715770E+03 0.10716428E+04 0.10968931E+04 0.91188000E+02 0.0000E+00 0.9000E+01
#aMCatNLO 1  0  0  1  2 0.62223383D+02 0.00000000D+00  -5  7  0 0.00000000D+00 0.00000000D+00 0.00000000D+00 0.00000000D+00 0.00000000D+00
  <mgrwgt>
 0.1710577093D-02    9    2    0
 0.380700356916260D+03 0.000000000000000D+00 0.000000000000000D+00 0.380700356916260D+03
 0.380700356916260D+03 0.000000000000000D+00 0.000000000000000D+00 -.380700356916260D+03
 0.325825343311413D+03 -.235649364734635D+03 -.126577162561006D+03 -.167757376016071D+03
 0.582271161173512D+02 0.281207308493807D+02 -.290410448058224D+02 0.419075084492791D+02
 0.939174444380913D+02 0.848249321171898D+02 -.215394961493005D+02 -.340773732369497D+02
 0.283430809965664D+03 0.122703701768064D+03 0.177157703516128D+03 0.159927240803742D+03
 0.000000000000000D+00 0.000000000000000D+00 -.000000000000000D+00 0.000000000000000D+00
 0.429346476444071D+03 0.000000000000000D+00 0.000000000000000D+00 0.429346476444071D+03
 0.402400043519845D+03 0.000000000000000D+00 0.000000000000000D+00 -.402400043519845D+03
 0.345226031775217D+03 -.262925677809984D+03 -.124263219824917D+03 -.167757376016071D+03
 0.559307491486414D+02 0.234805411580822D+02 -.286474016766871D+02 0.419075084492791D+02
 0.871744690731757D+02 0.774640654060388D+02 -.209150487025164D+02 -.340773732369497D+02
 0.275607750495898D+03 0.999803882298521D+02 0.179085399761452D+03 0.159927240803742D+03
 0.678075194709844D+02 0.620006830160106D+02 -.525972955733160D+01 0.269464329242266D+02
0.430178504436D-04 0.000000000000D+00 0.000000000000D+00 0.911493864904D-06 0.000000000000D+00  7 1 -2 -24 -13 13 23 21 0 0.28647184D+00 0.11974515D-01 0.10280432D+06 0.10280432D+06 0.10280432D+06 0.11207377D+01  1  2  2  1  7  1        1 0.856784745460D-03 0.100000000000D+01
-.230419534719D-05 0.000000000000D+00 -.165199872564D-06 0.911493864904D-06 0.000000000000D+00  7 1 -2 -24 -13 13 23 21 2 0.28647184D+00 0.11974515D-01 0.10280432D+06 0.10280432D+06 0.10280432D+06 0.11207377D+01  1  2  3  1  7  1        1 -.576434919562D-04 0.100000000000D+01
0.270448981041D-05 0.000000000000D+00 0.000000000000D+00 0.911493864904D-06 0.000000000000D+00  7 1 -2 -24 -13 13 23 21 2 0.28647184D+00 0.11974515D-01 0.10280432D+06 0.10280432D+06 0.10280432D+06 0.11207377D+01  1  2 15  1  7  1        1 0.676575607283D-04 0.100000000000D+01
0.576728259358D-04 0.000000000000D+00 0.000000000000D+00 0.911493864904D-06 0.000000000000D+00  7 1 -2 -24 -13 13 23 21 2 0.33045139D+00 0.11974515D-01 0.12449929D+06 0.12449929D+06 0.12449929D+06 0.11139952D+01  1  2 12  1  7  1        1 0.919079902204D-03 0.100000000000D+01
-.559833709015D-04 0.000000000000D+00 0.000000000000D+00 0.911493864904D-06 0.000000000000D+00  7 1 -2 -24 -13 13 23 21 2 0.28647184D+00 0.11974515D-01 0.10280432D+06 0.10280432D+06 0.10280432D+06 0.11207377D+01  1  2  4  1  7  1        1 -.140052230996D-02 0.100000000000D+01
-.141254760405D-03 0.000000000000D+00 -.320372924436D-04 0.911493864904D-06 0.000000000000D+00  7 1 -2 -24 -13 13 23 21 2 0.33095749D+00 0.11974515D-01 0.10280432D+06 0.10280432D+06 0.10280432D+06 0.11207377D+01  1  2  5  1  7  1        1 -.228190931024D-02 0.100000000000D+01
0.144700073010D-03 0.000000000000D+00 0.317063880478D-04 0.911493864904D-06 0.000000000000D+00  7 1 -2 -24 -13 13 23 21 2 0.28647184D+00 0.11974515D-01 0.10280432D+06 0.10280432D+06 0.10280432D+06 0.11207377D+01  1  2  6  1  7  1        1 0.361992636814D-02 0.100000000000D+01
0.126413319937D-05 0.000000000000D+00 0.000000000000D+00 0.911493864904D-06 0.000000000000D+00  7 21 -2 -24 -13 13 23 -1 2 0.33045139D+00 0.11974515D-01 0.12449929D+06 0.12449929D+06 0.12449929D+06 0.11139952D+01  1  2 12  3  7  1        1 0.944117658994D-05 0.100000000000D+01
-.291570753703D-05 0.000000000000D+00 -.708359899766D-06 0.911493864904D-06 0.000000000000D+00  7 21 -2 -24 -13 13 23 -1 2 0.33095749D+00 0.11974515D-01 0.10280432D+06 0.10280432D+06 0.10280432D+06 0.11207377D+01  1  2  5  3  7  1        1 -.222375482808D-04 0.100000000000D+01
  </mgrwgt>
  </event>
  <event>
  8     66 0.29493621E-05 0.16890396E+03 0.75467711E-02 0.10421268E+00
        3 -1    0    0  501    0 0.00000000E+00 0.00000000E+00 0.20224256E+03 0.20224318E+03 0.50000000E+00 0.0000E+00 0.9000E+01
       -4 -1    0    0    0  501 0.00000000E+00 0.00000000E+00 -.22263573E+03 0.22264113E+03 0.15500000E+01 0.0000E+00 0.9000E+01
       25  2    1    2    0    0 0.33473838E+02 -.51301654E+02 -.67025247E+02 0.31355541E+03 0.30012040E+03 0.0000E+00 0.0000E+00
       23  2    3    3    0    0 0.50625722E+02 0.33265986E+02 0.65974114E+02 0.13066212E+03 0.95133677E+02 0.0000E+00 0.0000E+00
      -24  1    1    2    0    0 -.33473838E+02 0.51301654E+02 0.46632071E+02 0.11132890E+03 0.80419002E+02 0.0000E+00 0.9000E+01
      -11  1    4    4    0    0 0.37228870E+02 0.66015268E+02 0.54906572E+02 0.93588119E+02 0.51099893E-03 0.0000E+00 0.9000E+01
       11  1    4    4    0    0 0.13396852E+02 -.32749282E+02 0.11067542E+02 0.37074002E+02 0.51099893E-03 0.0000E+00 0.9000E+01
       23  1    3    3    0    0 -.17151884E+02 -.84567639E+02 -.13299936E+03 0.18289329E+03 0.91188000E+02 0.0000E+00 0.9000E+01
#aMCatNLO 1  0  0  1  1 0.10958912D+03 0.00000000D+00  -5  7  0 0.00000000D+00 0.00000000D+00 0.00000000D+00 0.00000000D+00 0.00000000D+00
  <mgrwgt>
 0.2348506121D-03    4    2    0
 0.212197308417805D+03 0.000000000000000D+00 0.000000000000000D+00 0.212197308417805D+03
 0.212197308417805D+03 0.000000000000000D+00 0.000000000000000D+00 -.212197308417805D+03
 0.113698137095770D+03 -.334738376720820D+02 0.513016537363818D+02 0.520354969236715D+02
 0.963344980714310D+02 0.372288705200257D+02 0.660152677027793D+02 0.594670593573288D+02
 0.376486010741784D+02 0.133968515851161D+02 -.327492818756120D+02 0.128618065247737D+02
 0.176713380594231D+03 -.171518844330598D+02 -.845676395635492D+02 -.124364362805774D+03
 0.000000000000000D+00 -.000000000000000D+00 0.000000000000000D+00 -.000000000000000D+00
 0.247150436973175D+03 0.000000000000000D+00 0.000000000000000D+00 0.247150436973175D+03
 0.326416142501107D+03 0.000000000000000D+00 0.000000000000000D+00 -.326416142501107D+03
 0.103741608180692D+03 -.320126844511083D+02 0.237191991366899D+02 0.520354969236715D+02
 0.829801122167001D+02 0.384338301747430D+02 0.432690255608684D+02 0.594670593573288D+02
 0.475113798288118D+02 0.139691102595192D+02 -.435519127560927D+02 0.128618065247737D+02
 0.204082500620774D+03 -.145930094322481D+02 -.132871987473856D+03 -.124364362805774D+03
 0.135250978627304D+03 -.579724655090582D+01 0.109435675532390D+03 -.792657055279329D+02
0.106847633004D-04 0.000000000000D+00 0.000000000000D+00 0.110240557322D-06 0.000000000000D+00  7 3 -4 -24 -11 11 23 21 0 0.31114702D-01 0.34252114D-01 0.28528547D+05 0.28528547D+05 0.28528547D+05 0.11693679D+01  1  2  2  1  7  1        3 0.283163448832D-03 0.100000000000D+01
-.556018292027D-06 0.000000000000D+00 -.410323044364D-07 0.110240557322D-06 0.000000000000D+00  7 3 -4 -24 -11 11 23 21 2 0.31114702D-01 0.34252114D-01 0.28528547D+05 0.28528547D+05 0.28528547D+05 0.11693679D+01  1  2  3  1  7  1        3 -.201494719315D-04 0.100000000000D+01
0.700036857923D-06 0.000000000000D+00 0.000000000000D+00 0.110240557322D-06 0.000000000000D+00  7 3 -4 -24 -11 11 23 21 2 0.31114702D-01 0.34252114D-01 0.28528547D+05 0.28528547D+05 0.28528547D+05 0.11693679D+01  1  2 15  1  7  1        3 0.253685413267D-04 0.100000000000D+01
-.147719598414D-05 0.000000000000D+00 0.000000000000D+00 0.110240557322D-06 0.000000000000D+00  7 3 -4 -24 -11 11 23 21 2 0.31114702D-01 0.34252114D-01 0.28528547D+05 0.28528547D+05 0.28528547D+05 0.11693679D+01  1  2  4  1  7  1        3 -.535319061378D-04 0.100000000000D+01
  </mgrwgt>
  </event>
  <event>
  8     66 0.29493621E-05 0.25184112E+03 0.75467711E-02 0.89416114E-01
        1 -1    0    0  501    0 0.00000000E+00 0.00000000E+00 0.93630849E+02 0.93631395E+02 0.32000000E+00 0.0000E+00 0.9000E+01
       -2 -1    0    0    0  501 0.00000000E+00 0.00000000E+00 -.77214098E+03 0.77214105E+03 0.32000000E+00 0.0000E+00 0.9000E+01
       25  2    1    2    0    0 -.74349100E+01 -.16493903E+03 -.35329028E+03 0.49228170E+03 0.30044483E+03 0.0000E+00 0.0000E+00
       23  2    3    3    0    0 0.57239860E+01 -.19664982E+03 -.31898099E+03 0.38898064E+03 0.10417846E+03 0.0000E+00 0.0000E+00
      -24  1    1    2    0    0 0.74349100E+01 0.16493903E+03 -.32521986E+03 0.37349074E+03 0.80419002E+02 0.0000E+00 0.9000E+01
      -11  1    4    4    0    0 0.32518474E+01 0.12761402E+02 -.20099829E+02 0.24029794E+02 0.51099893E-03 0.0000E+00 0.9000E+01
       11  1    4    4    0    0 0.24721386E+01 -.20941122E+03 -.29888116E+03 0.36495085E+03 0.51099893E-03 0.0000E+00 0.9000E+01
       23  1    3    3    0    0 -.13158896E+02 0.31710796E+02 -.34309284E+02 0.10330106E+03 0.91188000E+02 0.0000E+00 0.9000E+01
#aMCatNLO 1  0  0  1  2 0.73416749D+03 0.00000000D+00  -5  7  0 0.00000000D+00 0.00000000D+00 0.00000000D+00 0.00000000D+00 0.00000000D+00
  <mgrwgt>
 0.1006669335D-02    5    2    0
 0.268880048711267D+03 0.000000000000000D+00 0.000000000000000D+00 0.268880048711267D+03
 0.268880048711267D+03 0.000000000000000D+00 0.000000000000000D+00 -.268880048711267D+03
 0.190964373878747D+03 0.743491002069241D+01 0.164939025825961D+03 -.523451622320370D+02
 0.133263811018658D+02 0.325184735209829D+01 0.127614017689359D+02 -.204072216693411D+01
 0.210447912379650D+03 0.247213873646682D+01 -.209411223671139D+03 -.207159782674318D+02
 0.123021430062272D+03 -.131588961092575D+02 0.317107960762420D+02 0.751018626664029D+02
 0.000000000000000D+00 0.000000000000000D+00 -.000000000000000D+00 0.000000000000000D+00
 0.416255134822600D+04 0.000000000000000D+00 0.000000000000000D+00 0.416255134822600D+04
 0.491369237219226D+03 0.000000000000000D+00 0.000000000000000D+00 -.491369237219226D+03
 0.339551944793543D+03 -.259719713888527D+03 0.196555237699916D+03 -.523451622320370D+02
 0.201909330922472D+02 -.136266258499799D+02 0.147588719120958D+02 -.204072216693411D+01
 0.319188556175731D+03 -.264239414867832D+03 -.177847446617254D+03 -.207159782674318D+02
 0.231116824209758D+03 -.191493979879515D+03 0.528157266611451D+02 0.751018626664029D+02
 0.374387232717394D+04 0.729079734485854D+03 -.862823896559031D+02 0.367118211100677D+04
0.409903496559D-04 0.000000000000D+00 0.000000000000D+00 0.176035635729D-07 0.000000000000D+00  7 1 -2 -24 -11 11 23 21 0 0.14404793D-01 0.11879097D+00 0.63423948D+05 0.63423948D+05 0.63423948D+05 0.11383200D+01  1  2  2  1  7  1        1 0.103214878877D-02 0.100000000000D+01
-.226537480834D-05 0.000000000000D+00 -.157413735686D-06 0.176035635729D-07 0.000000000000D+00  7 1 -2 -24 -11 11 23 21 2 0.14404793D-01 0.11879097D+00 0.63423948D+05 0.63423948D+05 0.63423948D+05 0.11383200D+01  1  2  3  1  7  1        1 -.739144664923D-04 0.100000000000D+01
0.270246588833D-05 0.000000000000D+00 0.000000000000D+00 0.176035635729D-07 0.000000000000D+00  7 1 -2 -24 -11 11 23 21 2 0.14404793D-01 0.11879097D+00 0.63423948D+05 0.63423948D+05 0.63423948D+05 0.11383200D+01  1  2 15  1  7  1        1 0.881758389890D-04 0.100000000000D+01
-.114845470460D-03 0.000000000000D+00 -.628464451589D-04 0.176035635729D-07 0.000000000000D+00  7 1 -2 -24 -11 11 23 21 2 0.30695385D+00 0.11879097D+00 0.63423948D+05 0.63423948D+05 0.63423948D+05 0.11383200D+01  1  2  5  1  7  1        1 -.316272578222D-04 0.100000000000D+01
-.537835544546D-04 0.000000000000D+00 -.204072798583D-04 0.176035635729D-07 0.000000000000D+00  7 21 -2 -24 -11 11 23 -1 2 0.30695385D+00 0.11879097D+00 0.63423948D+05 0.63423948D+05 0.63423948D+05 0.11383200D+01  1  2  5  3  7  1        1 -.811356851322D-05 0.100000000000D+01
  </mgrwgt>
  </event>
  <event>
  8     66 0.29493621E-05 0.18495492E+03 0.75467711E-02 0.10485941E+00
        1 -1    0    0  501    0 0.00000000E+00 0.00000000E+00 0.31914673E+03 0.31914689E+03 0.32000000E+00 0.0000E+00 0.9000E+01
       -2 -1    0    0    0  501 0.00000000E+00 0.00000000E+00 -.18076811E+03 0.18076839E+03 0.32000000E+00 0.0000E+00 0.9000E+01
       25  2    1    2    0    0 -.31289944E+02 0.12135622E+03 0.85419274E+02 0.34187003E+03 0.30638582E+03 0.0000E+00 0.0000E+00
       23  2    3    3    0    0 0.21377957E+02 -.23530668E+02 0.12550384E+03 0.15832673E+03 0.91134130E+02 0.0000E+00 0.0000E+00
      -24  1    1    2    0    0 0.31289944E+02 -.12135622E+03 0.52959346E+02 0.15804525E+03 0.80419002E+02 0.0000E+00 0.9000E+01
      -11  1    4    4    0    0 0.13036074E+02 -.29081163E+02 -.55121378E+00 0.31874082E+02 0.51099893E-03 0.0000E+00 0.9000E+01
       11  1    4    4    0    0 0.83418836E+01 0.55504950E+01 0.12605506E+03 0.12645265E+03 0.51099893E-03 0.0000E+00 0.9000E+01
       23  1    3    3    0    0 -.52667902E+02 0.14488689E+03 -.40084569E+02 0.18354330E+03 0.91188000E+02 0.0000E+00 0.9000E+01
#aMCatNLO 1  0  0  2  2 0.68810560D+02 0.00000000D+00  -5  7  0 0.00000000D+00 0.00000000D+00 0.00000000D+00 0.00000000D+00 0.00000000D+00
  <mgrwgt>
 0.5846589653D-03    4    2    0
 0.240190885969911D+03 0.000000000000000D+00 0.000000000000000D+00 0.240190885969911D+03
 0.240190885969911D+03 0.000000000000000D+00 0.000000000000000D+00 -.240190885969911D+03
 0.149216312212764D+03 0.312899451706924D+02 -.121356224836944D+03 0.958633926723901D+01
 0.333289430037222D+02 0.130360733641801D+02 -.290811625271240D+02 -.975526622189657D+01
 0.952831453231006D+02 0.834188297753229D+01 0.555049673193268D+01 0.947548561134524D+02
 0.202553371400235D+03 -.526679015124047D+02 0.144886890632136D+03 -.945859291587949D+02
 0.000000000000000D+00 -.000000000000000D+00 0.000000000000000D+00 0.000000000000000D+00
 0.299359981137724D+03 0.000000000000000D+00 0.000000000000000D+00 0.299359981137724D+03
 0.263513025353552D+03 0.000000000000000D+00 0.000000000000000D+00 -.263513025353552D+03
 0.168602001745262D+03 0.347338474820648D+02 -.143739629110016D+03 0.958633926723901D+01
 0.380702707215519D+02 0.138097604249299D+02 -.341096879311173D+02 -.975526622189657D+01
 0.956515914694704D+02 0.104108656398972D+02 -.789671261914672D+01 0.947548561134524D+02
 0.182961145034958D+03 -.484904382388625D+02 0.117735757750453D+03 -.945859291587949D+02
 0.775879975200335D+02 -.104640353080293D+02 0.680102719098270D+02 0.358469557841728D+02
0.849578096980D-05 0.000000000000D+00 0.000000000000D+00 0.104464126388D-07 0.000000000000D+00  7 1 -2 -24 -11 11 23 21 0 0.49099531D-01 0.27810512D-01 0.34208322D+05 0.34208322D+05 0.34208322D+05 0.11620831D+01  1  2  2  2  7  2       -2 0.857336057797D-03 0.100000000000D+01
-.432798868414D-06 0.000000000000D+00 -.326260359145D-07 0.104464126388D-07 0.000000000000D+00  7 1 -2 -24 -11 11 23 21 2 0.49099531D-01 0.27810512D-01 0.34208322D+05 0.34208322D+05 0.34208322D+05 0.11620831D+01  1  2  3  2  7  2       -2 -.589804714358D-04 0.100000000000D+01
0.548388989495D-06 0.000000000000D+00 0.000000000000D+00 0.104464126388D-07 0.000000000000D+00  7 1 -2 -24 -11 11 23 21 2 0.49099531D-01 0.27810512D-01 0.34208322D+05 0.34208322D+05 0.34208322D+05 0.11620831D+01  1  2 15  2  7  2       -2 0.747327303539D-04 0.100000000000D+01
-.211649540721D-05 0.000000000000D+00 0.000000000000D+00 0.104464126388D-07 0.000000000000D+00  7 1 -2 -24 -11 11 23 21 2 0.49099531D-01 0.27810512D-01 0.34208322D+05 0.34208322D+05 0.34208322D+05 0.11620831D+01  1  2  4  2  7  2       -2 -.288429351414D-03 0.100000000000D+01
  </mgrwgt>
  </event>
  <event>
  9     66 0.29493621E-05 0.25195012E+03 0.75467711E-02 0.10217499E+00
        1 -1    0    0  501    0 0.00000000E+00 0.00000000E+00 0.17033224E+04 0.17033224E+04 0.32000000E+00 0.0000E+00 0.9000E+01
       21 -1    0    0  502  501 0.00000000E+00 0.00000000E+00 -.67205811E+02 0.67209996E+02 0.75000000E+00 0.0000E+00 0.9000E+01
       25  2    1    2    0    0 -.12328284E+03 -.89588542E+02 0.44544590E+03 0.55802663E+03 0.29957788E+03 0.0000E+00 0.0000E+00
       23  2    3    3    0    0 -.17618827E+03 -.42411283E+02 0.18921012E+03 0.27696311E+03 0.89816862E+02 0.0000E+00 0.0000E+00
      -24  1    1    2    0    0 0.15648781E+03 0.80533083E+02 0.10504269E+04 0.10681001E+04 0.80419002E+02 0.0000E+00 0.9000E+01
      -13  1    4    4    0    0 0.73937738E+01 -.64514231E+01 -.13742460E+01 0.99090093E+01 0.10565837E+00 0.0000E+00 0.9000E+01
       13  1    4    4    0    0 -.18358205E+03 -.35959860E+02 0.19058437E+03 0.26705410E+03 0.10565837E+00 0.0000E+00 0.9000E+01
       23  1    3    3    0    0 0.52905437E+02 -.47177259E+02 0.25623578E+03 0.28106352E+03 0.91188000E+02 0.0000E+00 0.9000E+01
        2  1    1    2  502    0 -.33204973E+02 0.90554587E+01 0.14024384E+03 0.14440571E+03 0.32000000E+00 0.0000E+00 0.9000E+01
#aMCatNLO 2  0  0  2  2 0.34417605D+02 0.00000000D+00  -5  7  0 0.00000000D+00 0.00000000D+00 0.00000000D+00 0.00000000D+00 0.00000000D+00
  <mgrwgt>
 0.3047261980D-03    1    2    0
 0.318381945099525D+03 0.000000000000000D+00 0.000000000000000D+00 0.318381945099525D+03
 0.318381945099525D+03 0.000000000000000D+00 0.000000000000000D+00 -.318381945099525D+03
 0.252989031645598D+03 0.143132055200683D+03 0.841753832414502D+02 0.173100993090134D+03
 0.280557390951692D+02 0.592074523286669D+01 -.604959476922663D+01 -.267483022861609D+02
 0.243330754708558D+03 -.196016897252141D+03 -.325688161760518D+02 -.140451074725581D+03
 0.112388364749724D+03 0.469640968185911D+02 -.455569722961718D+02 -.590161607839227D+01
 0.000000000000000D+00 -.000000000000000D+00 0.000000000000000D+00 0.000000000000000D+00
 0.347916975047418D+03 0.000000000000000D+00 0.000000000000000D+00 0.347916975047418D+03
 0.329033811504330D+03 0.000000000000000D+00 0.000000000000000D+00 -.329033811504330D+03
 0.259625079042723D+03 0.156487809242258D+03 0.805330830363363D+02 0.173100993090134D+03
 0.284914689644144D+02 0.739403788485292D+01 -.645138220195548D+01 -.267483022861609D+02
 0.233927518618050D+03 -.183582311508300D+03 -.359599009522701D+02 -.140451074725581D+03
 0.115649294960902D+03 0.529054371598117D+02 -.471772585844725D+02 -.590161607839227D+01
 0.392574249656584D+02 -.332049727786232D+02 0.905545870236179D+01 0.188831635430882D+02
0.507990256344D-06 0.000000000000D+00 0.000000000000D+00 0.177953939769D-05 0.625297811227D-10  7 1 21 -24 -13 13 23 2 2 0.26204941D+00 0.10339660D-01 0.72980345D+05 0.72980345D+05 0.72980345D+05 0.11331235D+01  1  2  1  4  7  2       -2 0.304726197993D-03 0.100000000000D+01
  </mgrwgt>
  </event>
  <event>
  8     66 0.29493621E-05 0.48928308E+03 0.75467711E-02 0.91807058E-01
        1 -1    0    0  501    0 0.00000000E+00 0.00000000E+00 0.21377787E+04 0.21377787E+04 0.32000000E+00 0.0000E+00 0.9000E+01
       -2 -1    0    0    0  501 0.00000000E+00 0.00000000E+00 -.12171918E+03 0.12171960E+03 0.32000000E+00 0.0000E+00 0.9000E+01
       25  2    1    2    0    0 -.46098313E+03 -.29427117E+02 0.10751307E+04 0.12082203E+04 0.30086320E+03 0.0000E+00 0.0000E+00
       23  2    3    3    0    0 -.27742424E+03 0.59453846E+02 0.79446048E+03 0.84949370E+03 0.99865528E+02 0.0000E+00 0.0000E+00
      -24  1    1    2    0    0 0.46098313E+03 0.29427117E+02 0.94092880E+03 0.10512781E+04 0.80419002E+02 0.0000E+00 0.9000E+01
      -13  1    4    4    0    0 -.21286614E+03 0.61917532E+02 0.70576506E+03 0.73976355E+03 0.10565837E+00 0.0000E+00 0.9000E+01
       13  1    4    4    0    0 -.64558094E+02 -.24636858E+01 0.88695415E+02 0.10973015E+03 0.10565837E+00 0.0000E+00 0.9000E+01
       23  1    3    3    0    0 -.18355889E+03 -.88880963E+02 0.28067027E+03 0.35872655E+03 0.91188000E+02 0.0000E+00 0.9000E+01
#aMCatNLO 1  0  0  1  2 0.27941120D+03 0.00000000D+00  -5  7  0 0.00000000D+00 0.00000000D+00 0.00000000D+00 0.00000000D+00 0.00000000D+00
  <mgrwgt>
 0.1726704708D-02    3    2    0
 0.510107014515121D+03 0.000000000000000D+00 0.000000000000000D+00 0.510107014515121D+03
 0.510107014515121D+03 0.000000000000000D+00 0.000000000000000D+00 -.510107014515121D+03
 0.468913968509391D+03 0.460983125350115D+03 0.294271169095434D+02 0.645730916772186D+01
 0.243704081364884D+03 -.212866306370734D+03 0.619176046898632D+02 0.101221663271518D+03
 0.677501382261894D+02 -.645579256143193D+02 -.246375589651448D+01 -.204030727324633D+02
 0.239845840929777D+03 -.183558893365062D+03 -.888809657028921D+02 -.872758997067762D+02
 0.000000000000000D+00 -.000000000000000D+00 0.000000000000000D+00 -.000000000000000D+00
 0.551566068233713D+03 0.000000000000000D+00 0.000000000000000D+00 0.551566068233713D+03
 0.138968660912008D+04 0.000000000000000D+00 0.000000000000000D+00 -.138968660912008D+04
 0.534679207323897D+03 0.520549185458163D+03 -.916596283392861D+02 0.645730916772186D+01
 0.211728748639157D+03 -.185835094939196D+03 0.696816861098176D+01 0.101221663271518D+03
 0.630460608566437D+02 -.567948056130266D+02 -.182447380905276D+02 -.204030727324633D+02
 0.248330121540375D+03 -.154584285502013D+03 -.147780966049292D+03 -.872758997067762D+02
 0.883468538993721D+03 -.123334999403927D+03 0.250717163868124D+03 -.838120540886368D+03
0.276694456198D-03 0.000000000000D+00 0.000000000000D+00 0.850096670749D-07 0.000000000000D+00  7 1 -2 -24 -13 13 23 21 0 0.32888907D+00 0.18726061D-01 0.23939794D+06 0.23939794D+06 0.23939794D+06 0.10918777D+01  1  2  2  1  7  1        1 0.171260637304D-02 0.100000000000D+01
-.153394466102D-04 0.000000000000D+00 -.106257956712D-05 0.850096670749D-07 0.000000000000D+00  7 1 -2 -24 -13 13 23 21 2 0.32888907D+00 0.18726061D-01 0.23939794D+06 0.23939794D+06 0.23939794D+06 0.10918777D+01  1  2  3  1  7  1        1 -.113191758355D-03 0.100000000000D+01
0.172500155420D-04 0.000000000000D+00 0.000000000000D+00 0.850096670749D-07 0.000000000000D+00  7 1 -2 -24 -13 13 23 21 2 0.32888907D+00 0.18726061D-01 0.23939794D+06 0.23939794D+06 0.23939794D+06 0.10918777D+01  1  2 15  1  7  1        1 0.127290093344D-03 0.100000000000D+01
  </mgrwgt>
  </event>
  <event>
  9     66 0.29493621E-05 0.21848178E+03 0.75467711E-02 0.99146225E-01
        1 -1    0    0  501    0 0.00000000E+00 0.00000000E+00 0.76163259E+03 0.76163266E+03 0.32000000E+00 0.0000E+00 0.9000E+01
       21 -1    0    0  502  501 0.00000000E+00 0.00000000E+00 -.17654684E+03 0.17654843E+03 0.75000000E+00 0.0000E+00 0.9000E+01
       25  2    1    2    0    0 -.21295447E+03 0.51535368E+02 0.36167462E+03 0.51885455E+03 0.30065929E+03 0.0000E+00 0.0000E+00
       23  2    3    3    0    0 -.13033468E+03 0.14701731E+03 0.20634742E+03 0.29888950E+03 0.90302028E+02 0.0000E+00 0.0000E+00
      -24  1    1    2    0    0 0.10513594E+02 -.86466743E+02 0.38050682E+01 0.11861167E+03 0.80419002E+02 0.0000E+00 0.9000E+01
      -13  1    4    4    0    0 -.38744525E+02 0.85061149E+02 0.14477220E+03 0.17232394E+03 0.10565837E+00 0.0000E+00 0.9000E+01
       13  1    4    4    0    0 -.91590158E+02 0.61956163E+02 0.61575213E+02 0.12656556E+03 0.10565837E+00 0.0000E+00 0.9000E+01
       23  1    3    3    0    0 -.82619789E+02 -.95481944E+02 0.15532720E+03 0.21996505E+03 0.91188000E+02 0.0000E+00 0.9000E+01
        2  1    1    2  502    0 0.20244088E+03 0.34931376E+02 0.21960607E+03 0.30071488E+03 0.32000000E+00 0.0000E+00 0.9000E+01
#aMCatNLO 2  0  0  2  2 0.20543250D+03 0.00000000D+00  -5  7  0 0.00000000D+00 0.00000000D+00 0.00000000D+00 0.00000000D+00 0.00000000D+00
  <mgrwgt>
 0.1048045308D-03    1    2    0
 0.240096471921261D+03 0.000000000000000D+00 0.000000000000000D+00 0.240096471921261D+03
 0.240096471921261D+03 0.000000000000000D+00 0.000000000000000D+00 -.240096471921261D+03
 0.152705781202853D+03 0.700475208210396D+02 -.761941107977296D+02 -.783558674572139D+02
 0.108429808672410D+03 0.516691023452564D+01 0.926381281805798D+02 0.561115287134666D+02
 0.870470660509144D+02 -.515184536944119D+02 0.688705553665139D+02 -.134122049088482D+02
 0.132010287916345D+03 -.236959773611534D+02 -.853145727493642D+02 0.356565436525955D+02
 0.000000000000000D+00 0.000000000000000D+00 0.000000000000000D+00 0.000000000000000D+00
 0.396625645401408D+03 0.000000000000000D+00 0.000000000000000D+00 0.396625645401408D+03
 0.339021235413242D+03 0.000000000000000D+00 0.000000000000000D+00 -.339021235413242D+03
 0.142105215582498D+03 0.105135957578724D+02 -.864667489885285D+02 -.783558674572139D+02
 0.109018532752237D+03 -.387444546895937D+02 0.850611783347397D+02 0.561115287134666D+02
 0.111387699725426D+03 -.915902305428758D+02 0.619561302754429D+02 -.134122049088482D+02
 0.159779442147528D+03 -.826197899503844D+02 -.954819354238287D+02 0.356565436525955D+02
 0.213355990606961D+03 0.202440879424982D+03 0.349313758021746D+02 0.576044099881665D+02
0.223507444981D-06 0.000000000000D+00 0.000000000000D+00 0.406729470939D-06 0.524120024854D-11  7 1 21 -24 -13 13 23 2 2 0.11717433D+00 0.27161171D-01 0.11688874D+06 0.11688874D+06 0.11688874D+06 0.11162026D+01  1  2  1  4  7  2       -2 0.104804530840D-03 0.100000000000D+01
  </mgrwgt>
  </event>
  <event>
  8     66 0.29493621E-05 0.68178100E+03 0.75467711E-02 0.83186931E-01
        1 -1    0    0  501    0 0.00000000E+00 0.00000000E+00 0.82543918E+03 0.82543924E+03 0.32000000E+00 0.0000E+00 0.9000E+01
       -2 -1    0    0    0  501 0.00000000E+00 0.00000000E+00 -.63259522E+03 0.63259530E+03 0.32000000E+00 0.0000E+00 0.9000E+01
       25  2    1    2    0    0 0.60848207E+02 0.65360348E+03 -.11108478E+03 0.73020220E+03 0.29992567E+03 0.0000E+00 0.0000E+00
       23  2    3    3    0    0 -.59136706E+02 0.39425431E+03 -.13191688E+03 0.42952364E+03 0.90304358E+02 0.0000E+00 0.0000E+00
      -24  1    1    2    0    0 -.60848207E+02 -.65360348E+03 0.30392874E+03 0.72783234E+03 0.80419002E+02 0.0000E+00 0.9000E+01
      -13  1    4    4    0    0 0.10206007E+02 0.64462451E+02 0.56810470E+01 0.65512255E+02 0.10565837E+00 0.0000E+00 0.9000E+01
       13  1    4    4    0    0 -.69342713E+02 0.32979186E+03 -.13759793E+03 0.36401138E+03 0.10565837E+00 0.0000E+00 0.9000E+01
       23  1    3    3    0    0 0.11998491E+03 0.25934917E+03 0.20832098E+02 0.30067856E+03 0.91188000E+02 0.0000E+00 0.9000E+01
#aMCatNLO 1  0  0  1  2 0.12843746D+04 0.00000000D+00  -5  7  0 0.00000000D+00 0.00000000D+00 0.00000000D+00 0.00000000D+00 0.00000000D+00
  <mgrwgt>
 0.2015222223D-02    3    2    0
 0.722612608019893D+03 0.000000000000000D+00 0.000000000000000D+00 0.722612608019893D+03
 0.722612608019893D+03 0.000000000000000D+00 0.000000000000000D+00 -.722612608019893D+03
 0.693728462460100D+03 -.608482074311568D+02 -.653603482955820D+03 0.209504048632287D+03
 0.653344132969052D+02 0.102061157856150D+02 0.644620874249454D+02 -.300999106977775D+01
 0.385598537212796D+03 -.693428217238556D+02 0.329792225987373D+03 -.187389681290927D+03
 0.300563803069984D+03 0.119984913369397D+03 0.259349169543502D+03 -.191043762715815D+02
 0.000000000000000D+00 0.000000000000000D+00 0.000000000000000D+00 -.000000000000000D+00
 0.112436666468434D+04 0.000000000000000D+00 0.000000000000000D+00 0.112436666468434D+04
 0.358296109927258D+04 0.000000000000000D+00 0.000000000000000D+00 -.358296109927258D+04
 0.121056730249914D+04 -.723987551909305D+03 -.943904685978799D+03 0.209504048632287D+03
 0.561237332239033D+02 -.320896647057435D+02 0.459463470128007D+02 -.300999106977775D+01
 0.454783142030327D+03 -.361991771608306D+03 0.201679872343625D+03 -.187389681290927D+03
 0.211992634137743D+03 -.585043455116999D+02 0.181212278690437D+03 -.191043762715815D+02
 0.277386095206581D+04 0.117657333373505D+04 0.515066187931936D+03 -.245859443458824D+04
0.991175972411D-03 0.000000000000D+00 0.000000000000D+00 0.231490977774D-04 0.000000000000D+00  7 1 -2 -24 -13 13 23 21 0 0.12699065D+00 0.97322352D-01 0.46482533D+06 0.46482533D+06 0.46482533D+06 0.10707566D+01  1  2  2  1  7  1        1 0.199525934592D-02 0.100000000000D+01
-.548388257408D-04 0.000000000000D+00 -.380637671668D-05 0.231490977774D-04 0.000000000000D+00  7 1 -2 -24 -13 13 23 21 2 0.12699065D+00 0.97322352D-01 0.46482533D+06 0.46482533D+06 0.46482533D+06 0.10707566D+01  1  2  3  1  7  1        1 -.126566352133D-03 0.100000000000D+01
0.634883657722D-04 0.000000000000D+00 0.000000000000D+00 0.231490977774D-04 0.000000000000D+00  7 1 -2 -24 -13 13 23 21 2 0.12699065D+00 0.97322352D-01 0.46482533D+06 0.46482533D+06 0.46482533D+06 0.10707566D+01  1  2 15  1  7  1        1 0.146529229066D-03 0.100000000000D+01
  </mgrwgt>
  </event>
  <event>
  8     66 0.29493621E-05 0.26946534E+03 0.75467711E-02 0.94439512E-01
        1 -1    0    0  501    0 0.00000000E+00 0.00000000E+00 0.11871898E+04 0.11871898E+04 0.32000000E+00 0.0000E+00 0.9000E+01
       -2 -1    0    0    0  501 0.00000000E+00 0.00000000E+00 -.27848935E+03 0.27848954E+03 0.32000000E+00 0.0000E+00 0.9000E+01
       25  2    1    2    0    0 -.11213761E+03 -.38749176E+03 0.37560626E+02 0.50231210E+03 0.29695442E+03 0.0000E+00 0.0000E+00
       23  2    3    3    0    0 -.29681285E+02 -.35299889E+03 0.43879480E+02 0.37446851E+03 0.11319036E+03 0.0000E+00 0.0000E+00
      -24  1    1    2    0    0 0.11213761E+03 0.38749176E+03 0.87113980E+03 0.96336726E+03 0.80419002E+02 0.0000E+00 0.9000E+01
      -11  1    4    4    0    0 -.68607122E+02 -.18823025E+03 0.33080281E+01 0.20037093E+03 0.51099893E-03 0.0000E+00 0.9000E+01
       11  1    4    4    0    0 0.38925837E+02 -.16476864E+03 0.40571452E+02 0.17409758E+03 0.51099893E-03 0.0000E+00 0.9000E+01
       23  1    3    3    0    0 -.82456325E+02 -.34492874E+02 -.63188541E+01 0.12784359E+03 0.91188000E+02 0.0000E+00 0.9000E+01
#aMCatNLO 1  0  0  2  1 0.10707581D+03 0.00000000D+00  -5  7  0 0.00000000D+00 0.00000000D+00 0.00000000D+00 0.00000000D+00 0.00000000D+00
  <mgrwgt>
 0.1692608992D-02    7    2    0
 0.574995545583353D+03 0.000000000000000D+00 0.000000000000000D+00 0.574995545583353D+03
 0.574995545583353D+03 0.000000000000000D+00 0.000000000000000D+00 -.574995545583353D+03
 0.539467133977885D+03 0.112137610257742D+03 0.387491764890901D+03 0.349045643426988D+03
 0.252761546769318D+03 -.686071219452751D+02 -.188230254849422D+03 -.154113054291081D+03
 0.189830975680705D+03 0.389258365909058D+02 -.164768635988350D+03 -.858596247844431D+02
 0.167931434738798D+03 -.824563249033727D+02 -.344928740531290D+02 -.109072964351463D+03
 0.000000000000000D+00 0.000000000000000D+00 0.000000000000000D+00 -.000000000000000D+00
 0.580223499774998D+03 0.000000000000000D+00 0.000000000000000D+00 0.580223499774998D+03
 0.162324728912600D+04 0.000000000000000D+00 0.000000000000000D+00 -.162324728912600D+04
 0.504247731293693D+03 0.977611593267815D+02 0.341186830185735D+03 0.349045643426988D+03
 0.272486939602715D+03 -.758420568323278D+02 -.211533168005800D+03 -.154113054291081D+03
 0.204229102668973D+03 0.334979313566822D+02 -.182251309470390D+03 -.858596247844431D+02
 0.174001481201910D+03 -.871662145018338D+02 -.496628997689759D+02 -.109072964351463D+03
 0.104850553413371D+04 0.317491806506979D+02 0.102260547059431D+03 -.104302378935100D+04
0.306339385549D-03 0.000000000000D+00 0.000000000000D+00 0.180832276509D-08 0.000000000000D+00  7 1 -2 -24 -11 11 23 21 0 0.18264460D+00 0.42844533D-01 0.20641786D+06 0.20641786D+06 0.20641786D+06 0.10967734D+01  1  2  2  2  7  2       -2 0.192639544986D-02 0.100000000000D+01
-.158709212923D-04 0.000000000000D+00 -.117642390152D-05 0.180832276509D-08 0.000000000000D+00  7 1 -2 -24 -11 11 23 21 2 0.18264460D+00 0.42844533D-01 0.20641786D+06 0.20641786D+06 0.20641786D+06 0.10967734D+01  1  2  3  2  7  2       -2 -.120054535634D-03 0.100000000000D+01
0.192719883556D-04 0.000000000000D+00 0.000000000000D+00 0.180832276509D-08 0.000000000000D+00  7 1 -2 -24 -11 11 23 21 2 0.18264460D+00 0.42844533D-01 0.20641786D+06 0.20641786D+06 0.20641786D+06 0.10967734D+01  1  2 15  2  7  2       -2 0.145781682749D-03 0.100000000000D+01
0.630874291645D-02 0.000000000000D+00 0.000000000000D+00 0.180832276509D-08 0.000000000000D+00  7 1 -2 -24 -11 11 23 21 2 0.18264460D+00 0.12071939D+00 0.25836026D+06 0.25836026D+06 0.25836026D+06 0.10893860D+01  1  2 12  2  7  2       -2 0.478702292036D-02 0.100000000000D+01
-.635935949862D-02 0.000000000000D+00 -.949344937793D-04 0.180832276509D-08 0.000000000000D+00  7 1 -2 -24 -11 11 23 21 2 0.18264460D+00 0.12123505D+00 0.20641786D+06 0.20641786D+06 0.20641786D+06 0.10967734D+01  1  2  5  2  7  2       -2 -.490276248221D-02 0.100000000000D+01
0.734771042668D-03 0.000000000000D+00 0.000000000000D+00 0.180832276509D-08 0.000000000000D+00  7 1 21 -24 -11 11 23 2 2 0.18264460D+00 0.12071939D+00 0.25836026D+06 0.25836026D+06 0.25836026D+06 0.10893860D+01  1  2 12  4  7  2       -2 0.498670882433D-02 0.100000000000D+01
-.739089959351D-03 0.000000000000D+00 -.111113260921D-04 0.180832276509D-08 0.000000000000D+00  7 1 21 -24 -11 11 23 2 2 0.18264460D+00 0.12123505D+00 0.20641786D+06 0.20641786D+06 0.20641786D+06 0.10967734D+01  1  2  5  4  7  2       -2 -.513048286698D-02 0.100000000000D+01
  </mgrwgt>
  </event>
  <event>
  8     66 0.29493621E-05 0.20073893E+03 0.75467711E-02 0.98088067E-01
        1 -1    0    0  501    0 0.00000000E+00 0.00000000E+00 0.11865219E+03 0.11865262E+03 0.32000000E+00 0.0000E+00 0.9000E+01
       -2 -1    0    0    0  501 0.00000000E+00 0.00000000E+00 -.87560155E+03 0.87560161E+03 0.32000000E+00 0.0000E+00 0.9000E+01
       25  2    1    2    0    0 -.23636629E+03 0.12558060E+01 -.35782030E+03 0.52346572E+03 0.30018393E+03 0.0000E+00 0.0000E+00
       23  2    3    3    0    0 -.22470567E+03 -.44332001E+02 -.33232331E+03 0.41773225E+03 0.10771948E+03 0.0000E+00 0.0000E+00
      -24  1    1    2    0    0 0.23636629E+03 -.12558060E+01 -.39912906E+03 0.47078851E+03 0.80419002E+02 0.0000E+00 0.9000E+01
      -13  1    4    4    0    0 -.11228020E+03 -.56003618E+02 -.10402673E+03 0.16298718E+03 0.10565837E+00 0.0000E+00 0.9000E+01
       13  1    4    4    0    0 -.11242548E+03 0.11671617E+02 -.22829657E+03 0.25474507E+03 0.10565837E+00 0.0000E+00 0.9000E+01
       23  1    3    3    0    0 -.11660613E+02 0.45587807E+02 -.25496997E+02 0.10573347E+03 0.91188000E+02 0.0000E+00 0.9000E+01
#aMCatNLO 1  0  0  1  2 0.13745050D+03 0.00000000D+00  -5  7  0 0.00000000D+00 0.00000000D+00 0.00000000D+00 0.00000000D+00 0.00000000D+00
  <mgrwgt>
 0.8147855191D-03    9    2    0
 0.322323257273716D+03 0.000000000000000D+00 0.000000000000000D+00 0.322323257273716D+03
 0.322323257273716D+03 0.000000000000000D+00 0.000000000000000D+00 -.322323257273716D+03
 0.257448034186592D+03 0.236366286548122D+03 -.125580603572320D+01 -.627827674351973D+02
 0.129230047754532D+03 -.112280208500688D+03 -.560036354242236D+02 0.309378868210399D+02
 0.124831832809464D+03 -.112425494346344D+03 0.116715946379872D+02 -.529836633516099D+02
 0.133136599796843D+03 -.116605837010907D+02 0.455878468219596D+02 0.848285439657673D+02
 0.000000000000000D+00 -.000000000000000D+00 -.000000000000000D+00 0.000000000000000D+00
 0.405320215792278D+03 0.000000000000000D+00 0.000000000000000D+00 0.405320215792278D+03
 0.391919157070442D+03 0.000000000000000D+00 0.000000000000000D+00 -.391919157070442D+03
 0.285928880142839D+03 0.262432540719611D+03 0.497553437330624D+02 -.627827674351973D+02
 0.110608303923706D+03 -.100774958148580D+03 -.334880854346634D+02 0.309378868210399D+02
 0.118946372097338D+03 -.100731245873510D+03 0.345570102545354D+02 -.529836633516099D+02
 0.143653582417206D+03 0.161727748789255D+01 0.715723615613733D+02 0.848285439657673D+02
 0.138102234281632D+03 -.625436141854141D+02 -.122396630114308D+03 0.134010587218361D+02
0.471060472817D-04 0.000000000000D+00 0.000000000000D+00 0.177612771521D-07 0.000000000000D+00  7 1 -2 -24 -13 13 23 21 0 0.18254220D-01 0.13470797D+00 0.87258346D+05 0.87258346D+05 0.87258346D+05 0.11266121D+01  1  2  2  1  7  1        1 0.626944886456D-03 0.100000000000D+01
-.259278542630D-05 0.000000000000D+00 -.180899624869D-06 0.177612771521D-07 0.000000000000D+00  7 1 -2 -24 -13 13 23 21 2 0.18254220D-01 0.13470797D+00 0.87258346D+05 0.87258346D+05 0.87258346D+05 0.11266121D+01  1  2  3  1  7  1        1 -.437993956659D-04 0.100000000000D+01
0.304130622787D-05 0.000000000000D+00 0.000000000000D+00 0.177612771521D-07 0.000000000000D+00  7 1 -2 -24 -13 13 23 21 2 0.18254220D-01 0.13470797D+00 0.87258346D+05 0.87258346D+05 0.87258346D+05 0.11266121D+01  1  2 15  1  7  1        1 0.513761661357D-04 0.100000000000D+01
0.165671391224D-04 0.000000000000D+00 0.000000000000D+00 0.177612771521D-07 0.000000000000D+00  7 1 -2 -24 -13 13 23 21 2 0.24485578D-01 0.13470797D+00 0.13876442D+06 0.13876442D+06 0.13876442D+06 0.11102302D+01  1  2 12  1  7  1        1 0.183515274515D-03 0.100000000000D+01
-.209834041932D-04 0.000000000000D+00 0.000000000000D+00 0.177612771521D-07 0.000000000000D+00  7 1 -2 -24 -13 13 23 21 2 0.18254220D-01 0.13470797D+00 0.87258346D+05 0.87258346D+05 0.87258346D+05 0.11266121D+01  1  2  4  1  7  1        1 -.354468369558D-03 0.100000000000D+01
-.373873803338D-04 0.000000000000D+00 -.203018663986D-04 0.177612771521D-07 0.000000000000D+00  7 1 -2 -24 -13 13 23 21 2 0.27870060D-01 0.13470797D+00 0.87258346D+05 0.87258346D+05 0.87258346D+05 0.11266121D+01  1  2  5  1  7  1        1 -.364283490544D-03 0.100000000000D+01
0.436984056736D-04 0.000000000000D+00 0.186106298824D-04 0.177612771521D-07 0.000000000000D+00  7 1 -2 -24 -13 13 23 21 2 0.18254220D-01 0.13470797D+00 0.87258346D+05 0.87258346D+05 0.87258346D+05 0.11266121D+01  1  2  6  1  7  1        1 0.738188259103D-03 0.100000000000D+01
0.630635262384D-06 0.000000000000D+00 0.000000000000D+00 0.177612771521D-07 0.000000000000D+00  7 21 -2 -24 -13 13 23 -1 2 0.24485578D-01 0.13470797D+00 0.13876442D+06 0.13876442D+06 0.13876442D+06 0.11102302D+01  1  2 12  3  7  1        1 0.510357303753D-04 0.100000000000D+01
-.110830019624D-05 0.000000000000D+00 -.100738313374D-05 0.177612771521D-07 0.000000000000D+00  7 21 -2 -24 -13 13 23 -1 2 0.27870060D-01 0.13470797D+00 0.87258346D+05 0.87258346D+05 0.87258346D+05 0.11266121D+01  1  2  5  3  7  1        1 -.737235416678D-04 0.100000000000D+01
  </mgrwgt>
  </event>
  <event>
  8     66 0.29493621E-05 0.18759497E+03 0.75467711E-02 0.95331776E-01
        1 -1    0    0  501    0 0.00000000E+00 0.00000000E+00 0.18122635E+04 0.18122636E+04 0.32000000E+00 0.0000E+00 0.9000E+01
       -2 -1    0    0    0  501 0.00000000E+00 0.00000000E+00 -.75457746E+02 0.75458424E+02 0.32000000E+00 0.0000E+00 0.9000E+01
       25  2    1    2    0    0 -.24742409E+03 -.86939259E+02 0.60585927E+03 0.72398475E+03 0.29717225E+03 0.0000E+00 0.0000E+00
       23  2    3    3    0    0 -.76504634E+02 -.14743790E+03 0.24065104E+03 0.30617397E+03 0.90767190E+02 0.0000E+00 0.0000E+00
      -24  1    1    2    0    0 0.24742409E+03 0.86939259E+02 0.11309465E+04 0.11637372E+04 0.80419002E+02 0.0000E+00 0.9000E+01
      -13  1    4    4    0    0 -.37726010E+02 -.95378970E+00 0.46280147E+02 0.59716202E+02 0.10565837E+00 0.0000E+00 0.9000E+01
       13  1    4    4    0    0 -.38778625E+02 -.14648411E+03 0.19437090E+03 0.24645777E+03 0.10565837E+00 0.0000E+00 0.9000E+01
       23  1    3    3    0    0 -.17091946E+03 0.60498637E+02 0.36520823E+03 0.41781078E+03 0.91188000E+02 0.0000E+00 0.9000E+01
#aMCatNLO 1  0  0  2  1 0.23914164D+03 0.00000000D+00  -5  7  0 0.00000000D+00 0.00000000D+00 0.00000000D+00 0.00000000D+00 0.00000000D+00
  <mgrwgt>
 0.2279822894D-02    7    2    0
 0.369797224193972D+03 0.000000000000000D+00 0.000000000000000D+00 0.369797224193972D+03
 0.369797224193972D+03 0.000000000000000D+00 0.000000000000000D+00 -.369797224193972D+03
 0.314466814668812D+03 0.247424092805610D+03 0.869392586605773D+02 0.153769454627532D+03
 0.437372533222077D+02 -.377260084755737D+02 -.953592576610184D+00 -.221085113444968D+02
 0.172607269749412D+03 -.387786261581834D+02 -.146484302700088D+03 -.826549259639075D+02
 0.208783110647513D+03 -.170919458171852D+03 0.604986366161212D+02 -.490060173191273D+02
 0.000000000000000D+00 0.000000000000000D+00 -.000000000000000D+00 -.000000000000000D+00
 0.441827408709371D+03 0.000000000000000D+00 0.000000000000000D+00 0.441827408709371D+03
 0.657495287203062D+03 0.000000000000000D+00 0.000000000000000D+00 -.657495287203062D+03
 0.290402114049454D+03 0.177029779290318D+03 0.151266598950311D+03 0.153769454627532D+03
 0.547636646072315D+02 -.491894911724980D+02 0.952190346172161D+01 -.221085113444968D+02
 0.158711052870736D+03 -.773372704669680D+02 -.111248856686069D+03 -.826549259639075D+02
 0.273418911740217D+03 -.227037864540648D+03 0.111780446789877D+03 -.490060173191273D+02
 0.322026952644795D+03 0.176534846889795D+03 -.161320092515841D+03 -.215667878493691D+03
0.121180565465D-03 0.000000000000D+00 0.000000000000D+00 0.258694295305D-06 0.000000000000D+00  7 1 -2 -24 -13 13 23 21 0 0.27880983D+00 0.11608938D-01 0.11106409D+06 0.11106409D+06 0.11106409D+06 0.11180013D+01  1  2  2  2  7  2       -2 0.272521212424D-02 0.100000000000D+01
-.664368000816D-05 0.000000000000D+00 -.465365278960D-06 0.258694295305D-06 0.000000000000D+00  7 1 -2 -24 -13 13 23 21 2 0.27880983D+00 0.11608938D-01 0.11106409D+06 0.11106409D+06 0.11106409D+06 0.11180013D+01  1  2  3  2  7  2       -2 -.186750013005D-03 0.100000000000D+01
0.768489978610D-05 0.000000000000D+00 0.000000000000D+00 0.258694295305D-06 0.000000000000D+00  7 1 -2 -24 -13 13 23 21 2 0.27880983D+00 0.11608938D-01 0.11106409D+06 0.11106409D+06 0.11106409D+06 0.11180013D+01  1  2 15  2  7  2       -2 0.216018100395D-03 0.100000000000D+01
0.136692821999D-04 0.000000000000D+00 0.000000000000D+00 0.258694295305D-06 0.000000000000D+00  7 1 -2 -24 -13 13 23 21 2 0.27880983D+00 0.21025708D-01 0.22093522D+06 0.22093522D+06 0.22093522D+06 0.10945202D+01  1  2 12  2  7  2       -2 0.137846284912D-03 0.100000000000D+01
-.592012756373D-04 0.000000000000D+00 -.384880898087D-04 0.258694295305D-06 0.000000000000D+00  7 1 -2 -24 -13 13 23 21 2 0.27880983D+00 0.25036399D-01 0.11106409D+06 0.11106409D+06 0.11106409D+06 0.11180013D+01  1  2  5  2  7  2       -2 -.476319883995D-03 0.100000000000D+01
0.889270266499D-06 0.000000000000D+00 0.000000000000D+00 0.258694295305D-06 0.000000000000D+00  7 1 21 -24 -13 13 23 2 2 0.27880983D+00 0.21025708D-01 0.22093522D+06 0.22093522D+06 0.22093522D+06 0.10945202D+01  1  2 12  4  7  2       -2 0.111847405784D-03 0.100000000000D+01
-.251508094390D-05 0.000000000000D+00 -.320227144497D-05 0.258694295305D-06 0.000000000000D+00  7 1 21 -24 -13 13 23 2 2 0.27880983D+00 0.25036399D-01 0.11106409D+06 0.11106409D+06 0.11106409D+06 0.11180013D+01  1  2  5  4  7  2       -2 -.248031123869D-03 0.100000000000D+01
  </mgrwgt>
  </event>
  <event>
  8     66 0.29493621E-05 0.11075945E+03 0.75467711E-02 0.10571947E+00
        1 -1    0    0  501    0 0.00000000E+00 0.00000000E+00 0.24904665E+03 0.24904686E+03 0.32000000E+00 0.0000E+00 0.9000E+01
       -2 -1    0    0    0  501 0.00000000E+00 0.00000000E+00 -.29758823E+03 0.29758840E+03 0.32000000E+00 0.0000E+00 0.9000E+01
       25  2    1    2    0    0 -.10330387E+03 -.57038465E+02 -.16507022E+03 0.36232243E+03 0.30017377E+03 0.0000E+00 0.0000E+00
       23  2    3    3    0    0 -.10564909E+03 -.11704520E+03 -.22880216E+02 0.18304735E+03 0.90119466E+02 0.0000E+00 0.0000E+00
      -24  1    1    2    0    0 0.10330387E+03 0.57038465E+02 0.11652864E+03 0.18431282E+03 0.80419002E+02 0.0000E+00 0.9000E+01
      -11  1    4    4    0    0 -.38093413E+02 -.62006068E+02 0.32605525E+02 0.79743218E+02 0.51099893E-03 0.0000E+00 0.9000E+01
       11  1    4    4    0    0 -.67555681E+02 -.55039128E+02 -.55485741E+02 0.10330413E+03 0.51099893E-03 0.0000E+00 0.9000E+01
       23  1    3    3    0    0 0.23452194E+01 0.60006731E+02 -.14219000E+03 0.17927508E+03 0.91188000E+02 0.0000E+00 0.9000E+01
#aMCatNLO 1  0  0  2  1 0.50507971D+01 0.00000000D+00  -5  7  0 0.00000000D+00 0.00000000D+00 0.00000000D+00 0.00000000D+00 0.00000000D+00
  <mgrwgt>
 0.6717587146D-03   11    2    0
 0.272237863015967D+03 0.000000000000000D+00 0.000000000000000D+00 0.272237863015967D+03
 0.272237863015967D+03 0.000000000000000D+00 0.000000000000000D+00 -.272237863015967D+03
 0.195432718218193D+03 0.103303873783706D+03 0.570384653853816D+02 0.133422841086307D+03
 0.829663760654420D+02 -.380934125918875D+02 -.620060682595520D+02 0.398441836850542D+02
 0.987671457859112D+02 -.675556805850340D+02 -.550391277631990D+02 -.464959516781251D+02
 0.167309485962389D+03 0.234521939321561D+01 0.600067306373694D+02 -.126771073093236D+03
 0.000000000000000D+00 -.000000000000000D+00 -.000000000000000D+00 -.000000000000000D+00
 0.272820573051456D+03 0.000000000000000D+00 0.000000000000000D+00 0.272820573051456D+03
 0.283418879482444D+03 0.000000000000000D+00 0.000000000000000D+00 -.283418879482444D+03
 0.196523222535626D+03 0.104744304282074D+03 0.581475471394862D+02 0.133422841086307D+03
 0.823390412729232D+02 -.374859183816410D+02 -.615383186908836D+02 0.398441836850542D+02
 0.979633679099133D+02 -.668326997537137D+02 -.544824574833813D+02 -.464959516781251D+02
 0.167673520521277D+03 0.357627546050256D+01 0.609546013080158D+02 -.126771073093236D+03
 0.117403002941608D+02 -.400196160722193D+01 -.308137227323705D+01 -.105983064309879D+02
0.625817905174D-05 0.000000000000D+00 0.000000000000D+00 0.144327516830D-05 0.000000000000D+00  7 1 -2 -24 -11 11 23 21 0 0.38314898D-01 0.45782833D-01 0.42415072D+05 0.42415072D+05 0.42415072D+05 0.11536336D+01  1  2  2  2  7  2       -2 0.355049422001D-03 0.100000000000D+01
-.314760344504D-06 0.000000000000D+00 -.240330553751D-07 0.144327516830D-05 0.000000000000D+00  7 1 -2 -24 -11 11 23 21 2 0.38314898D-01 0.45782833D-01 0.42415072D+05 0.42415072D+05 0.42415072D+05 0.11536336D+01  1  2  3  2  7  2       -2 -.237660299333D-04 0.100000000000D+01
0.398780643848D-06 0.000000000000D+00 0.000000000000D+00 0.144327516830D-05 0.000000000000D+00  7 1 -2 -24 -11 11 23 21 2 0.38314898D-01 0.45782833D-01 0.42415072D+05 0.42415072D+05 0.42415072D+05 0.11536336D+01  1  2 15  2  7  2       -2 0.301099960143D-04 0.100000000000D+01
0.274084470490D-04 0.000000000000D+00 0.000000000000D+00 0.144327516830D-05 0.000000000000D+00  7 1 -2 -24 -11 11 23 21 2 0.38314898D-01 0.47711051D-01 0.43548780D+05 0.43548780D+05 0.43548780D+05 0.11526101D+01  1  2 12  2  7  2       -2 0.190917566761D-02 0.100000000000D+01
-.143965525111D-03 0.000000000000D+00 0.000000000000D+00 0.144327516830D-05 0.000000000000D+00  7 1 -2 -24 -11 11 23 21 2 0.38314898D-01 0.45782833D-01 0.42415072D+05 0.42415072D+05 0.42415072D+05 0.11536336D+01  1  2  4  2  7  2       -2 -.108701398981D-01 0.100000000000D+01
-.290415166360D-03 0.000000000000D+00 -.193282785387D-04 0.144327516830D-05 0.000000000000D+00  7 1 -2 -24 -11 11 23 21 2 0.38314898D-01 0.47724050D-01 0.42415072D+05 0.42415072D+05 0.42415072D+05 0.11536336D+01  1  2  5  2  7  2       -2 -.202568497820D-01 0.100000000000D+01
0.290983524296D-03 0.000000000000D+00 0.193116253599D-04 0.144327516830D-05 0.000000000000D+00  7 1 -2 -24 -11 11 23 21 2 0.38314898D-01 0.45782833D-01 0.42415072D+05 0.42415072D+05 0.42415072D+05 0.11536336D+01  1  2  6  2  7  2       -2 0.219707573373D-01 0.100000000000D+01
0.116277958357D-03 0.000000000000D+00 0.000000000000D+00 0.144327516830D-05 0.401256079438D-06  7 1 -2 -24 -11 11 23 21 2 0.38396909D-01 0.47663169D-01 0.43548780D+05 0.43548780D+05 0.43548780D+05 0.11526101D+01  1  2 11  2  7  2       -2 0.809283005816D-02 0.100000000000D+01
0.595804005852D-06 0.000000000000D+00 0.000000000000D+00 0.144327516830D-05 0.000000000000D+00  7 1 21 -24 -11 11 23 2 2 0.38314898D-01 0.47711051D-01 0.43548780D+05 0.43548780D+05 0.43548780D+05 0.11526101D+01  1  2 12  4  7  2       -2 0.462378492507D-03 0.100000000000D+01
-.211494917612D-05 0.000000000000D+00 -.141547559481D-06 0.144327516830D-05 0.000000000000D+00  7 1 21 -24 -11 11 23 2 2 0.38314898D-01 0.47724050D-01 0.42415072D+05 0.42415072D+05 0.42415072D+05 0.11536336D+01  1  2  5  4  7  2       -2 -.164484580965D-02 0.100000000000D+01
0.834316640559D-06 0.000000000000D+00 0.000000000000D+00 0.144327516830D-05 0.284427871381D-08  7 1 21 -24 -11 11 23 2 2 0.38396909D-01 0.47663169D-01 0.43548780D+05 0.43548780D+05 0.43548780D+05 0.11526101D+01  1  2 11  4  7  2       -2 0.647059260694D-03 0.100000000000D+01
  </mgrwgt>
  </event>
  <event>
  8     66 0.29493621E-05 0.20918566E+03 0.75467711E-02 0.97875751E-01
        1 -1    0    0  501    0 0.00000000E+00 0.00000000E+00 0.85536032E+03 0.85536038E+03 0.32000000E+00 0.0000E+00 0.9000E+01
       -2 -1    0    0    0  501 0.00000000E+00 0.00000000E+00 -.21252445E+03 0.21252469E+03 0.32000000E+00 0.0000E+00 0.9000E+01
       25  2    1    2    0    0 0.58903153E+02 -.15069726E+03 -.57436190E+02 0.34467873E+03 0.29887332E+03 0.0000E+00 0.0000E+00
       23  2    3    3    0    0 0.80843011E+01 -.70648011E+02 0.91086697E+02 0.14627324E+03 0.89680417E+02 0.0000E+00 0.0000E+00
      -24  1    1    2    0    0 -.58903153E+02 0.15069726E+03 0.70027205E+03 0.72320634E+03 0.80419002E+02 0.0000E+00 0.9000E+01
      -11  1    4    4    0    0 -.34847224E+02 -.21800452E+02 0.99518593E+01 0.42292177E+02 0.51099893E-03 0.0000E+00 0.9000E+01
       11  1    4    4    0    0 0.42931525E+02 -.48847559E+02 0.81134838E+02 0.10398106E+03 0.51099893E-03 0.0000E+00 0.9000E+01
       23  1    3    3    0    0 0.50818852E+02 -.80049254E+02 -.14852289E+03 0.19840549E+03 0.91188000E+02 0.0000E+00 0.9000E+01
#aMCatNLO 1  0  0  1  2 0.26495823D+03 0.00000000D+00  -5  7  0 0.00000000D+00 0.00000000D+00 0.00000000D+00 0.00000000D+00 0.00000000D+00
  <mgrwgt>
 0.7849853321D-03    7    2    0
 0.426362691610809D+03 0.000000000000000D+00 0.000000000000000D+00 0.426362691610809D+03
 0.426362691610809D+03 0.000000000000000D+00 0.000000000000000D+00 -.426362691610809D+03
 0.377778440754062D+03 -.589031534387095D+02 0.150697264978711D+03 0.331768122620471D+03
 0.454610274291344D+02 -.348472236396738D+02 -.218004519941132D+02 -.194194828039119D+02
 0.690532308344617D+02 0.429315247054738D+02 -.488475589282146D+02 0.232195792790341D+02
 0.360432684203959D+03 0.508188523729095D+02 -.800492540563833D+02 -.335568219095593D+03
 0.000000000000000D+00 0.000000000000000D+00 0.000000000000000D+00 0.000000000000000D+00
 0.624832210681374D+03 0.000000000000000D+00 0.000000000000000D+00 0.624832210681374D+03
 0.544869992891139D+03 0.000000000000000D+00 0.000000000000000D+00 -.544869992891139D+03
 0.405828938208929D+03 -.176172686328697D+03 0.130854914076755D+03 0.331768122620471D+03
 0.594110685056860D+02 -.505416926220176D+02 -.244560024435183D+02 -.194194828039119D+02
 0.616893080427963D+02 0.233654551729520D+02 -.521581956116623D+02 0.232195792790341D+02
 0.366011581471915D+03 -.578960244818210D+02 -.984441319215334D+02 -.335568219095593D+03
 0.276761307343188D+03 0.261244948259584D+03 0.442034158999593D+02 0.799622177902350D+02
0.491998865965D-04 0.000000000000D+00 0.000000000000D+00 0.905857426255D-06 0.000000000000D+00  7 1 -2 -24 -11 11 23 21 0 0.13159392D+00 0.32696093D-01 0.43758641D+05 0.43758641D+05 0.43758641D+05 0.11524239D+01  1  2  2  1  7  1        1 0.943642538114D-03 0.100000000000D+01
-.104826356417D-05 0.000000000000D+00 -.188940519158D-06 0.905857426255D-06 0.000000000000D+00  7 1 -2 -24 -11 11 23 21 2 0.13159392D+00 0.32696093D-01 0.43758641D+05 0.43758641D+05 0.43758641D+05 0.11524239D+01  1  2  3  1  7  1        1 -.267016686199D-04 0.100000000000D+01
0.298290858246D-05 0.000000000000D+00 0.000000000000D+00 0.905857426255D-06 0.000000000000D+00  7 1 -2 -24 -11 11 23 21 2 0.13159392D+00 0.32696093D-01 0.43758641D+05 0.43758641D+05 0.43758641D+05 0.11524239D+01  1  2 15  1  7  1        1 0.759814985610D-04 0.100000000000D+01
-.199934182550D-04 0.000000000000D+00 0.000000000000D+00 0.905857426255D-06 0.000000000000D+00  7 1 -2 -24 -11 11 23 21 2 0.13159392D+00 0.32696093D-01 0.43758641D+05 0.43758641D+05 0.43758641D+05 0.11524239D+01  1  2  4  1  7  1        1 -.509278054749D-03 0.100000000000D+01
-.428372723884D-05 0.000000000000D+00 -.163776461487D-04 0.905857426255D-06 0.000000000000D+00  7 1 -2 -24 -11 11 23 21 2 0.22526439D+00 0.32696093D-01 0.43758641D+05 0.43758641D+05 0.43758641D+05 0.11524239D+01  1  2  5  1  7  1        1 -.403785193424D-04 0.100000000000D+01
0.132395504123D-04 0.000000000000D+00 0.142663043964D-04 0.905857426255D-06 0.000000000000D+00  7 1 -2 -24 -11 11 23 21 2 0.13159392D+00 0.32696093D-01 0.43758641D+05 0.43758641D+05 0.43758641D+05 0.11524239D+01  1  2  6  1  7  1        1 0.337241605899D-03 0.100000000000D+01
0.542765993050D-06 0.000000000000D+00 -.979010212158D-06 0.905857426255D-06 0.000000000000D+00  7 21 -2 -24 -11 11 23 -1 2 0.22526439D+00 0.32696093D-01 0.43758641D+05 0.43758641D+05 0.43758641D+05 0.11524239D+01  1  2  5  3  7  1        1 0.447793225850D-05 0.100000000000D+01
  </mgrwgt>
  </event>
  <event>
  8     66 0.29493621E-05 0.12028757E+03 0.75467711E-02 0.10486879E+00
        3 -1    0    0  501    0 0.00000000E+00 0.00000000E+00 0.10896289E+03 0.10896403E+03 0.50000000E+00 0.0000E+00 0.9000E+01
       -4 -1    0    0    0  501 0.00000000E+00 0.00000000E+00 -.44198930E+03 0.44199201E+03 0.15500000E+01 0.0000E+00 0.9000E+01
       25  2    1    2    0    0 -.17484590E+02 0.75589147E+02 -.30776837E+03 0.43639334E+03 0.29949682E+03 0.0000E+00 0.0000E+00
       23  2    3    3    0    0 -.10800339E+03 0.10642993E+03 -.16817870E+03 0.24418165E+03 0.91370343E+02 0.0000E+00 0.0000E+00
      -24  1    1    2    0    0 0.17484590E+02 -.75589147E+02 -.25258043E+02 0.11456271E+03 0.80419002E+02 0.0000E+00 0.9000E+01
      -11  1    4    4    0    0 -.61790270E+02 0.31165098E+01 -.42538681E+02 0.75081885E+02 0.51099893E-03 0.0000E+00 0.9000E+01
       11  1    4    4    0    0 -.46213119E+02 0.10331342E+03 -.12564002E+03 0.16909976E+03 0.51099893E-03 0.0000E+00 0.9000E+01
       23  1    3    3    0    0 0.90518798E+02 -.30840782E+02 -.13958966E+03 0.19221169E+03 0.91188000E+02 0.0000E+00 0.9000E+01
#aMCatNLO 1  0  0  2  1 0.23460355D+02 0.00000000D+00  -5  7  0 0.00000000D+00 0.00000000D+00 0.00000000D+00 0.00000000D+00 0.00000000D+00
  <mgrwgt>
 0.2005383472D-03    9    2    0
 0.219457270900378D+03 0.000000000000000D+00 0.000000000000000D+00 0.219457270900378D+03
 0.219457270900378D+03 0.000000000000000D+00 0.000000000000000D+00 -.219457270900378D+03
 0.124642539130959D+03 0.174845903860200D+02 -.755891472163433D+02 0.552188059340391D+02
 0.619717774830386D+02 -.617902698938275D+02 0.311650983672580D+01 0.357087066312919D+01
 0.116936412128247D+03 -.462131189107509D+02 0.103313419279443D+03 -.294076438831504D+02
 0.135363813058512D+03 0.905187984185584D+02 -.308407818998253D+02 -.293820327140179D+02
 0.000000000000000D+00 -.000000000000000D+00 0.000000000000000D+00 -.000000000000000D+00
 0.231190383456615D+03 0.000000000000000D+00 0.000000000000000D+00 0.231190383456615D+03
 0.231819487454041D+03 0.000000000000000D+00 0.000000000000000D+00 -.231819487454041D+03
 0.127972118151648D+03 0.229120148326161D+02 -.795962946209036D+02 0.552188059340391D+02
 0.593042755575790D+02 -.591846545976297D+02 0.119274568778588D+01 0.357087066312919D+01
 0.111836145357814D+03 -.412979418400036D+02 0.996844716569012D+02 -.294076438831504D+02
 0.140428543493996D+03 0.964441955995417D+02 -.352155899083748D+02 -.293820327140179D+02
 0.234687883496190D+02 -.188736139945244D+02 0.139346671845913D+02 -.629103997426138D+00
0.919921227063D-05 0.000000000000D+00 0.000000000000D+00 0.582687794732D-06 0.000000000000D+00  7 3 -4 -24 -11 11 23 21 0 0.16763818D-01 0.67998651D-01 0.43875007D+05 0.43875007D+05 0.43875007D+05 0.11523210D+01  1  2  2  2  7  2       -4 0.163833960433D-03 0.100000000000D+01
-.509717543123D-06 0.000000000000D+00 -.353273973274D-07 0.582687794732D-06 0.000000000000D+00  7 3 -4 -24 -11 11 23 21 2 0.16763818D-01 0.67998651D-01 0.43875007D+05 0.43875007D+05 0.43875007D+05 0.11523210D+01  1  2  3  2  7  2       -4 -.120539631388D-04 0.100000000000D+01
0.591350874030D-06 0.000000000000D+00 0.000000000000D+00 0.582687794732D-06 0.000000000000D+00  7 3 -4 -24 -11 11 23 21 2 0.16763818D-01 0.67998651D-01 0.43875007D+05 0.43875007D+05 0.43875007D+05 0.11523210D+01  1  2 15  2  7  2       -4 0.139844542018D-04 0.100000000000D+01
0.156262798309D-04 0.000000000000D+00 0.000000000000D+00 0.582687794732D-06 0.000000000000D+00  7 3 -4 -24 -11 11 23 21 2 0.16763818D-01 0.73549249D-01 0.49133974D+05 0.49133974D+05 0.49133974D+05 0.11479634D+01  1  2 12  2  7  2       -4 0.303985528827D-03 0.100000000000D+01
-.123402819629D-04 0.000000000000D+00 0.000000000000D+00 0.582687794732D-06 0.000000000000D+00  7 3 -4 -24 -11 11 23 21 2 0.16763818D-01 0.67998651D-01 0.43875007D+05 0.43875007D+05 0.43875007D+05 0.11523210D+01  1  2  4  2  7  2       -4 -.291826926324D-03 0.100000000000D+01
-.578289922485D-04 0.000000000000D+00 -.119381174125D-04 0.582687794732D-06 0.000000000000D+00  7 3 -4 -24 -11 11 23 21 2 0.16763818D-01 0.75131646D-01 0.43875007D+05 0.43875007D+05 0.43875007D+05 0.11523210D+01  1  2  5  2  7  2       -4 -.107034432068D-02 0.100000000000D+01
0.587862894210D-04 0.000000000000D+00 0.118789654344D-04 0.582687794732D-06 0.000000000000D+00  7 3 -4 -24 -11 11 23 21 2 0.16763818D-01 0.67998651D-01 0.43875007D+05 0.43875007D+05 0.43875007D+05 0.11523210D+01  1  2  6  2  7  2       -4 0.139019693418D-02 0.100000000000D+01
0.205158273020D-06 0.000000000000D+00 0.000000000000D+00 0.582687794732D-06 0.000000000000D+00  7 3 21 -24 -11 11 23 4 2 0.16763818D-01 0.73549249D-01 0.49133974D+05 0.49133974D+05 0.49133974D+05 0.11479634D+01  1  2 12  4  7  2       -4 0.926669624752D-04 0.100000000000D+01
-.898085632070D-06 0.000000000000D+00 -.193490255826D-06 0.582687794732D-06 0.000000000000D+00  7 3 21 -24 -11 11 23 4 2 0.16763818D-01 0.75131646D-01 0.43875007D+05 0.43875007D+05 0.43875007D+05 0.11523210D+01  1  2  5  4  7  2       -4 -.389904282750D-03 0.100000000000D+01
  </mgrwgt>
  </event>
  <event>
  8     66 0.29493621E-05 0.52178560E+03 0.75467711E-02 0.91741750E-01
        1 -1    0    0  501    0 0.00000000E+00 0.00000000E+00 0.24968690E+04 0.24968690E+04 0.32000000E+00 0.0000E+00 0.9000E+01
       -2 -1    0    0    0  501 0.00000000E+00 0.00000000E+00 -.12603155E+03 0.12603195E+03 0.32000000E+00 0.0000E+00 0.9000E+01
       25  2    1    2    0    0 -.14660138E+03 -.46681372E+03 0.16577759E+04 0.17543786E+04 0.30036064E+03 0.0000E+00 0.0000E+00
       23  2    3    3    0    0 -.17237597E+03 -.28266971E+03 0.12601611E+04 0.13060638E+04 0.90450294E+02 0.0000E+00 0.0000E+00
      -24  1    1    2    0    0 0.14660138E+03 0.46681372E+03 0.71306157E+03 0.86852233E+03 0.80419002E+02 0.0000E+00 0.9000E+01
      -13  1    4    4    0    0 -.76002357E+01 -.75635748E+02 0.35348636E+03 0.36156763E+03 0.10565837E+00 0.0000E+00 0.9000E+01
       13  1    4    4    0    0 -.16477574E+03 -.20703396E+03 0.90667469E+03 0.94449622E+03 0.10565837E+00 0.0000E+00 0.9000E+01
       23  1    3    3    0    0 0.25774589E+02 -.18414401E+03 0.39761481E+03 0.44831478E+03 0.91188000E+02 0.0000E+00 0.9000E+01
#aMCatNLO 1  0  0  1  1 0.22958135D+03 0.00000000D+00  -5  7  0 0.00000000D+00 0.00000000D+00 0.00000000D+00 0.00000000D+00 0.00000000D+00
  <mgrwgt>
 0.1377468948D-02    3    2    0
 0.560967749115295D+03 0.000000000000000D+00 0.000000000000000D+00 0.560967749115295D+03
 0.560967749115295D+03 0.000000000000000D+00 0.000000000000000D+00 -.560967749115295D+03
 0.523644168443407D+03 0.146601384707184D+03 0.466813722528219D+03 -.168312155389027D+03
 0.983096424693095D+02 -.760002126964800D+01 -.756355691818887D+02 0.623400846460452D+02
 0.292121994074523D+03 -.164775952077354D+03 -.207034139646040D+03 0.123778067766876D+03
 0.207859693243350D+03 0.257745886398184D+02 -.184144013700291D+03 -.178059970238941D+02
 0.000000000000000D+00 0.000000000000000D+00 0.000000000000000D+00 -.000000000000000D+00
 0.588700807617965D+03 0.000000000000000D+00 0.000000000000000D+00 0.588700807617965D+03
 0.139059065108174D+04 0.000000000000000D+00 0.000000000000000D+00 -.139059065108174D+04
 0.479654606541555D+03 0.488289810930421D+02 0.439190248725855D+03 -.168312155389027D+03
 0.106051464384336D+03 -.275152021913299D+02 -.812621719667654D+02 0.623400846460452D+02
 0.342141736424561D+03 -.226585545592603D+03 -.224497100809820D+03 0.123778067766876D+03
 0.217336394727429D+03 -.156611676520760D+02 -.195850788680759D+03 -.178059970238941D+02
 0.834107256621821D+03 0.220932934342967D+03 0.624198127314896D+02 -.801889843463772D+03
0.411373310717D-03 0.000000000000D+00 0.000000000000D+00 0.823684554140D-05 0.000000000000D+00  7 1 -2 -24 -13 13 23 21 0 0.38413372D+00 0.19389501D-01 0.27226021D+06 0.27226021D+06 0.27226021D+06 0.10876832D+01  1  2  2  1  7  1        1 0.136218578191D-02 0.100000000000D+01
-.227083921505D-04 0.000000000000D+00 -.157978183023D-05 0.823684554140D-05 0.000000000000D+00  7 1 -2 -24 -13 13 23 21 2 0.38413372D+00 0.19389501D-01 0.27226021D+06 0.27226021D+06 0.27226021D+06 0.10876832D+01  1  2  3  1  7  1        1 -.889593182051D-04 0.100000000000D+01
0.266096823730D-04 0.000000000000D+00 0.000000000000D+00 0.823684554140D-05 0.000000000000D+00  7 1 -2 -24 -13 13 23 21 2 0.38413372D+00 0.19389501D-01 0.27226021D+06 0.27226021D+06 0.27226021D+06 0.10876832D+01  1  2 15  1  7  1        1 0.104242483830D-03 0.100000000000D+01
  </mgrwgt>
  </event>
  <event>
  8     66 0.29493621E-05 0.24180244E+03 0.75467711E-02 0.10086523E+00
        1 -1    0    0  501    0 0.00000000E+00 0.00000000E+00 0.11802792E+04 0.11802792E+04 0.32000000E+00 0.0000E+00 0.9000E+01
       -2 -1    0    0    0  501 0.00000000E+00 0.00000000E+00 -.65891478E+02 0.65892255E+02 0.32000000E+00 0.0000E+00 0.9000E+01
       25  2    1    2    0    0 -.12486476E+03 0.85584754E+02 0.45840656E+03 0.56816379E+03 0.29959565E+03 0.0000E+00 0.0000E+00
       23  2    3    3    0    0 -.10217266E+03 0.14597007E+03 0.38623768E+03 0.43517914E+03 0.91950111E+02 0.0000E+00 0.0000E+00
      -24  1    1    2    0    0 0.12486476E+03 -.85584754E+02 0.65598111E+03 0.67800767E+03 0.80419002E+02 0.0000E+00 0.9000E+01
      -13  1    4    4    0    0 -.34027610E+01 -.12943710E+02 0.26972009E+02 0.30110112E+02 0.10565837E+00 0.0000E+00 0.9000E+01
       13  1    4    4    0    0 -.98769901E+02 0.15891378E+03 0.35926567E+03 0.40506903E+03 0.10565837E+00 0.0000E+00 0.9000E+01
       23  1    3    3    0    0 -.22692093E+02 -.60385317E+02 0.72168883E+02 0.13298465E+03 0.91188000E+02 0.0000E+00 0.9000E+01
#aMCatNLO 1  0  0  2  1 0.10843063D+03 0.00000000D+00  -5  7  0 0.00000000D+00 0.00000000D+00 0.00000000D+00 0.00000000D+00 0.00000000D+00
  <mgrwgt>
 0.1433808760D-02    4    2    0
 0.278874253161871D+03 0.000000000000000D+00 0.000000000000000D+00 0.278874253161871D+03
 0.278874253161871D+03 0.000000000000000D+00 0.000000000000000D+00 -.278874253161871D+03
 0.204207680925552D+03 0.124864756160169D+03 -.855847538375529D+02 0.110984699730406D+03
 0.133840952841796D+02 -.340263514984905D+01 -.129439361811031D+02 0.102940529143752D+00
 0.187224794440786D+03 -.987700272635293D+02 0.158914007414119D+03 -.662899806468252D+01
 0.152931935673225D+03 -.226920937467905D+02 -.603853173954630D+02 -.104458642194868D+03
 0.000000000000000D+00 0.000000000000000D+00 -.000000000000000D+00 0.000000000000000D+00
 0.385817754396854D+03 0.000000000000000D+00 0.000000000000000D+00 0.385817754396854D+03
 0.312990615872194D+03 0.000000000000000D+00 0.000000000000000D+00 -.312990615872194D+03
 0.178813676461402D+03 0.921588054605860D+02 -.685293071400981D+02 0.110984699730406D+03
 0.130576642901626D+02 -.566048022394235D+01 -.117665187543472D+02 0.102940529143752D+00
 0.222040674894721D+03 -.133716946031837D+03 0.177138070544647D+03 -.662899806468252D+01
 0.154278618828382D+03 -.489246080861158D+02 -.467056279051866D+02 -.104458642194868D+03
 0.130617735794380D+03 0.961432288813091D+02 -.501366167450156D+02 0.728271385246600D+02
0.237789034482D-04 0.000000000000D+00 0.000000000000D+00 0.195363332271D-05 0.000000000000D+00  7 1 -2 -24 -13 13 23 21 0 0.18158147D+00 0.10137214D-01 0.58468418D+05 0.58468418D+05 0.58468418D+05 0.11413660D+01  1  2  2  2  7  2       -2 0.175680322559D-02 0.100000000000D+01
-.128837010172D-05 0.000000000000D+00 -.913172503700D-07 0.195363332271D-05 0.000000000000D+00  7 1 -2 -24 -13 13 23 21 2 0.18158147D+00 0.10137214D-01 0.58468418D+05 0.58468418D+05 0.58468418D+05 0.11413660D+01  1  2  3  2  7  2       -2 -.124000022597D-03 0.100000000000D+01
0.154820132660D-05 0.000000000000D+00 0.000000000000D+00 0.195363332271D-05 0.000000000000D+00  7 1 -2 -24 -13 13 23 21 2 0.18158147D+00 0.10137214D-01 0.58468418D+05 0.58468418D+05 0.58468418D+05 0.11413660D+01  1  2 15  2  7  2       -2 0.149007648678D-03 0.100000000000D+01
-.361576942526D-05 0.000000000000D+00 0.000000000000D+00 0.195363332271D-05 0.000000000000D+00  7 1 -2 -24 -13 13 23 21 2 0.18158147D+00 0.10137214D-01 0.58468418D+05 0.58468418D+05 0.58468418D+05 0.11413660D+01  1  2  4  2  7  2       -2 -.348002091822D-03 0.100000000000D+01
  </mgrwgt>
  </event>
  <event>
  8     66 0.29493621E-05 0.29890170E+03 0.75467711E-02 0.92346814E-01
        1 -1    0    0  501    0 0.00000000E+00 0.00000000E+00 0.15166597E+03 0.15166631E+03 0.32000000E+00 0.0000E+00 0.9000E+01
       -2 -1    0    0    0  501 0.00000000E+00 0.00000000E+00 -.74749312E+03 0.74749319E+03 0.32000000E+00 0.0000E+00 0.9000E+01
       25  2    1    2    0    0 0.26193888E+03 -.18743537E+02 -.32438700E+03 0.51301151E+03 0.29831290E+03 0.0000E+00 0.0000E+00
       23  2    3    3    0    0 0.21623577E+03 -.23895000E+02 -.82322902E+02 0.25028429E+03 0.92392036E+02 0.0000E+00 0.0000E+00
      -24  1    1    2    0    0 -.26193888E+03 0.18743537E+02 -.27144015E+03 0.38614798E+03 0.80419002E+02 0.0000E+00 0.9000E+01
      -11  1    4    4    0    0 0.10598453E+03 -.31350464E+02 -.85501206E+02 0.13973557E+03 0.51099893E-03 0.0000E+00 0.9000E+01
       11  1    4    4    0    0 0.11025123E+03 0.74554638E+01 0.31783044E+01 0.11054872E+03 0.51099893E-03 0.0000E+00 0.9000E+01
       23  1    3    3    0    0 0.45703111E+02 0.51514635E+01 -.24206410E+03 0.26272722E+03 0.91188000E+02 0.0000E+00 0.9000E+01
#aMCatNLO 1  0  0  1  1 0.46700706D+03 0.00000000D+00  -5  7  0 0.00000000D+00 0.00000000D+00 0.00000000D+00 0.00000000D+00 0.00000000D+00
  <mgrwgt>
 0.9721119471D-03    3    2    0
 0.336703803263714D+03 0.000000000000000D+00 0.000000000000000D+00 0.336703803263714D+03
 0.336703803263714D+03 0.000000000000000D+00 0.000000000000000D+00 -.336703803263714D+03
 0.275430830554918D+03 -.261938877332069D+03 0.187435367511155D+02 -.207757271323044D+02
 0.110929283383121D+03 0.105984533098058D+03 -.313504640872662D+02 0.947275342191384D+01
 0.150421011638586D+03 0.110251233296527D+03 0.745546379767376D+01 0.102056662489678D+03
 0.136626480950803D+03 0.457031109374842D+02 0.515146353847701D+01 -.907536887792876D+02
 0.000000000000000D+00 0.000000000000000D+00 -.000000000000000D+00 -.000000000000000D+00
 0.563593348400552D+03 0.000000000000000D+00 0.000000000000000D+00 0.563593348400552D+03
 0.764154907624917D+03 0.000000000000000D+00 0.000000000000000D+00 -.764154907624917D+03
 0.351596798664205D+03 -.265629581754887D+03 0.214854339810474D+03 -.207757271323044D+02
 0.111873510111052D+03 0.104673108820966D+03 0.383339209699370D+02 0.947275342191384D+01
 0.186783931617316D+03 0.108266434353902D+03 0.112920564753202D+03 0.102056662489678D+03
 0.169241581572725D+03 0.439027618642541D+02 0.100815559626876D+03 -.907536887792876D+02
 0.508252434060171D+03 0.878727671576416D+01 -.466924385160489D+03 -.200561559224365D+03
0.662083189512D-04 0.000000000000D+00 0.000000000000D+00 0.179064097640D-06 0.000000000000D+00  7 1 -2 -24 -11 11 23 21 0 0.23333257D-01 0.11499897D+00 0.89342224D+05 0.89342224D+05 0.89342224D+05 0.11257607D+01  1  2  2  1  7  1        1 0.959363767346D-03 0.100000000000D+01
-.361481443399D-05 0.000000000000D+00 -.254257377823D-06 0.179064097640D-06 0.000000000000D+00  7 1 -2 -24 -11 11 23 21 2 0.23333257D-01 0.11499897D+00 0.89342224D+05 0.89342224D+05 0.89342224D+05 0.11257607D+01  1  2  3  1  7  1        1 -.663817808771D-04 0.100000000000D+01
0.430901551690D-05 0.000000000000D+00 0.000000000000D+00 0.179064097640D-06 0.000000000000D+00  7 1 -2 -24 -11 11 23 21 2 0.23333257D-01 0.11499897D+00 0.89342224D+05 0.89342224D+05 0.89342224D+05 0.11257607D+01  1  2 15  1  7  1        1 0.791299606278D-04 0.100000000000D+01
  </mgrwgt>
  </event>
  <event>
  8     66 0.29493621E-05 0.14545306E+03 0.75467711E-02 0.10221476E+00
        1 -1    0    0  501    0 0.00000000E+00 0.00000000E+00 0.39034317E+03 0.39034330E+03 0.32000000E+00 0.0000E+00 0.9000E+01
       -2 -1    0    0    0  501 0.00000000E+00 0.00000000E+00 -.20198689E+03 0.20198714E+03 0.32000000E+00 0.0000E+00 0.9000E+01
       25  2    1    2    0    0 0.65515422E+02 0.17010100E+03 0.16699053E+03 0.39195497E+03 0.30416482E+03 0.0000E+00 0.0000E+00
       23  2    3    3    0    0 0.31444269E+02 0.20095352E+03 0.35736225E+02 0.22565504E+03 0.90950865E+02 0.0000E+00 0.0000E+00
      -24  1    1    2    0    0 -.65515422E+02 -.17010100E+03 0.21365755E+02 0.20037547E+03 0.80419002E+02 0.0000E+00 0.9000E+01
      -11  1    4    4    0    0 0.11801518E+02 0.16977305E+03 -.56025760E+01 0.17027494E+03 0.51099893E-03 0.0000E+00 0.9000E+01
       11  1    4    4    0    0 0.19642752E+02 0.31180466E+02 0.41338801E+02 0.55380101E+02 0.51099893E-03 0.0000E+00 0.9000E+01
       23  1    3    3    0    0 0.34071153E+02 -.30852524E+02 0.13125431E+03 0.16629993E+03 0.91188000E+02 0.0000E+00 0.9000E+01
#aMCatNLO 1  0  0  2  1 0.30165148D+02 0.00000000D+00  -5  7  0 0.00000000D+00 0.00000000D+00 0.00000000D+00 0.00000000D+00 0.00000000D+00
  <mgrwgt>
 0.9521643744D-03    9    2    0
 0.280792299973918D+03 0.000000000000000D+00 0.000000000000000D+00 0.280792299973918D+03
 0.280792299973918D+03 0.000000000000000D+00 0.000000000000000D+00 -.280792299973918D+03
 0.204179600784685D+03 -.655154220637544D+02 -.170100995950580D+03 -.446707294618243D+02
 0.181476326287026D+03 0.118015175660629D+02 0.169773054151123D+03 -.630197688822534D+02
 0.445469778459159D+02 0.196427516868084D+02 0.311804656806529D+02 0.250274669375974D+02
 0.131381695030210D+03 0.340711528108831D+02 -.308525238811960D+02 0.826630314064802D+02
 0.000000000000000D+00 0.000000000000000D+00 0.000000000000000D+00 -.000000000000000D+00
 0.287700280589834D+03 0.000000000000000D+00 0.000000000000000D+00 0.287700280589834D+03
 0.316177422049388D+03 0.000000000000000D+00 0.000000000000000D+00 -.316177422049388D+03
 0.211862940158614D+03 -.753804068097553D+02 -.175331142860664D+03 -.446707294618243D+02
 0.176906298996290D+03 0.330373480655062D+01 0.165267760591472D+03 -.630197688822534D+02
 0.428944910820522D+02 0.175693849700623D+02 0.300812229746310D+02 0.250274669375974D+02
 0.130730436735199D+03 0.278560860156826D+02 -.341475834511620D+02 0.826630314064802D+02
 0.414835356670668D+02 0.266512010174598D+02 0.141297427457230D+02 -.284771414595539D+02
0.121824077856D-04 0.000000000000D+00 0.000000000000D+00 0.502121781411D-07 0.000000000000D+00  7 1 -2 -24 -11 11 23 21 0 0.60052826D-01 0.31074935D-01 0.64613868D+05 0.64613868D+05 0.64613868D+05 0.11376275D+01  1  2  2  2  7  2       -2 0.778791515305D-03 0.100000000000D+01
-.668649829650D-06 0.000000000000D+00 -.467836535984D-07 0.502121781411D-07 0.000000000000D+00  7 1 -2 -24 -11 11 23 21 2 0.60052826D-01 0.31074935D-01 0.64613868D+05 0.64613868D+05 0.64613868D+05 0.11376275D+01  1  2  3  2  7  2       -2 -.553206145891D-04 0.100000000000D+01
0.790826126331D-06 0.000000000000D+00 0.000000000000D+00 0.502121781411D-07 0.000000000000D+00  7 1 -2 -24 -11 11 23 21 2 0.60052826D-01 0.31074935D-01 0.64613868D+05 0.64613868D+05 0.64613868D+05 0.11376275D+01  1  2 15  2  7  2       -2 0.654288469118D-04 0.100000000000D+01
0.383682392094D-04 0.000000000000D+00 0.000000000000D+00 0.502121781411D-07 0.000000000000D+00  7 1 -2 -24 -11 11 23 21 2 0.60052826D-01 0.35341198D-01 0.72544142D+05 0.72544142D+05 0.72544142D+05 0.11333440D+01  1  2 12  2  7  2       -2 0.250400515495D-02 0.100000000000D+01
-.388991464899D-04 0.000000000000D+00 0.000000000000D+00 0.502121781411D-07 0.000000000000D+00  7 1 -2 -24 -11 11 23 21 2 0.60052826D-01 0.31074935D-01 0.64613868D+05 0.64613868D+05 0.64613868D+05 0.11376275D+01  1  2  4  2  7  2       -2 -.321831337628D-02 0.100000000000D+01
-.724219842892D-04 0.000000000000D+00 -.120871737988D-04 0.502121781411D-07 0.000000000000D+00  7 1 -2 -24 -11 11 23 21 2 0.60052826D-01 0.35705955D-01 0.64613868D+05 0.64613868D+05 0.64613868D+05 0.11376275D+01  1  2  5  2  7  2       -2 -.467854198853D-02 0.100000000000D+01
0.735063907421D-04 0.000000000000D+00 0.119714772908D-04 0.502121781411D-07 0.000000000000D+00  7 1 -2 -24 -11 11 23 21 2 0.60052826D-01 0.31074935D-01 0.64613868D+05 0.64613868D+05 0.64613868D+05 0.11376275D+01  1  2  6  2  7  2       -2 0.608153704938D-02 0.100000000000D+01
0.771603299002D-06 0.000000000000D+00 0.000000000000D+00 0.502121781411D-07 0.000000000000D+00  7 1 21 -24 -11 11 23 2 2 0.60052826D-01 0.35341198D-01 0.72544142D+05 0.72544142D+05 0.72544142D+05 0.11333440D+01  1  2 12  4  7  2       -2 0.584018813947D-03 0.100000000000D+01
-.147877639215D-05 0.000000000000D+00 -.258996807158D-06 0.502121781411D-07 0.000000000000D+00  7 1 21 -24 -11 11 23 2 2 0.60052826D-01 0.35705955D-01 0.64613868D+05 0.64613868D+05 0.64613868D+05 0.11376275D+01  1  2  5  4  7  2       -2 -.110944102668D-02 0.100000000000D+01
  </mgrwgt>
  </event>
  <event>
  9     66 0.29493621E-05 0.24449439E+03 0.75467711E-02 0.95996242E-01
        1 -1    0    0  501    0 0.00000000E+00 0.00000000E+00 0.61720606E+03 0.61720614E+03 0.32000000E+00 0.0000E+00 0.9000E+01
       21 -1    0    0  502  501 0.00000000E+00 0.00000000E+00 -.95042363E+03 0.95042392E+03 0.75000000E+00 0.0000E+00 0.9000E+01
       25  2    1    2    0    0 0.17161327E+03 0.88131539E+02 -.69331681E+03 0.77918485E+03 0.29870142E+03 0.0000E+00 0.0000E+00
       23  2    3    3    0    0 0.14310326E+03 -.49486463E+02 -.44028759E+03 0.47572056E+03 0.97618828E+02 0.0000E+00 0.0000E+00
      -24  1    1    2    0    0 -.81953201E+02 0.20684692E+03 0.41268675E+03 0.47568850E+03 0.80419002E+02 0.0000E+00 0.9000E+01
      -13  1    4    4    0    0 0.15341840E+03 -.55753665E+02 -.37005260E+03 0.40445595E+03 0.10565837E+00 0.0000E+00 0.9000E+01
       13  1    4    4    0    0 -.10315138E+02 0.62672015E+01 -.70234989E+02 0.71264611E+02 0.10565837E+00 0.0000E+00 0.9000E+01
       23  1    3    3    0    0 0.28510010E+02 0.13761800E+03 -.25302922E+03 0.30346429E+03 0.91188000E+02 0.0000E+00 0.9000E+01
        2  1    1    2  502    0 -.89660067E+02 -.29497846E+03 -.52587508E+02 0.31275672E+03 0.32000000E+00 0.0000E+00 0.9000E+01
#aMCatNLO 2  0  0  2  2 0.30830377D+03 0.00000000D+00  -5  7  0 0.00000000D+00 0.00000000D+00 0.00000000D+00 0.00000000D+00 0.00000000D+00
  <mgrwgt>
 0.1625396262D-03    1    2    0
 0.591798669648460D+03 0.000000000000000D+00 0.000000000000000D+00 0.591798669648460D+03
 0.591798669648460D+03 0.000000000000000D+00 0.000000000000000D+00 -.591798669648460D+03
 0.556839430453040D+03 -.124407586485445D+03 0.671734881054786D+02 0.532553668913758D+03
 0.343346602881536D+03 0.128331150564791D+03 -.138290519000657D+03 -.286868851323278D+03
 0.581226225988354D+02 -.146042094458076D+02 -.784299269862376D+01 -.557085611890935D+02
 0.225288683363509D+03 0.106806453664618D+02 0.789600235938026D+02 -.189976256401387D+03
 0.000000000000000D+00 -.000000000000000D+00 -.000000000000000D+00 0.000000000000000D+00
 0.774857691419027D+03 0.000000000000000D+00 0.000000000000000D+00 0.774857691419027D+03
 0.757051774834000D+03 0.000000000000000D+00 0.000000000000000D+00 -.757051774834000D+03
 0.582737162629997D+03 -.819532009979771D+02 0.206846917618731D+03 0.532553668913758D+03
 0.330059812870775D+03 0.153418587194862D+03 -.557537381337493D+02 -.286868851323278D+03
 0.570011272935044D+02 -.103153287454157D+02 0.626727339800301D+01 -.557085611890935D+02
 0.253293831250212D+03 0.285100099623106D+02 0.137618003695280D+03 -.189976256401387D+03
 0.308817532208539D+03 -.896600674137796D+02 -.294978456578265D+03 0.178059165850266D+02
0.134168066853D-04 0.000000000000D+00 0.000000000000D+00 0.195315758394D-06 0.566831648787D-12  7 1 21 -24 -13 13 23 2 2 0.94954797D-01 0.14621903D+00 0.19701105D+06 0.19701105D+06 0.19701105D+06 0.10983280D+01  1  2  1  4  7  2       -2 0.162539626156D-03 0.100000000000D+01
  </mgrwgt>
  </event>
  <event>
  8     66 0.29493621E-05 0.11228024E+03 0.75467711E-02 0.10142361E+00
        1 -1    0    0  501    0 0.00000000E+00 0.00000000E+00 0.74544960E+03 0.74544967E+03 0.32000000E+00 0.0000E+00 0.9000E+01
       -2 -1    0    0    0  501 0.00000000E+00 0.00000000E+00 -.61522916E+03 0.61522924E+03 0.32000000E+00 0.0000E+00 0.9000E+01
       25  2    1    2    0    0 -.12542685E+03 0.14489067E+03 -.54730010E+03 0.65199950E+03 0.29806164E+03 0.0000E+00 0.0000E+00
       23  2    3    3    0    0 -.16023585E+03 0.48283299E+02 -.19167589E+03 0.27077977E+03 0.92602552E+02 0.0000E+00 0.0000E+00
      -24  1    1    2    0    0 0.12542685E+03 -.14489067E+03 0.67752055E+03 0.70867941E+03 0.80419002E+02 0.0000E+00 0.9000E+01
      -13  1    4    4    0    0 -.15144812E+03 0.10155908E+02 -.14558151E+03 0.21031800E+03 0.10565837E+00 0.0000E+00 0.9000E+01
       13  1    4    4    0    0 -.87877293E+01 0.38127391E+02 -.46094385E+02 0.60461770E+02 0.10565837E+00 0.0000E+00 0.9000E+01
       23  1    3    3    0    0 0.34808999E+02 0.96607373E+02 -.35562421E+03 0.38121973E+03 0.91188000E+02 0.0000E+00 0.9000E+01
#aMCatNLO 1  0  0  1  2 0.30397432D+02 0.00000000D+00  -5  7  0 0.00000000D+00 0.00000000D+00 0.00000000D+00 0.00000000D+00 0.00000000D+00
  <mgrwgt>
 0.1706120886D-02    6    2    0
 0.677216681812208D+03 0.000000000000000D+00 0.000000000000000D+00 0.677216681812208D+03
 0.677216681812208D+03 0.000000000000000D+00 0.000000000000000D+00 -.677216681812208D+03
 0.646807829833797D+03 0.125426848694955D+03 -.144890672642275D+03 0.612509552078707D+03
 0.225284791734867D+03 -.151448303967702D+03 0.101558718905808D+02 -.166473742309324D+03
 0.651720537350805D+02 -.878754360575795D+01 0.381274272948133D+02 -.521198134427193D+02
 0.417168688320671D+03 0.348089988785051D+02 0.966073734568813D+02 -.393915996326664D+03
 0.000000000000000D+00 -.000000000000000D+00 0.000000000000000D+00 -.000000000000000D+00
 0.689113029624888D+03 0.000000000000000D+00 0.000000000000000D+00 0.689113029624888D+03
 0.697087413513988D+03 0.000000000000000D+00 0.000000000000000D+00 -.697087413513988D+03
 0.651271547253064D+03 0.134893926094485D+03 -.155958615094479D+03 0.612509552078707D+03
 0.222958966830348D+03 -.148179198525386D+03 0.633396684229858D+01 -.166473742309324D+03
 0.644100098328909D+02 -.784248319801778D+01 0.370225589425968D+02 -.521198134427193D+02
 0.416133900247787D+03 0.408863930983491D+02 0.895023032598289D+02 -.393915996326664D+03
 0.314260189747854D+02 -.197586374694305D+02 0.230997860497549D+02 -.797438388910001D+01
0.356326564508D-03 0.000000000000D+00 0.000000000000D+00 0.150694607433D-05 0.000000000000D+00  7 1 -2 -24 -13 13 23 21 0 0.11468457D+00 0.94650652D-01 0.71844007D+05 0.71844007D+05 0.71844007D+05 0.11337009D+01  1  2  2  1  7  1        1 0.976529453815D-03 0.100000000000D+01
0.881207084066D-06 0.000000000000D+00 -.136838783065D-05 0.150694607433D-05 0.000000000000D+00  7 1 -2 -24 -13 13 23 21 2 0.11468457D+00 0.94650652D-01 0.71844007D+05 0.71844007D+05 0.71844007D+05 0.11337009D+01  1  2  3  1  7  1        1 0.310393132570D-05 0.100000000000D+01
0.217850334322D-04 0.000000000000D+00 0.000000000000D+00 0.150694607433D-05 0.000000000000D+00  7 1 -2 -24 -13 13 23 21 2 0.11468457D+00 0.94650652D-01 0.71844007D+05 0.71844007D+05 0.71844007D+05 0.11337009D+01  1  2 15  1  7  1        1 0.767347981245D-04 0.100000000000D+01
0.499123339402D-03 0.000000000000D+00 0.000000000000D+00 0.150694607433D-05 0.000000000000D+00  7 1 -2 -24 -13 13 23 21 2 0.11834318D+00 0.94650652D-01 0.81807594D+05 0.81807594D+05 0.81807594D+05 0.11289494D+01  1  2 12  1  7  1        1 0.165204299263D-02 0.100000000000D+01
-.296968969235D-03 0.000000000000D+00 0.000000000000D+00 0.150694607433D-05 0.000000000000D+00  7 1 -2 -24 -13 13 23 21 2 0.11468457D+00 0.94650652D-01 0.71844007D+05 0.71844007D+05 0.71844007D+05 0.11337009D+01  1  2  4  1  7  1        1 -.104603254222D-02 0.100000000000D+01
0.690326101573D-05 0.000000000000D+00 0.000000000000D+00 0.150694607433D-05 0.000000000000D+00  7 21 -2 -24 -13 13 23 -1 2 0.11834318D+00 0.94650652D-01 0.81807594D+05 0.81807594D+05 0.81807594D+05 0.11289494D+01  1  2 12  3  7  1        1 0.437422520760D-04 0.100000000000D+01
  </mgrwgt>
  </event>
  <event>
  8     66 0.29493621E-05 0.17830913E+03 0.75467711E-02 0.10629905E+00
        1 -1    0    0  501    0 0.00000000E+00 0.00000000E+00 0.11286738E+03 0.11286783E+03 0.32000000E+00 0.0000E+00 0.9000E+01
       -2 -1    0    0    0  501 0.00000000E+00 0.00000000E+00 -.33732533E+03 0.33732548E+03 0.32000000E+00 0.0000E+00 0.9000E+01
       25  2    1    2    0    0 -.13295975E+02 -.28103089E+02 -.15266216E+03 0.33799519E+03 0.29994741E+03 0.0000E+00 0.0000E+00
       23  2    3    3    0    0 -.17336423E+02 0.91380706E+02 -.70738916E+01 0.12870139E+03 0.88673680E+02 0.0000E+00 0.0000E+00
      -24  1    1    2    0    0 0.13295975E+02 0.28103089E+02 -.71795799E+02 0.11219812E+03 0.80419002E+02 0.0000E+00 0.9000E+01
      -11  1    4    4    0    0 -.45586862E+02 0.73864512E+02 -.25795955E+02 0.90551418E+02 0.51099893E-03 0.0000E+00 0.9000E+01
       11  1    4    4    0    0 0.28250438E+02 0.17516194E+02 0.18722063E+02 0.38149967E+02 0.51099893E-03 0.0000E+00 0.9000E+01
       23  1    3    3    0    0 0.40404483E+01 -.11948380E+03 -.14558826E+03 0.20929380E+03 0.91188000E+02 0.0000E+00 0.9000E+01
#aMCatNLO 1  0  0  2  2 0.42316826D+02 0.00000000D+00  -5  7  0 0.00000000D+00 0.00000000D+00 0.00000000D+00 0.00000000D+00 0.00000000D+00
  <mgrwgt>
 0.1037397041D-02    4    2    0
 0.195123452809500D+03 0.000000000000000D+00 0.000000000000000D+00 0.195123452809500D+03
 0.195123452809500D+03 0.000000000000000D+00 0.000000000000000D+00 -.195123452809500D+03
 0.881383236689423D+02 0.132959761461778D+02 0.281030912538107D+02 -.182915670488058D+02
 0.896241205979452D+02 -.455868618609520D+02 0.738645110527519D+02 0.223238667251756D+02
 0.547785916433506D+02 0.282504380073550D+02 0.175161935507452D+02 0.435406685561256D+02
 0.157705869708763D+03 0.404044770741916D+01 -.119483795857308D+03 -.475729682324954D+02
 0.000000000000000D+00 -.000000000000000D+00 0.000000000000000D+00 0.000000000000000D+00
 0.250533654666934D+03 0.000000000000000D+00 0.000000000000000D+00 0.250533654666934D+03
 0.204516912681778D+03 0.000000000000000D+00 0.000000000000000D+00 -.204516912681778D+03
 0.858879690380539D+02 0.148516636520637D+02 0.188248222508523D+02 -.182915670488058D+02
 0.814327654217568D+02 -.440577190157117D+02 0.647445569434532D+02 0.223238667251756D+02
 0.537330296804607D+02 0.292204648401456D+02 0.117308607890769D+02 0.435406685561256D+02
 0.171480770788567D+03 0.698317283107887D+01 -.137034489808232D+03 -.475729682324954D+02
 0.625160324198733D+02 -.699758230757652D+01 0.417342498248491D+02 0.460167419851561D+02
0.103192022200D-04 0.000000000000D+00 0.000000000000D+00 0.125455636027D-06 0.000000000000D+00  7 1 -2 -24 -11 11 23 21 0 0.17364258D-01 0.51896252D-01 0.31794146D+05 0.31794146D+05 0.31794146D+05 0.11650026D+01  1  2  2  2  7  2       -2 0.126869838640D-02 0.100000000000D+01
-.567628744093D-06 0.000000000000D+00 -.396284536330D-07 0.125455636027D-06 0.000000000000D+00  7 1 -2 -24 -11 11 23 21 2 0.17364258D-01 0.51896252D-01 0.31794146D+05 0.31794146D+05 0.31794146D+05 0.11650026D+01  1  2  3  2  7  2       -2 -.947175499221D-04 0.100000000000D+01
0.663758426130D-06 0.000000000000D+00 0.000000000000D+00 0.125455636027D-06 0.000000000000D+00  7 1 -2 -24 -11 11 23 21 2 0.17364258D-01 0.51896252D-01 0.31794146D+05 0.31794146D+05 0.31794146D+05 0.11650026D+01  1  2 15  2  7  2       -2 0.110758259721D-03 0.100000000000D+01
-.148228559863D-05 0.000000000000D+00 0.000000000000D+00 0.125455636027D-06 0.000000000000D+00  7 1 -2 -24 -11 11 23 21 2 0.17364258D-01 0.51896252D-01 0.31794146D+05 0.31794146D+05 0.31794146D+05 0.11650026D+01  1  2  4  2  7  2       -2 -.247342055257D-03 0.100000000000D+01
  </mgrwgt>
  </event>
  <event>
  8     66 0.29493621E-05 0.17449652E+03 0.75467711E-02 0.10721298E+00
        1 -1    0    0  501    0 0.00000000E+00 0.00000000E+00 0.31625856E+03 0.31625873E+03 0.32000000E+00 0.0000E+00 0.9000E+01
       -2 -1    0    0    0  501 0.00000000E+00 0.00000000E+00 -.15597138E+03 0.15597171E+03 0.32000000E+00 0.0000E+00 0.9000E+01
       25  2    1    2    0    0 -.40907398E+01 -.73549521E+01 0.74088645E+01 0.29928586E+03 0.29907575E+03 0.0000E+00 0.0000E+00
       23  2    3    3    0    0 -.17487610E+02 0.93094822E+02 -.62175774E+02 0.14622736E+03 0.92434574E+02 0.0000E+00 0.0000E+00
      -24  1    1    2    0    0 0.40907398E+01 0.73549521E+01 0.15287832E+03 0.17294457E+03 0.80419002E+02 0.0000E+00 0.9000E+01
      -11  1    4    4    0    0 -.54327686E+02 0.68863834E+02 -.35051649E+02 0.94458155E+02 0.51099893E-03 0.0000E+00 0.9000E+01
       11  1    4    4    0    0 0.36840076E+02 0.24230989E+02 -.27124125E+02 0.51769201E+02 0.51099893E-03 0.0000E+00 0.9000E+01
       23  1    3    3    0    0 0.13396870E+02 -.10044977E+03 0.69584638E+02 0.15305851E+03 0.91188000E+02 0.0000E+00 0.9000E+01
#aMCatNLO 1  0  0  1  1 0.27532789D+02 0.00000000D+00  -5  7  0 0.00000000D+00 0.00000000D+00 0.00000000D+00 0.00000000D+00 0.00000000D+00
  <mgrwgt>
 0.7058666798D-03    3    2    0
 0.222097728656415D+03 0.000000000000000D+00 0.000000000000000D+00 0.222097728656415D+03
 0.222097728656415D+03 0.000000000000000D+00 0.000000000000000D+00 -.222097728656415D+03
 0.128693924331575D+03 0.409073976727030D+01 0.735495206669048D+01 0.100120331270646D+03
 0.113068121567437D+03 -.543276858176057D+02 0.688638336776365D+02 -.713489669141119D+02
 0.648242601838703D+02 0.368400761152113D+02 0.242309885028744D+02 -.475168674933976D+02
 0.137609151229947D+03 0.133968699351241D+02 -.100449774247201D+03 0.187455031368640D+02
 0.000000000000000D+00 0.000000000000000D+00 0.000000000000000D+00 -.000000000000000D+00
 0.223314747711818D+03 0.000000000000000D+00 0.000000000000000D+00 0.223314747711818D+03
 0.462176963766702D+03 0.000000000000000D+00 0.000000000000000D+00 -.462176963766702D+03
 0.128502756975645D+03 -.293723960539938D+01 0.361033041808138D+01 0.100120331270646D+03
 0.114249853245208D+03 -.605392202351591D+02 0.655542271723153D+02 -.713489669141119D+02
 0.622271488008047D+02 0.333683568182336D+02 0.223812000291187D+02 -.475168674933976D+02
 0.140068169587450D+03 0.580925071296238D+01 -.104492581104490D+03 0.187455031368640D+02
 0.240443782869413D+03 0.242988523093626D+02 0.129468234849742D+02 -.238862216054884D+03
0.531550728744D-05 0.000000000000D+00 0.000000000000D+00 0.193658310445D-06 0.000000000000D+00  7 1 -2 -24 -11 11 23 21 0 0.48655201D-01 0.23995635D-01 0.30449034D+05 0.30449034D+05 0.30449034D+05 0.11667377D+01  1  2  2  1  7  1        1 0.695906398851D-03 0.100000000000D+01
-.274415204927D-06 0.000000000000D+00 -.204129475890D-07 0.193658310445D-06 0.000000000000D+00  7 1 -2 -24 -11 11 23 21 2 0.48655201D-01 0.23995635D-01 0.30449034D+05 0.30449034D+05 0.30449034D+05 0.11667377D+01  1  2  3  1  7  1        1 -.489058458947D-04 0.100000000000D+01
0.330303258320D-06 0.000000000000D+00 0.000000000000D+00 0.193658310445D-06 0.000000000000D+00  7 1 -2 -24 -11 11 23 21 2 0.48655201D-01 0.23995635D-01 0.30449034D+05 0.30449034D+05 0.30449034D+05 0.11667377D+01  1  2 15  1  7  1        1 0.588661268031D-04 0.100000000000D+01
  </mgrwgt>
  </event>
  <event>
  9     66 0.29493621E-05 0.19823992E+03 0.75467711E-02 0.10614328E+00
        1 -1    0    0  502    0 0.00000000E+00 0.00000000E+00 0.82753167E+03 0.82753173E+03 0.32000000E+00 0.0000E+00 0.9000E+01
       -2 -1    0    0    0  501 0.00000000E+00 0.00000000E+00 -.12670093E+03 0.12670134E+03 0.32000000E+00 0.0000E+00 0.9000E+01
       25  2    1    2    0    0 -.72177697E+02 -.11149128E+02 0.90624417E+02 0.32204918E+03 0.30028148E+03 0.0000E+00 0.0000E+00
       23  2    3    3    0    0 0.23459021E+02 -.10011090E+03 -.25554075E+01 0.13750025E+03 0.91253881E+02 0.0000E+00 0.0000E+00
      -24  1    1    2    0    0 0.78550877E+02 0.16587174E+02 0.61290516E+03 0.62335008E+03 0.80419002E+02 0.0000E+00 0.9000E+01
      -13  1    4    4    0    0 -.17782912E+02 -.71438048E+02 -.30882544E+02 0.79833385E+02 0.10565837E+00 0.0000E+00 0.9000E+01
       13  1    4    4    0    0 0.41241933E+02 -.28672850E+02 0.28327137E+02 0.57666864E+02 0.10565837E+00 0.0000E+00 0.9000E+01
       23  1    3    3    0    0 -.95636718E+02 0.88961770E+02 0.93179824E+02 0.18454894E+03 0.91188000E+02 0.0000E+00 0.9000E+01
       21  1    1    2  502  501 -.63731805E+01 -.54380461E+01 -.26988433E+01 0.88338005E+01 0.75000000E+00 0.0000E+00 0.9000E+01
#aMCatNLO 2  0  0  1  1 0.83779338D+01 0.00000000D+00  -5  7  0 0.00000000D+00 0.00000000D+00 0.00000000D+00 0.00000000D+00 0.00000000D+00
  <mgrwgt>
 0.1514517305D-03    2    2    0
 0.315735537609722D+03 0.000000000000000D+00 0.000000000000000D+00 0.315735537609722D+03
 0.315735537609722D+03 0.000000000000000D+00 0.000000000000000D+00 -.315735537609722D+03
 0.249460330360693D+03 0.760286765530932D+02 0.144350549954940D+02 0.223102017019474D+03
 0.154723014997350D+03 -.193403998203218D+02 -.727669964189052D+02 -.135167024591175D+03
 0.546061903109836D+02 0.406900879115738D+02 -.291437333321359D+02 -.218356491429292D+02
 0.172681539550418D+03 -.973783646443453D+02 0.874756747555472D+02 -.660993432853693D+02
 0.000000000000000D+00 -.000000000000000D+00 -.000000000000000D+00 -.000000000000000D+00
 0.316929503026910D+03 0.000000000000000D+00 0.000000000000000D+00 0.316929503026910D+03
 0.330810287618540D+03 0.000000000000000D+00 0.000000000000000D+00 -.330810287618540D+03
 0.250373921646362D+03 0.785508773886214D+02 0.165871742478381D+02 0.223102017019474D+03
 0.153914788630554D+03 -.177829904930095D+02 -.714381051784156D+02 -.135167024591175D+03
 0.547706871425370D+02 0.412420117755207D+02 -.286727930498647D+02 -.218356491429292D+02
 0.172467251752505D+03 -.956367181559139D+02 0.889617701075637D+02 -.660993432853693D+02
 0.162131414734924D+02 -.637318051521880D+01 -.543804612712145D+01 -.138807845916293D+02
-.275507430381D-05 0.000000000000D+00 0.000000000000D+00 0.420602244698D-05 0.000000000000D+00  7 1 -2 -24 -13 13 23 21 2 0.12682952D+00 0.18603724D-01 0.39299065D+05 0.39299065D+05 0.39299065D+05 0.11566101D+01  1  2  8  1  7  1        1 -.194228925090D-03 0.100000000000D+01
0.533831653839D-05 0.000000000000D+00 0.000000000000D+00 0.420602244698D-05 0.426783823186D-06  7 1 -2 -24 -13 13 23 21 2 0.12730913D+00 0.19491956D-01 0.41038135D+05 0.41038135D+05 0.41038135D+05 0.11549181D+01  1  2  1  1  7  1        1 0.345680655590D-03 0.100000000000D+01
  </mgrwgt>
  </event>
  <event>
  9     66 0.29493621E-05 0.49189040E+03 0.75467711E-02 0.89762328E-01
        1 -1    0    0  501    0 0.00000000E+00 0.00000000E+00 0.62393111E+03 0.62393120E+03 0.32000000E+00 0.0000E+00 0.9000E+01
       21 -1    0    0  502  501 0.00000000E+00 0.00000000E+00 -.12494571E+04 0.12494573E+04 0.75000000E+00 0.0000E+00 0.9000E+01
       25  2    1    2    0    0 0.14438949E+03 -.48940070E+03 -.60655680E+02 0.59549155E+03 0.30094802E+03 0.0000E+00 0.0000E+00
       23  2    3    3    0    0 -.42619003E+02 -.71929885E+02 0.11873194E+02 0.12344310E+03 0.90038532E+02 0.0000E+00 0.0000E+00
      -24  1    1    2    0    0 -.50997081E+03 0.19168298E+03 -.11384662E+02 0.55082613E+03 0.80419002E+02 0.0000E+00 0.9000E+01
      -13  1    4    4    0    0 -.12703265E+02 -.19540262E+02 0.47833403E+02 0.53209401E+02 0.10565837E+00 0.0000E+00 0.9000E+01
       13  1    4    4    0    0 -.29915738E+02 -.52389624E+02 -.35960209E+02 0.70233695E+02 0.10565837E+00 0.0000E+00 0.9000E+01
       23  1    3    3    0    0 0.18700850E+03 -.41747081E+03 -.72528873E+02 0.47204846E+03 0.91188000E+02 0.0000E+00 0.9000E+01
        2  1    1    2  502    0 0.36558132E+03 0.29771772E+03 -.55348562E+03 0.72707082E+03 0.32000000E+00 0.0000E+00 0.9000E+01
#aMCatNLO 2  0  0  2  1 0.47147168D+03 0.00000000D+00  -5  7  0 0.00000000D+00 0.00000000D+00 0.00000000D+00 0.00000000D+00 0.00000000D+00
  <mgrwgt>
 0.7106898337D-04    2    2    0
 0.521193070819976D+03 0.000000000000000D+00 0.000000000000000D+00 0.521193070819976D+03
 0.521193070819976D+03 0.000000000000000D+00 0.000000000000000D+00 -.521193070819976D+03
 0.480851737640522D+03 -.337407524791752D+03 0.332212994186239D+03 0.232780227952541D+02
 0.517843193346521D+02 0.537338054488711D+01 -.481919418658861D+01 0.512788248487132D+02
 0.492961102544801D+02 -.102852457009301D+02 -.364032055217827D+02 -.316089676331293D+02
 0.460453974410297D+03 0.342319389947795D+03 -.290990594477867D+03 -.429478800108381D+02
 0.000000000000000D+00 0.000000000000000D+00 0.000000000000000D+00 -.000000000000000D+00
 0.664455628929973D+03 0.000000000000000D+00 0.000000000000000D+00 0.664455628929973D+03
 0.117325419697540D+04 0.000000000000000D+00 0.000000000000000D+00 -.117325419697540D+04
 0.551200215446721D+03 -.509970814196253D+03 0.191682977535554D+03 0.232780227952541D+02
 0.563268167465445D+02 -.127032416712930D+02 -.195402164259900D+02 0.512788248487132D+02
 0.681084211016869D+02 -.299157614527872D+02 -.523896688940905D+02 -.316089676331293D+02
 0.468416298073226D+03 0.187008497729308D+03 -.417470811358384D+03 -.429478800108381D+02
 0.693658074537198D+03 0.365581319591025D+03 0.297717719142910D+03 -.508798568045432D+03
-.194842494191D-07 0.000000000000D+00 0.000000000000D+00 0.135142501461D-05 0.000000000000D+00  7 1 21 -24 -13 13 23 2 2 0.75293246D-01 0.19078917D+00 0.61799977D+06 0.61799977D+06 0.61799977D+06 0.10620672D+01  1  2 13  4  7  2       -2 -.121200915452D-06 0.100000000000D+01
0.166722713928D-04 0.000000000000D+00 0.000000000000D+00 0.135142501461D-05 0.672114927633D-11  7 1 21 -24 -13 13 23 2 2 0.95989421D-01 0.19222418D+00 0.61799977D+06 0.61799977D+06 0.61799977D+06 0.10620672D+01  1  2  1  4  7  2       -2 0.711901842892D-04 0.100000000000D+01
  </mgrwgt>
  </event>
  <event>
  8     66 0.29493621E-05 0.15417330E+03 0.75467711E-02 0.10303532E+00
        1 -1    0    0  501    0 0.00000000E+00 0.00000000E+00 0.85883813E+03 0.85883819E+03 0.32000000E+00 0.0000E+00 0.9000E+01
       -2 -1    0    0    0  501 0.00000000E+00 0.00000000E+00 -.89865650E+02 0.89866220E+02 0.32000000E+00 0.0000E+00 0.9000E+01
       25  2    1    2    0    0 0.18494386E+03 0.13836782E+02 0.51206901E+03 0.62180642E+03 0.30005476E+03 0.0000E+00 0.0000E+00
       23  2    3    3    0    0 0.70052901E+02 0.68691028E+02 0.41884870E+03 0.43955879E+03 0.90287481E+02 0.0000E+00 0.0000E+00
      -24  1    1    2    0    0 -.18494386E+03 -.13836782E+02 0.25690347E+03 0.32689799E+03 0.80419002E+02 0.0000E+00 0.9000E+01
      -11  1    4    4    0    0 0.72343930E+02 0.81754621E+02 0.28727082E+03 0.30731415E+03 0.51099893E-03 0.0000E+00 0.9000E+01
       11  1    4    4    0    0 -.22910290E+01 -.13063593E+02 0.13157788E+03 0.13224464E+03 0.51099893E-03 0.0000E+00 0.9000E+01
       23  1    3    3    0    0 0.11489096E+03 -.54854246E+02 0.93220317E+02 0.18224763E+03 0.91188000E+02 0.0000E+00 0.9000E+01
#aMCatNLO 1  0  0  2  1 0.25164635D+02 0.00000000D+00  -5  7  0 0.00000000D+00 0.00000000D+00 0.00000000D+00 0.00000000D+00 0.00000000D+00
  <mgrwgt>
 0.5190815915D-03    9    2    0
 0.277813508568777D+03 0.000000000000000D+00 0.000000000000000D+00 0.277813508568777D+03
 0.277813508568777D+03 0.000000000000000D+00 0.000000000000000D+00 -.277813508568777D+03
 0.202614101364398D+03 -.184943862295597D+03 -.138367821381333D+02 -.137684195382351D+02
 0.127148124559840D+03 0.723439299475664D+02 0.817546209706108D+02 0.651857601687508D+02
 0.437007261947512D+02 -.229102901946845D+01 -.130635925550961D+02 0.416394909375104D+02
 0.182164065018565D+03 0.114890961367499D+03 -.548542462773815D+02 -.930568315680261D+02
 0.000000000000000D+00 0.000000000000000D+00 0.000000000000000D+00 -.000000000000000D+00
 0.282801534804992D+03 0.000000000000000D+00 0.000000000000000D+00 0.282801534804992D+03
 0.311759051597464D+03 0.000000000000000D+00 0.000000000000000D+00 -.311759051597464D+03
 0.210173277024450D+03 -.192760934768337D+03 -.189537086471666D+02 -.137684195382351D+02
 0.122509158105927D+03 0.676160986859546D+02 0.786598607266523D+02 0.651857601687508D+02
 0.441563790730626D+02 -.395480411308739D+01 -.141526722471799D+02 0.416394909375104D+02
 0.179357770655561D+03 0.108044719118105D+03 -.593356833595316D+02 -.930568315680261D+02
 0.383640015434558D+02 0.210549210773648D+02 0.137822035272259D+02 -.289575167924727D+02
0.703189156708D-05 0.000000000000D+00 0.000000000000D+00 0.144857063265D-05 0.000000000000D+00  7 1 -2 -24 -11 11 23 21 0 0.13212899D+00 0.13825533D-01 0.57883020D+05 0.57883020D+05 0.57883020D+05 0.11417445D+01  1  2  2  2  7  2       -2 0.556479430819D-03 0.100000000000D+01
-.380830414905D-06 0.000000000000D+00 -.270043151572D-07 0.144857063265D-05 0.000000000000D+00  7 1 -2 -24 -11 11 23 21 2 0.13212899D+00 0.13825533D-01 0.57883020D+05 0.57883020D+05 0.57883020D+05 0.11417445D+01  1  2  3  2  7  2       -2 -.392867771640D-04 0.100000000000D+01
0.458250021641D-06 0.000000000000D+00 0.000000000000D+00 0.144857063265D-05 0.000000000000D+00  7 1 -2 -24 -11 11 23 21 2 0.13212899D+00 0.13825533D-01 0.57883020D+05 0.57883020D+05 0.57883020D+05 0.11417445D+01  1  2 15  2  7  2       -2 0.472734471330D-04 0.100000000000D+01
0.296693797940D-04 0.000000000000D+00 0.000000000000D+00 0.144857063265D-05 0.000000000000D+00  7 1 -2 -24 -11 11 23 21 2 0.13212899D+00 0.15629198D-01 0.64170240D+05 0.64170240D+05 0.64170240D+05 0.11378840D+01  1  2 12  2  7  2       -2 0.250121459607D-02 0.100000000000D+01
-.301803170307D-04 0.000000000000D+00 0.000000000000D+00 0.144857063265D-05 0.000000000000D+00  7 1 -2 -24 -11 11 23 21 2 0.13212899D+00 0.13825533D-01 0.57883020D+05 0.57883020D+05 0.57883020D+05 0.11417445D+01  1  2  4  2  7  2       -2 -.311342619581D-02 0.100000000000D+01
-.508730676597D-04 0.000000000000D+00 -.746730860816D-05 0.144857063265D-05 0.000000000000D+00  7 1 -2 -24 -11 11 23 21 2 0.13212899D+00 0.15768455D-01 0.57883020D+05 0.57883020D+05 0.57883020D+05 0.11417445D+01  1  2  5  2  7  2       -2 -.426014085863D-02 0.100000000000D+01
0.514734233585D-04 0.000000000000D+00 0.740321277800D-05 0.144857063265D-05 0.000000000000D+00  7 1 -2 -24 -11 11 23 21 2 0.13212899D+00 0.13825533D-01 0.57883020D+05 0.57883020D+05 0.57883020D+05 0.11417445D+01  1  2  6  2  7  2       -2 0.531004046475D-02 0.100000000000D+01
0.573253009271D-06 0.000000000000D+00 0.000000000000D+00 0.144857063265D-05 0.000000000000D+00  7 1 21 -24 -11 11 23 2 2 0.13212899D+00 0.15629198D-01 0.64170240D+05 0.64170240D+05 0.64170240D+05 0.11378840D+01  1  2 12  4  7  2       -2 0.656468475543D-03 0.100000000000D+01
-.100099561102D-05 0.000000000000D+00 -.152923321103D-06 0.144857063265D-05 0.000000000000D+00  7 1 21 -24 -11 11 23 2 2 0.13212899D+00 0.15768455D-01 0.57883020D+05 0.57883020D+05 0.57883020D+05 0.11417445D+01  1  2  5  4  7  2       -2 -.113954099124D-02 0.100000000000D+01
  </mgrwgt>
  </event>
  <event>
  8     66 0.29493621E-05 0.18030460E+03 0.75467711E-02 0.10368269E+00
        1 -1    0    0  501    0 0.00000000E+00 0.00000000E+00 0.56854002E+03 0.56854011E+03 0.32000000E+00 0.0000E+00 0.9000E+01
       -2 -1    0    0    0  501 0.00000000E+00 0.00000000E+00 -.14861054E+03 0.14861089E+03 0.32000000E+00 0.0000E+00 0.9000E+01
       25  2    1    2    0    0 -.14396421E+02 0.11539583E+03 0.54247451E+02 0.32508721E+03 0.29868957E+03 0.0000E+00 0.0000E+00
       23  2    3    3    0    0 -.98688022E+02 -.17623110E+02 -.46149052E+01 0.13383048E+03 0.88540382E+02 0.0000E+00 0.0000E+00
      -24  1    1    2    0    0 0.14396421E+02 -.11539583E+03 0.36568202E+03 0.39206378E+03 0.80419002E+02 0.0000E+00 0.9000E+01
      -13  1    4    4    0    0 -.10971328E+02 0.31386909E+02 -.21880401E+01 0.33321266E+02 0.10565837E+00 0.0000E+00 0.9000E+01
       13  1    4    4    0    0 -.87716694E+02 -.49010019E+02 -.24268651E+01 0.10050921E+03 0.10565837E+00 0.0000E+00 0.9000E+01
       23  1    3    3    0    0 0.84291601E+02 0.13301894E+03 0.58862357E+02 0.19125674E+03 0.91188000E+02 0.0000E+00 0.9000E+01
#aMCatNLO 1  0  0  2  1 0.27558185D+02 0.00000000D+00  -5  7  0 0.00000000D+00 0.00000000D+00 0.00000000D+00 0.00000000D+00 0.00000000D+00
  <mgrwgt>
 0.5752095952D-03    7    2    0
 0.290673695721337D+03 0.000000000000000D+00 0.000000000000000D+00 0.290673695721337D+03
 0.290673695721337D+03 0.000000000000000D+00 0.000000000000000D+00 -.290673695721337D+03
 0.219504338865263D+03 0.143964208291301D+02 -.115395826126083D+03 0.167903201894112D+03
 0.426855497387585D+02 -.109712188376793D+02 0.313870232951003D+02 -.267683261035987D+02
 0.125741443677850D+03 -.877168026760367D+02 -.490101328721488D+02 -.755955029240336D+02
 0.193416059160802D+03 0.842916006845859D+02 0.133018935703132D+03 -.655393728664797D+02
 0.000000000000000D+00 -.000000000000000D+00 -.000000000000000D+00 -.000000000000000D+00
 0.291424621901938D+03 0.000000000000000D+00 0.000000000000000D+00 0.291424621901938D+03
 0.738245249557253D+03 0.000000000000000D+00 0.000000000000000D+00 -.738245249557253D+03
 0.216487236996198D+03 0.218990666162950D+02 -.108297984759263D+03 0.167903201894112D+03
 0.433782010011354D+02 -.949021353238085D+01 0.327881211236039D+02 -.267683261035987D+02
 0.121265402671284D+03 -.834662506521805D+02 -.449889189107537D+02 -.755955029240336D+02
 0.200869368161035D+03 0.910765572388306D+02 0.139437810679901D+03 -.655393728664797D+02
 0.447669662629540D+03 -.200191596705642D+02 -.189390281334885D+02 -.446820627655315D+03
0.960937139960D-05 0.000000000000D+00 0.000000000000D+00 0.127283715146D-06 0.000000000000D+00  7 1 -2 -24 -13 13 23 21 0 0.87467728D-01 0.22863194D-01 0.52233078D+05 0.52233078D+05 0.52233078D+05 0.11456300D+01  1  2  2  2  7  2       -2 0.623591179672D-03 0.100000000000D+01
-.496321230133D-06 0.000000000000D+00 -.369025163801D-07 0.127283715146D-06 0.000000000000D+00  7 1 -2 -24 -13 13 23 21 2 0.87467728D-01 0.22863194D-01 0.52233078D+05 0.52233078D+05 0.52233078D+05 0.11456300D+01  1  2  3  2  7  2       -2 -.422723720747D-04 0.100000000000D+01
0.606513402162D-06 0.000000000000D+00 0.000000000000D+00 0.127283715146D-06 0.000000000000D+00  7 1 -2 -24 -13 13 23 21 2 0.87467728D-01 0.22863194D-01 0.52233078D+05 0.52233078D+05 0.52233078D+05 0.11456300D+01  1  2 15  2  7  2       -2 0.516575932035D-04 0.100000000000D+01
0.622341893877D-03 0.000000000000D+00 0.000000000000D+00 0.127283715146D-06 0.000000000000D+00  7 1 -2 -24 -13 13 23 21 2 0.87467728D-01 0.58044565D-01 0.58333089D+05 0.58333089D+05 0.58333089D+05 0.11414531D+01  1  2 12  2  7  2       -2 0.961775389532D-02 0.100000000000D+01
-.618644328510D-03 0.000000000000D+00 -.298835876166D-05 0.127283715146D-06 0.000000000000D+00  7 1 -2 -24 -13 13 23 21 2 0.87467728D-01 0.58109868D-01 0.52233078D+05 0.52233078D+05 0.52233078D+05 0.11456300D+01  1  2  5  2  7  2       -2 -.963603819437D-02 0.100000000000D+01
0.639845255438D-04 0.000000000000D+00 0.000000000000D+00 0.127283715146D-06 0.000000000000D+00  7 1 21 -24 -13 13 23 2 2 0.87467728D-01 0.58044565D-01 0.58333089D+05 0.58333089D+05 0.58333089D+05 0.11414531D+01  1  2 12  4  7  2       -2 0.105462662694D-01 0.100000000000D+01
-.635100514668D-04 0.000000000000D+00 -.307668616293D-06 0.127283715146D-06 0.000000000000D+00  7 1 21 -24 -13 13 23 2 2 0.87467728D-01 0.58109868D-01 0.52233078D+05 0.52233078D+05 0.52233078D+05 0.11456300D+01  1  2  5  4  7  2       -2 -.105857487759D-01 0.100000000000D+01
  </mgrwgt>
  </event>
  <event>
  8     66 0.29493621E-05 0.13956384E+03 0.75467711E-02 0.96058850E-01
        1 -1    0    0  501    0 0.00000000E+00 0.00000000E+00 0.20554174E+04 0.20554174E+04 0.32000000E+00 0.0000E+00 0.9000E+01
       -2 -1    0    0    0  501 0.00000000E+00 0.00000000E+00 -.88041556E+02 0.88042137E+02 0.32000000E+00 0.0000E+00 0.9000E+01
       25  2    1    2    0    0 0.31381734E+03 0.11364480E+03 0.14863557E+04 0.15524908E+04 0.29929586E+03 0.0000E+00 0.0000E+00
       23  2    3    3    0    0 0.34246164E+02 -.54141671E+02 0.38157200E+03 0.39699326E+03 0.88895073E+02 0.0000E+00 0.0000E+00
      -24  1    1    2    0    0 -.31381734E+03 -.11364480E+03 0.48102016E+03 0.59096876E+03 0.80419002E+02 0.0000E+00 0.9000E+01
      -13  1    4    4    0    0 0.15884101E+02 -.42077994E+02 0.61622408E+02 0.76290200E+02 0.10565837E+00 0.0000E+00 0.9000E+01
       13  1    4    4    0    0 0.18362062E+02 -.12063677E+02 0.31994959E+03 0.32070306E+03 0.10565837E+00 0.0000E+00 0.9000E+01
       23  1    3    3    0    0 0.27957118E+03 0.16778647E+03 0.11047837E+04 0.11554976E+04 0.91188000E+02 0.0000E+00 0.9000E+01
#aMCatNLO 1  0  0  1  2 0.13021495D+03 0.00000000D+00  -5  7  0 0.00000000D+00 0.00000000D+00 0.00000000D+00 0.00000000D+00 0.00000000D+00
  <mgrwgt>
 0.1059257127D-02    9    2    0
 0.425397222275687D+03 0.000000000000000D+00 0.000000000000000D+00 0.425397222275687D+03
 0.425397222275687D+03 0.000000000000000D+00 0.000000000000000D+00 -.425397222275687D+03
 0.376554169327577D+03 -.313817342041606D+03 -.113644795857698D+03 -.154691184920198D+03
 0.497070708110461D+02 0.158840978611572D+02 -.420780365980305D+02 -.211642897307313D+02
 0.681162837386325D+02 0.183620655619014D+02 -.120636348969691D+02 0.644758200547691D+02
 0.356416920674119D+03 0.279571178618547D+03 0.167786467352697D+03 0.111379654596160D+03
 0.000000000000000D+00 0.000000000000000D+00 -.000000000000000D+00 0.000000000000000D+00
 0.693298458476393D+03 0.000000000000000D+00 0.000000000000000D+00 0.693298458476393D+03
 0.446471776344154D+03 0.000000000000000D+00 0.000000000000000D+00 -.446471776344154D+03
 0.399932575638769D+03 -.353144337690944D+03 -.695597812496471D+02 -.154691184920198D+03
 0.438617650856344D+02 0.111450843157529D+02 -.367656683907120D+02 -.211642897307313D+02
 0.656608545975661D+02 0.115866080651265D+02 -.446844137176588D+01 0.644758200547691D+02
 0.351246332104244D+03 0.243729910440277D+03 0.207964029994371D+03 0.111379654596160D+03
 0.279068707394333D+03 0.866827348697879D+02 -.971701389822463D+02 0.246826682132238D+03
0.768713202298D-04 0.000000000000D+00 0.000000000000D+00 0.604912987469D-06 0.000000000000D+00  7 1 -2 -24 -13 13 23 21 0 0.31621811D+00 0.13544901D-01 0.14018525D+06 0.14018525D+06 0.14018525D+06 0.11098786D+01  1  2  2  1  7  1        1 0.931669923314D-03 0.100000000000D+01
-.418600250542D-05 0.000000000000D+00 -.295206110366D-06 0.604912987469D-06 0.000000000000D+00  7 1 -2 -24 -13 13 23 21 2 0.31621811D+00 0.13544901D-01 0.14018525D+06 0.14018525D+06 0.14018525D+06 0.11098786D+01  1  2  3  1  7  1        1 -.624954170381D-04 0.100000000000D+01
0.488625369295D-05 0.000000000000D+00 0.000000000000D+00 0.604912987469D-06 0.000000000000D+00  7 1 -2 -24 -13 13 23 21 2 0.31621811D+00 0.13544901D-01 0.14018525D+06 0.14018525D+06 0.14018525D+06 0.11098786D+01  1  2 15  1  7  1        1 0.729498995521D-04 0.100000000000D+01
0.107766419792D-03 0.000000000000D+00 0.000000000000D+00 0.604912987469D-06 0.000000000000D+00  7 1 -2 -24 -13 13 23 21 2 0.51901470D+00 0.13544901D-01 0.19491121D+06 0.19491121D+06 0.19491121D+06 0.10986861D+01  1  2 12  1  7  1        1 0.177619194626D-03 0.100000000000D+01
-.113807527592D-03 0.000000000000D+00 0.000000000000D+00 0.604912987469D-06 0.000000000000D+00  7 1 -2 -24 -13 13 23 21 2 0.31621811D+00 0.13544901D-01 0.14018525D+06 0.14018525D+06 0.14018525D+06 0.11098786D+01  1  2  4  1  7  1        1 -.169910287673D-02 0.100000000000D+01
-.127050614410D-03 0.000000000000D+00 -.209537857556D-04 0.604912987469D-06 0.000000000000D+00  7 1 -2 -24 -13 13 23 21 2 0.52047896D+00 0.13544901D-01 0.14018525D+06 0.14018525D+06 0.14018525D+06 0.11098786D+01  1  2  5  1  7  1        1 -.214318500923D-03 0.100000000000D+01
0.124117416451D-03 0.000000000000D+00 0.185966476435D-04 0.604912987469D-06 0.000000000000D+00  7 1 -2 -24 -13 13 23 21 2 0.31621811D+00 0.13544901D-01 0.14018525D+06 0.14018525D+06 0.14018525D+06 0.11098786D+01  1  2  6  1  7  1        1 0.185302557578D-02 0.100000000000D+01
0.603286423561D-05 0.000000000000D+00 0.000000000000D+00 0.604912987469D-06 0.000000000000D+00  7 21 -2 -24 -13 13 23 -1 2 0.51901470D+00 0.13544901D-01 0.19491121D+06 0.19491121D+06 0.19491121D+06 0.10986861D+01  1  2 12  3  7  1        1 0.154481090333D-05 0.100000000000D+01
-.620282742854D-05 0.000000000000D+00 -.117827877367D-05 0.604912987469D-06 0.000000000000D+00  7 21 -2 -24 -13 13 23 -1 2 0.52047896D+00 0.13544901D-01 0.14018525D+06 0.14018525D+06 0.14018525D+06 0.11098786D+01  1  2  5  3  7  1        1 -.163548257368D-05 0.100000000000D+01
  </mgrwgt>
  </event>
  <event>
  8     66 0.29493621E-05 0.36659767E+03 0.75467711E-02 0.97883531E-01
        1 -1    0    0  501    0 0.00000000E+00 0.00000000E+00 0.10340136E+04 0.10340137E+04 0.32000000E+00 0.0000E+00 0.9000E+01
       -2 -1    0    0    0  501 0.00000000E+00 0.00000000E+00 -.19192363E+03 0.19192389E+03 0.32000000E+00 0.0000E+00 0.9000E+01
       25  2    1    2    0    0 0.17318214E+03 -.30420562E+03 0.22910340E+03 0.51547793E+03 0.30115779E+03 0.0000E+00 0.0000E+00
       23  2    3    3    0    0 0.56109823E+02 -.15424088E+03 -.20744776E+02 0.18846919E+03 0.90286925E+02 0.0000E+00 0.0000E+00
      -24  1    1    2    0    0 -.17318214E+03 0.30420562E+03 0.61298659E+03 0.71045963E+03 0.80419002E+02 0.0000E+00 0.9000E+01
      -13  1    4    4    0    0 0.80926057E+02 -.12569417E+03 -.15959722E+02 0.15034219E+03 0.10565837E+00 0.0000E+00 0.9000E+01
       13  1    4    4    0    0 -.24816234E+02 -.28546710E+02 -.47850542E+01 0.38126999E+02 0.10565837E+00 0.0000E+00 0.9000E+01
       23  1    3    3    0    0 0.11707232E+03 -.14996474E+03 0.24984818E+03 0.32700874E+03 0.91188000E+02 0.0000E+00 0.9000E+01
#aMCatNLO 1  0  0  2  2 0.17483432D+00 0.00000000D+00  -5  7  0 0.00000000D+00 0.00000000D+00 0.00000000D+00 0.00000000D+00 0.00000000D+00
  <mgrwgt>
 0.1952641396D-03    6    2    0
 0.445479335238014D+03 0.000000000000000D+00 0.000000000000000D+00 0.445479335238014D+03
 0.445479335238014D+03 0.000000000000000D+00 0.000000000000000D+00 -.445479335238014D+03
 0.398210702466886D+03 -.173182144836887D+03 0.304205620087419D+03 0.171963464205990D+03
 0.221951780654346D+03 0.809262015136672D+02 -.125694301508919D+03 -.164056348284329D+03
 0.569841971979816D+02 -.248163782203751D+02 -.285465771924383D+02 -.426197024029722D+02
 0.213811990156814D+03 0.117072321543595D+03 -.149964741386061D+03 0.347125864813114D+02
 0.000000000000000D+00 0.000000000000000D+00 0.000000000000000D+00 0.000000000000000D+00
 0.445598168661165D+03 0.000000000000000D+00 0.000000000000000D+00 0.445598168661165D+03
 0.445543654943193D+03 0.000000000000000D+00 0.000000000000000D+00 -.445543654943193D+03
 0.398159304349266D+03 -.173198254376454D+03 0.304129162272783D+03 0.171963464205990D+03
 0.221972646154922D+03 0.809172214942576D+02 -.125736921762377D+03 -.164056348284329D+03
 0.569906836959722D+02 -.248186837854236D+02 -.285575196817860D+02 -.426197024029722D+02
 0.213836053429884D+03 0.117063670774455D+03 -.150005798978092D+03 0.347125864813114D+02
 0.183135974314073D+00 0.360458931652037D-01 0.171078149471874D+00 0.545137179723281D-01
0.109966708275D-04 0.000000000000D+00 0.000000000000D+00 0.102839293210D-05 0.000000000000D+00  7 1 -2 -24 -13 13 23 21 0 0.15907904D+00 0.29526736D-01 0.14343631D+06 0.14343631D+06 0.14343631D+06 0.11090886D+01  1  2  2  2  7  2       -2 0.178441889827D-03 0.100000000000D+01
-.591353254482D-06 0.000000000000D+00 -.422301114674D-07 0.102839293210D-05 0.000000000000D+00  7 1 -2 -24 -13 13 23 21 2 0.15907904D+00 0.29526736D-01 0.14343631D+06 0.14343631D+06 0.14343631D+06 0.11090886D+01  1  2  3  2  7  2       -2 -.118036165947D-04 0.100000000000D+01
0.699198348904D-06 0.000000000000D+00 0.000000000000D+00 0.102839293210D-05 0.000000000000D+00  7 1 -2 -24 -13 13 23 21 2 0.15907904D+00 0.29526736D-01 0.14343631D+06 0.14343631D+06 0.14343631D+06 0.11090886D+01  1  2 15  2  7  2       -2 0.139562421810D-04 0.100000000000D+01
-.210227288917D-02 0.000000000000D+00 0.000000000000D+00 0.102839293210D-05 0.000000000000D+00  7 1 -2 -24 -13 13 23 21 2 0.15907904D+00 0.29526736D-01 0.14343631D+06 0.14343631D+06 0.14343631D+06 0.11090886D+01  1  2  4  2  7  2       -2 -.419620979052D-01 0.100000000000D+01
0.210227302591D-02 0.000000000000D+00 0.000000000000D+00 0.102839293210D-05 0.220710986429D-03  7 1 -2 -24 -13 13 23 21 2 0.15912148D+00 0.29530999D-01 0.14350562D+06 0.14350562D+06 0.14350562D+06 0.11090720D+01  1  2 11  2  7  2       -2 0.419297835153D-01 0.100000000000D+01
0.199808508257D-06 0.000000000000D+00 0.000000000000D+00 0.102839293210D-05 0.597467384373D-08  7 1 21 -24 -13 13 23 2 2 0.15912148D+00 0.29530999D-01 0.14350562D+06 0.14350562D+06 0.14350562D+06 0.11090720D+01  1  2 11  4  7  2       -2 0.469840140833D-04 0.100000000000D+01
  </mgrwgt>
  </event>
  <event>
  8     66 0.29493621E-05 0.93899273E+02 0.75467711E-02 0.10472856E+00
        1 -1    0    0  501    0 0.00000000E+00 0.00000000E+00 0.16734349E+03 0.16734380E+03 0.32000000E+00 0.0000E+00 0.9000E+01
       -2 -1    0    0    0  501 0.00000000E+00 0.00000000E+00 -.57377768E+03 0.57377776E+03 0.32000000E+00 0.0000E+00 0.9000E+01
       25  2    1    2    0    0 0.98944409E+02 0.59660724E+02 -.48352120E+03 0.58062539E+03 0.29997281E+03 0.0000E+00 0.0000E+00
       23  2    3    3    0    0 0.83628329E+02 -.57170149E+02 -.11487896E+03 0.18301202E+03 0.10017036E+03 0.0000E+00 0.0000E+00
      -24  1    1    2    0    0 -.98944409E+02 -.59660724E+02 0.77087021E+02 0.16049618E+03 0.80419002E+02 0.0000E+00 0.9000E+01
      -11  1    4    4    0    0 -.13895221E+02 -.35818656E+02 -.53338731E+02 0.65734873E+02 0.51099893E-03 0.0000E+00 0.9000E+01
       11  1    4    4    0    0 0.97523551E+02 -.21351493E+02 -.61540224E+02 0.11727714E+03 0.51099893E-03 0.0000E+00 0.9000E+01
       23  1    3    3    0    0 0.15316080E+02 0.11683087E+03 -.36864225E+03 0.39761337E+03 0.91188000E+02 0.0000E+00 0.9000E+01
#aMCatNLO 1  0  0  2  1 0.21428282D+02 0.00000000D+00  -5  7  0 0.00000000D+00 0.00000000D+00 0.00000000D+00 0.00000000D+00 0.00000000D+00
  <mgrwgt>
 0.9835817560D-03    6    2    0
 0.309867887239446D+03 0.000000000000000D+00 0.000000000000000D+00 0.309867887239446D+03
 0.309867887239446D+03 0.000000000000000D+00 0.000000000000000D+00 -.309867887239446D+03
 0.242487176633042D+03 -.989444089954416D+02 -.596607242306186D+02 0.197442185942909D+03
 0.436296394814626D+02 -.138952213455704D+02 -.358186561604939D+02 -.206758829532458D+02
 0.998886491022713D+02 0.975235503765093D+02 -.213514932280160D+02 0.331859584329488D+01
 0.233730309262116D+03 0.153160799645027D+02 0.116830873619128D+03 -.180084898832958D+03
 0.000000000000000D+00 -.000000000000000D+00 0.000000000000000D+00 0.000000000000000D+00
 0.322572085314207D+03 0.000000000000000D+00 0.000000000000000D+00 0.322572085314207D+03
 0.319222530035540D+03 0.000000000000000D+00 0.000000000000000D+00 -.319222530035540D+03
 0.241106103325672D+03 -.922218860092935D+02 -.646269607632438D+02 0.197442185942909D+03
 0.440051718628235D+02 -.126769930159728D+02 -.367186173875499D+02 -.206758829532458D+02
 0.103099205851778D+03 0.100345323501549D+03 -.234360666551697D+02 0.331859584329488D+01
 0.231895640064027D+03 0.217888356396007D+02 0.112049151672373D+03 -.180084898832958D+03
 0.216884942454458D+02 -.172352801158838D+02 0.127324931335899D+02 0.334955527866632D+01
0.227033108755D-04 0.000000000000D+00 0.000000000000D+00 0.968704143011D-07 0.000000000000D+00  7 1 -2 -24 -11 11 23 21 0 0.25745183D-01 0.88273519D-01 0.45800000D+05 0.45800000D+05 0.45800000D+05 0.11506622D+01  1  2  2  2  7  2       -2 0.549770406317D-03 0.100000000000D+01
-.105120852443D-05 0.000000000000D+00 -.871866916809D-07 0.968704143011D-07 0.000000000000D+00  7 1 -2 -24 -11 11 23 21 2 0.25745183D-01 0.88273519D-01 0.45800000D+05 0.45800000D+05 0.45800000D+05 0.11506622D+01  1  2  3  2  7  2       -2 -.337036340050D-04 0.100000000000D+01
0.140048411186D-05 0.000000000000D+00 0.000000000000D+00 0.968704143011D-07 0.000000000000D+00  7 1 -2 -24 -11 11 23 21 2 0.25745183D-01 0.88273519D-01 0.45800000D+05 0.45800000D+05 0.45800000D+05 0.11506622D+01  1  2 15  2  7  2       -2 0.449020368829D-04 0.100000000000D+01
0.424528388766D-04 0.000000000000D+00 0.000000000000D+00 0.968704143011D-07 0.000000000000D+00  7 1 -2 -24 -11 11 23 21 2 0.25745183D-01 0.92685416D-01 0.50130703D+05 0.50130703D+05 0.50130703D+05 0.11471957D+01  1  2 12  2  7  2       -2 0.120832615748D-02 0.100000000000D+01
-.284196026433D-04 0.000000000000D+00 0.000000000000D+00 0.968704143011D-07 0.000000000000D+00  7 1 -2 -24 -11 11 23 21 2 0.25745183D-01 0.88273519D-01 0.45800000D+05 0.45800000D+05 0.45800000D+05 0.11506622D+01  1  2  4  2  7  2       -2 -.911183522386D-03 0.100000000000D+01
0.444837174905D-06 0.000000000000D+00 0.000000000000D+00 0.968704143011D-07 0.000000000000D+00  7 1 21 -24 -11 11 23 2 2 0.25745183D-01 0.92685416D-01 0.50130703D+05 0.50130703D+05 0.50130703D+05 0.11471957D+01  1  2 12  4  7  2       -2 0.125470311693D-03 0.100000000000D+01
  </mgrwgt>
  </event>
  <event>
  9     66 0.29493621E-05 0.18965561E+03 0.75467711E-02 0.10473387E+00
        1 -1    0    0  501    0 0.00000000E+00 0.00000000E+00 0.22732692E+04 0.22732693E+04 0.32000000E+00 0.0000E+00 0.9000E+01
       -2 -1    0    0    0  502 0.00000000E+00 0.00000000E+00 -.10028461E+03 0.10028512E+03 0.32000000E+00 0.0000E+00 0.9000E+01
       25  2    1    2    0    0 -.10053288E+03 0.56542680E+02 0.19350647E+04 0.19615509E+04 0.29983751E+03 0.0000E+00 0.0000E+00
       23  2    3    3    0    0 -.61354025E+02 0.23952924E+02 0.25843509E+03 0.28167017E+03 0.90616412E+02 0.0000E+00 0.0000E+00
      -24  1    1    2    0    0 0.15396140E+03 -.26407756E+02 0.10007762E+02 0.17597970E+03 0.80419002E+02 0.0000E+00 0.9000E+01
      -11  1    4    4    0    0 -.51451407E+02 0.53943467E+02 0.21780243E+03 0.23020653E+03 0.51099893E-03 0.0000E+00 0.9000E+01
       11  1    4    4    0    0 -.99026184E+01 -.29990543E+02 0.40632652E+02 0.51463646E+02 0.51099893E-03 0.0000E+00 0.9000E+01
       23  1    3    3    0    0 -.39178851E+02 0.32589755E+02 0.16766297E+04 0.16798807E+04 0.91188000E+02 0.0000E+00 0.9000E+01
       21  1    1    2  501  502 -.53428525E+02 -.30134924E+02 0.22791212E+03 0.23602377E+03 0.75000000E+00 0.0000E+00 0.9000E+01
#aMCatNLO 2  0  0  2  1 0.61341021D+02 0.00000000D+00  -5  7  0 0.00000000D+00 0.00000000D+00 0.00000000D+00 0.00000000D+00 0.00000000D+00
  <mgrwgt>
 0.3329924113D-03    1    2    0
 0.442144596911228D+03 0.000000000000000D+00 0.000000000000000D+00 0.442144596911228D+03
 0.442144596911228D+03 0.000000000000000D+00 0.000000000000000D+00 -.442144596911228D+03
 0.394968110266109D+03 0.129901815254683D+03 -.399779185618411D+02 -.362021928332817D+03
 0.786568078449320D+02 -.561541974616829D+02 0.512909842373591D+02 0.200707365024773D+02
 0.366446986110957D+02 -.120625996862417D+02 -.312088221505663D+02 -.149444653662097D+02
 0.374019577100320D+03 -.616850181067587D+02 0.198957564750483D+02 0.356895657196549D+03
 0.000000000000000D+00 -.000000000000000D+00 -.000000000000000D+00 0.000000000000000D+00
 0.493569798908415D+03 0.000000000000000D+00 0.000000000000000D+00 0.493569798908415D+03
 0.461885200198551D+03 0.000000000000000D+00 0.000000000000000D+00 -.461885200198551D+03
 0.402403497656625D+03 0.153961400349849D+03 -.264077560655406D+02 -.362021928332817D+03
 0.772009024998822D+02 -.514514066831804D+02 0.539434670128499D+02 0.200707365024773D+02
 0.349403999557295D+02 -.990261837589487D+01 -.299905427307658D+02 -.149444653662097D+02
 0.371869380261226D+03 -.391788507653661D+02 0.325897554273827D+02 0.356895657196549D+03
 0.690408187335032D+02 -.534285245254074D+02 -.301349236439261D+02 0.316845987098642D+02
0.343816546109D-04 0.000000000000D+00 0.000000000000D+00 0.952435145932D-05 0.178754663838D-07  7 1 -2 -24 -11 11 23 21 2 0.34973226D+00 0.15428376D-01 0.50092572D+05 0.50092572D+05 0.50092572D+05 0.11472247D+01  1  2  1  2  7  2       -2 0.332992411258D-03 0.100000000000D+01
  </mgrwgt>
  </event>
  <event>
  8     66 0.29493621E-05 0.23068181E+03 0.75467711E-02 0.98779473E-01
        1 -1    0    0  501    0 0.00000000E+00 0.00000000E+00 0.34638506E+03 0.34638520E+03 0.32000000E+00 0.0000E+00 0.9000E+01
       -2 -1    0    0    0  501 0.00000000E+00 0.00000000E+00 -.21731505E+03 0.21731529E+03 0.32000000E+00 0.0000E+00 0.9000E+01
       25  2    1    2    0    0 0.10794475E+03 -.11569136E+03 0.17322342E+03 0.38079806E+03 0.29994041E+03 0.0000E+00 0.0000E+00
       23  2    3    3    0    0 -.44213824E+02 -.71570350E+02 -.33082962E+01 0.12667685E+03 0.94651472E+02 0.0000E+00 0.0000E+00
      -24  1    1    2    0    0 -.10794475E+03 0.11569136E+03 -.44153414E+02 0.18290243E+03 0.80419002E+02 0.0000E+00 0.9000E+01
      -13  1    4    4    0    0 -.32675067E+01 -.57775030E+02 0.36093463E+02 0.68201026E+02 0.10565837E+00 0.0000E+00 0.9000E+01
       13  1    4    4    0    0 -.40946317E+02 -.13795320E+02 -.39401759E+02 0.58475820E+02 0.10565837E+00 0.0000E+00 0.9000E+01
       23  1    3    3    0    0 0.15215858E+03 -.44121007E+02 0.17653171E+03 0.25412122E+03 0.91188000E+02 0.0000E+00 0.9000E+01
#aMCatNLO 1  0  0  1  2 0.20475012D+03 0.00000000D+00  -5  7  0 0.00000000D+00 0.00000000D+00 0.00000000D+00 0.00000000D+00 0.00000000D+00
  <mgrwgt>
 0.1103566689D-02    3    2    0
 0.274362525372454D+03 0.000000000000000D+00 0.000000000000000D+00 0.274362525372454D+03
 0.274362525372454D+03 0.000000000000000D+00 0.000000000000000D+00 -.274362525372454D+03
 0.198279762799874D+03 -.107944752766105D+03 0.115691357531367D+03 -.883803627760010D+02
 0.615724721854087D+02 -.326746641978974D+01 -.577750778468510D+02 0.210364772243068D+02
 0.693397145170951D+02 -.409463654581091D+02 -.137952703891124D+02 -.542317405213451D+02
 0.219533101242530D+03 0.152158584644004D+03 -.441210092954038D+02 0.121575626073039D+03
 0.000000000000000D+00 -.000000000000000D+00 -.000000000000000D+00 -.000000000000000D+00
 0.315977981183368D+03 0.000000000000000D+00 0.000000000000000D+00 0.315977981183368D+03
 0.745809572608520D+03 0.000000000000000D+00 0.000000000000000D+00 -.745809572608520D+03
 0.232870008060741D+03 -.739499166731765D+02 0.185692073065739D+03 -.883803627760010D+02
 0.457943874480853D+02 0.519808091836029D+01 -.403431840897909D+02 0.210364772243068D+02
 0.627047909973536D+02 -.305350614859990D+02 0.764324238092443D+01 -.542317405213451D+02
 0.244311437302987D+03 0.188731302817969D+03 0.311879709925475D+02 0.121575626073039D+03
 0.476106929982722D+03 -.894444055771535D+02 -.184180102349420D+03 -.429831591425152D+03
0.165151238858D-04 0.000000000000D+00 0.000000000000D+00 0.310025932078D-06 0.000000000000D+00  7 1 -2 -24 -13 13 23 21 0 0.53290038D-01 0.33433115D-01 0.53214095D+05 0.53214095D+05 0.53214095D+05 0.11449231D+01  1  2  2  1  7  1        1 0.108679224888D-02 0.100000000000D+01
-.883960613286D-06 0.000000000000D+00 -.634224242534D-07 0.310025932078D-06 0.000000000000D+00  7 1 -2 -24 -13 13 23 21 2 0.53290038D-01 0.33433115D-01 0.53214095D+05 0.53214095D+05 0.53214095D+05 0.11449231D+01  1  2  3  1  7  1        1 -.762518222480D-04 0.100000000000D+01
0.107842081186D-05 0.000000000000D+00 0.000000000000D+00 0.310025932078D-06 0.000000000000D+00  7 1 -2 -24 -13 13 23 21 2 0.53290038D-01 0.33433115D-01 0.53214095D+05 0.53214095D+05 0.53214095D+05 0.11449231D+01  1  2 15  1  7  1        1 0.930262625033D-04 0.100000000000D+01
  </mgrwgt>
  </event>
  <event>
  9     66 -.29493621E-05 0.55961616E+03 0.75467711E-02 0.93307803E-01
        1 -1    0    0  501    0 0.00000000E+00 0.00000000E+00 0.15623226E+04 0.15623227E+04 0.32000000E+00 0.0000E+00 0.9000E+01
       -2 -1    0    0    0  502 0.00000000E+00 0.00000000E+00 -.36519069E+03 0.36519083E+03 0.32000000E+00 0.0000E+00 0.9000E+01
       25  2    1    2    0    0 -.14536747E+03 -.50119113E+03 -.44658603E+01 0.60183031E+03 0.29975913E+03 0.0000E+00 0.0000E+00
       23  2    3    3    0    0 -.15148005E+03 -.45135321E+03 0.44474063E+02 0.48680184E+03 0.91280694E+02 0.0000E+00 0.0000E+00
      -24  1    1    2    0    0 0.14830138E+03 0.50606312E+03 0.12058299E+04 0.13185546E+04 0.80419002E+02 0.0000E+00 0.9000E+01
      -11  1    4    4    0    0 -.81946885E+02 -.34656210E+03 0.56073014E+02 0.36050627E+03 0.51099893E-03 0.0000E+00 0.9000E+01
       11  1    4    4    0    0 -.69533169E+02 -.10479111E+03 -.11598950E+02 0.12629558E+03 0.51099893E-03 0.0000E+00 0.9000E+01
       23  1    3    3    0    0 0.61125806E+01 -.49837915E+02 -.48939924E+02 0.11502847E+03 0.91188000E+02 0.0000E+00 0.9000E+01
       21  1    1    2  501  502 -.29339048E+01 -.48719955E+01 -.42320964E+01 0.71286239E+01 0.75000000E+00 0.0000E+00 0.9000E+01
#aMCatNLO 2  0  0  2  1 0.56871907D+01 0.00000000D+00  -5  7  0 0.00000000D+00 0.00000000D+00 0.00000000D+00 0.00000000D+00 0.00000000D+00
  <mgrwgt>
 -.1119294711D-02    3    2    0
 0.749094486333505D+03 0.000000000000000D+00 0.000000000000000D+00 0.749094486333505D+03
 0.749094486333505D+03 0.000000000000000D+00 0.000000000000000D+00 -.749094486333505D+03
 0.721264779521799D+03 0.146887039315370D+03 0.503714492836391D+03 0.488315035209855D+03
 0.418422219064841D+03 -.827650152964814D+02 -.347920678661695D+03 -.217205679045702D+03
 0.171664077542666D+03 -.698688694106943D+02 -.105348565259017D+03 -.116140330650952D+03
 0.186837896537703D+03 0.574684539180601D+01 -.504452489156787D+02 -.154969025513201D+03
 0.000000000000000D+00 -.000000000000000D+00 -.000000000000000D+00 -.000000000000000D+00
 0.749783715803013D+03 0.000000000000000D+00 0.000000000000000D+00 0.749783715803013D+03
 0.760924470831034D+03 0.000000000000000D+00 0.000000000000000D+00 -.760924470831034D+03
 0.723195666087188D+03 0.148301378325415D+03 0.506063121623876D+03 0.488315035209855D+03
 0.417131743628289D+03 -.819468851995121D+02 -.346562104879877D+03 -.217205679045702D+03
 0.171185904654575D+03 -.695331689033603D+02 -.104791106354258D+03 -.116140330650952D+03
 0.186686452670102D+03 0.611258061141149D+01 -.498379148470700D+02 -.154969025513201D+03
 0.125084195938926D+02 -.293390483395367D+01 -.487199554267108D+01 -.111407550280209D+02
-.517258733940D-03 0.000000000000D+00 0.000000000000D+00 0.321235346363D-04 0.000000000000D+00  7 1 -2 -24 -11 11 23 21 2 0.24013280D+00 0.56207583D-01 0.31646701D+06 0.31646701D+06 0.31646701D+06 0.10828391D+01  1  2 13  2  7  2       -2 -.121481771832D-02 0.100000000000D+01
-.135435314504D-01 0.000000000000D+00 0.000000000000D+00 0.321235346363D-04 0.000000000000D+00  7 1 -2 -24 -11 11 23 21 2 0.24013280D+00 0.55308897D-01 0.31317024D+06 0.31317024D+06 0.31317024D+06 0.10831741D+01  1  2  8  2  7  2       -2 -.329080902054D-01 0.100000000000D+01
0.140709328749D-01 0.000000000000D+00 0.000000000000D+00 0.321235346363D-04 0.621188973904D-05  7 1 -2 -24 -11 11 23 21 2 0.24035375D+00 0.56182356D-01 0.31646701D+06 0.31646701D+06 0.31646701D+06 0.10828391D+01  1  2  1  2  7  2       -2 0.330036132128D-01 0.100000000000D+01
  </mgrwgt>
  </event>
  <event>
  8     66 0.29493621E-05 0.10349900E+04 0.75467711E-02 0.84152416E-01
        1 -1    0    0  501    0 0.00000000E+00 0.00000000E+00 0.29403606E+04 0.29403606E+04 0.32000000E+00 0.0000E+00 0.9000E+01
       -2 -1    0    0    0  501 0.00000000E+00 0.00000000E+00 -.41534453E+03 0.41534465E+03 0.32000000E+00 0.0000E+00 0.9000E+01
       25  2    1    2    0    0 -.83542997E+03 -.59319140E+03 0.75023150E+03 0.13048160E+04 0.29979704E+03 0.0000E+00 0.0000E+00
       23  2    3    3    0    0 -.36309867E+03 -.22367178E+03 0.45478793E+03 0.63009847E+03 0.91226760E+02 0.0000E+00 0.0000E+00
      -24  1    1    2    0    0 0.83542997E+03 0.59319140E+03 0.17747846E+04 0.20508893E+04 0.80419002E+02 0.0000E+00 0.9000E+01
      -13  1    4    4    0    0 -.25851972E+03 -.10937086E+03 0.30709171E+03 0.41605259E+03 0.10565837E+00 0.0000E+00 0.9000E+01
       13  1    4    4    0    0 -.10457895E+03 -.11430091E+03 0.14769622E+03 0.21404588E+03 0.10565837E+00 0.0000E+00 0.9000E+01
       23  1    3    3    0    0 -.47233130E+03 -.36951962E+03 0.29544358E+03 0.67471755E+03 0.91188000E+02 0.0000E+00 0.9000E+01
#aMCatNLO 1  0  0  1  1 0.65857528D+03 0.00000000D+00  -5  7  0 0.00000000D+00 0.00000000D+00 0.00000000D+00 0.00000000D+00 0.00000000D+00
  <mgrwgt>
 0.1126308548D-02    3    2    0
 0.110510765956734D+04 0.000000000000000D+00 0.000000000000000D+00 0.110510765956734D+04
 0.110510765956734D+04 0.000000000000000D+00 0.000000000000000D+00 -.110510765956734D+04
 0.108623821968846D+04 0.835429969489355D+03 0.593191398659194D+03 0.351606292027522D+03
 0.280849897416890D+03 -.258519924117151D+03 -.109370855096396D+03 -.906254760116253D+01
 0.156246863395601D+03 -.104578747653894D+03 -.114300920884783D+03 -.202895871076173D+02
 0.686880338633724D+03 -.472331297718310D+03 -.369519622678016D+03 -.322254157318743D+03
 0.000000000000000D+00 -.000000000000000D+00 0.000000000000000D+00 -.000000000000000D+00
 0.129063718463442D+04 0.000000000000000D+00 0.000000000000000D+00 0.129063718463442D+04
 0.194162787104049D+04 0.000000000000000D+00 0.000000000000000D+00 -.194162787104049D+04
 0.117541108450359D+04 0.106151647651834D+04 0.353100250787634D+03 0.351606292027522D+03
 0.263969135047571D+03 -.204056912639426D+03 -.167207508482140D+03 -.906254760116253D+01
 0.166467897636664D+03 -.723184617849744D+02 -.148559529090626D+03 -.202895871076173D+02
 0.700398433835543D+03 -.333651524792559D+03 -.516789737581609D+03 -.322254157318743D+03
 0.926018504651531D+03 -.451489577301380D+03 0.479456524366740D+03 -.650990686406069D+03
0.708142964490D-02 0.000000000000D+00 0.000000000000D+00 0.580392893486D-04 0.000000000000D+00  7 1 -2 -24 -13 13 23 21 0 0.45236318D+00 0.63899170D-01 0.10712043D+07 0.10712043D+07 0.10712043D+07 0.10458812D+01  1  2  2  1  7  1        1 0.111671525311D-02 0.100000000000D+01
-.391357395402D-03 0.000000000000D+00 -.271945544196D-04 0.580392893486D-04 0.000000000000D+00  7 1 -2 -24 -13 13 23 21 2 0.45236318D+00 0.63899170D-01 0.10712043D+07 0.10712043D+07 0.10712043D+07 0.10458812D+01  1  2  3  1  7  1        1 -.675087061867D-04 0.100000000000D+01
0.446971066727D-03 0.000000000000D+00 0.000000000000D+00 0.580392893486D-04 0.000000000000D+00  7 1 -2 -24 -13 13 23 21 2 0.45236318D+00 0.63899170D-01 0.10712043D+07 0.10712043D+07 0.10712043D+07 0.10458812D+01  1  2 15  1  7  1        1 0.771020013220D-04 0.100000000000D+01
  </mgrwgt>
  </event>
  <event>
  8     66 0.29493621E-05 0.17908585E+03 0.75467711E-02 0.10046609E+00
        1 -1    0    0  501    0 0.00000000E+00 0.00000000E+00 0.52380885E+03 0.52380895E+03 0.32000000E+00 0.0000E+00 0.9000E+01
       -2 -1    0    0    0  501 0.00000000E+00 0.00000000E+00 -.81473545E+02 0.81474173E+02 0.32000000E+00 0.0000E+00 0.9000E+01
       25  2    1    2    0    0 -.30878463E+02 -.39084868E+02 0.26000334E+03 0.39987312E+03 0.29969263E+03 0.0000E+00 0.0000E+00
       23  2    3    3    0    0 0.92394944E+02 -.38320998E+02 0.12343268E+03 0.19453508E+03 0.11226284E+03 0.0000E+00 0.0000E+00
      -24  1    1    2    0    0 0.30878463E+02 0.39084868E+02 0.18233197E+03 0.20541000E+03 0.80419002E+02 0.0000E+00 0.9000E+01
      -13  1    4    4    0    0 -.22569735E+01 -.11696735E+02 0.89845021E+02 0.90631377E+02 0.10565837E+00 0.0000E+00 0.9000E+01
       13  1    4    4    0    0 0.94651918E+02 -.26624263E+02 0.33587662E+02 0.10390370E+03 0.10565837E+00 0.0000E+00 0.9000E+01
       23  1    3    3    0    0 -.12327341E+03 -.76386984E+00 0.13657066E+03 0.20533805E+03 0.91188000E+02 0.0000E+00 0.9000E+01
#aMCatNLO 1  0  0  1  1 0.19825071D+03 0.00000000D+00  -5  7  0 0.00000000D+00 0.00000000D+00 0.00000000D+00 0.00000000D+00 0.00000000D+00
  <mgrwgt>
 0.1273616025D-02    3    2    0
 0.206583600076991D+03 0.000000000000000D+00 0.000000000000000D+00 0.206583600076991D+03
 0.206583600076991D+03 0.000000000000000D+00 0.000000000000000D+00 -.206583600076991D+03
 0.105718333178299D+03 0.308784756630456D+02 0.390848837422352D+02 0.472021357483954D+02
 0.365844830202379D+02 -.225586240055679D+01 -.116966393708679D+02 0.345908096192571D+02
 0.116258214770446D+03 0.946524963322191D+02 -.266244638499593D+02 -.620323735189341D+02
 0.154606169184999D+03 -.123275109594708D+03 -.763780521408044D+00 -.197605718487184D+02
 0.000000000000000D+00 -.000000000000000D+00 0.000000000000000D+00 -.000000000000000D+00
 0.271045202705981D+03 0.000000000000000D+00 0.000000000000000D+00 0.271045202705981D+03
 0.463581462179157D+03 0.000000000000000D+00 0.000000000000000D+00 -.463581462179157D+03
 0.121570270776479D+03 0.765688725146457D+02 0.148755142742009D+02 0.472021357483954D+02
 0.422493262657664D+02 0.135916018758200D+02 -.200935267746779D+02 0.345908096192571D+02
 0.175062249340509D+03 0.153214814832227D+03 -.576541090963375D+02 -.620323735189341D+02
 0.119387158143983D+03 -.681959562956612D+02 -.299478468479500D+02 -.197605718487184D+02
 0.276357660358400D+03 -.175179332927031D+03 0.928199684447645D+02 -.192536259473176D+03
0.659971578662D-05 0.000000000000D+00 0.000000000000D+00 0.310412278435D-08 0.000000000000D+00  7 1 -2 -24 -13 13 23 21 0 0.80586033D-01 0.12534447D-01 0.32071740D+05 0.32071740D+05 0.32071740D+05 0.11646547D+01  1  2  2  1  7  1        1 0.125653709197D-02 0.100000000000D+01
-.357555236479D-06 0.000000000000D+00 -.253446463657D-07 0.310412278435D-08 0.000000000000D+00  7 1 -2 -24 -13 13 23 21 2 0.80586033D-01 0.12534447D-01 0.32071740D+05 0.32071740D+05 0.32071740D+05 0.11646547D+01  1  2  3  1  7  1        1 -.923395088934D-04 0.100000000000D+01
0.423687944425D-06 0.000000000000D+00 0.000000000000D+00 0.310412278435D-08 0.000000000000D+00  7 1 -2 -24 -13 13 23 21 2 0.80586033D-01 0.12534447D-01 0.32071740D+05 0.32071740D+05 0.32071740D+05 0.11646547D+01  1  2 15  1  7  1        1 0.109418441463D-03 0.100000000000D+01
  </mgrwgt>
  </event>
  <event>
  8     66 0.29493621E-05 0.23585105E+03 0.75467711E-02 0.96581250E-01
        1 -1    0    0  501    0 0.00000000E+00 0.00000000E+00 0.26868203E+03 0.26868223E+03 0.32000000E+00 0.0000E+00 0.9000E+01
       -2 -1    0    0    0  501 0.00000000E+00 0.00000000E+00 -.33469855E+03 0.33469870E+03 0.32000000E+00 0.0000E+00 0.9000E+01
       25  2    1    2    0    0 0.98502368E+01 -.12411931E+03 -.21767221E+03 0.39132128E+03 0.30041392E+03 0.0000E+00 0.0000E+00
       23  2    3    3    0    0 0.73682338E+02 0.42076668E+02 -.88957072E+02 0.15345897E+03 0.91851849E+02 0.0000E+00 0.0000E+00
      -24  1    1    2    0    0 -.98502368E+01 0.12411931E+03 0.15165569E+03 0.21205965E+03 0.80419002E+02 0.0000E+00 0.9000E+01
      -11  1    4    4    0    0 0.52529266E+02 -.21266436E+02 -.53094883E+02 0.77657271E+02 0.51099893E-03 0.0000E+00 0.9000E+01
       11  1    4    4    0    0 0.21153072E+02 0.63343103E+02 -.35862189E+02 0.75801700E+02 0.51099893E-03 0.0000E+00 0.9000E+01
       23  1    3    3    0    0 -.63832101E+02 -.16619598E+03 -.12871514E+03 0.23786231E+03 0.91188000E+02 0.0000E+00 0.9000E+01
#aMCatNLO 1  0  0  1  1 0.30304106D+03 0.00000000D+00  -5  7  0 0.00000000D+00 0.00000000D+00 0.00000000D+00 0.00000000D+00 0.00000000D+00
  <mgrwgt>
 0.1276269457D-02    3    2    0
 0.299879294169581D+03 0.000000000000000D+00 0.000000000000000D+00 0.299879294169581D+03
 0.299879294169581D+03 0.000000000000000D+00 0.000000000000000D+00 -.299879294169581D+03
 0.230033435931174D+03 -.985023679381808D+01 0.124119307396656D+03 0.175913433422270D+03
 0.722820442509128D+02 0.525292658922213D+02 -.212664355044921D+02 -.448676817636983D+02
 0.723121010746401D+02 0.211530720792224D+02 0.633431034341608D+02 -.277351537001221D+02
 0.225131007082435D+03 -.638321011776256D+02 -.166195975326325D+03 -.103310597958449D+03
 0.000000000000000D+00 0.000000000000000D+00 0.000000000000000D+00 -.000000000000000D+00
 0.397358648525205D+03 0.000000000000000D+00 0.000000000000000D+00 0.397358648525205D+03
 0.710063526015364D+03 0.000000000000000D+00 0.000000000000000D+00 -.710063526015364D+03
 0.217841089159536D+03 -.867673531362527D+02 0.501339659628091D+02 0.175913433422270D+03
 0.693052553404361D+02 0.282133332254254D+02 -.446555414172266D+02 -.448676817636983D+02
 0.511281992651705D+02 -.463295626979310D-01 0.429517387645856D+02 -.277351537001221D+02
 0.333695880324504D+03 -.159803964514248D+03 -.258509772497178D+03 -.103310597958449D+03
 0.435451750450922D+03 0.218404313987773D+03 0.210079609187010D+03 -.312704877490159D+03
0.307263725380D-04 0.000000000000D+00 0.000000000000D+00 0.212699073276D-05 0.000000000000D+00  7 1 -2 -24 -11 11 23 21 0 0.41335724D-01 0.51492111D-01 0.55625718D+05 0.55625718D+05 0.55625718D+05 0.11432445D+01  1  2  2  1  7  1        1 0.125800317758D-02 0.100000000000D+01
-.158729360270D-05 0.000000000000D+00 -.117997360985D-06 0.212699073276D-05 0.000000000000D+00  7 1 -2 -24 -11 11 23 21 2 0.41335724D-01 0.51492111D-01 0.55625718D+05 0.55625718D+05 0.55625718D+05 0.11432445D+01  1  2  3  1  7  1        1 -.849387681692D-04 0.100000000000D+01
0.192864478844D-05 0.000000000000D+00 0.000000000000D+00 0.212699073276D-05 0.000000000000D+00  7 1 -2 -24 -11 11 23 21 2 0.41335724D-01 0.51492111D-01 0.55625718D+05 0.55625718D+05 0.55625718D+05 0.11432445D+01  1  2 15  1  7  1        1 0.103205048068D-03 0.100000000000D+01
  </mgrwgt>
  </event>
  <event>
  7     66 0.29493621E-05 0.19605737E+03 0.75467711E-02 0.89237892E-01
        3 -1    0    0  501    0 0.00000000E+00 0.00000000E+00 0.37569748E+03 0.37569782E+03 0.50000000E+00 0.0000E+00 0.9000E+01
       -4 -1    0    0    0  501 0.00000000E+00 0.00000000E+00 -.67089210E+03 0.67089389E+03 0.15500000E+01 0.0000E+00 0.9000E+01
       25  2    1    2    0    0 0.10579637E+03 -.32047548E+02 -.61799174E+03 0.69604196E+03 0.30056731E+03 0.0000E+00 0.0000E+00
      -24  1    1    2    0    0 -.10579637E+03 0.32047548E+02 0.32279713E+03 0.35054974E+03 0.80419002E+02 0.0000E+00 0.9000E+01
      -13  1    3    3    0    0 -.17853262E+02 -.12256632E+02 -.24096532E+01 0.21789483E+02 0.10565837E+00 0.0000E+00 0.9000E+01
       13  1    3    3    0    0 0.32894495E+02 0.69678481E+02 -.40217697E+03 0.40949172E+03 0.10565837E+00 0.0000E+00 0.9000E+01
       23  1    3    3    0    0 0.90755133E+02 -.89469397E+02 -.21340511E+03 0.26476076E+03 0.91188000E+02 0.0000E+00 0.9000E+01
#aMCatNLO 1  0  0  2  2 0.76383751D+03 0.00000000D+00  -5  7  0 0.00000000D+00 0.00000000D+00 0.00000000D+00 0.00000000D+00 0.00000000D+00
  <mgrwgt>
 0.2290606587D-03    3    2    0
 0.502049382320353D+03 0.000000000000000D+00 0.000000000000000D+00 0.502049382320353D+03
 0.502049382320353D+03 0.000000000000000D+00 0.000000000000000D+00 -.502049382320353D+03
 0.460283823509028D+03 -.105796366326780D+03 0.320475477133570D+02 0.439515717338219D+03
 0.220029609949275D+02 -.178532760766901D+02 -.122566122482221D+02 0.389439110394910D+01
 0.308585375297548D+03 0.328943759379861D+02 0.696786220023767D+02 -.298810614796444D+03
 0.213226604839202D+03 0.907552664654837D+02 -.894695574675116D+02 -.144599493645724D+03
 0.000000000000000D+00 0.000000000000000D+00 -.000000000000000D+00 0.000000000000000D+00
 0.192459258394002D+04 0.000000000000000D+00 0.000000000000000D+00 0.192459258394002D+04
 0.743545743703940D+03 0.000000000000000D+00 0.000000000000000D+00 -.743545743703940D+03
 0.607189045910793D+03 -.126006285225045D+03 0.391356195576541D+03 0.439515717338219D+03
 0.190994311629599D+02 -.186314466848921D+02 0.157834822081500D+01 0.389439110394910D+01
 0.439242455911181D+03 0.187361333713079D+02 0.321395564478026D+03 -.298810614796444D+03
 0.196079973018745D+03 0.830060739754382D+02 0.483019937022882D+02 -.144599493645724D+03
 0.140652742164029D+04 0.428955245631906D+02 -.762632101977671D+03 0.118104684023609D+04
0.347515438206D-03 0.000000000000D+00 0.000000000000D+00 0.870138550072D-08 0.000000000000D+00  7 3 -4 -24 -13 13 23 21 0 0.57799776D-01 0.10321433D+00 0.38438491D+05 0.38438491D+05 0.38438491D+05 0.11574783D+01  1  2  2  2  7  2       -4 0.210480409488D-03 0.100000000000D+01
0.144787396924D-05 0.000000000000D+00 -.133455078563D-05 0.870138550072D-08 0.000000000000D+00  7 3 -4 -24 -13 13 23 21 2 0.57799776D-01 0.10321433D+00 0.38438491D+05 0.38438491D+05 0.38438491D+05 0.11574783D+01  1  2  3  2  7  2       -4 0.117488137487D-05 0.100000000000D+01
0.214496369909D-04 0.000000000000D+00 0.000000000000D+00 0.870138550072D-08 0.000000000000D+00  7 3 -4 -24 -13 13 23 21 2 0.57799776D-01 0.10321433D+00 0.38438491D+05 0.38438491D+05 0.38438491D+05 0.11574783D+01  1  2 15  2  7  2       -4 0.174053678247D-04 0.100000000000D+01
  </mgrwgt>
  </event>
  <event>
  8     66 0.29493621E-05 0.29882016E+03 0.75467711E-02 0.96581014E-01
        1 -1    0    0  501    0 0.00000000E+00 0.00000000E+00 0.14155738E+04 0.14155738E+04 0.32000000E+00 0.0000E+00 0.9000E+01
       -2 -1    0    0    0  501 0.00000000E+00 0.00000000E+00 -.16577936E+03 0.16577967E+03 0.32000000E+00 0.0000E+00 0.9000E+01
       25  2    1    2    0    0 -.23803551E+03 0.19525635E+02 0.86431278E+02 0.39100767E+03 0.29727845E+03 0.0000E+00 0.0000E+00
       23  2    3    3    0    0 -.21329548E+02 0.55002288E+02 -.46326210E+02 0.11868457E+03 0.91976675E+02 0.0000E+00 0.0000E+00
      -24  1    1    2    0    0 0.23803551E+03 -.19525635E+02 0.11633631E+04 0.11903458E+04 0.80419002E+02 0.0000E+00 0.9000E+01
      -13  1    4    4    0    0 -.47103619E+02 -.13896855E-01 -.29740674E+02 0.55707001E+02 0.10565837E+00 0.0000E+00 0.9000E+01
       13  1    4    4    0    0 0.25774071E+02 0.55016185E+02 -.16585536E+02 0.62977571E+02 0.10565837E+00 0.0000E+00 0.9000E+01
       23  1    3    3    0    0 -.21670596E+03 -.35476653E+02 0.13275749E+03 0.27232309E+03 0.91188000E+02 0.0000E+00 0.9000E+01
#aMCatNLO 1  0  0  2  2 0.21064157D+03 0.00000000D+00  -5  7  0 0.00000000D+00 0.00000000D+00 0.00000000D+00 0.00000000D+00 0.00000000D+00
  <mgrwgt>
 0.2502503655D-02    3    2    0
 0.484430785705943D+03 0.000000000000000D+00 0.000000000000000D+00 0.484430785705943D+03
 0.484430785705943D+03 0.000000000000000D+00 0.000000000000000D+00 -.484430785705943D+03
 0.442160939140795D+03 0.238035506708209D+03 -.195256348755237D+02 0.363313813770373D+03
 0.129288019667344D+03 -.471037149950889D+02 -.139694175808636D-01 -.120401959568856D+03
 0.124185237455935D+03 0.257741668850436D+02 0.550162572959597D+02 -.108309173002630D+03
 0.273227375147812D+03 -.216705958598164D+03 -.354766530028551D+02 -.134602681198887D+03
 0.000000000000000D+00 -.000000000000000D+00 0.000000000000000D+00 0.000000000000000D+00
 0.913639278494216D+03 0.000000000000000D+00 0.000000000000000D+00 0.913639278494216D+03
 0.522291453412554D+03 0.000000000000000D+00 0.000000000000000D+00 -.522291453412554D+03
 0.481954936214864D+03 0.287507705952517D+03 -.105620719222373D+03 0.363313813770373D+03
 0.127208681231406D+03 -.333722596324302D+02 -.239104370440757D+02 -.120401959568856D+03
 0.119507285378469D+03 0.388201553433326D+02 0.323126885470193D+02 -.108309173002630D+03
 0.262824239637937D+03 -.188008635027452D+03 -.854178023976555D+02 -.134602681198887D+03
 0.444435589444093D+03 -.104946966635967D+03 0.182636270117085D+03 0.391347825081662D+03
0.212482933281D-03 0.000000000000D+00 0.000000000000D+00 0.433577364835D-06 0.000000000000D+00  7 1 -2 -24 -13 13 23 21 0 0.21778061D+00 0.25504543D-01 0.89293490D+05 0.89293490D+05 0.89293490D+05 0.11257803D+01  1  2  2  2  7  2       -2 0.243712403547D-02 0.100000000000D+01
-.845444551945D-05 0.000000000000D+00 -.815990411841D-06 0.433577364835D-06 0.000000000000D+00  7 1 -2 -24 -13 13 23 21 2 0.21778061D+00 0.25504543D-01 0.89293490D+05 0.89293490D+05 0.89293490D+05 0.11257803D+01  1  2  3  2  7  2       -2 -.122898341071D-03 0.100000000000D+01
0.129520524627D-04 0.000000000000D+00 0.000000000000D+00 0.433577364835D-06 0.000000000000D+00  7 1 -2 -24 -13 13 23 21 2 0.21778061D+00 0.25504543D-01 0.89293490D+05 0.89293490D+05 0.89293490D+05 0.11257803D+01  1  2 15  2  7  2       -2 0.188277960686D-03 0.100000000000D+01
  </mgrwgt>
  </event>
  <event>
  9     66 0.29493621E-05 0.25142233E+03 0.75467711E-02 0.98238432E-01
        1 -1    0    0  502    0 0.00000000E+00 0.00000000E+00 0.90410171E+03 0.90410177E+03 0.32000000E+00 0.0000E+00 0.9000E+01
       -2 -1    0    0    0  501 0.00000000E+00 0.00000000E+00 -.23138973E+03 0.23138995E+03 0.32000000E+00 0.0000E+00 0.9000E+01
       25  2    1    2    0    0 -.14864856E+03 -.69269531E+02 0.66607099E+02 0.34855651E+03 0.30026733E+03 0.0000E+00 0.0000E+00
       23  2    3    3    0    0 -.67126701E+02 -.56432424E+02 0.15245391E+03 0.19857140E+03 0.92183492E+02 0.0000E+00 0.0000E+00
      -24  1    1    2    0    0 0.92100724E+02 0.26834992E+03 0.35062209E+03 0.45814549E+03 0.80419002E+02 0.0000E+00 0.9000E+01
      -11  1    4    4    0    0 -.21492535E+02 -.61513503E+02 0.13415689E+03 0.14914393E+03 0.51099893E-03 0.0000E+00 0.9000E+01
       11  1    4    4    0    0 -.45634165E+02 0.50810788E+01 0.18297015E+02 0.49427474E+02 0.51099893E-03 0.0000E+00 0.9000E+01
       23  1    3    3    0    0 -.81521863E+02 -.12837107E+02 -.85846808E+02 0.14998510E+03 0.91188000E+02 0.0000E+00 0.9000E+01
       21  1    1    2  502  501 0.56547840E+02 -.19908039E+03 0.25548279E+03 0.32878972E+03 0.75000000E+00 0.0000E+00 0.9000E+01
#aMCatNLO 2  0  0  1  2 0.20695570D+03 0.00000000D+00  -5  7  0 0.00000000D+00 0.00000000D+00 0.00000000D+00 0.00000000D+00 0.00000000D+00
  <mgrwgt>
 0.2097370504D-03    2    2    0
 0.329339208103533D+03 0.000000000000000D+00 0.000000000000000D+00 0.329339208103533D+03
 0.329339208103533D+03 0.000000000000000D+00 0.000000000000000D+00 -.329339208103533D+03
 0.265808013286274D+03 0.116798247872233D+03 0.181400663197416D+03 0.132810589405889D+03
 0.114428085540939D+03 -.127902180767920D+02 -.921505822169279D+02 0.666218228450239D+02
 0.434918405055236D+02 -.418539900093670D+02 -.822727765616722D+01 -.849091356816466D+01
 0.234950476874329D+03 -.621540397860737D+02 -.810228033243211D+02 -.190941498682748D+03
 0.000000000000000D+00 0.000000000000000D+00 -.000000000000000D+00 0.000000000000000D+00
 0.510007801947737D+03 0.000000000000000D+00 0.000000000000000D+00 0.510007801947737D+03
 0.410188670898188D+03 0.000000000000000D+00 0.000000000000000D+00 -.410188670898188D+03
 0.323419374689867D+03 0.921007240955142D+02 0.268349920687814D+03 0.132810589405889D+03
 0.931896311928822D+02 -.214925350432756D+02 -.615135027460251D+02 0.666218228450239D+02
 0.466946467266001D+02 -.456341654699895D+02 0.508107877891745D+01 -.849091356816466D+01
 0.227122241853081D+03 -.815218631259577D+02 -.128371069025781D+02 -.190941498682748D+03
 0.229770578383495D+03 0.565478395437086D+02 -.199080389818128D+03 0.998191310495487D+02
-.688705339607D-06 0.000000000000D+00 0.000000000000D+00 0.272755578541D-05 0.000000000000D+00  7 1 -2 -24 -11 11 23 21 2 0.14523306D+00 0.28581838D-01 0.13539141D+06 0.13539141D+06 0.13539141D+06 0.11110808D+01  1  2 13  1  7  1        1 -.171289761713D-04 0.100000000000D+01
0.125481704998D-04 0.000000000000D+00 0.000000000000D+00 0.272755578541D-05 0.461076000933D-09  7 1 -2 -24 -11 11 23 21 2 0.13909240D+00 0.35598391D-01 0.13539141D+06 0.13539141D+06 0.13539141D+06 0.11110808D+01  1  2  1  1  7  1        1 0.226866026568D-03 0.100000000000D+01
  </mgrwgt>
  </event>
  <event>
  8     66 0.29493621E-05 0.28799713E+03 0.75467711E-02 0.95317704E-01
        1 -1    0    0  501    0 0.00000000E+00 0.00000000E+00 0.22272784E+03 0.22272807E+03 0.32000000E+00 0.0000E+00 0.9000E+01
       -2 -1    0    0    0  501 0.00000000E+00 0.00000000E+00 -.90808448E+03 0.90808454E+03 0.32000000E+00 0.0000E+00 0.9000E+01
       25  2    1    2    0    0 0.88552793E+02 0.18220447E+03 -.80572978E+03 0.88182070E+03 0.29557942E+03 0.0000E+00 0.0000E+00
       23  2    3    3    0    0 0.25487813E+02 0.22391057E+03 -.53453756E+03 0.58588648E+03 0.82140040E+02 0.0000E+00 0.0000E+00
      -24  1    1    2    0    0 -.88552793E+02 -.18220447E+03 0.12037314E+03 0.24899192E+03 0.80419002E+02 0.0000E+00 0.9000E+01
      -11  1    4    4    0    0 -.26267100E+02 0.35340441E+02 -.10967104E+03 0.11818056E+03 0.51099893E-03 0.0000E+00 0.9000E+01
       11  1    4    4    0    0 0.51754913E+02 0.18857013E+03 -.42486652E+03 0.46770592E+03 0.51099893E-03 0.0000E+00 0.9000E+01
       23  1    3    3    0    0 0.63064980E+02 -.41706105E+02 -.27119222E+03 0.29593422E+03 0.91188000E+02 0.0000E+00 0.9000E+01
#aMCatNLO 1  0  0  2  1 0.29633960D+03 0.00000000D+00  -5  7  0 0.00000000D+00 0.00000000D+00 0.00000000D+00 0.00000000D+00 0.00000000D+00
  <mgrwgt>
 0.3615122000D-02    5    2    0
 0.449728651473477D+03 0.000000000000000D+00 0.000000000000000D+00 0.449728651473477D+03
 0.449728651473477D+03 0.000000000000000D+00 0.000000000000000D+00 -.449728651473477D+03
 0.404757100626245D+03 -.885527934979772D+02 -.182204468998238D+03 0.341058688195695D+03
 0.650128569334990D+02 -.262670995178602D+02 0.353404409907588D+02 -.478305789234578D+02
 0.264273424238577D+03 0.517549127620560D+02 0.188570132935534D+03 -.177772823368618D+03
 0.165413921148633D+03 0.630649802537814D+02 -.417061049280541D+02 -.115455285903619D+03
 0.000000000000000D+00 0.000000000000000D+00 -.000000000000000D+00 -.000000000000000D+00
 0.523207059881909D+03 0.000000000000000D+00 0.000000000000000D+00 0.523207059881909D+03
 0.915255928391758D+03 0.000000000000000D+00 0.000000000000000D+00 -.915255928391758D+03
 0.424899916123106D+03 -.207190398910543D+03 -.121753162474629D+03 0.341058688195695D+03
 0.814474144099900D+02 -.472103272969071D+02 0.460119770324904D+02 -.478305789234578D+02
 0.291260318436371D+03 -.276841706498641D+02 0.229047992924267D+03 -.177772823368618D+03
 0.149409033200332D+03 0.180465682126107D+02 -.187671572306263D+02 -.115455285903619D+03
 0.491446306103870D+03 0.264038328644704D+03 -.134539650251502D+03 -.392048868509849D+03
0.705003861111D-03 0.000000000000D+00 0.000000000000D+00 0.338303443880D-08 0.000000000000D+00  7 1 -2 -24 -11 11 23 21 0 0.34265844D-01 0.13970533D+00 0.82942349D+05 0.82942349D+05 0.82942349D+05 0.11284490D+01  1  2  2  2  7  2       -2 0.376578906813D-02 0.100000000000D+01
-.297072583317D-04 0.000000000000D+00 -.270740045845D-05 0.338303443880D-08 0.000000000000D+00  7 1 -2 -24 -11 11 23 21 2 0.34265844D-01 0.13970533D+00 0.82942349D+05 0.82942349D+05 0.82942349D+05 0.11284490D+01  1  2  3  2  7  2       -2 -.202064911742D-03 0.100000000000D+01
0.436942756562D-04 0.000000000000D+00 0.000000000000D+00 0.338303443880D-08 0.000000000000D+00  7 1 -2 -24 -11 11 23 21 2 0.34265844D-01 0.13970533D+00 0.82942349D+05 0.82942349D+05 0.82942349D+05 0.11284490D+01  1  2 15  2  7  2       -2 0.297202786454D-03 0.100000000000D+01
-.330806393370D-03 0.000000000000D+00 -.194902735507D-03 0.338303443880D-08 0.000000000000D+00  7 1 -2 -24 -11 11 23 21 2 0.34265844D-01 0.30124886D+00 0.82942349D+05 0.82942349D+05 0.82942349D+05 0.11284490D+01  1  2  5  2  7  2       -2 -.181861260553D-03 0.100000000000D+01
-.153115166927D-04 0.000000000000D+00 -.162128440769D-04 0.338303443880D-08 0.000000000000D+00  7 1 21 -24 -11 11 23 2 2 0.34265844D-01 0.30124886D+00 0.82942349D+05 0.82942349D+05 0.82942349D+05 0.11284490D+01  1  2  5  4  7  2       -2 -.639436826831D-04 0.100000000000D+01
  </mgrwgt>
  </event>
  <event>
  8     66 0.29493621E-05 0.94259564E+02 0.75467711E-02 0.10410396E+00
        1 -1    0    0  501    0 0.00000000E+00 0.00000000E+00 0.21739845E+04 0.21739845E+04 0.32000000E+00 0.0000E+00 0.9000E+01
       -2 -1    0    0    0  501 0.00000000E+00 0.00000000E+00 -.29197307E+02 0.29199060E+02 0.32000000E+00 0.0000E+00 0.9000E+01
       25  2    1    2    0    0 -.89158450E+02 -.10359696E+03 0.11748920E+04 0.12204092E+04 0.30057591E+03 0.0000E+00 0.0000E+00
       23  2    3    3    0    0 -.23130501E+02 -.13412567E+03 0.95056031E+03 0.96756212E+03 0.11868799E+03 0.0000E+00 0.0000E+00
      -24  1    1    2    0    0 0.89158450E+02 0.10359696E+03 0.96989524E+03 0.98277442E+03 0.80419002E+02 0.0000E+00 0.9000E+01
      -13  1    4    4    0    0 0.20801641E+02 -.28111855E+01 0.29815141E+02 0.36463198E+02 0.10565837E+00 0.0000E+00 0.9000E+01
       13  1    4    4    0    0 -.43932142E+02 -.13131449E+03 0.92074517E+03 0.93109893E+03 0.10565837E+00 0.0000E+00 0.9000E+01
       23  1    3    3    0    0 -.66027949E+02 0.30528715E+02 0.22433165E+03 0.25284706E+03 0.91188000E+02 0.0000E+00 0.9000E+01
#aMCatNLO 1  0  0  1  2 0.33033119D+02 0.00000000D+00  -5  7  0 0.00000000D+00 0.00000000D+00 0.00000000D+00 0.00000000D+00 0.00000000D+00
  <mgrwgt>
 0.1413954690D-02    6    2    0
 0.251945332341124D+03 0.000000000000000D+00 0.000000000000000D+00 0.251945332341124D+03
 0.251945332341124D+03 0.000000000000000D+00 0.000000000000000D+00 -.251945332341124D+03
 0.168714320372181D+03 0.891584521577054D+02 0.103596960584186D+03 0.575825156695798D+02
 0.325221485717273D+02 0.208014470007261D+02 -.281146674652349D+01 -.248412078033795D+02
 0.151976241148804D+03 -.439315118613567D+02 -.131314664416010D+03 0.626359245849021D+02
 0.150677954589535D+03 -.660283872970747D+02 0.305291705783478D+02 -.953772324511024D+02
 0.000000000000000D+00 -.000000000000000D+00 0.000000000000000D+00 -.000000000000000D+00
 0.267087684638528D+03 0.000000000000000D+00 0.000000000000000D+00 0.267087684638528D+03
 0.271168854734155D+03 0.000000000000000D+00 0.000000000000000D+00 -.271168854734155D+03
 0.173363821771851D+03 0.100109032980629D+03 0.101243440033503D+03 0.575825156695798D+02
 0.339639031940449D+02 0.229297936962937D+02 -.326889523986064D+01 -.248412078033795D+02
 0.151295621172054D+03 -.342231948702503D+02 -.133401195159958D+03 0.626359245849021D+02
 0.146348919331950D+03 -.565199844243534D+02 0.284856057732484D+02 -.953772324511024D+02
 0.332842739027826D+02 -.322956473823187D+02 0.694104459306722D+01 -.408117009562690D+01
0.244824439367D-04 0.000000000000D+00 0.000000000000D+00 0.240007720762D-08 0.000000000000D+00  7 1 -2 -24 -13 13 23 21 0 0.33445929D+00 0.44920301D-02 0.47239259D+05 0.47239259D+05 0.47239259D+05 0.11494714D+01  1  2  2  1  7  1        1 0.136462403274D-02 0.100000000000D+01
-.132404857659D-05 0.000000000000D+00 -.940190310923D-07 0.240007720762D-08 0.000000000000D+00  7 1 -2 -24 -13 13 23 21 2 0.33445929D+00 0.44920301D-02 0.47239259D+05 0.47239259D+05 0.47239259D+05 0.11494714D+01  1  2  3  1  7  1        1 -.975121024049D-04 0.100000000000D+01
0.157848133365D-05 0.000000000000D+00 0.000000000000D+00 0.240007720762D-08 0.000000000000D+00  7 1 -2 -24 -13 13 23 21 2 0.33445929D+00 0.44920301D-02 0.47239259D+05 0.47239259D+05 0.47239259D+05 0.11494714D+01  1  2 15  1  7  1        1 0.116250291849D-03 0.100000000000D+01
0.295496800783D-04 0.000000000000D+00 0.000000000000D+00 0.240007720762D-08 0.000000000000D+00  7 1 -2 -24 -13 13 23 21 2 0.36649226D+00 0.44920301D-02 0.54858583D+05 0.54858583D+05 0.54858583D+05 0.11437696D+01  1  2 12  1  7  1        1 0.156454549928D-02 0.100000000000D+01
-.209589849891D-04 0.000000000000D+00 0.000000000000D+00 0.240007720762D-08 0.000000000000D+00  7 1 -2 -24 -13 13 23 21 2 0.33445929D+00 0.44920301D-02 0.47239259D+05 0.47239259D+05 0.47239259D+05 0.11494714D+01  1  2  4  1  7  1        1 -.154356473524D-02 0.100000000000D+01
0.444136474958D-06 0.000000000000D+00 0.000000000000D+00 0.240007720762D-08 0.000000000000D+00  7 21 -2 -24 -13 13 23 -1 2 0.36649226D+00 0.44920301D-02 0.54858583D+05 0.54858583D+05 0.54858583D+05 0.11437696D+01  1  2 12  3  7  1        1 0.961170417015D-05 0.100000000000D+01
  </mgrwgt>
  </event>
  <event>
  8     66 0.29493621E-05 0.17574185E+03 0.75467711E-02 0.93803703E-01
        1 -1    0    0  501    0 0.00000000E+00 0.00000000E+00 0.36225028E+03 0.36225042E+03 0.32000000E+00 0.0000E+00 0.9000E+01
       -2 -1    0    0    0  501 0.00000000E+00 0.00000000E+00 -.94933965E+03 0.94933970E+03 0.32000000E+00 0.0000E+00 0.9000E+01
       25  2    1    2    0    0 0.43211219E+03 0.24626555E+03 -.56120115E+03 0.80710515E+03 0.29850349E+03 0.0000E+00 0.0000E+00
       23  2    3    3    0    0 0.14652057E+02 0.74826596E+02 -.10201303E+03 0.15684885E+03 0.91548903E+02 0.0000E+00 0.0000E+00
      -24  1    1    2    0    0 -.43211219E+03 -.24626555E+03 -.25888225E+02 0.50448497E+03 0.80419002E+02 0.0000E+00 0.9000E+01
      -11  1    4    4    0    0 0.21489682E+02 0.66916569E+02 -.11823639E+03 0.13754809E+03 0.51099893E-03 0.0000E+00 0.9000E+01
       11  1    4    4    0    0 -.68376245E+01 0.79100275E+01 0.16223365E+02 0.19300757E+02 0.51099893E-03 0.0000E+00 0.9000E+01
       23  1    3    3    0    0 0.41746014E+03 0.17143895E+03 -.45918812E+03 0.65025630E+03 0.91188000E+02 0.0000E+00 0.9000E+01
#aMCatNLO 1  0  0  2  1 0.30043719D+02 0.00000000D+00  -5  7  0 0.00000000D+00 0.00000000D+00 0.00000000D+00 0.00000000D+00 0.00000000D+00
  <mgrwgt>
 0.9732667554D-03    6    2    0
 0.586428749455052D+03 0.000000000000000D+00 0.000000000000000D+00 0.586428749455052D+03
 0.586428749455052D+03 0.000000000000000D+00 0.000000000000000D+00 -.586428749455052D+03
 0.551199781934929D+03 -.432112192903833D+03 -.246265546170114D+03 0.223576199905356D+03
 0.946333131663753D+02 0.214896818257149D+02 0.669165690100342D+02 -.633705793550929D+02
 0.297045863124428D+02 -.683762447578177D+01 0.791002747519928D+01 0.278036113636906D+02
 0.497319817496357D+03 0.417460135553900D+03 0.171438949684880D+03 -.188009231913954D+03
 0.000000000000000D+00 -.000000000000000D+00 -.000000000000000D+00 0.000000000000000D+00
 0.605158735883307D+03 0.000000000000000D+00 0.000000000000000D+00 0.605158735883307D+03
 0.598793998906962D+03 0.000000000000000D+00 0.000000000000000D+00 -.598793998906962D+03
 0.540356695919283D+03 -.425073450455761D+03 -.234188785862920D+03 0.223576199905356D+03
 0.964224931390329D+02 0.227216772754017D+02 0.690303718455813D+02 -.633705793550929D+02
 0.298011916457612D+02 -.645391016166462D+01 0.856838737857964D+01 0.278036113636906D+02
 0.506661852502854D+03 0.423934164650041D+03 0.182546800013643D+03 -.188009231913954D+03
 0.307105015833375D+02 -.151284813080174D+02 -.259567733748840D+02 0.636473697634504D+01
0.242006683884D-03 0.000000000000D+00 0.000000000000D+00 0.162766932392D-05 0.000000000000D+00  7 1 -2 -24 -11 11 23 21 0 0.55730827D-01 0.14605227D+00 0.27299103D+06 0.27299103D+06 0.27299103D+06 0.10875963D+01  1  2  2  2  7  2       -2 0.580339336773D-03 0.100000000000D+01
-.132269169398D-04 0.000000000000D+00 -.929369387939D-06 0.162766932392D-05 0.000000000000D+00  7 1 -2 -24 -11 11 23 21 2 0.55730827D-01 0.14605227D+00 0.27299103D+06 0.27299103D+06 0.27299103D+06 0.10875963D+01  1  2  3  2  7  2       -2 -.375187806444D-04 0.100000000000D+01
0.154769598922D-04 0.000000000000D+00 0.000000000000D+00 0.162766932392D-05 0.000000000000D+00  7 1 -2 -24 -11 11 23 21 2 0.55730827D-01 0.14605227D+00 0.27299103D+06 0.27299103D+06 0.27299103D+06 0.10875963D+01  1  2 15  2  7  2       -2 0.439011347754D-04 0.100000000000D+01
0.372064749460D-03 0.000000000000D+00 0.000000000000D+00 0.162766932392D-05 0.000000000000D+00  7 1 -2 -24 -11 11 23 21 2 0.55730827D-01 0.15140395D+00 0.28937206D+06 0.28937206D+06 0.28937206D+06 0.10857127D+01  1  2 12  2  7  2       -2 0.950485822355D-03 0.100000000000D+01
-.233932375374D-03 0.000000000000D+00 0.000000000000D+00 0.162766932392D-05 0.000000000000D+00  7 1 -2 -24 -11 11 23 21 2 0.55730827D-01 0.14605227D+00 0.27299103D+06 0.27299103D+06 0.27299103D+06 0.10875963D+01  1  2  4  2  7  2       -2 -.663560338152D-03 0.100000000000D+01
0.458446877001D-05 0.000000000000D+00 0.000000000000D+00 0.162766932392D-05 0.000000000000D+00  7 1 21 -24 -11 11 23 2 2 0.55730827D-01 0.15140395D+00 0.28937206D+06 0.28937206D+06 0.28937206D+06 0.10857127D+01  1  2 12  4  7  2       -2 0.996195802565D-04 0.100000000000D+01
  </mgrwgt>
  </event>
  <event>
  8     66 0.29493621E-05 0.29278609E+03 0.75467711E-02 0.97984136E-01
        1 -1    0    0  501    0 0.00000000E+00 0.00000000E+00 0.49664235E+03 0.49664245E+03 0.32000000E+00 0.0000E+00 0.9000E+01
       -2 -1    0    0    0  501 0.00000000E+00 0.00000000E+00 -.21662977E+03 0.21663000E+03 0.32000000E+00 0.0000E+00 0.9000E+01
       25  2    1    2    0    0 -.18566996E+03 -.12234555E+03 0.29580893E+03 0.47629459E+03 0.29985304E+03 0.0000E+00 0.0000E+00
       23  2    3    3    0    0 0.29503970E+02 -.93292782E+02 0.15635370E+03 0.20260335E+03 0.83830843E+02 0.0000E+00 0.0000E+00
      -24  1    1    2    0    0 0.18566996E+03 0.12234555E+03 -.15796349E+02 0.23697786E+03 0.80419002E+02 0.0000E+00 0.9000E+01
      -11  1    4    4    0    0 0.22124851E+02 -.22015426E+01 0.81478951E+02 0.84458128E+02 0.51099893E-03 0.0000E+00 0.9000E+01
       11  1    4    4    0    0 0.73791195E+01 -.91091239E+02 0.74874744E+02 0.11814522E+03 0.51099893E-03 0.0000E+00 0.9000E+01
       23  1    3    3    0    0 -.21517393E+03 -.29052764E+02 0.13945524E+03 0.27369125E+03 0.91188000E+02 0.0000E+00 0.9000E+01
#aMCatNLO 1  0  0  2  1 0.15386630D+03 0.00000000D+00  -5  7  0 0.00000000D+00 0.00000000D+00 0.00000000D+00 0.00000000D+00 0.00000000D+00
  <mgrwgt>
 0.1818874476D-02    4    2    0
 0.328005543985600D+03 0.000000000000000D+00 0.000000000000000D+00 0.328005543985600D+03
 0.328005543985600D+03 0.000000000000000D+00 0.000000000000000D+00 -.328005543985600D+03
 0.264405528106193D+03 0.185669960620183D+03 0.122345545490236D+03 -.118327091406576D+03
 0.570516644588133D+02 0.221248509675008D+02 -.220154261079417D+01 0.525408088757659D+02
 0.964981545527307D+02 0.737911945792620D+01 -.910912392861740D+02 0.309810999387909D+02
 0.238055740853463D+03 -.215173931045610D+03 -.290527635932679D+02 0.348051825920194D+02
 0.000000000000000D+00 0.000000000000000D+00 -.000000000000000D+00 0.000000000000000D+00
 0.567033056213351D+03 0.000000000000000D+00 0.000000000000000D+00 0.567033056213351D+03
 0.362626455851510D+03 0.000000000000000D+00 0.000000000000000D+00 -.362626455851510D+03
 0.261595956550797D+03 0.143072610467153D+03 0.165813618568349D+03 -.118327091406576D+03
 0.545990295159641D+02 0.130830063248496D+02 0.702512435970406D+01 0.525408088757659D+02
 0.826459451485881D+02 -.712856572057228D+01 -.762870057536247D+02 0.309810999387909D+02
 0.274973127256275D+03 -.256720715552757D+03 0.133432694611218D+02 0.348051825920194D+02
 0.255845453593238D+03 0.107693664481326D+03 -.109895006635550D+03 0.204406600361841D+03
0.484770655436D-04 0.000000000000D+00 0.000000000000D+00 0.936983848244D-07 0.000000000000D+00  7 1 -2 -24 -11 11 23 21 0 0.76406541D-01 0.33327682D-01 0.85723696D+05 0.85723696D+05 0.85723696D+05 0.11272536D+01  1  2  2  2  7  2       -2 0.197372118709D-02 0.100000000000D+01
-.265092174260D-05 0.000000000000D+00 -.186164695992D-06 0.936983848244D-07 0.000000000000D+00  7 1 -2 -24 -11 11 23 21 2 0.76406541D-01 0.33327682D-01 0.85723696D+05 0.85723696D+05 0.85723696D+05 0.11272536D+01  1  2  3  2  7  2       -2 -.137148049253D-03 0.100000000000D+01
0.314976926921D-05 0.000000000000D+00 0.000000000000D+00 0.936983848244D-07 0.000000000000D+00  7 1 -2 -24 -11 11 23 21 2 0.76406541D-01 0.33327682D-01 0.85723696D+05 0.85723696D+05 0.85723696D+05 0.11272536D+01  1  2 15  2  7  2       -2 0.162956417736D-03 0.100000000000D+01
-.349186504045D-05 0.000000000000D+00 0.000000000000D+00 0.936983848244D-07 0.000000000000D+00  7 1 -2 -24 -11 11 23 21 2 0.76406541D-01 0.33327682D-01 0.85723696D+05 0.85723696D+05 0.85723696D+05 0.11272536D+01  1  2  4  2  7  2       -2 -.180655079650D-03 0.100000000000D+01
  </mgrwgt>
  </event>
  <event>
  8     66 0.29493621E-05 0.15250885E+03 0.75467711E-02 0.98900967E-01
        1 -1    0    0  501    0 0.00000000E+00 0.00000000E+00 0.23272483E+04 0.23272483E+04 0.32000000E+00 0.0000E+00 0.9000E+01
       -2 -1    0    0    0  501 0.00000000E+00 0.00000000E+00 -.95314160E+02 0.95314697E+02 0.32000000E+00 0.0000E+00 0.9000E+01
       25  2    1    2    0    0 -.23103122E+03 -.15273372E+03 0.20296410E+04 0.20702950E+04 0.29995963E+03 0.0000E+00 0.0000E+00
       23  2    3    3    0    0 -.88206648E+02 -.14687656E+03 0.59256508E+03 0.62325125E+03 0.89194216E+02 0.0000E+00 0.0000E+00
      -24  1    1    2    0    0 0.23103122E+03 0.15273372E+03 0.20229310E+03 0.35226798E+03 0.80419002E+02 0.0000E+00 0.9000E+01
      -13  1    4    4    0    0 -.56931873E+02 -.15005170E+03 0.51910216E+03 0.54334502E+03 0.10565837E+00 0.0000E+00 0.9000E+01
       13  1    4    4    0    0 -.31274775E+02 0.31751388E+01 0.73462916E+02 0.79906221E+02 0.10565837E+00 0.0000E+00 0.9000E+01
       23  1    3    3    0    0 -.14282457E+03 -.58571613E+01 0.14370759E+04 0.14470438E+04 0.91188000E+02 0.0000E+00 0.9000E+01
#aMCatNLO 1  0  0  2  1 0.43205799D+02 0.00000000D+00  -5  7  0 0.00000000D+00 0.00000000D+00 0.00000000D+00 0.00000000D+00 0.00000000D+00
  <mgrwgt>
 0.1100240338D-02    9    2    0
 0.470978122903500D+03 0.000000000000000D+00 0.000000000000000D+00 0.470978122903500D+03
 0.470978122903500D+03 0.000000000000000D+00 0.000000000000000D+00 -.470978122903500D+03
 0.426650922650413D+03 0.231031222770249D+03 0.152733722248620D+03 -.314421338393951D+03
 0.167402580625538D+03 -.569319089473764D+02 -.150051914692669D+03 0.476109718527296D+02
 0.314380708133462D+02 -.312747388094970D+02 0.317535380577107D+01 -.400171301927225D+00
 0.316464671717703D+03 -.142824575013375D+03 -.585716136172154D+01 0.267210537843149D+03
 0.000000000000000D+00 0.000000000000000D+00 -.000000000000000D+00 -.000000000000000D+00
 0.478718839680349D+03 0.000000000000000D+00 0.000000000000000D+00 0.478718839680349D+03
 0.535883357766105D+03 0.000000000000000D+00 0.000000000000000D+00 -.535883357766105D+03
 0.432467954766863D+03 0.228130808074152D+03 0.172211707836180D+03 -.314421338393951D+03
 0.161155650814622D+03 -.580411327673179D+02 -.142602826254635D+03 0.476109718527296D+02
 0.318264639599162D+02 -.314883220413656D+02 0.460969046034654D+01 -.400171301927225D+00
 0.317496540847246D+03 -.144964849736713D+03 0.851603853645148D+01 0.267210537843149D+03
 0.716555870578067D+02 0.636349647124494D+01 -.427346105783432D+02 -.571645180857560D+02
0.159844299394D-03 0.000000000000D+00 0.000000000000D+00 0.445681119052D-05 0.000000000000D+00  7 1 -2 -24 -13 13 23 21 0 0.35803824D+00 0.14663760D-01 0.10558305D+06 0.10558305D+06 0.10558305D+06 0.11197910D+01  1  2  2  2  7  2       -2 0.113791797368D-02 0.100000000000D+01
-.739263545233D-05 0.000000000000D+00 -.613844197643D-06 0.445681119052D-05 0.000000000000D+00  7 1 -2 -24 -13 13 23 21 2 0.35803824D+00 0.14663760D-01 0.10558305D+06 0.10558305D+06 0.10558305D+06 0.11197910D+01  1  2  3  2  7  2       -2 -.659913535764D-04 0.100000000000D+01
0.970147909370D-05 0.000000000000D+00 0.000000000000D+00 0.445681119052D-05 0.000000000000D+00  7 1 -2 -24 -13 13 23 21 2 0.35803824D+00 0.14663760D-01 0.10558305D+06 0.10558305D+06 0.10558305D+06 0.11197910D+01  1  2 15  2  7  2       -2 0.866015565375D-04 0.100000000000D+01
0.721868706670D-03 0.000000000000D+00 0.000000000000D+00 0.445681119052D-05 0.000000000000D+00  7 1 -2 -24 -13 13 23 21 2 0.35803824D+00 0.16794405D-01 0.12158968D+06 0.12158968D+06 0.12158968D+06 0.11148212D+01  1  2 12  2  7  2       -2 0.510302757403D-02 0.100000000000D+01
-.734795285863D-03 0.000000000000D+00 0.000000000000D+00 0.445681119052D-05 0.000000000000D+00  7 1 -2 -24 -13 13 23 21 2 0.35803824D+00 0.14663760D-01 0.10558305D+06 0.10558305D+06 0.10558305D+06 0.11197910D+01  1  2  4  2  7  2       -2 -.655924884005D-02 0.100000000000D+01
-.105900676879D-02 0.000000000000D+00 -.154128744577D-03 0.445681119052D-05 0.000000000000D+00  7 1 -2 -24 -13 13 23 21 2 0.35803824D+00 0.16969072D-01 0.10558305D+06 0.10558305D+06 0.10558305D+06 0.11197910D+01  1  2  5  2  7  2       -2 -.747428184096D-02 0.100000000000D+01
0.107169562369D-02 0.000000000000D+00 0.152500212043D-03 0.445681119052D-05 0.000000000000D+00  7 1 -2 -24 -13 13 23 21 2 0.35803824D+00 0.14663760D-01 0.10558305D+06 0.10558305D+06 0.10558305D+06 0.11197910D+01  1  2  6  2  7  2       -2 0.956663496869D-02 0.100000000000D+01
0.151696552066D-04 0.000000000000D+00 0.000000000000D+00 0.445681119052D-05 0.000000000000D+00  7 1 21 -24 -13 13 23 2 2 0.35803824D+00 0.16794405D-01 0.12158968D+06 0.12158968D+06 0.12158968D+06 0.11148212D+01  1  2 12  4  7  2       -2 0.141624059922D-02 0.100000000000D+01
-.226155165432D-04 0.000000000000D+00 -.343980544705D-05 0.445681119052D-05 0.000000000000D+00  7 1 21 -24 -13 13 23 2 2 0.35803824D+00 0.16969072D-01 0.10558305D+06 0.10558305D+06 0.10558305D+06 0.11197910D+01  1  2  5  4  7  2       -2 -.211066029982D-02 0.100000000000D+01
  </mgrwgt>
  </event>
  <event>
  8     66 0.29493621E-05 0.63039666E+03 0.75467711E-02 0.88507832E-01
        1 -1    0    0  501    0 0.00000000E+00 0.00000000E+00 0.75147815E+03 0.75147822E+03 0.32000000E+00 0.0000E+00 0.9000E+01
       -2 -1    0    0    0  501 0.00000000E+00 0.00000000E+00 -.23262519E+04 0.23262519E+04 0.32000000E+00 0.0000E+00 0.9000E+01
       25  2    1    2    0    0 -.27421935E+03 -.54502366E+03 -.21379388E+04 0.22435424E+04 0.30075375E+03 0.0000E+00 0.0000E+00
       23  2    3    3    0    0 -.23580116E+03 -.31793379E+03 -.10066567E+04 0.10854576E+04 0.90423642E+02 0.0000E+00 0.0000E+00
      -24  1    1    2    0    0 0.27421935E+03 0.54502366E+03 0.56316512E+03 0.83418776E+03 0.80419002E+02 0.0000E+00 0.9000E+01
      -13  1    4    4    0    0 -.22020861E+03 -.30982330E+03 -.99279537E+03 0.10630734E+04 0.10565837E+00 0.0000E+00 0.9000E+01
       13  1    4    4    0    0 -.15592547E+02 -.81104930E+01 -.13861362E+02 0.22384284E+02 0.10565837E+00 0.0000E+00 0.9000E+01
       23  1    3    3    0    0 -.38418190E+02 -.22708987E+03 -.11312821E+04 0.11580847E+04 0.91188000E+02 0.0000E+00 0.9000E+01
#aMCatNLO 1  0  0  2  1 0.45510955D+03 0.00000000D+00  -5  7  0 0.00000000D+00 0.00000000D+00 0.00000000D+00 0.00000000D+00 0.00000000D+00
  <mgrwgt>
 0.1736349088D-02    3    2    0
 0.132216776660822D+04 0.000000000000000D+00 0.000000000000000D+00 0.132216776660822D+04
 0.132216776660822D+04 0.000000000000000D+00 0.000000000000000D+00 -.132216776660822D+04
 0.130628748214411D+04 0.274219349848526D+03 0.545023662985638D+03 0.115224681601053D+04
 0.646070470957475D+03 -.220208891778277D+03 -.309823707370802D+03 -.522421637928607D+03
 0.177972900636201D+02 -.155922678006457D+02 -.811008109972653D+01 -.280201766544012D+01
 0.674180290051226D+03 -.384181902696037D+02 -.227089874515110D+03 -.627023160416484D+03
 0.000000000000000D+00 0.000000000000000D+00 -.000000000000000D+00 0.000000000000000D+00
 0.355564271879427D+04 0.000000000000000D+00 0.000000000000000D+00 0.355564271879427D+04
 0.136499447553486D+04 0.000000000000000D+00 0.000000000000000D+00 -.136499447553486D+04
 0.135538851476940D+04 0.108604312127357D+03 0.700816087426206D+03 0.115224681601053D+04
 0.646638775714156D+03 -.300643960095490D+03 -.234159235861403D+03 -.522421637928607D+03
 0.190572107875578D+02 -.178854317904554D+02 -.595292446390383D+01 -.280201766544012D+01
 0.662129078789516D+03 -.121566149218907D+03 -.148873413677744D+03 -.627023160416484D+03
 0.223742361426849D+04 0.331491228977495D+03 -.311830513423156D+03 0.219064824325941D+04
0.540922768114D-01 0.000000000000D+00 0.000000000000D+00 0.386275435108D-04 0.000000000000D+00  7 1 -2 -24 -13 13 23 21 0 0.11561203D+00 0.35788491D+00 0.39739995D+06 0.39739995D+06 0.39739995D+06 0.10756319D+01  1  2  2  2  7  2       -2 0.165383457145D-02 0.100000000000D+01
-.100063628441D-02 0.000000000000D+00 -.207728585780D-03 0.386275435108D-04 0.000000000000D+00  7 1 -2 -24 -13 13 23 21 2 0.11561203D+00 0.35788491D+00 0.39739995D+06 0.39739995D+06 0.39739995D+06 0.10756319D+01  1  2  3  2  7  2       -2 -.353965030842D-04 0.100000000000D+01
0.333326837970D-02 0.000000000000D+00 0.000000000000D+00 0.386275435108D-04 0.000000000000D+00  7 1 -2 -24 -13 13 23 21 2 0.11561203D+00 0.35788491D+00 0.39739995D+06 0.39739995D+06 0.39739995D+06 0.10756319D+01  1  2 15  2  7  2       -2 0.117911019539D-03 0.100000000000D+01
  </mgrwgt>
  </event>
  <event>
  8     66 0.29493621E-05 0.12645970E+03 0.75467711E-02 0.10289240E+00
        1 -1    0    0  501    0 0.00000000E+00 0.00000000E+00 0.84243415E+03 0.84243421E+03 0.32000000E+00 0.0000E+00 0.9000E+01
       -2 -1    0    0    0  501 0.00000000E+00 0.00000000E+00 -.53771996E+02 0.53772949E+02 0.32000000E+00 0.0000E+00 0.9000E+01
       25  2    1    2    0    0 0.63327780E+02 0.40362690E+02 0.64949872E+03 0.71880019E+03 0.29863954E+03 0.0000E+00 0.0000E+00
       23  2    3    3    0    0 -.83314763E+02 -.63129157E+01 0.20797077E+03 0.24241292E+03 0.92363313E+02 0.0000E+00 0.0000E+00
      -24  1    1    2    0    0 -.63327780E+02 -.40362690E+02 0.13916343E+03 0.17740696E+03 0.80419002E+02 0.0000E+00 0.9000E+01
      -13  1    4    4    0    0 0.17589531E+02 -.15180258E+02 0.40524342E+02 0.46712581E+02 0.10565837E+00 0.0000E+00 0.9000E+01
       13  1    4    4    0    0 -.10090429E+03 0.88673420E+01 0.16744643E+03 0.19570034E+03 0.10565837E+00 0.0000E+00 0.9000E+01
       23  1    3    3    0    0 0.14664254E+03 0.46675605E+02 0.44152795E+03 0.47638727E+03 0.91188000E+02 0.0000E+00 0.9000E+01
#aMCatNLO 1  0  0  2  1 0.89556350D+02 0.00000000D+00  -5  7  0 0.00000000D+00 0.00000000D+00 0.00000000D+00 0.00000000D+00 0.00000000D+00
  <mgrwgt>
 0.1445297325D-02    9    2    0
 0.212837543205893D+03 0.000000000000000D+00 0.000000000000000D+00 0.212837543205893D+03
 0.212837543205893D+03 0.000000000000000D+00 0.000000000000000D+00 -.212837543205893D+03
 0.115676179591620D+03 -.633277993257334D+02 -.403627016991467D+02 -.356960041832073D+02
 0.232667833654215D+02 0.175896849912763D+02 -.151802852086467D+02 -.122683783169075D+01
 0.101789896231972D+03 -.100904431318567D+03 0.886737604304518D+01 -.100423282810063D+02
 0.184942227222773D+03 0.146642545653024D+03 0.466756108647482D+02 0.469651702959043D+02
 0.000000000000000D+00 0.000000000000000D+00 -.000000000000000D+00 -.000000000000000D+00
 0.236459995681053D+03 0.000000000000000D+00 0.000000000000000D+00 0.236459995681053D+03
 0.323233112441097D+03 0.000000000000000D+00 0.000000000000000D+00 -.323233112441097D+03
 0.131364159493441D+03 -.890285606579865D+02 -.398627284260291D+02 -.356960041832073D+02
 0.200140790202329D+02 0.130869745491375D+02 -.150926911156721D+02 -.122683783169075D+01
 0.125279458337357D+03 -.124527517771851D+03 0.932693098394751D+01 -.100423282810063D+02
 0.158336118163566D+03 0.110929694634522D+03 0.473703556929364D+02 0.469651702959043D+02
 0.124699293107553D+03 0.895394092461784D+02 -.174186713518279D+01 -.867731167600440D+02
0.723209467804D-05 0.000000000000D+00 0.000000000000D+00 0.957037504619D-07 0.000000000000D+00  7 1 -2 -24 -13 13 23 21 0 0.12960533D+00 0.82726927D-02 0.42732762D+05 0.42732762D+05 0.42732762D+05 0.11533438D+01  1  2  2  2  7  2       -2 0.130044135812D-02 0.100000000000D+01
-.401367410479D-06 0.000000000000D+00 -.277731478179D-07 0.957037504619D-07 0.000000000000D+00  7 1 -2 -24 -13 13 23 21 2 0.12960533D+00 0.82726927D-02 0.42732762D+05 0.42732762D+05 0.42732762D+05 0.11533438D+01  1  2  3  2  7  2       -2 -.960033393555D-04 0.100000000000D+01
0.470268698322D-06 0.000000000000D+00 0.000000000000D+00 0.957037504619D-07 0.000000000000D+00  7 1 -2 -24 -13 13 23 21 2 0.12960533D+00 0.82726927D-02 0.42732762D+05 0.42732762D+05 0.42732762D+05 0.11533438D+01  1  2 15  2  7  2       -2 0.112483884477D-03 0.100000000000D+01
0.508171232007D-05 0.000000000000D+00 0.000000000000D+00 0.957037504619D-07 0.000000000000D+00  7 1 -2 -24 -13 13 23 21 2 0.12960533D+00 0.12830759D-01 0.65546452D+05 0.65546452D+05 0.65546452D+05 0.11370946D+01  1  2 12  2  7  2       -2 0.602779524116D-03 0.100000000000D+01
-.655830275821D-05 0.000000000000D+00 0.000000000000D+00 0.957037504619D-07 0.000000000000D+00  7 1 -2 -24 -13 13 23 21 2 0.12960533D+00 0.82726927D-02 0.42732762D+05 0.42732762D+05 0.42732762D+05 0.11533438D+01  1  2  4  2  7  2       -2 -.156868482307D-02 0.100000000000D+01
-.781274708327D-05 0.000000000000D+00 -.264774465622D-05 0.957037504619D-07 0.000000000000D+00  7 1 -2 -24 -13 13 23 21 2 0.12960533D+00 0.13918749D-01 0.42732762D+05 0.42732762D+05 0.42732762D+05 0.11533438D+01  1  2  5  2  7  2       -2 -.840045590717D-03 0.100000000000D+01
0.835562973807D-05 0.000000000000D+00 0.232579707220D-05 0.957037504619D-07 0.000000000000D+00  7 1 -2 -24 -13 13 23 21 2 0.12960533D+00 0.82726927D-02 0.42732762D+05 0.42732762D+05 0.42732762D+05 0.11533438D+01  1  2  6  2  7  2       -2 0.199858866547D-02 0.100000000000D+01
0.259132091965D-06 0.000000000000D+00 0.000000000000D+00 0.957037504619D-07 0.000000000000D+00  7 1 21 -24 -13 13 23 2 2 0.12960533D+00 0.12830759D-01 0.65546452D+05 0.65546452D+05 0.65546452D+05 0.11370946D+01  1  2 12  4  7  2       -2 0.432597970601D-03 0.100000000000D+01
-.329968698209D-06 0.000000000000D+00 -.154112763275D-06 0.957037504619D-07 0.000000000000D+00  7 1 21 -24 -13 13 23 2 2 0.12960533D+00 0.13918749D-01 0.42732762D+05 0.42732762D+05 0.42732762D+05 0.11533438D+01  1  2  5  4  7  2       -2 -.496860324262D-03 0.100000000000D+01
  </mgrwgt>
  </event>
  <event>
  8     66 -.29493621E-05 0.18667337E+03 0.75467711E-02 0.99707121E-01
        1 -1    0    0  501    0 0.00000000E+00 0.00000000E+00 0.22633371E+04 0.22633371E+04 0.32000000E+00 0.0000E+00 0.9000E+01
       -2 -1    0    0    0  501 0.00000000E+00 0.00000000E+00 -.62113441E+02 0.62114265E+02 0.32000000E+00 0.0000E+00 0.9000E+01
       25  2    1    2    0    0 0.27012329E+03 0.14152301E+03 0.11134443E+04 0.11928762E+04 0.30033336E+03 0.0000E+00 0.0000E+00
       23  2    3    3    0    0 0.41704559E+02 0.20055995E+02 0.10113676E+03 0.14406206E+03 0.91562650E+02 0.0000E+00 0.0000E+00
      -24  1    1    2    0    0 -.27012329E+03 -.14152301E+03 0.10877794E+04 0.11325752E+04 0.80419002E+02 0.0000E+00 0.9000E+01
      -11  1    4    4    0    0 0.27161797E+02 -.82055593E+01 0.10789856E+03 0.11156699E+03 0.51099893E-03 0.0000E+00 0.9000E+01
       11  1    4    4    0    0 0.14542762E+02 0.28261554E+02 -.67617989E+01 0.32495066E+02 0.51099893E-03 0.0000E+00 0.9000E+01
       23  1    3    3    0    0 0.22841873E+03 0.12146701E+03 0.10123076E+04 0.10488142E+04 0.91188000E+02 0.0000E+00 0.9000E+01
#aMCatNLO 1  0  0  2  1 0.36999925D+01 0.00000000D+00  -5  7  0 0.00000000D+00 0.00000000D+00 0.00000000D+00 0.00000000D+00 0.00000000D+00
  <mgrwgt>
 -.4585039415D-03   11    2    0
 0.374946183786906D+03 0.000000000000000D+00 0.000000000000000D+00 0.374946183786906D+03
 0.374946183786906D+03 0.000000000000000D+00 0.000000000000000D+00 -.374946183786906D+03
 0.319116232464419D+03 -.270123289669974D+03 -.141523005356991D+03 0.487093543429874D+02
 0.292505351321785D+02 0.271617970196875D+02 -.820555931113263D+01 0.710629190025212D+01
 0.120617213644330D+03 0.145427623085196D+02 0.282615539107431D+02 -.116354221506183D+03
 0.280908386332885D+03 0.228418730341767D+03 0.121467010757381D+03 0.605385752629435D+02
 0.000000000000000D+00 0.000000000000000D+00 -.000000000000000D+00 -.000000000000000D+00
 0.375826717767306D+03 0.000000000000000D+00 0.000000000000000D+00 0.375826717767306D+03
 0.378857828913680D+03 0.000000000000000D+00 0.000000000000000D+00 -.378857828913680D+03
 0.318792076156546D+03 -.270532142679648D+03 -.140003322969417D+03 0.487093543429874D+02
 0.291769772006352D+02 0.271243492173275D+02 -.806636805081824D+01 0.710629190025212D+01
 0.120734695237355D+03 0.143880732207570D+02 0.288365240752295D+02 -.116354221506183D+03
 0.281197746863153D+03 0.228058461034709D+03 0.122806110403868D+03 0.605385752629435D+02
 0.478305122329549D+01 0.961259206854118D+00 -.357294345886264D+01 -.303111114637477D+01
0.635368369960D-04 0.000000000000D+00 0.000000000000D+00 0.483696931326D-05 0.000000000000D+00  7 1 -2 -24 -11 11 23 21 0 0.34820578D+00 0.95559791D-02 0.10557376D+06 0.10557376D+06 0.10557376D+06 0.11197941D+01  1  2  2  2  7  2       -2 0.976311496233D-03 0.100000000000D+01
-.344181664346D-05 0.000000000000D+00 -.243998183698D-06 0.483696931326D-05 0.000000000000D+00  7 1 -2 -24 -11 11 23 21 2 0.34820578D+00 0.95559791D-02 0.10557376D+06 0.10557376D+06 0.10557376D+06 0.11197941D+01  1  2  3  2  7  2       -2 -.663173103908D-04 0.100000000000D+01
0.404542444142D-05 0.000000000000D+00 0.000000000000D+00 0.483696931326D-05 0.000000000000D+00  7 1 -2 -24 -11 11 23 21 2 0.34820578D+00 0.95559791D-02 0.10557376D+06 0.10557376D+06 0.10557376D+06 0.11197941D+01  1  2 15  2  7  2       -2 0.779476933654D-04 0.100000000000D+01
0.244773530858D-05 0.000000000000D+00 0.000000000000D+00 0.483696931326D-05 0.000000000000D+00  7 1 -2 -24 -11 11 23 21 2 0.34820578D+00 0.96668207D-02 0.10688903D+06 0.10688903D+06 0.10688903D+06 0.11193555D+01  1  2 12  2  7  2       -2 0.462778345699D-04 0.100000000000D+01
-.180585838344D-02 0.000000000000D+00 0.000000000000D+00 0.483696931326D-05 0.000000000000D+00  7 1 -2 -24 -11 11 23 21 2 0.34820578D+00 0.95559791D-02 0.10557376D+06 0.10557376D+06 0.10557376D+06 0.11197941D+01  1  2  4  2  7  2       -2 -.347954825438D-01 0.100000000000D+01
-.667354916427D-02 0.000000000000D+00 -.640626189842D-03 0.483696931326D-05 0.000000000000D+00  7 1 -2 -24 -11 11 23 21 2 0.34820578D+00 0.96810833D-02 0.10557376D+06 0.10557376D+06 0.10557376D+06 0.11197941D+01  1  2  5  2  7  2       -2 -.126035689298D+00 0.100000000000D+01
0.668137065347D-02 0.000000000000D+00 0.640572004380D-03 0.483696931326D-05 0.000000000000D+00  7 1 -2 -24 -11 11 23 21 2 0.34820578D+00 0.95559791D-02 0.10557376D+06 0.10557376D+06 0.10557376D+06 0.11197941D+01  1  2  6  2  7  2       -2 0.128737401600D+00 0.100000000000D+01
0.180349401433D-02 0.000000000000D+00 0.000000000000D+00 0.483696931326D-05 0.236118587768D-05  7 1 -2 -24 -11 11 23 21 2 0.34902351D+00 0.96556723D-02 0.10688903D+06 0.10688903D+06 0.10688903D+06 0.11193555D+01  1  2 11  2  7  2       -2 0.338801767297D-01 0.100000000000D+01
0.253547872387D-06 0.000000000000D+00 0.000000000000D+00 0.483696931326D-05 0.000000000000D+00  7 1 21 -24 -11 11 23 2 2 0.34820578D+00 0.96668207D-02 0.10688903D+06 0.10688903D+06 0.10688903D+06 0.11193555D+01  1  2 12  4  7  2       -2 0.702080059593D-04 0.100000000000D+01
-.159223018384D-04 0.000000000000D+00 -.153229688109D-05 0.483696931326D-05 0.000000000000D+00  7 1 21 -24 -11 11 23 2 2 0.34820578D+00 0.96810833D-02 0.10557376D+06 0.10557376D+06 0.10557376D+06 0.11197941D+01  1  2  5  4  7  2       -2 -.440408125278D-02 0.100000000000D+01
0.383274761503D-05 0.000000000000D+00 0.000000000000D+00 0.483696931326D-05 0.453109678858D-08  7 1 21 -24 -11 11 23 2 2 0.34902351D+00 0.96556723D-02 0.10688903D+06 0.10688903D+06 0.10688903D+06 0.11193555D+01  1  2 11  4  7  2       -2 0.105474310373D-02 0.100000000000D+01
  </mgrwgt>
  </event>
  <event>
  8     66 0.29493621E-05 0.88672224E+02 0.75467711E-02 0.10575086E+00
        3 -1    0    0  501    0 0.00000000E+00 0.00000000E+00 0.88487519E+03 0.88487533E+03 0.50000000E+00 0.0000E+00 0.9000E+01
       -4 -1    0    0    0  501 0.00000000E+00 0.00000000E+00 -.71477578E+02 0.71494382E+02 0.15500000E+01 0.0000E+00 0.9000E+01
       25  2    1    2    0    0 -.62996384E+02 0.43720082E+02 0.29846213E+03 0.42958156E+03 0.29930033E+03 0.0000E+00 0.0000E+00
       23  2    3    3    0    0 -.19386096E+02 0.12124939E+03 0.24963276E+03 0.29315499E+03 0.92445089E+02 0.0000E+00 0.0000E+00
      -24  1    1    2    0    0 0.62996384E+02 -.43720082E+02 0.51493548E+03 0.52678815E+03 0.80419002E+02 0.0000E+00 0.9000E+01
      -11  1    4    4    0    0 -.25609937E+02 -.59933631E+01 0.42149277E+02 0.49682500E+02 0.51099893E-03 0.0000E+00 0.9000E+01
       11  1    4    4    0    0 0.62238412E+01 0.12724276E+03 0.20748349E+03 0.24347249E+03 0.51099893E-03 0.0000E+00 0.9000E+01
       23  1    3    3    0    0 -.43610288E+02 -.77529313E+02 0.48829366E+02 0.13642657E+03 0.91188000E+02 0.0000E+00 0.9000E+01
#aMCatNLO 1  0  0  2  1 0.23834382D+02 0.00000000D+00  -5  7  0 0.00000000D+00 0.00000000D+00 0.00000000D+00 0.00000000D+00 0.00000000D+00
  <mgrwgt>
 0.3115357064D-04    9    2    0
 0.251509122525882D+03 0.000000000000000D+00 0.000000000000000D+00 0.251509122525882D+03
 0.251509122525882D+03 0.000000000000000D+00 0.000000000000000D+00 -.251509122525882D+03
 0.168894355824852D+03 0.629963836628523D+02 -.437200818983421D+02 0.127193150599103D+03
 0.263026586955938D+02 -.256099369330022D+02 -.599336308971252D+01 -.201453764957699D+00
 0.127397251605099D+03 0.622384119579934D+01 0.127242757617648D+03 0.777271612008662D+00
 0.180423978926221D+03 -.436102879256494D+02 -.775293126295929D+02 -.127768968446154D+03
 0.000000000000000D+00 -.000000000000000D+00 -.000000000000000D+00 -.000000000000000D+00
 0.259017321309511D+03 0.000000000000000D+00 0.000000000000000D+00 0.259017321309511D+03
 0.271445187901466D+03 0.000000000000000D+00 0.000000000000000D+00 -.271445187901466D+03
 0.171146561054624D+03 0.705307146811989D+02 -.408809262821533D+02 0.127193150599103D+03
 0.250965076886665D+02 -.244710788886236D+02 -.556420817139715D+01 -.201453764957699D+00
 0.129942149149387D+03 0.119257439172135D+02 0.129391400821012D+03 0.777271612008662D+00
 0.177397379735204D+03 -.356819933358979D+02 -.745417000523806D+02 -.127768968446154D+03
 0.268799115830963D+02 -.223033863738909D+02 -.840456631508051D+01 -.124278665919548D+02
0.634113824575D-05 0.000000000000D+00 0.000000000000D+00 0.594993756736D-06 0.000000000000D+00  7 3 -4 -24 -11 11 23 21 0 0.13613595D+00 0.10997854D-01 0.38455903D+05 0.38455903D+05 0.38455903D+05 0.11574605D+01  1  2  2  2  7  2       -4 0.572864334886D-04 0.100000000000D+01
-.325761651900D-06 0.000000000000D+00 -.243516405237D-07 0.594993756736D-06 0.000000000000D+00  7 3 -4 -24 -11 11 23 21 2 0.13613595D+00 0.10997854D-01 0.38455903D+05 0.38455903D+05 0.38455903D+05 0.11574605D+01  1  2  3  2  7  2       -4 -.394272841798D-05 0.100000000000D+01
0.393227826902D-06 0.000000000000D+00 0.000000000000D+00 0.594993756736D-06 0.000000000000D+00  7 3 -4 -24 -11 11 23 21 2 0.13613595D+00 0.10997854D-01 0.38455903D+05 0.38455903D+05 0.38455903D+05 0.11574605D+01  1  2 15  2  7  2       -4 0.475927881267D-05 0.100000000000D+01
0.170125554383D-04 0.000000000000D+00 0.000000000000D+00 0.594993756736D-06 0.000000000000D+00  7 3 -4 -24 -11 11 23 21 2 0.13613595D+00 0.12024432D-01 0.43356990D+05 0.43356990D+05 0.43356990D+05 0.11527812D+01  1  2 12  2  7  2       -4 0.176019393585D-03 0.100000000000D+01
-.165912591156D-04 0.000000000000D+00 0.000000000000D+00 0.594993756736D-06 0.000000000000D+00  7 3 -4 -24 -11 11 23 21 2 0.13613595D+00 0.10997854D-01 0.38455903D+05 0.38455903D+05 0.38455903D+05 0.11574605D+01  1  2  4  2  7  2       -4 -.200805799036D-03 0.100000000000D+01
-.423602456216D-04 0.000000000000D+00 -.830148901354D-05 0.594993756736D-06 0.000000000000D+00  7 3 -4 -24 -11 11 23 21 2 0.13613595D+00 0.12218810D-01 0.38455903D+05 0.38455903D+05 0.38455903D+05 0.11574605D+01  1  2  5  2  7  2       -4 -.428916358277D-03 0.100000000000D+01
0.430412522331D-04 0.000000000000D+00 0.825569728481D-05 0.594993756736D-06 0.000000000000D+00  7 3 -4 -24 -11 11 23 21 2 0.13613595D+00 0.10997854D-01 0.38455903D+05 0.38455903D+05 0.38455903D+05 0.11574605D+01  1  2  6  2  7  2       -4 0.520932919315D-03 0.100000000000D+01
0.250254689385D-06 0.000000000000D+00 0.000000000000D+00 0.594993756736D-06 0.000000000000D+00  7 3 21 -24 -11 11 23 4 2 0.13613595D+00 0.12024432D-01 0.43356990D+05 0.43356990D+05 0.43356990D+05 0.11527812D+01  1  2 12  4  7  2       -4 0.551717809969D-04 0.100000000000D+01
-.689028875810D-06 0.000000000000D+00 -.140937040586D-06 0.594993756736D-06 0.000000000000D+00  7 3 21 -24 -11 11 23 4 2 0.13613595D+00 0.12218810D-01 0.38455903D+05 0.38455903D+05 0.38455903D+05 0.11574605D+01  1  2  5  4  7  2       -4 -.149351349826D-03 0.100000000000D+01
  </mgrwgt>
  </event>
  <event>
  8     66 0.29493621E-05 0.12151763E+03 0.75467711E-02 0.10858561E+00
        1 -1    0    0  501    0 0.00000000E+00 0.00000000E+00 0.59586218E+03 0.59586227E+03 0.32000000E+00 0.0000E+00 0.9000E+01
       -2 -1    0    0    0  501 0.00000000E+00 0.00000000E+00 -.68995982E+02 0.68996724E+02 0.32000000E+00 0.0000E+00 0.9000E+01
       25  2    1    2    0    0 -.49409691E+02 0.32505457E+02 0.40259279E+03 0.50545693E+03 0.29984634E+03 0.0000E+00 0.0000E+00
       23  2    3    3    0    0 0.44131820E+01 0.65924871E+01 0.42973360E+01 0.92512735E+02 0.92071722E+02 0.0000E+00 0.0000E+00
      -24  1    1    2    0    0 0.49409691E+02 -.32505457E+02 0.12427340E+03 0.15940206E+03 0.80419002E+02 0.0000E+00 0.9000E+01
      -13  1    4    4    0    0 -.12141803E+02 -.58600561E+01 -.40754280E+02 0.42926521E+02 0.10565837E+00 0.0000E+00 0.9000E+01
       13  1    4    4    0    0 0.16554985E+02 0.12452543E+02 0.45051616E+02 0.49586214E+02 0.10565837E+00 0.0000E+00 0.9000E+01
       23  1    3    3    0    0 -.53822873E+02 0.25912970E+02 0.39829546E+03 0.41294419E+03 0.91188000E+02 0.0000E+00 0.9000E+01
#aMCatNLO 1  0  0  1  1 0.86582020D+02 0.00000000D+00  -5  7  0 0.00000000D+00 0.00000000D+00 0.00000000D+00 0.00000000D+00 0.00000000D+00
  <mgrwgt>
 0.4643062947D-02    3    2    0
 0.202761859047712D+03 0.000000000000000D+00 0.000000000000000D+00 0.202761859047712D+03
 0.202761859047712D+03 0.000000000000000D+00 0.000000000000000D+00 -.202761859047712D+03
 0.998818276879814D+02 0.494097340342276D+02 -.325054854541404D+02 -.335188692807721D+01
 0.123327389157683D+03 -.121418563462030D+02 -.586006819216505D+01 -.122588253277800D+03
 0.227646630961726D+02 0.165550132487991D+02 0.124525700770223D+02 0.943901057797791D+01
 0.159549838153587D+03 -.538228909368238D+02 0.259129835692832D+02 0.116501129627899D+03
 0.000000000000000D+00 -.000000000000000D+00 -.000000000000000D+00 -.000000000000000D+00
 0.209967946417679D+03 0.000000000000000D+00 0.000000000000000D+00 0.209967946417679D+03
 0.918265340444358D+03 0.000000000000000D+00 0.000000000000000D+00 -.918265340444358D+03
 0.101529918839364D+03 0.602336291884307D+02 -.142050425542911D+02 -.335188692807721D+01
 0.123710391653324D+03 0.113398820967712D+01 0.165859950577931D+02 -.122588253277800D+03
 0.273655385339141D+02 0.192490172275068D+02 0.170074429099470D+02 0.943901057797791D+01
 0.162057788375405D+03 -.365396525440257D+02 0.551345265374874D+02 0.116501129627899D+03
 0.713569649460031D+03 -.440769820815889D+02 -.745229219509364D+02 -.708297394026679D+03
0.219746474249D-04 0.000000000000D+00 0.000000000000D+00 0.648616879771D-06 0.000000000000D+00  7 1 -2 -24 -13 13 23 21 0 0.91671168D-01 0.10614830D-01 0.14766536D+05 0.14766536D+05 0.14766536D+05 0.11970235D+01  1  2  2  1  7  1        1 0.447150795738D-02 0.100000000000D+01
-.831746500238D-06 0.000000000000D+00 -.843884321690D-07 0.648616879771D-06 0.000000000000D+00  7 1 -2 -24 -13 13 23 21 2 0.91671168D-01 0.10614830D-01 0.14766536D+05 0.14766536D+05 0.14766536D+05 0.11970235D+01  1  2  3  1  7  1        1 -.242509306510D-03 0.100000000000D+01
0.142013737102D-05 0.000000000000D+00 0.000000000000D+00 0.648616879771D-06 0.000000000000D+00  7 1 -2 -24 -13 13 23 21 2 0.91671168D-01 0.10614830D-01 0.14766536D+05 0.14766536D+05 0.14766536D+05 0.11970235D+01  1  2 15  1  7  1        1 0.414064295907D-03 0.100000000000D+01
  </mgrwgt>
  </event>
  <event>
  9     66 0.29493621E-05 0.54463681E+03 0.75467711E-02 0.89115670E-01
        1 -1    0    0  502    0 0.00000000E+00 0.00000000E+00 0.14568957E+04 0.14568958E+04 0.32000000E+00 0.0000E+00 0.9000E+01
       -2 -1    0    0    0  501 0.00000000E+00 0.00000000E+00 -.71600425E+03 0.71600432E+03 0.32000000E+00 0.0000E+00 0.9000E+01
       25  2    1    2    0    0 -.16817904E+03 -.48308954E+03 -.13509504E+03 0.60810562E+03 0.29980341E+03 0.0000E+00 0.0000E+00
       23  2    3    3    0    0 -.20744567E+03 -.37865027E+03 -.14376867E+03 0.46374526E+03 0.89333674E+02 0.0000E+00 0.0000E+00
      -24  1    1    2    0    0 0.56877082E+03 0.20798580E+03 0.58425089E+02 0.61370925E+03 0.80419002E+02 0.0000E+00 0.9000E+01
      -13  1    4    4    0    0 -.68666841E+02 -.18122942E+03 -.27045137E+02 0.19568006E+03 0.10565837E+00 0.0000E+00 0.9000E+01
       13  1    4    4    0    0 -.13877883E+03 -.19742085E+03 -.11672353E+03 0.26806520E+03 0.10565837E+00 0.0000E+00 0.9000E+01
       23  1    3    3    0    0 0.39266634E+02 -.10443927E+03 0.86736268E+01 0.14436036E+03 0.91188000E+02 0.0000E+00 0.9000E+01
       21  1    1    2  502  501 -.40059178E+03 0.27510374E+03 0.81756145E+03 0.95108524E+03 0.75000000E+00 0.0000E+00 0.9000E+01
#aMCatNLO 2  0  0  1  2 0.48595868D+03 0.00000000D+00  -5  7  0 0.00000000D+00 0.00000000D+00 0.00000000D+00 0.00000000D+00 0.00000000D+00
  <mgrwgt>
 0.1014065919D-03    2    2    0
 0.559195280456652D+03 0.000000000000000D+00 0.000000000000000D+00 0.559195280456652D+03
 0.559195280456652D+03 0.000000000000000D+00 0.000000000000000D+00 -.559195280456652D+03
 0.521902911413266D+03 0.373341605401628D+03 0.342195509405246D+03 0.971272979460073D+02
 0.191937955613394D+03 -.134861593628556D+03 -.135770523197636D+03 -.147950802517346D+02
 0.285999772967531D+03 -.232553529663549D+03 -.133021788830000D+03 -.100099598775274D+03
 0.118549920919115D+03 -.592648210952193D+01 -.734031973776096D+02 0.177673810810010D+02
 0.000000000000000D+00 -.000000000000000D+00 0.000000000000000D+00 0.000000000000000D+00
 0.155137440284353D+04 0.000000000000000D+00 0.000000000000000D+00 0.155137440284353D+04
 0.672399426436352D+03 0.000000000000000D+00 0.000000000000000D+00 -.672399426436352D+03
 0.618594587113999D+03 0.568770816821970D+03 0.207985800423360D+03 0.971272979460073D+02
 0.194365917528790D+03 -.686667432283686D+02 -.181229395715934D+03 -.147950802517346D+02
 0.261255662431958D+03 -.138778928383211D+03 -.197420871527299D+03 -.100099598775274D+03
 0.145190773049267D+03 0.392666339720582D+02 -.104439268767406D+03 0.177673810810010D+02
 0.100436688915587D+04 -.400591779182448D+03 0.275103735587279D+03 0.878974976407178D+03
-.301214891412D-05 0.000000000000D+00 0.000000000000D+00 0.351264677193D-05 0.000000000000D+00  7 1 -2 -24 -13 13 23 21 2 0.21744864D+00 0.91609045D-01 0.70232827D+06 0.70232827D+06 0.70232827D+06 0.10582346D+01  1  2 13  1  7  1        1 -.278973360654D-05 0.100000000000D+01
0.188900825211D-03 0.000000000000D+00 0.000000000000D+00 0.351264677193D-05 0.142207124990D-09  7 1 -2 -24 -13 13 23 21 2 0.22413777D+00 0.11015449D+00 0.70232827D+06 0.70232827D+06 0.70232827D+06 0.10582346D+01  1  2  1  1  7  1        1 0.104196325503D-03 0.100000000000D+01
  </mgrwgt>
  </event>
  <event>
  8     66 0.29493621E-05 0.25665582E+03 0.75467711E-02 0.96503493E-01
        3 -1    0    0  501    0 0.00000000E+00 0.00000000E+00 0.84076431E+02 0.84077918E+02 0.50000000E+00 0.0000E+00 0.9000E+01
       -4 -1    0    0    0  501 0.00000000E+00 0.00000000E+00 -.12100104E+04 0.12100114E+04 0.15500000E+01 0.0000E+00 0.9000E+01
       25  2    1    2    0    0 0.17780436E+03 0.11504073E+03 -.91035552E+03 0.98137531E+03 0.29916810E+03 0.0000E+00 0.0000E+00
       23  2    3    3    0    0 0.11657022E+03 0.97903205E+02 -.81738442E+03 0.83645398E+03 0.91456580E+02 0.0000E+00 0.0000E+00
      -24  1    1    2    0    0 -.17780436E+03 -.11504073E+03 -.21557842E+03 0.31271398E+03 0.80419002E+02 0.0000E+00 0.9000E+01
      -13  1    4    4    0    0 0.68259909E+02 0.10654439E+03 -.52896377E+03 0.54388768E+03 0.10565837E+00 0.0000E+00 0.9000E+01
       13  1    4    4    0    0 0.48310314E+02 -.86411853E+01 -.28842065E+03 0.29256630E+03 0.10565837E+00 0.0000E+00 0.9000E+01
       23  1    3    3    0    0 0.61234140E+02 0.17137527E+02 -.92971100E+02 0.14492133E+03 0.91188000E+02 0.0000E+00 0.9000E+01
#aMCatNLO 1  0  0  2  2 0.28394998D+03 0.00000000D+00  -5  7  0 0.00000000D+00 0.00000000D+00 0.00000000D+00 0.00000000D+00 0.00000000D+00
  <mgrwgt>
 0.1354246238D-03    5    2    0
 0.318959179472564D+03 0.000000000000000D+00 0.000000000000000D+00 0.318959179472564D+03
 0.318959179472564D+03 0.000000000000000D+00 0.000000000000000D+00 -.318959179472564D+03
 0.253876921646523D+03 -.177804363871861D+03 -.115040731865373D+03 0.114618993148372D+03
 0.169709839304885D+03 0.682599360687423D+02 0.106544543964804D+03 -.113094079580290D+03
 0.844375133814558D+02 0.483102877610641D+02 -.864133871600865D+01 -.687105306898580D+02
 0.129894084612263D+03 0.612341400420548D+02 0.171375266165778D+02 0.671856171217759D+02
 0.000000000000000D+00 0.000000000000000D+00 -.000000000000000D+00 -.000000000000000D+00
 0.379050914439957D+03 0.000000000000000D+00 0.000000000000000D+00 0.379050914439957D+03
 0.102280590158992D+04 0.000000000000000D+00 0.000000000000000D+00 -.102280590158992D+04
 0.323260603678083D+03 -.285764645568113D+03 -.568441350442814D+02 0.114618993148372D+03
 0.181521004757471D+03 0.255812462604167D+01 0.141961474810762D+03 -.113094079580290D+03
 0.716706408639949D+02 0.191084431956087D+02 0.710007977518641D+01 -.687105306898580D+02
 0.121808036437969D+03 0.141503329774503D+02 0.425183175286490D+02 0.671856171217759D+02
 0.703596530292361D+03 0.249947744769012D+03 -.134735737070316D+03 -.643754987149966D+03
0.899222737718D-04 0.000000000000D+00 0.000000000000D+00 0.106948139274D-05 0.000000000000D+00  7 3 -4 -24 -13 13 23 21 0 0.12935026D-01 0.18615563D+00 0.65872211D+05 0.65872211D+05 0.65872211D+05 0.11369104D+01  1  2  2  2  7  2       -4 0.133697737908D-03 0.100000000000D+01
-.470879923914D-05 0.000000000000D+00 -.345325208362D-06 0.106948139274D-05 0.000000000000D+00  7 3 -4 -24 -13 13 23 21 2 0.12935026D-01 0.18615563D+00 0.65872211D+05 0.65872211D+05 0.65872211D+05 0.11369104D+01  1  2  3  2  7  2       -4 -.904939233961D-05 0.100000000000D+01
0.580545183652D-05 0.000000000000D+00 0.000000000000D+00 0.106948139274D-05 0.000000000000D+00  7 3 -4 -24 -13 13 23 21 2 0.12935026D-01 0.18615563D+00 0.65872211D+05 0.65872211D+05 0.65872211D+05 0.11369104D+01  1  2 15  2  7  2       -4 0.111569444160D-04 0.100000000000D+01
-.655176410073D-04 0.000000000000D+00 -.248398083935D-04 0.106948139274D-05 0.000000000000D+00  7 3 -4 -24 -13 13 23 21 2 0.12935026D-01 0.61165179D+00 0.65872211D+05 0.65872211D+05 0.65872211D+05 0.11369104D+01  1  2  5  2  7  2       -4 -.225299161233D-07 0.100000000000D+01
-.802204544776D-05 0.000000000000D+00 -.341933691469D-05 0.106948139274D-05 0.000000000000D+00  7 3 21 -24 -13 13 23 4 2 0.12935026D-01 0.61165179D+00 0.65872211D+05 0.65872211D+05 0.65872211D+05 0.11369104D+01  1  2  5  4  7  2       -4 -.358136309619D-06 0.100000000000D+01
  </mgrwgt>
  </event>
  <event>
  8     66 0.29493621E-05 0.37020773E+03 0.75467711E-02 0.94054519E-01
        3 -1    0    0  501    0 0.00000000E+00 0.00000000E+00 0.24028886E+03 0.24028938E+03 0.50000000E+00 0.0000E+00 0.9000E+01
       -4 -1    0    0    0  501 0.00000000E+00 0.00000000E+00 -.70109613E+03 0.70109784E+03 0.15500000E+01 0.0000E+00 0.9000E+01
       25  2    1    2    0    0 -.25174394E+02 0.30975797E+03 -.73582113E+02 0.43840185E+03 0.30033000E+03 0.0000E+00 0.0000E+00
       23  2    3    3    0    0 0.93957325E+01 -.44938721E+01 0.24036538E+02 0.95190602E+02 0.91515141E+02 0.0000E+00 0.0000E+00
      -24  1    1    2    0    0 0.25174394E+02 -.30975797E+03 -.38722515E+03 0.50298537E+03 0.80419002E+02 0.0000E+00 0.9000E+01
      -13  1    4    4    0    0 -.29026669E+02 0.27785489E+02 0.19895862E+02 0.44837902E+02 0.10565837E+00 0.0000E+00 0.9000E+01
       13  1    4    4    0    0 0.38422401E+02 -.32279362E+02 0.41406759E+01 0.50352701E+02 0.10565837E+00 0.0000E+00 0.9000E+01
       23  1    3    3    0    0 -.34570127E+02 0.31425184E+03 -.97618651E+02 0.34321125E+03 0.91188000E+02 0.0000E+00 0.9000E+01
#aMCatNLO 1  0  0  1  2 0.26627179D+03 0.00000000D+00  -5  7  0 0.00000000D+00 0.00000000D+00 0.00000000D+00 0.00000000D+00 0.00000000D+00
  <mgrwgt>
 0.2089964445D-03    3    2    0
 0.410446881069136D+03 0.000000000000000D+00 0.000000000000000D+00 0.410446881069136D+03
 0.410446881069136D+03 0.000000000000000D+00 0.000000000000000D+00 -.410446881069136D+03
 0.359447044776701D+03 0.251743941165336D+02 -.309757965266342D+03 -.161713372604908D+03
 0.625878651753720D+02 -.290267587373937D+02 0.277855693896028D+02 0.479859383372593D+02
 0.600679919086383D+02 0.384224912331205D+02 -.322794415440659D+02 0.330138375985017D+02
 0.338790860277561D+03 -.345701266122604D+02 0.314251837420805D+03 0.807135966691470D+02
 0.000000000000000D+00 -.000000000000000D+00 0.000000000000000D+00 -.000000000000000D+00
 0.446623845512630D+03 0.000000000000000D+00 0.000000000000000D+00 0.446623845512630D+03
 0.160346121725420D+04 0.000000000000000D+00 0.000000000000000D+00 -.160346121725420D+04
 0.477205129398137D+03 0.582876404613428D+02 -.437845698459762D+03 -.161713372604908D+03
 0.547156507790694D+02 -.243840884129633D+02 0.982692191576890D+01 0.479859383372593D+02
 0.764055401691322D+02 0.438238776476057D+02 -.531729333729513D+02 0.330138375985017D+02
 0.254672657818918D+03 -.110818667619021D+02 0.223395207733634D+03 0.807135966691470D+02
 0.118708608460158D+04 -.666455629340831D+02 0.257796502183311D+03 -.115683737174157D+04
0.157963503019D-03 0.000000000000D+00 0.000000000000D+00 0.594503076759D-05 0.000000000000D+00  7 3 -4 -24 -13 13 23 21 0 0.36967689D-01 0.10786111D+00 0.13705376D+06 0.13705376D+06 0.13705376D+06 0.11106587D+01  1  2  2  1  7  1        3 0.206421959603D-03 0.100000000000D+01
-.866215088070D-05 0.000000000000D+00 -.606621444340D-06 0.594503076759D-05 0.000000000000D+00  7 3 -4 -24 -13 13 23 21 2 0.36967689D-01 0.10786111D+00 0.13705376D+06 0.13705376D+06 0.13705376D+06 0.11106587D+01  1  2  3  1  7  1        3 -.139632377687D-04 0.100000000000D+01
0.102592430016D-04 0.000000000000D+00 0.000000000000D+00 0.594503076759D-05 0.000000000000D+00  7 3 -4 -24 -13 13 23 21 2 0.36967689D-01 0.10786111D+00 0.13705376D+06 0.13705376D+06 0.13705376D+06 0.11106587D+01  1  2 15  1  7  1        3 0.165377227124D-04 0.100000000000D+01
  </mgrwgt>
  </event>
  <event>
  8     66 0.29493621E-05 0.19491925E+03 0.75467711E-02 0.85483124E-01
        1 -1    0    0  501    0 0.00000000E+00 0.00000000E+00 0.94567175E+03 0.94567180E+03 0.32000000E+00 0.0000E+00 0.9000E+01
       -2 -1    0    0    0  501 0.00000000E+00 0.00000000E+00 -.10619093E+03 0.10619142E+03 0.32000000E+00 0.0000E+00 0.9000E+01
       25  2    1    2    0    0 -.15930726E+02 0.43061278E+02 0.11887014E+03 0.32532690E+03 0.29933162E+03 0.0000E+00 0.0000E+00
       23  2    3    3    0    0 -.12428511E+03 0.29890682E+02 0.88647745E+02 0.17992132E+03 0.90404735E+02 0.0000E+00 0.0000E+00
      -24  1    1    2    0    0 0.15930726E+02 -.43061278E+02 0.72061067E+03 0.72653631E+03 0.80419002E+02 0.0000E+00 0.9000E+01
      -11  1    4    4    0    0 0.10265948E+02 0.16972707E+02 0.20569587E+02 0.28575695E+02 0.51099893E-03 0.0000E+00 0.9000E+01
       11  1    4    4    0    0 -.13455106E+03 0.12917975E+02 0.68078158E+02 0.15134563E+03 0.51099893E-03 0.0000E+00 0.9000E+01
       23  1    3    3    0    0 0.10835439E+03 0.13170596E+02 0.30222396E+02 0.14540558E+03 0.91188000E+02 0.0000E+00 0.9000E+01
#aMCatNLO 1  0  0  1  1 0.11879554D+04 0.00000000D+00  -5  7  0 0.00000000D+00 0.00000000D+00 0.00000000D+00 0.00000000D+00 0.00000000D+00
  <mgrwgt>
 0.1582251736D-02    5    2    0
 0.316894379015508D+03 0.000000000000000D+00 0.000000000000000D+00 0.316894379015508D+03
 0.316894379015508D+03 0.000000000000000D+00 0.000000000000000D+00 -.316894379015508D+03
 0.251310851963619D+03 0.159307257507998D+02 -.430612775994892D+02 0.233627624027772D+03
 0.201801456202338D+02 0.102659478625615D+02 0.169727069747919D+02 -.371157778914350D+01
 0.161007254979019D+03 -.134551062801281D+03 0.129179750345926D+02 -.874784177722161D+02
 0.201290505468144D+03 0.108354389187919D+03 0.131705955901048D+02 -.142437628466412D+03
 0.000000000000000D+00 0.000000000000000D+00 0.000000000000000D+00 0.000000000000000D+00
 0.207441454212764D+04 0.000000000000000D+00 0.000000000000000D+00 0.207441454212764D+04
 0.925017529249644D+03 0.000000000000000D+00 0.000000000000000D+00 -.925017529249644D+03
 0.600963987648627D+03 -.146295538429538D+03 -.527926365341720D+03 0.233627624027772D+03
 0.659691986737111D+01 0.516906702334453D+01 0.173904806139024D+01 -.371157778914350D+01
 0.399109696957257D+03 -.241166530480745D+03 -.305736457108509D+03 -.874784177722161D+02
 0.339778865824529D+03 0.536453346585063D+01 -.294647535361423D+03 -.142437628466412D+03
 0.165298260107950D+04 0.376928468421088D+03 0.112657130975026D+04 0.114939701287800D+04
0.295131586966D-04 0.000000000000D+00 0.000000000000D+00 0.226108596806D-05 0.000000000000D+00  7 1 -2 -24 -11 11 23 21 0 0.14548800D+00 0.16337108D-01 0.37993513D+05 0.37993513D+05 0.37993513D+05 0.11579356D+01  1  2  2  1  7  1        1 0.153632134136D-02 0.100000000000D+01
-.116878665707D-05 0.000000000000D+00 -.113338300388D-06 0.226108596806D-05 0.000000000000D+00  7 1 -2 -24 -11 11 23 21 2 0.14548800D+00 0.16337108D-01 0.37993513D+05 0.37993513D+05 0.37993513D+05 0.11579356D+01  1  2  3  1  7  1        1 -.815775082921D-04 0.100000000000D+01
0.182683705147D-05 0.000000000000D+00 0.000000000000D+00 0.226108596806D-05 0.000000000000D+00  7 1 -2 -24 -11 11 23 21 2 0.14548800D+00 0.16337108D-01 0.37993513D+05 0.37993513D+05 0.37993513D+05 0.11579356D+01  1  2 15  1  7  1        1 0.127507286136D-03 0.100000000000D+01
0.310876713657D-04 0.000000000000D+00 -.140768283154D-04 0.226108596806D-05 0.000000000000D+00  7 1 -2 -24 -11 11 23 21 2 0.97311240D+00 0.16337108D-01 0.37993513D+05 0.37993513D+05 0.37993513D+05 0.11579356D+01  1  2  5  1  7  1        1 0.615287914493D-09 0.100000000000D+01
0.603171663059D-05 0.000000000000D+00 -.327464045870D-05 0.226108596806D-05 0.000000000000D+00  7 21 -2 -24 -11 11 23 -1 2 0.97311240D+00 0.16337108D-01 0.37993513D+05 0.37993513D+05 0.37993513D+05 0.11579356D+01  1  2  5  3  7  1        1 0.138757028967D-11 0.100000000000D+01
  </mgrwgt>
  </event>
  <event>
  8     66 0.29493621E-05 0.21509524E+03 0.75467711E-02 0.92918690E-01
        1 -1    0    0  501    0 0.00000000E+00 0.00000000E+00 0.42013129E+03 0.42013142E+03 0.32000000E+00 0.0000E+00 0.9000E+01
       -2 -1    0    0    0  501 0.00000000E+00 0.00000000E+00 -.49764056E+03 0.49764066E+03 0.32000000E+00 0.0000E+00 0.9000E+01
       25  2    1    2    0    0 -.88669416E+02 0.34628358E+03 -.23100749E+03 0.52052718E+03 0.29968234E+03 0.0000E+00 0.0000E+00
       23  2    3    3    0    0 -.50516322E+02 0.31596040E+03 -.87607757E+02 0.34373949E+03 0.89993584E+02 0.0000E+00 0.0000E+00
      -24  1    1    2    0    0 0.88669416E+02 -.34628358E+03 0.15349822E+03 0.39724489E+03 0.80419002E+02 0.0000E+00 0.9000E+01
      -11  1    4    4    0    0 -.70070239E+02 0.23755586E+03 -.42811664E+02 0.25134730E+03 0.51099893E-03 0.0000E+00 0.9000E+01
       11  1    4    4    0    0 0.19553917E+02 0.78404542E+02 -.44796093E+02 0.92392196E+02 0.51099893E-03 0.0000E+00 0.9000E+01
       23  1    3    3    0    0 -.38153094E+02 0.30323182E+02 -.14339973E+03 0.17678769E+03 0.91188000E+02 0.0000E+00 0.9000E+01
#aMCatNLO 1  0  0  2  1 0.31803298D+03 0.00000000D+00  -5  7  0 0.00000000D+00 0.00000000D+00 0.00000000D+00 0.00000000D+00 0.00000000D+00
  <mgrwgt>
 0.1554584689D-02    8    2    0
 0.457246624084631D+03 0.000000000000000D+00 0.000000000000000D+00 0.457246624084631D+03
 0.457246624084631D+03 0.000000000000000D+00 0.000000000000000D+00 -.457246624084631D+03
 0.411679153114811D+03 0.886694159508951D+02 -.346283582248266D+03 0.187717672303897D+03
 0.248619909862709D+03 -.700702390589413D+02 0.237555858528764D+03 -.216618387268105D+02
 0.889266982530891D+02 0.195539167689572D+02 0.784045419879152D+02 -.371258642573325D+02
 0.165267486938652D+03 -.381530936609109D+02 0.303231817315874D+02 -.128929969319753D+03
 0.000000000000000D+00 -.000000000000000D+00 -.000000000000000D+00 -.000000000000000D+00
 0.572141945906112D+03 0.000000000000000D+00 0.000000000000000D+00 0.572141945906112D+03
 0.771341614791034D+03 0.000000000000000D+00 0.000000000000000D+00 -.771341614791034D+03
 0.315663065613682D+03 0.895581425473648D+02 -.223421954262624D+03 0.187717672303897D+03
 0.345661697136880D+03 -.693440968712149D+02 0.337941074508023D+03 -.216618387268105D+02
 0.121466006927083D+03 0.198109918953313D+02 0.113943782814507D+03 -.371258642573325D+02
 0.185425569857172D+03 -.377245880156363D+02 0.895617612774286D+02 -.128929969319753D+03
 0.375267221162328D+03 -.230044955584484D+01 -.318024664337334D+03 -.199199668884921D+03
0.101443409304D-03 0.000000000000D+00 0.000000000000D+00 0.410677853686D-05 0.000000000000D+00  7 1 -2 -24 -11 11 23 21 0 0.64635601D-01 0.76560103D-01 0.15930683D+06 0.15930683D+06 0.15930683D+06 0.11054947D+01  1  2  2  2  7  2       -2 0.990443985816D-03 0.100000000000D+01
-.550913773291D-05 0.000000000000D+00 -.389569402391D-06 0.410677853686D-05 0.000000000000D+00  7 1 -2 -24 -11 11 23 21 2 0.64635601D-01 0.76560103D-01 0.15930683D+06 0.15930683D+06 0.15930683D+06 0.11054947D+01  1  2  3  2  7  2       -2 -.657359680546D-04 0.100000000000D+01
0.654753199751D-05 0.000000000000D+00 0.000000000000D+00 0.410677853686D-05 0.000000000000D+00  7 1 -2 -24 -11 11 23 21 2 0.64635601D-01 0.76560103D-01 0.15930683D+06 0.15930683D+06 0.15930683D+06 0.11054947D+01  1  2 15  2  7  2       -2 0.781262649604D-04 0.100000000000D+01
0.404140792568D-05 0.000000000000D+00 0.000000000000D+00 0.410677853686D-05 0.000000000000D+00  7 1 -2 -24 -11 11 23 21 2 0.64635601D-01 0.13335764D+00 0.33972338D+06 0.33972338D+06 0.33972338D+06 0.10805789D+01  1  2 12  2  7  2       -2 0.117261560162D-04 0.100000000000D+01
-.399372390189D-04 0.000000000000D+00 -.309920032326D-04 0.410677853686D-05 0.000000000000D+00  7 1 -2 -24 -11 11 23 21 2 0.64635601D-01 0.15093518D+00 0.15930683D+06 0.15930683D+06 0.15930683D+06 0.11054947D+01  1  2  5  2  7  2       -2 -.895003578904D-04 0.100000000000D+01
0.540276675249D-04 0.000000000000D+00 0.250066766917D-04 0.410677853686D-05 0.000000000000D+00  7 1 -2 -24 -11 11 23 21 2 0.64635601D-01 0.76560103D-01 0.15930683D+06 0.15930683D+06 0.15930683D+06 0.11054947D+01  1  2  6  2  7  2       -2 0.644667314318D-03 0.100000000000D+01
0.248063744418D-06 0.000000000000D+00 0.000000000000D+00 0.410677853686D-05 0.000000000000D+00  7 1 21 -24 -11 11 23 2 2 0.64635601D-01 0.13335764D+00 0.33972338D+06 0.33972338D+06 0.33972338D+06 0.10805789D+01  1  2 12  4  7  2       -2 0.625679284885D-05 0.100000000000D+01
-.109836655768D-05 0.000000000000D+00 -.227794470533D-05 0.410677853686D-05 0.000000000000D+00  7 1 21 -24 -11 11 23 2 2 0.64635601D-01 0.15093518D+00 0.15930683D+06 0.15930683D+06 0.15930683D+06 0.11054947D+01  1  2  5  4  7  2       -2 -.213994986606D-04 0.100000000000D+01
  </mgrwgt>
  </event>
  <event>
  8     66 0.29493621E-05 0.36809165E+03 0.75467711E-02 0.94095277E-01
        1 -1    0    0  501    0 0.00000000E+00 0.00000000E+00 0.19368793E+04 0.19368793E+04 0.32000000E+00 0.0000E+00 0.9000E+01
       -2 -1    0    0    0  501 0.00000000E+00 0.00000000E+00 -.11502506E+03 0.11502550E+03 0.32000000E+00 0.0000E+00 0.9000E+01
       25  2    1    2    0    0 0.28708804E+03 0.16249635E+03 0.43160221E+03 0.62078899E+03 0.30045615E+03 0.0000E+00 0.0000E+00
       23  2    3    3    0    0 0.13214934E+01 0.87182328E+02 0.55838254E+02 0.13411813E+03 0.85248216E+02 0.0000E+00 0.0000E+00
      -24  1    1    2    0    0 -.28708804E+03 -.16249635E+03 0.13902520E+04 0.14311158E+04 0.80419002E+02 0.0000E+00 0.9000E+01
      -13  1    4    4    0    0 0.24050038E+01 0.16644935E+02 0.61103852E+02 0.63376098E+02 0.10565837E+00 0.0000E+00 0.9000E+01
       13  1    4    4    0    0 -.10835103E+01 0.70537393E+02 -.52655985E+01 0.70742035E+02 0.10565837E+00 0.0000E+00 0.9000E+01
       23  1    3    3    0    0 0.28576655E+03 0.75314018E+02 0.37576396E+03 0.48667086E+03 0.91188000E+02 0.0000E+00 0.9000E+01
#aMCatNLO 1  0  0  2  1 0.27851333D+03 0.00000000D+00  -5  7  0 0.00000000D+00 0.00000000D+00 0.00000000D+00 0.00000000D+00 0.00000000D+00
  <mgrwgt>
 0.2150144727D-02    4    2    0
 0.472006496037867D+03 0.000000000000000D+00 0.000000000000000D+00 0.472006496037867D+03
 0.472006496037867D+03 0.000000000000000D+00 0.000000000000000D+00 -.472006496037867D+03
 0.427617975088437D+03 -.287088043048284D+03 -.162496345601183D+03 0.259933279649474D+03
 0.198293885364255D+02 0.240500909448372D+01 0.166448521631787D+02 0.105056878618156D+02
 0.163927067801201D+03 -.108351578162227D+01 0.705374754469431D+02 -.147970855606847D+03
 0.332638560649671D+03 0.285766549735423D+03 0.753140179910613D+02 -.122468111904443D+03
 0.000000000000000D+00 -.000000000000000D+00 -.000000000000000D+00 0.000000000000000D+00
 0.760736538021503D+03 0.000000000000000D+00 0.000000000000000D+00 0.760736538021503D+03
 0.564314275511081D+03 0.000000000000000D+00 0.000000000000000D+00 -.564314275511081D+03
 0.349027798701953D+03 -.184308176743800D+03 -.117551581990227D+03 0.259933279649474D+03
 0.232920392520036D+02 0.811161915085848D+01 0.191403043293047D+02 0.105056878618156D+02
 0.178957731262773D+03 0.442932248058395D+02 0.903803391562353D+02 -.147970855606847D+03
 0.432963357924623D+03 0.387084892651893D+03 0.119619669823145D+03 -.122468111904443D+03
 0.340809886391231D+03 -.255181559864791D+03 -.111588731318458D+03 0.196422262510422D+03
0.256472775982D-03 0.000000000000D+00 0.000000000000D+00 0.331867788222D-06 0.000000000000D+00  7 1 -2 -24 -13 13 23 21 0 0.29798146D+00 0.17696199D-01 0.13549146D+06 0.13549146D+06 0.13549146D+06 0.11110552D+01  1  2  2  2  7  2       -2 0.242181089868D-02 0.100000000000D+01
-.131773014915D-04 0.000000000000D+00 -.984922990604D-06 0.331867788222D-06 0.000000000000D+00  7 1 -2 -24 -13 13 23 21 2 0.29798146D+00 0.17696199D-01 0.13549146D+06 0.13549146D+06 0.13549146D+06 0.11110552D+01  1  2  3  2  7  2       -2 -.153601954394D-03 0.100000000000D+01
0.163847153916D-04 0.000000000000D+00 0.000000000000D+00 0.331867788222D-06 0.000000000000D+00  7 1 -2 -24 -13 13 23 21 2 0.29798146D+00 0.17696199D-01 0.13549146D+06 0.13549146D+06 0.13549146D+06 0.11110552D+01  1  2 15  2  7  2       -2 0.190989354533D-03 0.100000000000D+01
-.265132830374D-04 0.000000000000D+00 0.000000000000D+00 0.331867788222D-06 0.000000000000D+00  7 1 -2 -24 -13 13 23 21 2 0.29798146D+00 0.17696199D-01 0.13549146D+06 0.13549146D+06 0.13549146D+06 0.11110552D+01  1  2  4  2  7  2       -2 -.309053571749D-03 0.100000000000D+01
  </mgrwgt>
  </event>
  <event>
  8     66 0.29493621E-05 0.37509932E+03 0.75467711E-02 0.87248977E-01
        1 -1    0    0  501    0 0.00000000E+00 0.00000000E+00 0.89549108E+03 0.89549114E+03 0.32000000E+00 0.0000E+00 0.9000E+01
       -2 -1    0    0    0  501 0.00000000E+00 0.00000000E+00 -.15365714E+04 0.15365715E+04 0.32000000E+00 0.0000E+00 0.9000E+01
       25  2    1    2    0    0 -.43807514E+03 -.82429043E+03 0.37573148E+03 0.10494064E+04 0.29785095E+03 0.0000E+00 0.0000E+00
       23  2    3    3    0    0 -.34239563E+03 -.39680525E+03 0.18934836E+03 0.56468790E+03 0.91271289E+02 0.0000E+00 0.0000E+00
      -24  1    1    2    0    0 0.43807514E+03 0.82429043E+03 -.10168118E+04 0.13826562E+04 0.80419002E+02 0.0000E+00 0.9000E+01
      -13  1    4    4    0    0 -.18679029E+03 -.26999996E+03 0.88422874E+02 0.34001354E+03 0.10565837E+00 0.0000E+00 0.9000E+01
       13  1    4    4    0    0 -.15560533E+03 -.12680529E+03 0.10092549E+03 0.22467436E+03 0.10565837E+00 0.0000E+00 0.9000E+01
       23  1    3    3    0    0 -.95679514E+02 -.42748518E+03 0.18638312E+03 0.48471854E+03 0.91188000E+02 0.0000E+00 0.9000E+01
#aMCatNLO 1  0  0  2  1 0.11015600D+03 0.00000000D+00  -5  7  0 0.00000000D+00 0.00000000D+00 0.00000000D+00 0.00000000D+00 0.00000000D+00
  <mgrwgt>
 0.2201025865D-02    9    2    0
 0.117302434479503D+04 0.000000000000000D+00 0.000000000000000D+00 0.117302434479503D+04
 0.117302434479503D+04 0.000000000000000D+00 0.000000000000000D+00 -.117302434479503D+04
 0.115549530226109D+04 0.438075138841875D+03 0.824290429855131D+03 -.676267430511768D+03
 0.376642118999126D+03 -.186790333231728D+03 -.270000156114676D+03 0.184576739903442D+03
 0.260490363688828D+03 -.155605291778494D+03 -.126805098507463D+03 0.166020148589803D+03
 0.553420904641018D+03 -.956795138316536D+02 -.427485175232992D+03 0.325670542018523D+03
 0.000000000000000D+00 0.000000000000000D+00 -.000000000000000D+00 -.000000000000000D+00
 0.120802620120405D+04 0.000000000000000D+00 0.000000000000000D+00 0.120802620120405D+04
 0.126430870297636D+04 0.000000000000000D+00 0.000000000000000D+00 -.126430870297636D+04
 0.117257569160959D+04 0.402330241791378D+03 0.865597640690203D+03 -.676267430511768D+03
 0.373209582420091D+03 -.198303458020850D+03 -.256695457758350D+03 0.184576739903442D+03
 0.261055959644583D+03 -.163613045701678D+03 -.117551246715611D+03 0.166020148589803D+03
 0.541792155902880D+03 -.112495271684645D+03 -.408052693611805D+03 0.325670542018523D+03
 0.123701514603267D+03 0.720815336157950D+02 -.832982426044367D+02 -.562825017723066D+02
0.774481627030D-02 0.000000000000D+00 0.000000000000D+00 0.444083244794D-05 0.000000000000D+00  7 1 -2 -24 -13 13 23 21 0 0.13776787D+00 0.23639561D+00 0.91529771D+06 0.91529771D+06 0.91529771D+06 0.10504322D+01  1  2  2  2  7  2       -2 0.104279638339D-02 0.100000000000D+01
-.408530972318D-03 0.000000000000D+00 -.297421337349D-04 0.444083244794D-05 0.000000000000D+00  7 1 -2 -24 -13 13 23 21 2 0.13776787D+00 0.23639561D+00 0.91529771D+06 0.91529771D+06 0.91529771D+06 0.10504322D+01  1  2  3  2  7  2       -2 -.606945188492D-04 0.100000000000D+01
0.487018151286D-03 0.000000000000D+00 0.000000000000D+00 0.444083244794D-05 0.000000000000D+00  7 1 -2 -24 -13 13 23 21 2 0.13776787D+00 0.23639561D+00 0.91529771D+06 0.91529771D+06 0.91529771D+06 0.10504322D+01  1  2 15  2  7  2       -2 0.723551807967D-04 0.100000000000D+01
0.185544953883D-01 0.000000000000D+00 0.000000000000D+00 0.444083244794D-05 0.000000000000D+00  7 1 -2 -24 -13 13 23 21 2 0.13776787D+00 0.25812125D+00 0.10270707D+07 0.10270707D+07 0.10270707D+07 0.10470926D+01  1  2 12  2  7  2       -2 0.195801228739D-02 0.100000000000D+01
-.180515498319D-01 0.000000000000D+00 0.000000000000D+00 0.444083244794D-05 0.000000000000D+00  7 1 -2 -24 -13 13 23 21 2 0.13776787D+00 0.23639561D+00 0.91529771D+06 0.91529771D+06 0.91529771D+06 0.10504322D+01  1  2  4  2  7  2       -2 -.268187776636D-02 0.100000000000D+01
-.502336287976D-01 0.000000000000D+00 -.913419313200D-02 0.444083244794D-05 0.000000000000D+00  7 1 -2 -24 -13 13 23 21 2 0.13776787D+00 0.25849914D+00 0.91529771D+06 0.91529771D+06 0.91529771D+06 0.10504322D+01  1  2  5  2  7  2       -2 -.534908464534D-02 0.100000000000D+01
0.508830556337D-01 0.000000000000D+00 0.909782406607D-02 0.444083244794D-05 0.000000000000D+00  7 1 -2 -24 -13 13 23 21 2 0.13776787D+00 0.23639561D+00 0.91529771D+06 0.91529771D+06 0.91529771D+06 0.10504322D+01  1  2  6  2  7  2       -2 0.755958002827D-02 0.100000000000D+01
0.269419032403D-03 0.000000000000D+00 0.000000000000D+00 0.444083244794D-05 0.000000000000D+00  7 1 21 -24 -13 13 23 2 2 0.13776787D+00 0.25812125D+00 0.10270707D+07 0.10270707D+07 0.10270707D+07 0.10470926D+01  1  2 12  4  7  2       -2 0.201274439576D-03 0.100000000000D+01
-.715582137040D-03 0.000000000000D+00 -.134555660283D-03 0.444083244794D-05 0.000000000000D+00  7 1 21 -24 -13 13 23 2 2 0.13776787D+00 0.25849914D+00 0.91529771D+06 0.91529771D+06 0.91529771D+06 0.10504322D+01  1  2  5  4  7  2       -2 -.541335524047D-03 0.100000000000D+01
  </mgrwgt>
  </event>
  <event>
  8     66 0.29493621E-05 0.34210600E+03 0.75467711E-02 0.97044009E-01
        1 -1    0    0  501    0 0.00000000E+00 0.00000000E+00 0.26718626E+03 0.26718645E+03 0.32000000E+00 0.0000E+00 0.9000E+01
       -2 -1    0    0    0  501 0.00000000E+00 0.00000000E+00 -.48703538E+03 0.48703549E+03 0.32000000E+00 0.0000E+00 0.9000E+01
       25  2    1    2    0    0 -.21206622E+03 -.18440160E+03 -.44883055E+02 0.41355147E+03 0.30005716E+03 0.0000E+00 0.0000E+00
       23  2    3    3    0    0 -.20198733E+03 -.21298155E+03 -.40471446E+02 0.31735838E+03 0.11365906E+03 0.0000E+00 0.0000E+00
      -24  1    1    2    0    0 0.21206622E+03 0.18440160E+03 -.17496607E+03 0.34067047E+03 0.80419002E+02 0.0000E+00 0.9000E+01
      -13  1    4    4    0    0 -.80252919E+02 -.11120156E+03 0.35170003E+02 0.14157421E+03 0.10565837E+00 0.0000E+00 0.9000E+01
       13  1    4    4    0    0 -.12173441E+03 -.10177999E+03 -.75641449E+02 0.17578417E+03 0.10565837E+00 0.0000E+00 0.9000E+01
       23  1    3    3    0    0 -.10078890E+02 0.28579946E+02 -.44116091E+01 0.96193092E+02 0.91188000E+02 0.0000E+00 0.9000E+01
#aMCatNLO 1  0  0  1  2 0.11868416D+03 0.00000000D+00  -5  7  0 0.00000000D+00 0.00000000D+00 0.00000000D+00 0.00000000D+00 0.00000000D+00
  <mgrwgt>
 0.8201510624D-03    4    2    0
 0.360734356853230D+03 0.000000000000000D+00 0.000000000000000D+00 0.360734356853230D+03
 0.360734356853230D+03 0.000000000000000D+00 0.000000000000000D+00 -.360734356853230D+03
 0.302819799744941D+03 0.212066220726631D+03 0.184401599268436D+03 -.790985674785763D+02
 0.158718534244923D+03 -.802529405480926D+02 -.111201583740839D+03 0.799077369205908D+02
 0.160714619690799D+03 -.121734425300774D+03 -.101780033266480D+03 -.255096747788457D+02
 0.992157600257978D+02 -.100788548777637D+02 0.285800177388827D+02 0.247005053368312D+02
 0.000000000000000D+00 -.000000000000000D+00 0.000000000000000D+00 -.000000000000000D+00
 0.381734870199460D+03 0.000000000000000D+00 0.000000000000000D+00 0.381734870199460D+03
 0.583602815380390D+03 0.000000000000000D+00 0.000000000000000D+00 -.583602815380390D+03
 0.333151184114970D+03 0.262399653374151D+03 0.171500245057546D+03 -.790985674785763D+02
 0.152605297650252D+03 -.556134561660259D+02 -.117517121920260D+03 0.799077369205908D+02
 0.147633224665910D+03 -.973304731554427D+02 -.108035200343547D+03 -.255096747788457D+02
 0.977758255134806D+02 0.551189211306715D+01 0.245838319283569D+02 0.247005053368312D+02
 0.234172153635236D+03 -.114967616165750D+03 0.294682452779041D+02 -.201867945180930D+03
0.469566111533D-04 0.000000000000D+00 0.000000000000D+00 0.147243017786D-07 0.000000000000D+00  7 1 -2 -24 -13 13 23 21 0 0.41105602D-01 0.74928543D-01 0.11703651D+06 0.11703651D+06 0.11703651D+06 0.11161582D+01  1  2  2  1  7  1        1 0.882463556739D-03 0.100000000000D+01
-.259978390368D-05 0.000000000000D+00 -.180325750788D-06 0.147243017786D-07 0.000000000000D+00  7 1 -2 -24 -13 13 23 21 2 0.41105602D-01 0.74928543D-01 0.11703651D+06 0.11703651D+06 0.11703651D+06 0.11161582D+01  1  2  3  1  7  1        1 -.608679700342D-04 0.100000000000D+01
0.296978698858D-05 0.000000000000D+00 0.000000000000D+00 0.147243017786D-07 0.000000000000D+00  7 1 -2 -24 -13 13 23 21 2 0.41105602D-01 0.74928543D-01 0.11703651D+06 0.11703651D+06 0.11703651D+06 0.11161582D+01  1  2 15  1  7  1        1 0.695307426024D-04 0.100000000000D+01
-.303148530105D-05 0.000000000000D+00 0.000000000000D+00 0.147243017786D-07 0.000000000000D+00  7 1 -2 -24 -13 13 23 21 2 0.41105602D-01 0.74928543D-01 0.11703651D+06 0.11703651D+06 0.11703651D+06 0.11161582D+01  1  2  4  1  7  1        1 -.709752669067D-04 0.100000000000D+01
  </mgrwgt>
  </event>
  <event>
  8     66 0.29493621E-05 0.20333727E+03 0.75467711E-02 0.96500900E-01
        1 -1    0    0  501    0 0.00000000E+00 0.00000000E+00 0.23552943E+03 0.23552965E+03 0.32000000E+00 0.0000E+00 0.9000E+01
       -2 -1    0    0    0  501 0.00000000E+00 0.00000000E+00 -.27359396E+03 0.27359415E+03 0.32000000E+00 0.0000E+00 0.9000E+01
       25  2    1    2    0    0 0.36703387E+01 0.13939000E+03 0.35243038E+02 0.33225023E+03 0.29950810E+03 0.0000E+00 0.0000E+00
       23  2    3    3    0    0 -.57630625E+02 0.97703735E+02 0.11871642E+03 0.18810236E+03 0.91769286E+02 0.0000E+00 0.0000E+00
      -24  1    1    2    0    0 -.36703387E+01 -.13939000E+03 -.73307571E+02 0.17687357E+03 0.80419002E+02 0.0000E+00 0.9000E+01
      -11  1    4    4    0    0 -.70100852E+01 -.82124035E+01 0.51934392E+02 0.53044943E+02 0.51099893E-03 0.0000E+00 0.9000E+01
       11  1    4    4    0    0 -.50620540E+02 0.10591614E+03 0.66782025E+02 0.13505742E+03 0.51099893E-03 0.0000E+00 0.9000E+01
       23  1    3    3    0    0 0.61300964E+02 0.41686261E+02 -.83473379E+02 0.14414787E+03 0.91188000E+02 0.0000E+00 0.9000E+01
#aMCatNLO 1  0  0  2  2 0.32637649D+03 0.00000000D+00  -5  7  0 0.00000000D+00 0.00000000D+00 0.00000000D+00 0.00000000D+00 0.00000000D+00
  <mgrwgt>
 0.1033402723D-02    5    2    0
 0.253849430543972D+03 0.000000000000000D+00 0.000000000000000D+00 0.253849430543972D+03
 0.253849430543972D+03 0.000000000000000D+00 0.000000000000000D+00 -.253849430543972D+03
 0.171873781681584D+03 -.367033867691217D+01 -.139389995840815D+03 -.602522908166388D+02
 0.570875833024255D+02 -.701008522121855D+01 -.821240351725623D+01 0.560571788531351D+02
 0.140443436213593D+03 -.506205400819432D+02 0.105916138432560D+03 0.770953391381647D+02
 0.138294059890341D+03 0.613009639800739D+02 0.416862609255110D+02 -.729002271746610D+02
 0.000000000000000D+00 0.000000000000000D+00 0.000000000000000D+00 -.000000000000000D+00
 0.365721133497382D+03 0.000000000000000D+00 0.000000000000000D+00 0.365721133497382D+03
 0.718247776774114D+03 0.000000000000000D+00 0.000000000000000D+00 -.718247776774114D+03
 0.264744866161183D+03 -.100639232784286D+03 -.223302562637042D+03 -.602522908166388D+02
 0.747284475634992D+02 -.362851855904889D+02 -.335457729221141D+02 0.560571788531351D+02
 0.147012670786053D+03 -.114461837144922D+03 0.506707202655434D+02 0.770953391381647D+02
 0.117069931792014D+03 0.458702381597965D+01 -.739145967865638D+01 -.729002271746610D+02
 0.480412993968748D+03 0.246799231703717D+03 0.213569074972269D+03 -.352526643276732D+03
0.140543680877D-04 0.000000000000D+00 0.000000000000D+00 0.808728590972D-06 0.000000000000D+00  7 1 -2 -24 -11 11 23 21 0 0.36235328D-01 0.42091410D-01 0.41346047D+05 0.41346047D+05 0.41346047D+05 0.11546268D+01  1  2  2  2  7  2       -2 0.100341421483D-02 0.100000000000D+01
-.734063680837D-06 0.000000000000D+00 -.539724740567D-07 0.808728590972D-06 0.000000000000D+00  7 1 -2 -24 -11 11 23 21 2 0.36235328D-01 0.42091410D-01 0.41346047D+05 0.41346047D+05 0.41346047D+05 0.11546268D+01  1  2  3  2  7  2       -2 -.698692207814D-04 0.100000000000D+01
0.906099165775D-06 0.000000000000D+00 0.000000000000D+00 0.808728590972D-06 0.000000000000D+00  7 1 -2 -24 -11 11 23 21 2 0.36235328D-01 0.42091410D-01 0.41346047D+05 0.41346047D+05 0.41346047D+05 0.11546268D+01  1  2 15  2  7  2       -2 0.862438018882D-04 0.100000000000D+01
0.633564876760D-06 0.000000000000D+00 -.479487084809D-05 0.808728590972D-06 0.000000000000D+00  7 1 -2 -24 -11 11 23 21 2 0.36235328D-01 0.15424674D+00 0.41346047D+05 0.41346047D+05 0.41346047D+05 0.11546268D+01  1  2  5  2  7  2       -2 0.328371426343D-05 0.100000000000D+01
0.218712443870D-06 0.000000000000D+00 -.733930318864D-06 0.808728590972D-06 0.000000000000D+00  7 1 21 -24 -11 11 23 2 2 0.36235328D-01 0.15424674D+00 0.41346047D+05 0.41346047D+05 0.41346047D+05 0.11546268D+01  1  2  5  4  7  2       -2 0.103302131236D-04 0.100000000000D+01
  </mgrwgt>
  </event>
  <event>
  8     66 0.29493621E-05 0.10873474E+03 0.75467711E-02 0.10377003E+00
        1 -1    0    0  501    0 0.00000000E+00 0.00000000E+00 0.19946800E+04 0.19946801E+04 0.32000000E+00 0.0000E+00 0.9000E+01
       -2 -1    0    0    0  501 0.00000000E+00 0.00000000E+00 -.21278501E+02 0.21280907E+02 0.32000000E+00 0.0000E+00 0.9000E+01
       25  2    1    2    0    0 -.52122372E+02 0.40345554E+02 0.14893550E+04 0.15208723E+04 0.30088170E+03 0.0000E+00 0.0000E+00
       23  2    3    3    0    0 0.14146962E+02 0.13165487E+03 0.71130515E+03 0.72941427E+03 0.92504214E+02 0.0000E+00 0.0000E+00
      -24  1    1    2    0    0 0.52122372E+02 -.40345554E+02 0.48404650E+03 0.49508862E+03 0.80419002E+02 0.0000E+00 0.9000E+01
      -11  1    4    4    0    0 -.16601627E+02 0.12965103E+03 0.57455427E+03 0.58923477E+03 0.51099893E-03 0.0000E+00 0.9000E+01
       11  1    4    4    0    0 0.30748589E+02 0.20038367E+01 0.13675087E+03 0.14017950E+03 0.51099893E-03 0.0000E+00 0.9000E+01
       23  1    3    3    0    0 -.66269334E+02 -.91309313E+02 0.77804988E+03 0.79145808E+03 0.91188000E+02 0.0000E+00 0.9000E+01
#aMCatNLO 1  0  0  2  1 0.64340598D+02 0.00000000D+00  -5  7  0 0.00000000D+00 0.00000000D+00 0.00000000D+00 0.00000000D+00 0.00000000D+00
  <mgrwgt>
 0.1884601696D-02    9    2    0
 0.206024882879710D+03 0.000000000000000D+00 0.000000000000000D+00 0.206024882879710D+03
 0.206024882879710D+03 0.000000000000000D+00 0.000000000000000D+00 -.206024882879710D+03
 0.104019512173137D+03 0.521223724583216D+02 -.403455548803719D+02 -.288746412578324D+01
 0.131168664418433D+03 -.166016278244137D+02 0.129651030929710D+03 -.109642445138094D+02
 0.308992264091310D+02 0.307485892052395D+02 0.200383656745264D+01 -.229588623000105D+01
 0.145962362758718D+03 -.662693338391474D+02 -.913093126167908D+02 0.161475948695937D+02
 0.000000000000000D+00 0.000000000000000D+00 0.000000000000000D+00 -.000000000000000D+00
 0.223064716944555D+03 0.000000000000000D+00 0.000000000000000D+00 0.223064716944555D+03
 0.279683255483049D+03 0.000000000000000D+00 0.000000000000000D+00 -.279683255483049D+03
 0.986218570899197D+02 0.367373988344551D+02 -.436013855203535D+02 -.288746412578324D+01
 0.131102815953829D+03 -.365138492158002D+02 0.125437125719265D+03 -.109642445138094D+02
 0.265115821954181D+02 0.263898357122188D+02 0.108141944008829D+01 -.229588623000105D+01
 0.160806574701445D+03 -.895598989819412D+02 -.962381566608754D+02 0.161475948695937D+02
 0.857051424869931D+02 0.629465136510674D+02 0.133209970218756D+02 -.566185385384943D+02
0.133449492477D-04 0.000000000000D+00 0.000000000000D+00 0.121316659002D-06 0.000000000000D+00  7 1 -2 -24 -11 11 23 21 0 0.30687404D+00 0.32738026D-02 0.42141783D+05 0.42141783D+05 0.42141783D+05 0.11538849D+01  1  2  2  2  7  2       -2 0.155256281779D-02 0.100000000000D+01
-.741374390518D-06 0.000000000000D+00 -.512481189172D-07 0.121316659002D-06 0.000000000000D+00  7 1 -2 -24 -11 11 23 21 2 0.30687404D+00 0.32738026D-02 0.42141783D+05 0.42141783D+05 0.42141783D+05 0.11538849D+01  1  2  3  2  7  2       -2 -.114840421903D-03 0.100000000000D+01
0.855496240097D-06 0.000000000000D+00 0.000000000000D+00 0.121316659002D-06 0.000000000000D+00  7 1 -2 -24 -11 11 23 21 2 0.30687404D+00 0.32738026D-02 0.42141783D+05 0.42141783D+05 0.42141783D+05 0.11538849D+01  1  2 15  2  7  2       -2 0.132518131737D-03 0.100000000000D+01
0.134852439673D-04 0.000000000000D+00 0.000000000000D+00 0.121316659002D-06 0.000000000000D+00  7 1 -2 -24 -11 11 23 21 2 0.30687404D+00 0.45426736D-02 0.57592675D+05 0.57592675D+05 0.57592675D+05 0.11419338D+01  1  2 12  2  7  2       -2 0.125854409808D-02 0.100000000000D+01
-.145741538845D-04 0.000000000000D+00 0.000000000000D+00 0.121316659002D-06 0.000000000000D+00  7 1 -2 -24 -11 11 23 21 2 0.30687404D+00 0.32738026D-02 0.42141783D+05 0.42141783D+05 0.42141783D+05 0.11538849D+01  1  2  4  2  7  2       -2 -.225756649053D-02 0.100000000000D+01
-.202891033088D-04 0.000000000000D+00 -.577222310795D-05 0.121316659002D-06 0.000000000000D+00  7 1 -2 -24 -11 11 23 21 2 0.30687404D+00 0.48662362D-02 0.42141783D+05 0.42141783D+05 0.42141783D+05 0.11538849D+01  1  2  5  2  7  2       -2 -.175365190618D-02 0.100000000000D+01
0.213067999091D-04 0.000000000000D+00 0.534669121376D-05 0.121316659002D-06 0.000000000000D+00  7 1 -2 -24 -11 11 23 21 2 0.30687404D+00 0.32738026D-02 0.42141783D+05 0.42141783D+05 0.42141783D+05 0.11538849D+01  1  2  6  2  7  2       -2 0.330046724336D-02 0.100000000000D+01
0.555384626339D-06 0.000000000000D+00 0.000000000000D+00 0.121316659002D-06 0.000000000000D+00  7 1 21 -24 -11 11 23 2 2 0.30687404D+00 0.45426736D-02 0.57592675D+05 0.57592675D+05 0.57592675D+05 0.11419338D+01  1  2 12  4  7  2       -2 0.865591343068D-03 0.100000000000D+01
-.764729763232D-06 0.000000000000D+00 -.272925202147D-06 0.121316659002D-06 0.000000000000D+00  7 1 21 -24 -11 11 23 2 2 0.30687404D+00 0.48662362D-02 0.42141783D+05 0.42141783D+05 0.42141783D+05 0.11538849D+01  1  2  5  4  7  2       -2 -.109902311983D-02 0.100000000000D+01
  </mgrwgt>
  </event>
  <event>
  9     66 -.29493621E-05 0.69362199E+03 0.75467711E-02 0.90897540E-01
        1 -1    0    0  502    0 0.00000000E+00 0.00000000E+00 0.28493224E+03 0.28493242E+03 0.32000000E+00 0.0000E+00 0.9000E+01
       -2 -1    0    0    0  501 0.00000000E+00 0.00000000E+00 -.18153871E+04 0.18153871E+04 0.32000000E+00 0.0000E+00 0.9000E+01
       25  2    1    2    0    0 0.63915669E+03 0.13501320E+03 -.58030533E+03 0.92228508E+03 0.29513664E+03 0.0000E+00 0.0000E+00
       23  2    3    3    0    0 0.50154399E+03 0.18103758E+03 -.48119508E+03 0.72431136E+03 0.93580219E+02 0.0000E+00 0.0000E+00
      -24  1    1    2    0    0 -.65266655E+03 -.15107166E+03 -.92954199E+03 0.11486130E+04 0.80419002E+02 0.0000E+00 0.9000E+01
      -11  1    4    4    0    0 0.50159398E+03 0.18704017E+03 -.47665737E+03 0.71678644E+03 0.51099893E-03 0.0000E+00 0.9000E+01
       11  1    4    4    0    0 -.49988401E-01 -.60025937E+01 -.45377118E+01 0.75249225E+01 0.51099893E-03 0.0000E+00 0.9000E+01
       23  1    3    3    0    0 0.13761270E+03 -.46024379E+02 -.99110255E+02 0.19797372E+03 0.91188000E+02 0.0000E+00 0.9000E+01
       21  1    1    2  502  501 0.13509855E+02 0.16058463E+02 -.20607504E+02 0.29421457E+02 0.75000000E+00 0.0000E+00 0.9000E+01
#aMCatNLO 2  0  0  1  2 0.20985481D+02 0.00000000D+00  -5  7  0 0.00000000D+00 0.00000000D+00 0.00000000D+00 0.00000000D+00 0.00000000D+00
  <mgrwgt>
 -.9699091175D-03    3    2    0
 0.708614750243285D+03 0.000000000000000D+00 0.000000000000000D+00 0.708614750243285D+03
 0.708614750243285D+03 0.000000000000000D+00 0.000000000000000D+00 -.708614750243285D+03
 0.680165433749323D+03 -.646145719521079D+03 -.143320695478702D+03 -.134583389410144D+03
 0.546483000363684D+03 0.506769916750659D+03 0.193192541708297D+03 0.671160412368974D+02
 0.609289299442399D+01 0.841261080722688D-02 -.593317547744530D+01 0.138589430452777D+01
 0.184488173379139D+03 0.139367390159613D+03 -.439386707521498D+02 0.660814538687189D+02
 0.000000000000000D+00 0.000000000000000D+00 0.000000000000000D+00 0.000000000000000D+00
 0.719819101233415D+03 0.000000000000000D+00 0.000000000000000D+00 0.719819101233415D+03
 0.718587359592927D+03 0.000000000000000D+00 0.000000000000000D+00 -.718587359592927D+03
 0.688023382650467D+03 -.652666547696382D+03 -.151071664889166D+03 -.134583389410144D+03
 0.539523040050305D+03 0.501593979992518D+03 0.187040174799628D+03 0.671160412368974D+02
 0.616070884679823D+01 -.499884162859831D-01 -.600259374186968D+01 0.138589430452777D+01
 0.183677730609687D+03 0.137612700623242D+03 -.460243789713578D+02 0.660814538687189D+02
 0.210215986690848D+02 0.135098554969085D+02 0.160584628027656D+02 0.123174164048878D+01
-.335354827252D-02 0.000000000000D+00 0.000000000000D+00 0.810204776645D-07 0.000000000000D+00  7 1 -2 -24 -11 11 23 21 2 0.44134479D-01 0.27541176D+00 0.49591989D+06 0.49591989D+06 0.49591989D+06 0.10687620D+01  1  2 13  1  7  1        1 -.156109383848D-02 0.100000000000D+01
-.155764478734D-01 0.000000000000D+00 0.000000000000D+00 0.810204776645D-07 0.000000000000D+00  7 1 -2 -24 -11 11 23 21 2 0.43153019D-01 0.27541176D+00 0.48111146D+06 0.48111146D+06 0.48111146D+06 0.10696944D+01  1  2  8  1  7  1        1 -.749762894425D-02 0.100000000000D+01
0.182393313189D-01 0.000000000000D+00 0.000000000000D+00 0.810204776645D-07 0.112115950073D-08  7 1 -2 -24 -11 11 23 21 2 0.43835338D-01 0.27928774D+00 0.49591989D+06 0.49591989D+06 0.49591989D+06 0.10687620D+01  1  2  1  1  7  1        1 0.808881366521D-02 0.100000000000D+01
  </mgrwgt>
  </event>
  <event>
  8     66 0.29493621E-05 0.29791126E+03 0.75467711E-02 0.95075276E-01
        1 -1    0    0  501    0 0.00000000E+00 0.00000000E+00 0.43639270E+03 0.43639282E+03 0.32000000E+00 0.0000E+00 0.9000E+01
       -2 -1    0    0    0  501 0.00000000E+00 0.00000000E+00 -.42439919E+03 0.42439931E+03 0.32000000E+00 0.0000E+00 0.9000E+01
       25  2    1    2    0    0 0.22752295E+03 0.29557640E+03 0.36277172E+01 0.47912564E+03 0.30069273E+03 0.0000E+00 0.0000E+00
       23  2    3    3    0    0 0.26192104E+03 0.24284693E+03 0.10055135E+02 0.36812930E+03 0.88548373E+02 0.0000E+00 0.0000E+00
      -24  1    1    2    0    0 -.22752295E+03 -.29557640E+03 0.83658002E+01 0.38166648E+03 0.80419002E+02 0.0000E+00 0.9000E+01
      -11  1    4    4    0    0 0.10927605E+03 0.53214203E+02 -.18798343E+02 0.12298937E+03 0.51099893E-03 0.0000E+00 0.9000E+01
       11  1    4    4    0    0 0.15264498E+03 0.18963273E+03 0.28853478E+02 0.24513993E+03 0.51099893E-03 0.0000E+00 0.9000E+01
       23  1    3    3    0    0 -.34398085E+02 0.52729473E+02 -.64274179E+01 0.11099635E+03 0.91188000E+02 0.0000E+00 0.9000E+01
#aMCatNLO 1  0  0  2  1 0.98609605D+02 0.00000000D+00  -5  7  0 0.00000000D+00 0.00000000D+00 0.00000000D+00 0.00000000D+00 0.00000000D+00
  <mgrwgt>
 0.1152704226D-02    9    2    0
 0.430354284243729D+03 0.000000000000000D+00 0.000000000000000D+00 0.430354284243729D+03
 0.430354284243729D+03 0.000000000000000D+00 0.000000000000000D+00 -.430354284243729D+03
 0.381586962556466D+03 -.227522950309033D+03 -.295576401350705D+03 0.304829229891684D+01
 0.123263253668096D+03 0.109276053294750D+03 0.532142025777566D+02 -.205139592761103D+02
 0.244761668963095D+03 0.152644982506204D+03 0.189632726000538D+03 0.254403840160755D+02
 0.111096683299800D+03 -.343980854919212D+02 0.527294727724103D+02 -.797471703888205D+01
 0.000000000000000D+00 0.000000000000000D+00 0.000000000000000D+00 -.000000000000000D+00
 0.452574980451352D+03 0.000000000000000D+00 0.000000000000000D+00 0.452574980451352D+03
 0.558441146505639D+03 0.000000000000000D+00 0.000000000000000D+00 -.558441146505639D+03
 0.414155114862767D+03 -.272605606217763D+03 -.301221072611673D+03 0.304829229891684D+01
 0.110889614734605D+03 0.960101553413863D+02 0.515532171850617D+02 -.205139592761103D+02
 0.226310893615781D+03 0.125956432472926D+03 0.186291128476321D+03 0.254403840160755D+02
 0.114983279308790D+03 -.472066140985742D+02 0.511257532961747D+02 -.797471703888205D+01
 0.144677224435048D+03 0.978456325020251D+02 0.122509736541158D+02 -.105866166054288D+03
0.634965228186D-04 0.000000000000D+00 0.000000000000D+00 0.438528309573D-06 0.000000000000D+00  7 1 -2 -24 -11 11 23 21 0 0.67137357D-01 0.65292201D-01 0.18376872D+06 0.18376872D+06 0.18376872D+06 0.11006597D+01  1  2  2  2  7  2       -2 0.827480812609D-03 0.100000000000D+01
-.352751962795D-05 0.000000000000D+00 -.243843366642D-06 0.438528309573D-06 0.000000000000D+00  7 1 -2 -24 -11 11 23 21 2 0.67137357D-01 0.65292201D-01 0.18376872D+06 0.18376872D+06 0.18376872D+06 0.11006597D+01  1  2  3  2  7  2       -2 -.556908162461D-04 0.100000000000D+01
0.409874674833D-05 0.000000000000D+00 0.000000000000D+00 0.438528309573D-06 0.000000000000D+00  7 1 -2 -24 -11 11 23 21 2 0.67137357D-01 0.65292201D-01 0.18376872D+06 0.18376872D+06 0.18376872D+06 0.11006597D+01  1  2 15  2  7  2       -2 0.647090806219D-04 0.100000000000D+01
0.102195518964D-03 0.000000000000D+00 0.000000000000D+00 0.438528309573D-06 0.000000000000D+00  7 1 -2 -24 -11 11 23 21 2 0.67137357D-01 0.86043295D-01 0.23103016D+06 0.23103016D+06 0.23103016D+06 0.10930467D+01  1  2 12  2  7  2       -2 0.861242572031D-03 0.100000000000D+01
-.104898889464D-03 0.000000000000D+00 0.000000000000D+00 0.438528309573D-06 0.000000000000D+00  7 1 -2 -24 -11 11 23 21 2 0.67137357D-01 0.65292201D-01 0.18376872D+06 0.18376872D+06 0.18376872D+06 0.11006597D+01  1  2  4  2  7  2       -2 -.165609419471D-02 0.100000000000D+01
-.153814081562D-03 0.000000000000D+00 -.319613747033D-04 0.438528309573D-06 0.000000000000D+00  7 1 -2 -24 -11 11 23 21 2 0.67137357D-01 0.87630720D-01 0.18376872D+06 0.18376872D+06 0.18376872D+06 0.11006597D+01  1  2  5  2  7  2       -2 -.126891499766D-02 0.100000000000D+01
0.157678555527D-03 0.000000000000D+00 0.306258579178D-04 0.438528309573D-06 0.000000000000D+00  7 1 -2 -24 -11 11 23 21 2 0.67137357D-01 0.65292201D-01 0.18376872D+06 0.18376872D+06 0.18376872D+06 0.11006597D+01  1  2  6  2  7  2       -2 0.248935467070D-02 0.100000000000D+01
0.371842628601D-05 0.000000000000D+00 0.000000000000D+00 0.438528309573D-06 0.000000000000D+00  7 1 21 -24 -11 11 23 2 2 0.67137357D-01 0.86043295D-01 0.23103016D+06 0.23103016D+06 0.23103016D+06 0.10930467D+01  1  2 12  4  7  2       -2 0.298816777056D-03 0.100000000000D+01
-.516783949397D-05 0.000000000000D+00 -.121833472792D-05 0.438528309573D-06 0.000000000000D+00  7 1 21 -24 -11 11 23 2 2 0.67137357D-01 0.87630720D-01 0.18376872D+06 0.18376872D+06 0.18376872D+06 0.11006597D+01  1  2  5  4  7  2       -2 -.408199677966D-03 0.100000000000D+01
  </mgrwgt>
  </event>
  <event>
  8     66 0.29493621E-05 0.16797131E+03 0.75467711E-02 0.99450952E-01
        1 -1    0    0  501    0 0.00000000E+00 0.00000000E+00 0.20383471E+03 0.20383496E+03 0.32000000E+00 0.0000E+00 0.9000E+01
       -2 -1    0    0    0  501 0.00000000E+00 0.00000000E+00 -.19586997E+03 0.19587023E+03 0.32000000E+00 0.0000E+00 0.9000E+01
       25  2    1    2    0    0 -.62888988E+01 -.34270279E+02 0.44049310E+02 0.30492484E+03 0.29970789E+03 0.0000E+00 0.0000E+00
       23  2    3    3    0    0 0.62696690E+02 0.62079953E+02 0.80701041E+02 0.15097362E+03 0.92171473E+02 0.0000E+00 0.0000E+00
      -24  1    1    2    0    0 0.62888988E+01 0.34270279E+02 -.36084568E+02 0.94780347E+02 0.80419002E+02 0.0000E+00 0.9000E+01
      -13  1    4    4    0    0 0.25980600E+02 -.76404222E+00 -.15560118E+02 0.30293626E+02 0.10565837E+00 0.0000E+00 0.9000E+01
       13  1    4    4    0    0 0.36716090E+02 0.62843995E+02 0.96261160E+02 0.12067999E+03 0.10565837E+00 0.0000E+00 0.9000E+01
       23  1    3    3    0    0 -.68985589E+02 -.96350232E+02 -.36651731E+02 0.15395122E+03 0.91188000E+02 0.0000E+00 0.9000E+01
#aMCatNLO 1  0  0  1  2 0.24600301D+03 0.00000000D+00  -5  7  0 0.00000000D+00 0.00000000D+00 0.00000000D+00 0.00000000D+00 0.00000000D+00
  <mgrwgt>
 0.2452113410D-02    3    2    0
 0.199812914695449D+03 0.000000000000000D+00 0.000000000000000D+00 0.199812914695449D+03
 0.199812914695449D+03 0.000000000000000D+00 0.000000000000000D+00 -.199812914695449D+03
 0.955184067355546D+02 0.628891077273334D+01 0.342703446944608D+02 -.379808260408295D+02
 0.306096325071406D+02 0.259805745383843D+02 -.764141910558056D+00 -.161671096989593D+02
 0.118785521004116D+03 0.367160885504319D+02 0.628440378057852D+02 0.938752137363277D+02
 0.154712269144087D+03 -.689855738615496D+02 -.963502405896879D+02 -.397272779965389D+02
 0.000000000000000D+00 0.000000000000000D+00 -.000000000000000D+00 -.000000000000000D+00
 0.347949083697153D+03 0.000000000000000D+00 0.000000000000000D+00 0.347949083697153D+03
 0.368156698617979D+03 0.000000000000000D+00 0.000000000000000D+00 -.368156698617979D+03
 0.126370905741148D+03 -.324970039935526D+02 0.836886578227106D+02 -.379808260408295D+02
 0.257001497256877D+02 0.161377101398572D+02 0.117769508509856D+02 -.161671096989593D+02
 0.155965657784721D+03 -.113100001489026D+02 0.124035537451214D+03 0.938752137363277D+02
 0.161237494469458D+03 -.124213112606706D+03 -.259831545107219D+02 -.397272779965389D+02
 0.246831574594117D+03 0.151882406609304D+03 -.193517991614188D+03 -.202076149208262D+02
0.154789764990D-04 0.000000000000D+00 0.000000000000D+00 0.464115095080D-06 0.000000000000D+00  7 1 -2 -24 -13 13 23 21 0 0.31359226D-01 0.30133881D-01 0.28214361D+05 0.28214361D+05 0.28214361D+05 0.11698167D+01  1  2  2  1  7  1        1 0.241428970466D-02 0.100000000000D+01
-.828437215052D-06 0.000000000000D+00 -.594433454643D-07 0.464115095080D-06 0.000000000000D+00  7 1 -2 -24 -13 13 23 21 2 0.31359226D-01 0.30133881D-01 0.28214361D+05 0.28214361D+05 0.28214361D+05 0.11698167D+01  1  2  3  1  7  1        1 -.176824488365D-03 0.100000000000D+01
0.100564437167D-05 0.000000000000D+00 0.000000000000D+00 0.464115095080D-06 0.000000000000D+00  7 1 -2 -24 -13 13 23 21 2 0.31359226D-01 0.30133881D-01 0.28214361D+05 0.28214361D+05 0.28214361D+05 0.11698167D+01  1  2 15  1  7  1        1 0.214648193330D-03 0.100000000000D+01
  </mgrwgt>
  </event>
  <event>
  8     66 0.29493621E-05 0.21475618E+03 0.75467711E-02 0.83737191E-01
        1 -1    0    0  501    0 0.00000000E+00 0.00000000E+00 0.10891255E+04 0.10891256E+04 0.32000000E+00 0.0000E+00 0.9000E+01
       -2 -1    0    0    0  501 0.00000000E+00 0.00000000E+00 -.66374054E+02 0.66374826E+02 0.32000000E+00 0.0000E+00 0.9000E+01
       25  2    1    2    0    0 -.88574599E+02 -.74875739E+02 0.38391874E+03 0.50126320E+03 0.30069813E+03 0.0000E+00 0.0000E+00
       23  2    3    3    0    0 -.74765700E+02 0.73788737E+02 0.22222044E+03 0.26303348E+03 0.93648259E+02 0.0000E+00 0.0000E+00
      -24  1    1    2    0    0 0.88574599E+02 0.74875739E+02 0.63883274E+03 0.65423720E+03 0.80419002E+02 0.0000E+00 0.9000E+01
      -11  1    4    4    0    0 -.79386816E+02 0.74358691E+02 0.12499335E+03 0.16569496E+03 0.51099893E-03 0.0000E+00 0.9000E+01
       11  1    4    4    0    0 0.46211162E+01 -.56995339E+00 0.97227091E+02 0.97338516E+02 0.51099893E-03 0.0000E+00 0.9000E+01
       23  1    3    3    0    0 -.13808899E+02 -.14866448E+03 0.16169830E+03 0.23822973E+03 0.91188000E+02 0.0000E+00 0.9000E+01
#aMCatNLO 1  0  0  1  2 0.14573685D+04 0.00000000D+00  -5  7  0 0.00000000D+00 0.00000000D+00 0.00000000D+00 0.00000000D+00 0.00000000D+00
  <mgrwgt>
 0.1456160168D-02    3    2    0
 0.268868276872452D+03 0.000000000000000D+00 0.000000000000000D+00 0.268868276872452D+03
 0.268868276872452D+03 0.000000000000000D+00 0.000000000000000D+00 -.268868276872452D+03
 0.190807610843080D+03 0.885745992872460D+02 0.748757388243956D+02 0.128407525082755D+03
 0.118317151361835D+03 -.793868164895829D+02 0.743586906105229D+02 -.465560608805912D+02
 0.242415064968155D+02 0.462111619814361D+01 -.569953384484972D+00 0.237901466043805D+02
 0.204370285043173D+03 -.138088989958067D+02 -.148664476050433D+03 -.105641610806544D+03
 0.000000000000000D+00 0.000000000000000D+00 -.000000000000000D+00 -.000000000000000D+00
 0.115590555033815D+04 0.000000000000000D+00 0.000000000000000D+00 0.115590555033815D+04
 0.217696914875214D+04 0.000000000000000D+00 0.000000000000000D+00 -.217696914875214D+04
 0.640806923584139D+03 -.143891270369453D+03 0.605783052893183D+03 0.128407525082755D+03
 0.612696802247556D+03 -.283731242208445D+03 0.541042037991981D+03 -.465560608805912D+02
 0.635903280707090D+02 -.199310085676241D+02 0.555023751398062D+02 0.237901466043805D+02
 0.236316203598395D+03 -.136996461967609D+03 0.132672213419820D+03 -.105641610806544D+03
 0.177946444158949D+04 0.584549983113131D+03 -.133499967944479D+04 -.102106359841400D+04
0.169084023619D-04 0.000000000000D+00 0.000000000000D+00 0.242432791907D-06 0.000000000000D+00  7 1 -2 -24 -11 11 23 21 0 0.16755784D+00 0.10211456D-01 0.46120217D+05 0.46120217D+05 0.46120217D+05 0.11503937D+01  1  2  2  1  7  1        1 0.143454198096D-02 0.100000000000D+01
-.881680604830D-06 0.000000000000D+00 -.649327171543D-07 0.242432791907D-06 0.000000000000D+00  7 1 -2 -24 -11 11 23 21 2 0.16755784D+00 0.10211456D-01 0.46120217D+05 0.46120217D+05 0.46120217D+05 0.11503937D+01  1  2  3  1  7  1        1 -.989953938264D-04 0.100000000000D+01
0.107421821608D-05 0.000000000000D+00 0.000000000000D+00 0.242432791907D-06 0.000000000000D+00  7 1 -2 -24 -11 11 23 21 2 0.16755784D+00 0.10211456D-01 0.46120217D+05 0.46120217D+05 0.46120217D+05 0.11503937D+01  1  2 15  1  7  1        1 0.120613581351D-03 0.100000000000D+01
  </mgrwgt>
  </event>
  <event>
  9     66 0.29493621E-05 0.16993147E+03 0.75467711E-02 0.98017988E-01
        1 -1    0    0  501    0 0.00000000E+00 0.00000000E+00 0.66795756E+03 0.66795763E+03 0.32000000E+00 0.0000E+00 0.9000E+01
       21 -1    0    0  502  501 0.00000000E+00 0.00000000E+00 -.26906532E+03 0.26906637E+03 0.75000000E+00 0.0000E+00 0.9000E+01
       25  2    1    2    0    0 -.13630720E+03 -.12980321E+03 0.12898383E+03 0.38385748E+03 0.30867656E+03 0.0000E+00 0.0000E+00
       23  2    3    3    0    0 -.62592189E+02 -.12722769E+03 0.18680459E+03 0.25309423E+03 0.95163384E+02 0.0000E+00 0.0000E+00
      -24  1    1    2    0    0 -.15447022E+03 0.53519813E+02 0.98290667E+02 0.20701133E+03 0.80419002E+02 0.0000E+00 0.9000E+01
      -13  1    4    4    0    0 -.46462365E+02 -.12447180E+03 0.19406854E+03 0.23519054E+03 0.10565837E+00 0.0000E+00 0.9000E+01
       13  1    4    4    0    0 -.16129824E+02 -.27558926E+01 -.72639514E+01 0.17903696E+02 0.10565837E+00 0.0000E+00 0.9000E+01
       23  1    3    3    0    0 -.73715007E+02 -.25755150E+01 -.57820761E+02 0.13076325E+03 0.91188000E+02 0.0000E+00 0.9000E+01
        2  1    1    2  502    0 0.29077742E+03 0.76283392E+02 0.17161774E+03 0.34615519E+03 0.32000000E+00 0.0000E+00 0.9000E+01
#aMCatNLO 2  0  0  2  2 0.30061714D+03 0.00000000D+00  -5  7  0 0.00000000D+00 0.00000000D+00 0.00000000D+00 0.00000000D+00 0.00000000D+00
  <mgrwgt>
 0.1875511425D-03    1    2    0
 0.227542082264895D+03 0.000000000000000D+00 0.000000000000000D+00 0.227542082264895D+03
 0.227542082264895D+03 0.000000000000000D+00 0.000000000000000D+00 -.227542082264895D+03
 0.129964210223777D+03 -.634250302117046D+02 0.774070778056226D+02 0.202210245279097D+02
 0.157892198626837D+03 0.499753270814317D+02 -.991722797045041D+02 0.112237569505635D+03
 0.161052241602389D+02 -.493211986507009D+01 0.181648380307799D+00 -.153303438563542D+02
 0.151122531518936D+03 0.183818229953430D+02 0.215835535185738D+02 -.117128250177190D+03
 0.000000000000000D+00 0.000000000000000D+00 0.000000000000000D+00 0.000000000000000D+00
 0.445290055316239D+03 0.000000000000000D+00 0.000000000000000D+00 0.445290055316239D+03
 0.403612582770830D+03 0.000000000000000D+00 0.000000000000000D+00 -.403612582770830D+03
 0.183310036598329D+03 -.154473098273330D+03 0.535212634397749D+02 0.202210245279097D+02
 0.173922802043432D+03 -.464613097355441D+02 -.124471746833426D+03 0.112237569505635D+03
 0.224227654191706D+02 -.161296538248139D+02 -.275594517013067D+01 -.153303438563542D+02
 0.165754571672444D+03 -.737133567112821D+02 -.257696315458529D+01 -.117128250177190D+03
 0.303492462353693D+03 0.290777418544970D+03 0.762833917183672D+02 0.416774725454090D+02
0.775011820281D-06 0.000000000000D+00 0.000000000000D+00 0.621866725642D-09 0.937949128607D-14  7 1 21 -24 -13 13 23 2 2 0.10276277D+00 0.41394743D-01 0.14036872D+06 0.14036872D+06 0.14036872D+06 0.11098335D+01  1  2  1  4  7  2       -2 0.187551142464D-03 0.100000000000D+01
  </mgrwgt>
  </event>
  <event>
  7     66 0.29493621E-05 0.26873809E+03 0.75467711E-02 0.86810089E-01
        3 -1    0    0  501    0 0.00000000E+00 0.00000000E+00 0.53702012E+03 0.53702035E+03 0.50000000E+00 0.0000E+00 0.9000E+01
       -4 -1    0    0    0  501 0.00000000E+00 0.00000000E+00 -.19546214E+03 0.19546829E+03 0.15500000E+01 0.0000E+00 0.9000E+01
       23  2    1    2    0    0 0.14022368E+02 -.28431726E+02 0.21155343E+03 0.23256263E+03 0.91244365E+02 0.0000E+00 0.0000E+00
      -24  1    1    2    0    0 -.21338592E+03 -.13841385E+02 0.15378753E+03 0.27539600E+03 0.80419002E+02 0.0000E+00 0.9000E+01
      -11  1    3    3    0    0 -.92160108E+01 0.25453360E+02 0.12562281E+03 0.12850642E+03 0.51099893E-03 0.0000E+00 0.9000E+01
       11  1    3    3    0    0 0.23238379E+02 -.53885086E+02 0.85930621E+02 0.10405622E+03 0.51099893E-03 0.0000E+00 0.9000E+01
       23  1    1    2    0    0 0.19936355E+03 0.42273111E+02 -.23782984E+02 0.22453001E+03 0.91188000E+02 0.0000E+00 0.9000E+01
#aMCatNLO 1  0  0  1  2 0.98778143D+03 0.00000000D+00  -5  7  0 0.00000000D+00 0.00000000D+00 0.00000000D+00 0.00000000D+00 0.00000000D+00
  <mgrwgt>
 0.1164027318D-03    5    2    0
 0.323989873778349D+03 0.000000000000000D+00 0.000000000000000D+00 0.323989873778349D+03
 0.323989873778349D+03 0.000000000000000D+00 0.000000000000000D+00 -.323989873778349D+03
 0.230249630524870D+03 -.213385947088204D+03 -.138413864873121D+02 0.286797839574761D+02
 0.790487797235090D+02 -.921600036167368D+01 0.254533633736802D+02 0.742691134057548D+02
 0.723320535227523D+02 0.232383894699467D+02 -.538850835027476D+02 0.422883080480089D+02
 0.266349283785566D+03 0.199363557979931D+03 0.422731066163795D+02 -.145237205411240D+03
 0.000000000000000D+00 -.000000000000000D+00 0.000000000000000D+00 0.000000000000000D+00
 0.156613612649987D+04 0.000000000000000D+00 0.000000000000000D+00 0.156613612649987D+04
 0.840739888308317D+03 0.000000000000000D+00 0.000000000000000D+00 -.840739888308317D+03
 0.968775315086867D+02 -.372131418077198D+02 -.266588114100587D+02 0.286797839574761D+02
 0.127288767458900D+03 0.101906121983185D+03 0.173686907243240D+02 0.742691134057548D+02
 0.173162454225251D+03 0.155448310046584D+03 -.635039956176757D+02 0.422883080480089D+02
 0.784022127893849D+03 0.765036176027475D+03 0.111768367164960D+01 -.145237205411240D+03
 0.122552513372150D+04 -.985177466249525D+03 0.716764326317608D+02 0.725396238191555D+03
0.231029451875D-04 0.000000000000D+00 0.000000000000D+00 0.397773079467D-09 0.000000000000D+00  7 3 -4 -24 -11 11 23 21 0 0.82618970D-01 0.30071589D-01 0.72220163D+05 0.72220163D+05 0.72220163D+05 0.11335086D+01  1  2  2  1  7  1        3 0.114637322882D-03 0.100000000000D+01
-.122894085110D-05 0.000000000000D+00 -.887213926653D-07 0.397773079467D-09 0.000000000000D+00  7 3 -4 -24 -11 11 23 21 2 0.82618970D-01 0.30071589D-01 0.72220163D+05 0.72220163D+05 0.72220163D+05 0.11335086D+01  1  2  3  1  7  1        3 -.783500621407D-05 0.100000000000D+01
0.147415161512D-05 0.000000000000D+00 0.000000000000D+00 0.397773079467D-09 0.000000000000D+00  7 3 -4 -24 -11 11 23 21 2 0.82618970D-01 0.30071589D-01 0.72220163D+05 0.72220163D+05 0.72220163D+05 0.11335086D+01  1  2 15  1  7  1        3 0.939832625355D-05 0.100000000000D+01
0.227788545845D-04 0.000000000000D+00 -.121987772509D-04 0.397773079467D-09 0.000000000000D+00  7 3 -4 -24 -11 11 23 21 2 0.57460713D+00 0.30071589D-01 0.72220163D+05 0.72220163D+05 0.72220163D+05 0.11335086D+01  1  2  5  1  7  1        3 0.134762331929D-06 0.100000000000D+01
0.426860251509D-05 0.000000000000D+00 -.289260552556D-05 0.397773079467D-09 0.000000000000D+00  7 21 -4 -24 -11 11 23 -3 2 0.57460713D+00 0.30071589D-01 0.72220163D+05 0.72220163D+05 0.72220163D+05 0.11335086D+01  1  2  5  3  7  1        3 0.673265517036D-07 0.100000000000D+01
  </mgrwgt>
  </event>
  <event>
  8     66 -.29493621E-05 0.69627956E+02 0.75467711E-02 0.10433076E+00
        1 -1    0    0  501    0 0.00000000E+00 0.00000000E+00 0.93440712E+03 0.93440717E+03 0.32000000E+00 0.0000E+00 0.9000E+01
       -2 -1    0    0    0  501 0.00000000E+00 0.00000000E+00 -.55812604E+03 0.55812613E+03 0.32000000E+00 0.0000E+00 0.9000E+01
       25  2    1    2    0    0 -.13735651E+03 -.66646116E+02 -.49836805E+03 0.60102513E+03 0.29925237E+03 0.0000E+00 0.0000E+00
       23  2    3    3    0    0 -.61709372E+01 -.91514314E+02 -.75797346E+02 0.14857698E+03 0.88977132E+02 0.0000E+00 0.0000E+00
      -24  1    1    2    0    0 0.13735651E+03 0.66646116E+02 0.87464913E+03 0.89150817E+03 0.80419002E+02 0.0000E+00 0.9000E+01
      -11  1    4    4    0    0 0.31799982E+02 -.81213812E+02 -.61484509E+02 0.10671114E+03 0.51099893E-03 0.0000E+00 0.9000E+01
       11  1    4    4    0    0 -.37970919E+02 -.10300501E+02 -.14312837E+02 0.41865837E+02 0.51099893E-03 0.0000E+00 0.9000E+01
       23  1    3    3    0    0 -.13118557E+03 0.24868198E+02 -.42257070E+03 0.45244815E+03 0.91188000E+02 0.0000E+00 0.9000E+01
#aMCatNLO 1  0  0  1  2 0.98778143D+03 0.00000000D+00  -5  7  0 0.00000000D+00 0.00000000D+00 0.00000000D+00 0.00000000D+00 0.00000000D+00
  <mgrwgt>
 -.1838656042D-03    1    2    0
 0.722161376738688D+03 0.000000000000000D+00 0.000000000000000D+00 0.722161376738688D+03
 0.722161376738688D+03 0.000000000000000D+00 0.000000000000000D+00 -.722161376738688D+03
 0.693398843399559D+03 0.137356505926163D+03 0.666461158941224D+02 0.671584861048445D+03
 0.126291290709434D+03 0.317999820671688D+02 -.812138122844271D+02 -.913376589573673D+02
 0.469921325275774D+02 -.379709193131386D+02 -.103005012355960D+02 -.256976551517839D+02
 0.577640486840805D+03 -.131185568680193D+03 0.248681976259006D+02 -.554549546939294D+03
 0.000000000000000D+00 0.000000000000000D+00 -.000000000000000D+00 -.000000000000000D+00
 0.726899447585972D+03 0.000000000000000D+00 0.000000000000000D+00 0.726899447585972D+03
 0.217362176621558D+04 0.000000000000000D+00 0.000000000000000D+00 -.217362176621558D+04
 0.691545958339966D+03 0.974590817059899D+02 0.106038192862464D+03 0.671584861048445D+03
 0.120243213161400D+03 0.246978277621813D+02 -.742016150187788D+02 -.913376589573673D+02
 0.487508194485113D+02 -.407290777366973D+02 -.757727809436959D+01 -.256976551517839D+02
 0.588524753121910D+03 -.164780401652000D+03 0.580375129897452D+02 -.554549546939294D+03
 0.145145646972977D+04 0.833525699205263D+02 -.822968127390605D+02 -.144672231862961D+04
-.577705728684D-04 0.000000000000D+00 0.000000000000D+00 0.376125614084D-05 0.000000000000D+00  7 1 -2 -24 -11 11 23 21 2 0.14375495D+00 0.85865556D-01 0.53085628D+05 0.53085628D+05 0.53085628D+05 0.11450148D+01  1  2 14  1  7  1        1 -.183865604241D-03 0.100000000000D+01
  </mgrwgt>
  </event>
  <event>
  8     66 0.29493621E-05 0.10995794E+03 0.75467711E-02 0.10656390E+00
        3 -1    0    0  501    0 0.00000000E+00 0.00000000E+00 0.22048808E+03 0.22048865E+03 0.50000000E+00 0.0000E+00 0.9000E+01
       -4 -1    0    0    0  501 0.00000000E+00 0.00000000E+00 -.27263690E+03 0.27264131E+03 0.15500000E+01 0.0000E+00 0.9000E+01
       25  2    1    2    0    0 -.30372482E+02 0.50484936E+02 -.16163295E+03 0.34505833E+03 0.29911339E+03 0.0000E+00 0.0000E+00
       23  2    3    3    0    0 -.94972732E+02 0.39316917E+02 0.12562195E+02 0.13779734E+03 0.90910166E+02 0.0000E+00 0.0000E+00
      -24  1    1    2    0    0 0.30372482E+02 -.50484936E+02 0.10948413E+03 0.14807163E+03 0.80419002E+02 0.0000E+00 0.9000E+01
      -11  1    4    4    0    0 -.82618028E+02 0.43879393E+02 0.44247259E+02 0.10348410E+03 0.51099893E-03 0.0000E+00 0.9000E+01
       11  1    4    4    0    0 -.12354704E+02 -.45624759E+01 -.31685065E+02 0.34313237E+02 0.51099893E-03 0.0000E+00 0.9000E+01
       23  1    3    3    0    0 0.64600250E+02 0.11168019E+02 -.17419515E+03 0.20726099E+03 0.91188000E+02 0.0000E+00 0.9000E+01
#aMCatNLO 1  0  0  2  1 0.66035998D+02 0.00000000D+00  -5  7  0 0.00000000D+00 0.00000000D+00 0.00000000D+00 0.00000000D+00 0.00000000D+00
  <mgrwgt>
 0.2110428363D-03    9    2    0
 0.245182409815581D+03 0.000000000000000D+00 0.000000000000000D+00 0.245182409815581D+03
 0.245182409815581D+03 0.000000000000000D+00 0.000000000000000D+00 -.245182409815581D+03
 0.160549904921632D+03 0.303724823156790D+02 -.504849355154400D+02 0.125848478814645D+03
 0.108773205837872D+03 -.826180275452610D+02 0.438793925553729D+02 0.555019886287875D+02
 0.311371162769771D+02 -.123547044567129D+02 -.456247594177382D+01 -.282146256596469D+02
 0.189904592594682D+03 0.646002496862949D+02 0.111680189018408D+02 -.153135841783785D+03
 0.000000000000000D+00 0.000000000000000D+00 0.000000000000000D+00 -.000000000000000D+00
 0.266523226519458D+03 0.000000000000000D+00 0.000000000000000D+00 0.266523226519458D+03
 0.304391236803600D+03 0.000000000000000D+00 0.000000000000000D+00 -.304391236803600D+03
 0.168139087935280D+03 0.272046128385534D+02 -.722883556161121D+02 0.125848478814645D+03
 0.105507092743249D+03 -.846832382221515D+02 0.296652160213400D+02 0.555019886287875D+02
 0.322654395556129D+02 -.129657715315427D+02 -.876825280171290D+01 -.282146256596469D+02
 0.188879658368294D+03 0.609495674513597D+02 -.139584451135194D+02 -.153135841783785D+03
 0.761231847206232D+02 0.949482946378101D+01 0.653498375100044D+02 -.378680102841416D+02
0.130503389506D-04 0.000000000000D+00 0.000000000000D+00 0.798892676383D-06 0.000000000000D+00  7 3 -4 -24 -11 11 23 21 0 0.33921626D-01 0.41944521D-01 0.25395259D+05 0.25395259D+05 0.25395259D+05 0.11741105D+01  1  2  2  2  7  2       -4 0.193041049708D-03 0.100000000000D+01
-.561386164491D-06 0.000000000000D+00 -.501167378035D-07 0.798892676383D-06 0.000000000000D+00  7 3 -4 -24 -11 11 23 21 2 0.33921626D-01 0.41944521D-01 0.25395259D+05 0.25395259D+05 0.25395259D+05 0.11741105D+01  1  2  3  2  7  2       -4 -.114474182459D-04 0.100000000000D+01
0.798936898709D-06 0.000000000000D+00 0.000000000000D+00 0.798892676383D-06 0.000000000000D+00  7 3 -4 -24 -11 11 23 21 2 0.33921626D-01 0.41944521D-01 0.25395259D+05 0.25395259D+05 0.25395259D+05 0.11741105D+01  1  2 15  2  7  2       -4 0.162913969208D-04 0.100000000000D+01
0.105646677236D-04 0.000000000000D+00 0.000000000000D+00 0.798892676383D-06 0.000000000000D+00  7 3 -4 -24 -11 11 23 21 2 0.33921626D-01 0.53564817D-01 0.38707924D+05 0.38707924D+05 0.38707924D+05 0.11572042D+01  1  2 12  2  7  2       -4 0.124613659904D-03 0.100000000000D+01
-.133103243089D-04 0.000000000000D+00 0.000000000000D+00 0.798892676383D-06 0.000000000000D+00  7 3 -4 -24 -11 11 23 21 2 0.33921626D-01 0.41944521D-01 0.25395259D+05 0.25395259D+05 0.25395259D+05 0.11741105D+01  1  2  4  2  7  2       -4 -.271415398152D-03 0.100000000000D+01
-.185616199572D-04 0.000000000000D+00 -.687064128548D-05 0.798892676383D-06 0.000000000000D+00  7 3 -4 -24 -11 11 23 21 2 0.33921626D-01 0.55872413D-01 0.25395259D+05 0.25395259D+05 0.25395259D+05 0.11741105D+01  1  2  5  2  7  2       -4 -.201949735392D-03 0.100000000000D+01
0.199778173509D-04 0.000000000000D+00 0.659758445275D-05 0.798892676383D-06 0.000000000000D+00  7 3 -4 -24 -11 11 23 21 2 0.33921626D-01 0.41944521D-01 0.25395259D+05 0.25395259D+05 0.25395259D+05 0.11741105D+01  1  2  6  2  7  2       -4 0.407374540593D-03 0.100000000000D+01
0.351760538558D-06 0.000000000000D+00 0.000000000000D+00 0.798892676383D-06 0.000000000000D+00  7 3 21 -24 -11 11 23 4 2 0.33921626D-01 0.53564817D-01 0.38707924D+05 0.38707924D+05 0.38707924D+05 0.11572042D+01  1  2 12  4  7  2       -4 0.935927425752D-04 0.100000000000D+01
-.550850312669D-06 0.000000000000D+00 -.257025916369D-06 0.798892676383D-06 0.000000000000D+00  7 3 21 -24 -11 11 23 4 2 0.33921626D-01 0.55872413D-01 0.25395259D+05 0.25395259D+05 0.25395259D+05 0.11741105D+01  1  2  5  4  7  2       -4 -.139058001598D-03 0.100000000000D+01
  </mgrwgt>
  </event>
  <event>
  8     66 0.29493621E-05 0.12232565E+03 0.75467711E-02 0.10096361E+00
        1 -1    0    0  501    0 0.00000000E+00 0.00000000E+00 0.96974243E+02 0.96974771E+02 0.32000000E+00 0.0000E+00 0.9000E+01
       -2 -1    0    0    0  501 0.00000000E+00 0.00000000E+00 -.69328044E+03 0.69328051E+03 0.32000000E+00 0.0000E+00 0.9000E+01
       25  2    1    2    0    0 -.14501135E+02 -.14437114E+02 -.63178643E+03 0.70000687E+03 0.30072714E+03 0.0000E+00 0.0000E+00
       23  2    3    3    0    0 -.45615970E+02 -.10343326E+02 -.57314531E+02 0.11749669E+03 0.91283711E+02 0.0000E+00 0.0000E+00
      -24  1    1    2    0    0 0.14501135E+02 0.14437114E+02 0.35480236E+02 0.90248414E+02 0.80419002E+02 0.0000E+00 0.9000E+01
      -11  1    4    4    0    0 -.44490400E+02 -.24662780E+02 -.77511564E+02 0.92712950E+02 0.51099893E-03 0.0000E+00 0.9000E+01
       11  1    4    4    0    0 -.11255704E+01 0.14319455E+02 0.20197034E+02 0.24783742E+02 0.51099893E-03 0.0000E+00 0.9000E+01
       23  1    3    3    0    0 0.31114835E+02 -.40937884E+01 -.57447190E+03 0.58251018E+03 0.91188000E+02 0.0000E+00 0.9000E+01
#aMCatNLO 1  0  0  2  2 0.25470249D+03 0.00000000D+00  -5  7  0 0.00000000D+00 0.00000000D+00 0.00000000D+00 0.00000000D+00 0.00000000D+00
  <mgrwgt>
 0.9445006917D-03    5    2    0
 0.259288610830861D+03 0.000000000000000D+00 0.000000000000000D+00 0.259288610830861D+03
 0.259288610830861D+03 0.000000000000000D+00 0.000000000000000D+00 -.259288610830861D+03
 0.178327096899858D+03 0.145011353268878D+02 0.144371140549811D+02 0.157843670593266D+03
 0.521547631437961D+02 -.444903996367453D+02 -.246627803082873D+02 -.115096014793441D+02
 0.609920721896113D+02 -.112557037351662D+01 0.143194546578048D+02 0.592766326609406D+02
 0.227103289428458D+03 0.311148346833742D+02 -.409378840449860D+01 -.205610701774862D+03
 0.000000000000000D+00 0.000000000000000D+00 0.000000000000000D+00 -.000000000000000D+00
 0.357534427883653D+03 0.000000000000000D+00 0.000000000000000D+00 0.357534427883653D+03
 0.525090513971228D+03 0.000000000000000D+00 0.000000000000000D+00 -.525090513971228D+03
 0.188958910546133D+03 -.593460347804153D+02 -.283139140688308D+02 0.157843670593266D+03
 0.830862665770124D+02 -.716821987382888D+02 -.404044447002741D+02 -.115096014793441D+02
 0.649064667555276D+02 -.264389518616741D+02 -.334770850587139D+00 0.592766326609406D+02
 0.240798900243964D+03 -.629624018402635D+02 -.585562488967360D+02 -.205610701774862D+03
 0.304874397732244D+03 0.220429587220642D+03 0.127609378516428D+03 -.167556086087575D+03
0.267610563703D-04 0.000000000000D+00 0.000000000000D+00 0.109379372571D-05 0.000000000000D+00  7 1 -2 -24 -11 11 23 21 0 0.14919161D-01 0.10665858D+00 0.14963566D+05 0.14963566D+05 0.14963566D+05 0.11964468D+01  1  2  2  2  7  2       -2 0.845457311264D-03 0.100000000000D+01
-.466521437606D-06 0.000000000000D+00 -.102769502810D-06 0.109379372571D-05 0.000000000000D+00  7 1 -2 -24 -11 11 23 21 2 0.14919161D-01 0.10665858D+00 0.14963566D+05 0.14963566D+05 0.14963566D+05 0.11964468D+01  1  2  3  2  7  2       -2 -.210982680695D-04 0.100000000000D+01
0.163366881239D-05 0.000000000000D+00 0.000000000000D+00 0.109379372571D-05 0.000000000000D+00  7 1 -2 -24 -11 11 23 21 2 0.14919161D-01 0.10665858D+00 0.14963566D+05 0.14963566D+05 0.14963566D+05 0.11964468D+01  1  2 15  2  7  2       -2 0.738820979322D-04 0.100000000000D+01
0.491482921452D-05 0.000000000000D+00 -.759226770352D-05 0.109379372571D-05 0.000000000000D+00  7 1 -2 -24 -11 11 23 21 2 0.14919161D-01 0.25912370D+00 0.14963566D+05 0.14963566D+05 0.14963566D+05 0.11964468D+01  1  2  5  2  7  2       -2 0.176166020472D-04 0.100000000000D+01
0.953350308261D-06 0.000000000000D+00 -.738630943115D-06 0.109379372571D-05 0.000000000000D+00  7 1 21 -24 -11 11 23 2 2 0.14919161D-01 0.25912370D+00 0.14963566D+05 0.14963566D+05 0.14963566D+05 0.11964468D+01  1  2  5  4  7  2       -2 0.286429485583D-04 0.100000000000D+01
  </mgrwgt>
  </event>
  <event>
  8     66 0.29493621E-05 0.56160777E+03 0.75467711E-02 0.81783247E-01
        1 -1    0    0  501    0 0.00000000E+00 0.00000000E+00 0.37689142E+03 0.37689156E+03 0.32000000E+00 0.0000E+00 0.9000E+01
       -2 -1    0    0    0  501 0.00000000E+00 0.00000000E+00 -.86561834E+03 0.86561840E+03 0.32000000E+00 0.0000E+00 0.9000E+01
       25  2    1    2    0    0 -.29926391E+03 -.43514076E+03 -.23818913E+03 0.65247371E+03 0.30013582E+03 0.0000E+00 0.0000E+00
       23  2    3    3    0    0 -.29180002E+03 -.25739609E+03 -.20704299E+03 0.45015167E+03 0.91486175E+02 0.0000E+00 0.0000E+00
      -24  1    1    2    0    0 0.29926391E+03 0.43514076E+03 -.25053779E+03 0.59003625E+03 0.80419002E+02 0.0000E+00 0.9000E+01
      -13  1    4    4    0    0 -.19922372E+03 -.17566744E+03 -.18750109E+03 0.32512430E+03 0.10565837E+00 0.0000E+00 0.9000E+01
       13  1    4    4    0    0 -.92576304E+02 -.81728659E+02 -.19541894E+02 0.12502737E+03 0.10565837E+00 0.0000E+00 0.9000E+01
       23  1    3    3    0    0 -.74638863E+01 -.17774467E+03 -.31146143E+02 0.20232205E+03 0.91188000E+02 0.0000E+00 0.9000E+01
#aMCatNLO 1  0  0  2  2 0.17053357D+04 0.00000000D+00  -5  7  0 0.00000000D+00 0.00000000D+00 0.00000000D+00 0.00000000D+00 0.00000000D+00
  <mgrwgt>
 0.1167930877D-02    3    2    0
 0.571177949040814D+03 0.000000000000000D+00 0.000000000000000D+00 0.571177949040814D+03
 0.571177949040814D+03 0.000000000000000D+00 0.000000000000000D+00 -.571177949040814D+03
 0.534580643468095D+03 0.299263910334806D+03 0.435140763985301D+03 -.200717688757484D+02
 0.273411788416758D+03 -.199223862013460D+03 -.175667560624945D+03 -.648441747096295D+02
 0.127628244103768D+03 -.925761619564864D+02 -.817285336897466D+02 0.322346042529054D+02
 0.206735222093006D+03 -.746388636485966D+01 -.177744669670609D+03 0.526813393324725D+02
 0.000000000000000D+00 -.000000000000000D+00 -.000000000000000D+00 0.000000000000000D+00
 0.594069198319827D+04 0.000000000000000D+00 0.000000000000000D+00 0.594069198319827D+04
 0.117423898502799D+04 0.000000000000000D+00 0.000000000000000D+00 -.117423898502799D+04
 0.164281250849172D+04 0.134902496083616D+04 0.933860000876833D+03 -.200717688757484D+02
 0.110105343262620D+03 -.143232405181469D+02 -.878251922984838D+02 -.648441747096295D+02
 0.521398262945252D+02 -.590668829801655D+01 -.405537027659857D+02 0.322346042529054D+02
 0.247537464980476D+03 0.211549282096291D+03 -.736961529229390D+02 0.526813393324725D+02
 0.506233582519692D+04 -.154034431411629D+04 -.731784952889424D+03 0.476645299817028D+04
0.399088849795D-03 0.000000000000D+00 0.000000000000D+00 0.131899879221D-04 0.000000000000D+00  7 1 -2 -24 -13 13 23 21 0 0.57983311D-01 0.13317207D+00 0.31540329D+06 0.31540329D+06 0.31540329D+06 0.10829467D+01  1  2  2  2  7  2       -2 0.115689698198D-02 0.100000000000D+01
-.221639060835D-04 0.000000000000D+00 -.153260626572D-05 0.131899879221D-04 0.000000000000D+00  7 1 -2 -24 -13 13 23 21 2 0.57983311D-01 0.13317207D+00 0.31540329D+06 0.31540329D+06 0.31540329D+06 0.10829467D+01  1  2  3  2  7  2       -2 -.753504045356D-04 0.100000000000D+01
0.254094653823D-04 0.000000000000D+00 0.000000000000D+00 0.131899879221D-04 0.000000000000D+00  7 1 -2 -24 -13 13 23 21 2 0.57983311D-01 0.13317207D+00 0.31540329D+06 0.31540329D+06 0.31540329D+06 0.10829467D+01  1  2 15  2  7  2       -2 0.863842992463D-04 0.100000000000D+01
  </mgrwgt>
  </event>
  <event>
  8     66 0.29493621E-05 0.40448761E+03 0.75467711E-02 0.89490201E-01
        1 -1    0    0  501    0 0.00000000E+00 0.00000000E+00 0.14310873E+04 0.14310874E+04 0.32000000E+00 0.0000E+00 0.9000E+01
       -2 -1    0    0    0  501 0.00000000E+00 0.00000000E+00 -.27604264E+03 0.27604282E+03 0.32000000E+00 0.0000E+00 0.9000E+01
       25  2    1    2    0    0 -.16096398E+03 0.32701417E+03 -.21584977E+02 0.47271848E+03 0.30024853E+03 0.0000E+00 0.0000E+00
       23  2    3    3    0    0 -.10272895E+03 0.29082506E+03 -.97013425E+02 0.33594980E+03 0.91204218E+02 0.0000E+00 0.0000E+00
      -24  1    1    2    0    0 0.16096398E+03 -.32701417E+03 0.11766297E+04 0.12344117E+04 0.80419002E+02 0.0000E+00 0.9000E+01
      -11  1    4    4    0    0 -.11201274E+03 0.29154827E+03 -.94192535E+02 0.32621999E+03 0.51099893E-03 0.0000E+00 0.9000E+01
       11  1    4    4    0    0 0.92837854E+01 -.72321447E+00 -.28208902E+01 0.97298064E+01 0.51099893E-03 0.0000E+00 0.9000E+01
       23  1    3    3    0    0 -.58235031E+02 0.36189112E+02 0.75428448E+02 0.13676868E+03 0.91188000E+02 0.0000E+00 0.9000E+01
#aMCatNLO 1  0  0  2  1 0.68048744D+03 0.00000000D+00  -5  7  0 0.00000000D+00 0.00000000D+00 0.00000000D+00 0.00000000D+00 0.00000000D+00
  <mgrwgt>
 0.1436164379D-02    5    2    0
 0.628523115826793D+03 0.000000000000000D+00 0.000000000000000D+00 0.628523115826793D+03
 0.628523115826793D+03 0.000000000000000D+00 0.000000000000000D+00 -.628523115826793D+03
 0.595237958529080D+03 0.160963981096714D+03 -.327014168906116D+03 0.463673744613209D+03
 0.529572071224097D+03 -.112012735974551D+03 0.291548271529735D+03 -.427667313420256D+03
 0.158055446619714D+02 0.928378541963043D+01 -.723214479589608D+00 -.127711992843407D+02
 0.116430657238438D+03 -.582350305417931D+02 0.361891118559711D+02 -.232352319086121D+02
 0.000000000000000D+00 -.000000000000000D+00 0.000000000000000D+00 -.000000000000000D+00
 0.796363768306856D+03 0.000000000000000D+00 0.000000000000000D+00 0.796363768306856D+03
 0.213243195777775D+04 0.000000000000000D+00 0.000000000000000D+00 -.213243195777775D+04
 0.867597017781640D+03 0.234079421730566D+03 -.690268681158194D+03 0.463673744613209D+03
 0.435500074001600D+03 -.637764849385037D+02 0.518993589188543D+02 -.427667313420256D+03
 0.193483173599044D+02 0.110408463002729D+02 -.945270154363212D+01 -.127711992843407D+02
 0.106969990530931D+03 -.470690158757095D+02 -.192862456904588D+02 -.232352319086121D+02
 0.149938032641053D+04 -.134274767216626D+03 0.667108269473431D+03 -.133606818947090D+04
0.332542408205D-03 0.000000000000D+00 0.000000000000D+00 0.319106399851D-04 0.000000000000D+00  7 1 -2 -24 -11 11 23 21 0 0.22016730D+00 0.42468115D-01 0.16361022D+06 0.16361022D+06 0.16361022D+06 0.11045876D+01  1  2  2  2  7  2       -2 0.145790092514D-02 0.100000000000D+01
-.141109871296D-04 0.000000000000D+00 -.127705040793D-05 0.319106399851D-04 0.000000000000D+00  7 1 -2 -24 -11 11 23 21 2 0.22016730D+00 0.42468115D-01 0.16361022D+06 0.16361022D+06 0.16361022D+06 0.11045876D+01  1  2  3  2  7  2       -2 -.754811782103D-04 0.100000000000D+01
0.201007399693D-04 0.000000000000D+00 0.000000000000D+00 0.319106399851D-04 0.000000000000D+00  7 1 -2 -24 -11 11 23 21 2 0.22016730D+00 0.42468115D-01 0.16361022D+06 0.16361022D+06 0.16361022D+06 0.11045876D+01  1  2 15  2  7  2       -2 0.107521006280D-03 0.100000000000D+01
-.103529488132D-03 0.000000000000D+00 -.116898100154D-03 0.319106399851D-04 0.000000000000D+00  7 1 -2 -24 -11 11 23 21 2 0.22016730D+00 0.16518923D+00 0.16361022D+06 0.16361022D+06 0.16361022D+06 0.11045876D+01  1  2  5  2  7  2       -2 -.242463028960D-04 0.100000000000D+01
-.148247272919D-04 0.000000000000D+00 -.188789667506D-04 0.319106399851D-04 0.000000000000D+00  7 1 21 -24 -11 11 23 2 2 0.22016730D+00 0.16518923D+00 0.16361022D+06 0.16361022D+06 0.16361022D+06 0.11045876D+01  1  2  5  4  7  2       -2 -.295300708742D-04 0.100000000000D+01
  </mgrwgt>
  </event>
  <event>
  7     66 0.29493621E-05 0.91450963E+03 0.75467711E-02 0.76092767E-01
        1 -1    0    0  501    0 0.00000000E+00 0.00000000E+00 0.95405985E+03 0.95405990E+03 0.32000000E+00 0.0000E+00 0.9000E+01
       -2 -1    0    0    0  501 0.00000000E+00 0.00000000E+00 -.10243386E+04 0.10243387E+04 0.32000000E+00 0.0000E+00 0.9000E+01
       23  2    1    2    0    0 -.30023949E+03 -.31235545E+02 -.22067120E+03 0.38595892E+03 0.95650939E+02 0.0000E+00 0.0000E+00
      -24  1    1    2    0    0 0.82094987E+03 0.35050626E+03 0.32055447E+03 0.95185908E+03 0.80419002E+02 0.0000E+00 0.9000E+01
      -13  1    3    3    0    0 -.29412345E+03 -.47392772E+02 -.21624142E+03 0.36812367E+03 0.10565837E+00 0.0000E+00 0.9000E+01
       13  1    3    3    0    0 -.61160400E+01 0.16157227E+02 -.44297796E+01 0.17835247E+02 0.10565837E+00 0.0000E+00 0.9000E+01
       23  1    1    2    0    0 -.52071038E+03 -.31927071E+03 -.17016204E+03 0.64058057E+03 0.91188000E+02 0.0000E+00 0.9000E+01
#aMCatNLO 1  0  0  2  1 0.36620850D+04 0.00000000D+00  -5  7  0 0.00000000D+00 0.00000000D+00 0.00000000D+00 0.00000000D+00 0.00000000D+00
  <mgrwgt>
 0.1592568049D-02    3    2    0
 0.988574960141519D+03 0.000000000000000D+00 0.000000000000000D+00 0.988574960141519D+03
 0.988574960141519D+03 0.000000000000000D+00 0.000000000000000D+00 -.988574960141519D+03
 0.963854492080020D+03 0.820949874216937D+03 0.350506259586192D+03 0.354591218112570D+03
 0.360670172879348D+03 -.294123803736157D+03 -.473928596088729D+02 -.203293085319415D+03
 0.176886317739673D+02 -.611568788723167D+01 0.161573031414245D+02 -.379836950507578D+01
 0.634936623549701D+03 -.520710382593548D+03 -.319270703118743D+03 -.147499763288079D+03
 0.000000000000000D+00 -.000000000000000D+00 0.000000000000000D+00 0.000000000000000D+00
 0.522838037521548D+04 0.000000000000000D+00 0.000000000000000D+00 0.522838037521548D+04
 0.314605898223371D+04 0.000000000000000D+00 0.000000000000000D+00 -.314605898223371D+04
 0.328261901288654D+04 0.323605997351657D+04 -.413885592466275D+03 0.354591218112570D+03
 0.266283955804772D+03 0.624457701023935D+02 -.160248533149822D+03 -.203293085319415D+03
 0.174031646959936D+02 0.138421787892113D+02 0.984055978622658D+01 -.379836950507578D+01
 0.595422849293592D+03 0.179035791533640D+03 -.540743121358732D+03 -.147499763288079D+03
 0.421271037476830D+04 -.349138371394182D+04 0.110503668718860D+04 0.208232139298177D+04
0.363163727132D-02 0.000000000000D+00 0.000000000000D+00 0.255440868450D-08 0.000000000000D+00  7 1 -2 -24 -13 13 23 21 0 0.14677845D+00 0.15759056D+00 0.83632786D+06 0.83632786D+06 0.83632786D+06 0.10530705D+01  1  2  2  2  7  2       -2 0.158074612924D-02 0.100000000000D+01
-.200269896446D-03 0.000000000000D+00 -.139464433539D-04 0.255440868450D-08 0.000000000000D+00  7 1 -2 -24 -13 13 23 21 2 0.14677845D+00 0.15759056D+00 0.83632786D+06 0.83632786D+06 0.83632786D+06 0.10530705D+01  1  2  3  2  7  2       -2 -.966696694916D-04 0.100000000000D+01
0.224761286761D-03 0.000000000000D+00 0.000000000000D+00 0.255440868450D-08 0.000000000000D+00  7 1 -2 -24 -13 13 23 21 2 0.14677845D+00 0.15759056D+00 0.83632786D+06 0.83632786D+06 0.83632786D+06 0.10530705D+01  1  2 15  2  7  2       -2 0.108491589057D-03 0.100000000000D+01
  </mgrwgt>
  </event>
  <event>
  8     66 0.29493621E-05 0.18937523E+03 0.75467711E-02 0.93310486E-01
        1 -1    0    0  501    0 0.00000000E+00 0.00000000E+00 0.20179574E+04 0.20179575E+04 0.32000000E+00 0.0000E+00 0.9000E+01
       -2 -1    0    0    0  501 0.00000000E+00 0.00000000E+00 -.15604020E+03 0.15604052E+03 0.32000000E+00 0.0000E+00 0.9000E+01
       25  2    1    2    0    0 -.50480392E+03 0.93607718E+02 0.86079007E+03 0.10460298E+04 0.29938168E+03 0.0000E+00 0.0000E+00
       23  2    3    3    0    0 -.26522092E+03 0.16865735E+03 0.48165991E+03 0.58225464E+03 0.90756641E+02 0.0000E+00 0.0000E+00
      -24  1    1    2    0    0 0.50480392E+03 -.93607718E+02 0.10011272E+04 0.11279682E+04 0.80419002E+02 0.0000E+00 0.9000E+01
      -11  1    4    4    0    0 -.24286835E+03 0.17914683E+03 0.43456876E+03 0.52908282E+03 0.51099893E-03 0.0000E+00 0.9000E+01
       11  1    4    4    0    0 -.22352562E+02 -.10489487E+02 0.47091148E+02 0.53171821E+02 0.51099893E-03 0.0000E+00 0.9000E+01
       23  1    3    3    0    0 -.23958301E+03 -.75049629E+02 0.37913016E+03 0.46377515E+03 0.91188000E+02 0.0000E+00 0.9000E+01
#aMCatNLO 1  0  0  1  2 0.11515769D+02 0.00000000D+00  -5  7  0 0.00000000D+00 0.00000000D+00 0.00000000D+00 0.00000000D+00 0.00000000D+00
  <mgrwgt>
 0.3135094729D-02    9    2    0
 0.561144240125894D+03 0.000000000000000D+00 0.000000000000000D+00 0.561144240125894D+03
 0.561144240125894D+03 0.000000000000000D+00 0.000000000000000D+00 -.561144240125894D+03
 0.524093973659370D+03 0.504803922063489D+03 -.936077181071516D+02 0.679549310336531D+02
 0.303927135121109D+03 -.242868353528978D+03 0.179146833709781D+03 -.359593977815011D+02
 0.248738292481504D+02 -.223525618668642D+02 -.104894869190397D+02 0.300682949790091D+01
 0.269393542223159D+03 -.239583006667647D+03 -.750496286835897D+02 -.350023627500528D+02
 0.000000000000000D+00 0.000000000000000D+00 -.000000000000000D+00 0.000000000000000D+00
 0.571432157848305D+03 0.000000000000000D+00 0.000000000000000D+00 0.571432157848305D+03
 0.564405600350060D+03 0.000000000000000D+00 0.000000000000000D+00 -.564405600350060D+03
 0.518926513442179D+03 0.499453603237444D+03 -.935186396406138D+02 0.679549310336531D+02
 0.306465454861882D+03 -.245999447314624D+03 0.179198963880352D+03 -.359593977815011D+02
 0.251026741163704D+02 -.226089232999499D+02 -.104852187092224D+02 0.300682949790091D+01
 0.271852917757882D+03 -.242359405751057D+03 -.750034038919673D+02 -.350023627500528D+02
 0.134901980200526D+02 0.115141731281874D+02 -.191701638548504D+00 0.702655749824446D+01
0.156485043185D-03 0.000000000000D+00 0.000000000000D+00 0.759362846675D-05 0.000000000000D+00  7 1 -2 -24 -11 11 23 21 0 0.31045502D+00 0.24006211D-01 0.30983887D+06 0.30983887D+06 0.30983887D+06 0.10835165D+01  1  2  2  1  7  1        1 0.757493265002D-03 0.100000000000D+01
-.869292441987D-05 0.000000000000D+00 -.600943769290D-06 0.759362846675D-05 0.000000000000D+00  7 1 -2 -24 -11 11 23 21 2 0.31045502D+00 0.24006211D-01 0.30983887D+06 0.30983887D+06 0.30983887D+06 0.10835165D+01  1  2  3  1  7  1        1 -.494018169054D-04 0.100000000000D+01
0.997852179397D-05 0.000000000000D+00 0.000000000000D+00 0.759362846675D-05 0.000000000000D+00  7 1 -2 -24 -11 11 23 21 2 0.31045502D+00 0.24006211D-01 0.30983887D+06 0.30983887D+06 0.30983887D+06 0.10835165D+01  1  2 15  1  7  1        1 0.567078560496D-04 0.100000000000D+01
0.151474572132D-03 0.000000000000D+00 0.000000000000D+00 0.759362846675D-05 0.000000000000D+00  7 1 -2 -24 -11 11 23 21 2 0.31703799D+00 0.24006211D-01 0.31631297D+06 0.31631297D+06 0.31631297D+06 0.10828546D+01  1  2 12  1  7  1        1 0.804304823887D-03 0.100000000000D+01
-.149277469335D-03 0.000000000000D+00 0.000000000000D+00 0.759362846675D-05 0.000000000000D+00  7 1 -2 -24 -11 11 23 21 2 0.31045502D+00 0.24006211D-01 0.30983887D+06 0.30983887D+06 0.30983887D+06 0.10835165D+01  1  2  4  1  7  1        1 -.848342611987D-03 0.100000000000D+01
-.671588766216D-02 0.000000000000D+00 -.735934896962D-03 0.759362846675D-05 0.000000000000D+00  7 1 -2 -24 -11 11 23 21 2 0.31690793D+00 0.24006211D-01 0.30983887D+06 0.30983887D+06 0.30983887D+06 0.10835165D+01  1  2  5  1  7  1        1 -.357836099952D-01 0.100000000000D+01
0.672975908674D-02 0.000000000000D+00 0.735779193892D-03 0.759362846675D-05 0.000000000000D+00  7 1 -2 -24 -11 11 23 21 2 0.31045502D+00 0.24006211D-01 0.30983887D+06 0.30983887D+06 0.30983887D+06 0.10835165D+01  1  2  6  1  7  1        1 0.382451647067D-01 0.100000000000D+01
0.657888676468D-05 0.000000000000D+00 0.000000000000D+00 0.759362846675D-05 0.000000000000D+00  7 21 -2 -24 -11 11 23 -1 2 0.31703799D+00 0.24006211D-01 0.31631297D+06 0.31631297D+06 0.31631297D+06 0.10828546D+01  1  2 12  3  7  1        1 0.167395884475D-04 0.100000000000D+01
-.250101717663D-04 0.000000000000D+00 -.275311634244D-05 0.759362846675D-05 0.000000000000D+00  7 21 -2 -24 -11 11 23 -1 2 0.31690793D+00 0.24006211D-01 0.30983887D+06 0.30983887D+06 0.30983887D+06 0.10835165D+01  1  2  5  3  7  1        1 -.639610867185D-04 0.100000000000D+01
  </mgrwgt>
  </event>
  <event>
  9     66 0.29493621E-05 0.15052340E+03 0.75467711E-02 0.10213063E+00
        1 -1    0    0  501    0 0.00000000E+00 0.00000000E+00 0.78066157E+03 0.78066163E+03 0.32000000E+00 0.0000E+00 0.9000E+01
       21 -1    0    0  502  501 0.00000000E+00 0.00000000E+00 -.43503131E+03 0.43503196E+03 0.75000000E+00 0.0000E+00 0.9000E+01
       25  2    1    2    0    0 -.87514457E+02 -.12428493E+03 -.54522052E+02 0.34095166E+03 0.30028295E+03 0.0000E+00 0.0000E+00
       23  2    3    3    0    0 -.62444404E+02 -.44721862E+02 0.91201487E+02 0.14987735E+03 0.90808367E+02 0.0000E+00 0.0000E+00
      -24  1    1    2    0    0 0.42496314E+02 -.61128612E+02 0.59324570E+03 0.60328295E+03 0.80419002E+02 0.0000E+00 0.9000E+01
      -13  1    4    4    0    0 0.65721467E+01 0.21499986E+02 0.10879244E+02 0.24976221E+02 0.10565837E+00 0.0000E+00 0.9000E+01
       13  1    4    4    0    0 -.69016551E+02 -.66221848E+02 0.80322243E+02 0.12490113E+03 0.10565837E+00 0.0000E+00 0.9000E+01
       23  1    3    3    0    0 -.25070053E+02 -.79563071E+02 -.14572354E+03 0.19107431E+03 0.91188000E+02 0.0000E+00 0.9000E+01
        2  1    1    2  502    0 0.45018143E+02 0.18541354E+03 -.19309340E+03 0.27145898E+03 0.32000000E+00 0.0000E+00 0.9000E+01
#aMCatNLO 2  0  0  2  2 0.19080046D+03 0.00000000D+00  -5  7  0 0.00000000D+00 0.00000000D+00 0.00000000D+00 0.00000000D+00 0.00000000D+00
  <mgrwgt>
 0.4083631973D-03    1    2    0
 0.375816115597404D+03 0.000000000000000D+00 0.000000000000000D+00 0.375816115597404D+03
 0.375816115597404D+03 0.000000000000000D+00 0.000000000000000D+00 -.375816115597404D+03
 0.320135536244908D+03 0.614391572038049D+02 0.168901466066794D+02 0.303248245703310D+03
 0.292759007638247D+02 0.810900136603282D+01 0.278294355994638D+02 -.410426322185660D+01
 0.788671606572343D+02 -.638533320316803D+02 -.449561043074297D+02 0.110331185113498D+02
 0.323353633528841D+03 -.569482653815744D+01 0.236522101286496D+00 -.310177100992803D+03
 0.000000000000000D+00 0.000000000000000D+00 0.000000000000000D+00 -.000000000000000D+00
 0.408225166346506D+03 0.000000000000000D+00 0.000000000000000D+00 0.408225166346506D+03
 0.831924626863904D+03 0.000000000000000D+00 0.000000000000000D+00 -.831924626863904D+03
 0.322442798720508D+03 0.424963144033777D+02 -.611286122232266D+02 0.303248245703310D+03
 0.228537512451662D+02 0.657224895856107D+01 0.215001049534263D+02 -.410426322185660D+01
 0.962827965659285D+02 -.690166528684441D+02 -.662219664258558D+02 0.110331185113498D+02
 0.333892011145606D+03 -.250700532628549D+02 -.795630706543915D+02 -.310177100992803D+03
 0.464678435533201D+03 0.450181427693603D+02 0.185413544350048D+03 -.423699460517398D+03
0.559752399488D-05 0.000000000000D+00 0.000000000000D+00 0.757424343496D-05 0.166730552878D-09  7 1 21 -24 -13 13 23 2 2 0.12010182D+00 0.66927940D-01 0.73470518D+05 0.73470518D+05 0.73470518D+05 0.11328774D+01  1  2  1  4  7  2       -2 0.408363197288D-03 0.100000000000D+01
  </mgrwgt>
  </event>
  <event>
  8     66 0.29493621E-05 0.29860278E+03 0.75467711E-02 0.99698135E-01
        1 -1    0    0  502    0 0.00000000E+00 0.00000000E+00 0.24213388E+03 0.24213409E+03 0.32000000E+00 0.0000E+00 0.9000E+01
       -2 -1    0    0    0  501 0.00000000E+00 0.00000000E+00 -.98797564E+03 0.98797569E+03 0.32000000E+00 0.0000E+00 0.9000E+01
       23  2    1    2    0    0 -.22506321E+02 -.14410910E+03 -.64461652E+03 0.66637864E+03 0.85182607E+02 0.0000E+00 0.0000E+00
      -24  1    1    2    0    0 -.16405871E+02 0.27859838E+03 -.26619683E+02 0.29165397E+03 0.80419002E+02 0.0000E+00 0.9000E+01
      -13  1    3    3    0    0 -.32104562E+02 -.96092587E+02 -.26656346E+03 0.28516763E+03 0.10565837E+00 0.0000E+00 0.9000E+01
       13  1    3    3    0    0 0.95982405E+01 -.48016511E+02 -.37805306E+03 0.38121102E+03 0.10565837E+00 0.0000E+00 0.9000E+01
       23  1    1    2    0    0 -.19160920E+02 -.12317084E+03 0.24770347E+02 0.15641937E+03 0.91188000E+02 0.0000E+00 0.9000E+01
       21  1    1    2  502  501 0.58073112E+02 -.11318443E+02 -.99375913E+02 0.11565781E+03 0.75000000E+00 0.0000E+00 0.9000E+01
#aMCatNLO 2  0  0  1  2 0.59165814D+02 0.00000000D+00  -5  7  0 0.00000000D+00 0.00000000D+00 0.00000000D+00 0.00000000D+00 0.00000000D+00
  <mgrwgt>
 0.1553297629D-02    1    2    0
 0.452930601274002D+03 0.000000000000000D+00 0.000000000000000D+00 0.452930601274002D+03
 0.452930601274002D+03 0.000000000000000D+00 0.000000000000000D+00 -.452930601274002D+03
 0.335291931175182D+03 0.518777260760067D+01 0.274397837260453D+03 0.175021076099338D+03
 0.159744696862106D+03 -.218583081198521D+02 -.980935128107276D+02 -.124170227052040D+03
 0.200405217636175D+03 0.223799502568684D+02 -.505096579428080D+02 -.192639984262881D+03
 0.210419356874542D+03 -.570941474461691D+01 -.125794666506917D+03 0.141789135215584D+03
 0.000000000000000D+00 0.000000000000000D+00 -.000000000000000D+00 -.000000000000000D+00
 0.469685396629982D+03 0.000000000000000D+00 0.000000000000000D+00 0.469685396629982D+03
 0.509320839663270D+03 0.000000000000000D+00 0.000000000000000D+00 -.509320839663270D+03
 0.339102277462440D+03 -.164063142667427D+02 0.278606522535015D+03 0.175021076099338D+03
 0.160260717266282D+03 -.321048740370007D+02 -.960964581845571D+02 -.124170227052040D+03
 0.198766384864307D+03 0.959848482943025D+01 -.480185516670571D+02 -.192639984262881D+03
 0.209661957553226D+03 -.191604086616123D+02 -.123173069198538D+03 0.141789135215584D+03
 0.712148991469960D+02 0.580731121359254D+02 -.113184434848628D+02 -.396354430332879D+02
0.327525879333D-03 0.000000000000D+00 0.000000000000D+00 0.101031629431D-10 0.194261032581D-13  7 1 -2 -24 -13 13 23 21 2 0.37251232D-01 0.15199565D+00 0.10704140D+06 0.10704140D+06 0.10704140D+06 0.11193050D+01  1  2  1  1  7  1        1 0.155329762945D-02 0.100000000000D+01
  </mgrwgt>
  </event>
  <event>
  8     66 0.29493621E-05 0.29895689E+03 0.75467711E-02 0.95943937E-01
        1 -1    0    0  501    0 0.00000000E+00 0.00000000E+00 0.20678670E+04 0.20678670E+04 0.32000000E+00 0.0000E+00 0.9000E+01
       -2 -1    0    0    0  501 0.00000000E+00 0.00000000E+00 -.48088387E+02 0.48089452E+02 0.32000000E+00 0.0000E+00 0.9000E+01
       25  2    1    2    0    0 0.22691072E+02 0.22827516E+03 0.10692528E+04 0.11348393E+04 0.30320651E+03 0.0000E+00 0.0000E+00
       23  2    3    3    0    0 0.12306570E+03 0.67047677E+02 0.40708504E+03 0.43996464E+03 0.90609554E+02 0.0000E+00 0.0000E+00
      -24  1    1    2    0    0 -.22691072E+02 -.22827516E+03 0.95052576E+03 0.98111715E+03 0.80419002E+02 0.0000E+00 0.9000E+01
      -11  1    4    4    0    0 0.71668634E+02 0.57475763E+02 0.13756407E+03 0.16541986E+03 0.51099893E-03 0.0000E+00 0.9000E+01
       11  1    4    4    0    0 0.51397070E+02 0.95719136E+01 0.26952097E+03 0.27454478E+03 0.51099893E-03 0.0000E+00 0.9000E+01
       23  1    3    3    0    0 -.10037463E+03 0.16122748E+03 0.66216778E+03 0.69487465E+03 0.91188000E+02 0.0000E+00 0.9000E+01
#aMCatNLO 1  0  0  1  2 0.25559709D+03 0.00000000D+00  -5  7  0 0.00000000D+00 0.00000000D+00 0.00000000D+00 0.00000000D+00 0.00000000D+00
  <mgrwgt>
 0.1251800262D-02    6    2    0
 0.315343525613913D+03 0.000000000000000D+00 0.000000000000000D+00 0.315343525613913D+03
 0.315343525613913D+03 0.000000000000000D+00 0.000000000000000D+00 -.315343525613913D+03
 0.247586487161279D+03 -.226910722690676D+02 -.228275155751922D+03 0.469832010000109D+02
 0.114434337225050D+03 0.716686339224444D+02 0.574757630031663D+02 -.682302067637998D+02
 0.579560086245712D+02 0.513970702156500D+02 0.957191358513915D+01 0.250123685255425D+02
 0.210710218216926D+03 -.100374631869027D+03 0.161227479163616D+03 -.376536276175357D+01
 0.000000000000000D+00 0.000000000000000D+00 0.000000000000000D+00 0.000000000000000D+00
 0.488879090982733D+03 0.000000000000000D+00 0.000000000000000D+00 0.488879090982733D+03
 0.450147505921010D+03 0.000000000000000D+00 0.000000000000000D+00 -.450147505921010D+03
 0.337125098379907D+03 -.105847318802286D+03 -.306227105151473D+03 0.469832010000109D+02
 0.863540849518500D+02 0.431129973514600D+02 0.307072683938751D+02 -.682302067637998D+02
 0.446849601523811D+02 0.367997235663190D+02 -.411186454115952D+01 0.250123685255425D+02
 0.212347449484452D+03 -.160540854983253D+03 0.104826732673829D+03 -.376536276175357D+01
 0.258515003935153D+03 0.186475452867760D+03 0.174804968624928D+03 0.387315850617230D+02
0.262648853955D-04 0.000000000000D+00 0.000000000000D+00 0.691621462004D-07 0.000000000000D+00  7 1 -2 -24 -11 11 23 21 0 0.31813346D+00 0.73982972D-02 0.89375223D+05 0.89375223D+05 0.89375223D+05 0.11257474D+01  1  2  2  1  7  1        1 0.806739993819D-03 0.100000000000D+01
-.145410824017D-05 0.000000000000D+00 -.100864075622D-06 0.691621462004D-07 0.000000000000D+00  7 1 -2 -24 -11 11 23 21 2 0.31813346D+00 0.73982972D-02 0.89375223D+05 0.89375223D+05 0.89375223D+05 0.11257474D+01  1  2  3  1  7  1        1 -.566026398155D-04 0.100000000000D+01
0.169432916733D-05 0.000000000000D+00 0.000000000000D+00 0.691621462004D-07 0.000000000000D+00  7 1 -2 -24 -11 11 23 21 2 0.31813346D+00 0.73982972D-02 0.89375223D+05 0.89375223D+05 0.89375223D+05 0.11257474D+01  1  2 15  1  7  1        1 0.659534833365D-04 0.100000000000D+01
-.911654803460D-05 0.000000000000D+00 -.677164994615D-05 0.691621462004D-07 0.000000000000D+00  7 1 -2 -24 -11 11 23 21 2 0.55310184D+00 0.73982972D-02 0.89375223D+05 0.89375223D+05 0.89375223D+05 0.11257474D+01  1  2  5  1  7  1        1 -.278685122780D-04 0.100000000000D+01
0.119113586294D-04 0.000000000000D+00 0.585336039421D-05 0.691621462004D-07 0.000000000000D+00  7 1 -2 -24 -11 11 23 21 2 0.31813346D+00 0.73982972D-02 0.89375223D+05 0.89375223D+05 0.89375223D+05 0.11257474D+01  1  2  6  1  7  1        1 0.463661729977D-03 0.100000000000D+01
-.218051972102D-06 0.000000000000D+00 -.414463227057D-06 0.691621462004D-07 0.000000000000D+00  7 21 -2 -24 -11 11 23 -1 2 0.55310184D+00 0.73982972D-02 0.89375223D+05 0.89375223D+05 0.89375223D+05 0.11257474D+01  1  2  5  3  7  1        1 -.837934801256D-07 0.100000000000D+01
  </mgrwgt>
  </event>
  <event>
  8     66 0.29493621E-05 0.69909438E+03 0.75467711E-02 0.85811603E-01
        1 -1    0    0  501    0 0.00000000E+00 0.00000000E+00 0.98446278E+03 0.98446283E+03 0.32000000E+00 0.0000E+00 0.9000E+01
       -2 -1    0    0    0  501 0.00000000E+00 0.00000000E+00 -.91243583E+03 0.91243588E+03 0.32000000E+00 0.0000E+00 0.9000E+01
       25  2    1    2    0    0 -.65166053E+03 -.20660964E+03 0.65632120E+03 0.99400560E+03 0.29990103E+03 0.0000E+00 0.0000E+00
       23  2    3    3    0    0 -.30769997E+03 -.13985586E+03 0.47337304E+03 0.58835771E+03 0.88565373E+02 0.0000E+00 0.0000E+00
      -24  1    1    2    0    0 0.65166053E+03 0.20660964E+03 -.58429424E+03 0.90289311E+03 0.80419002E+02 0.0000E+00 0.9000E+01
      -11  1    4    4    0    0 -.22096347E+03 -.13901406E+03 0.37865410E+03 0.45992248E+03 0.51099893E-03 0.0000E+00 0.9000E+01
       11  1    4    4    0    0 -.86736501E+02 -.84179576E+00 0.94718942E+02 0.12843523E+03 0.51099893E-03 0.0000E+00 0.9000E+01
       23  1    3    3    0    0 -.34396056E+03 -.66753782E+02 0.18294816E+03 0.40564789E+03 0.91188000E+02 0.0000E+00 0.9000E+01
#aMCatNLO 1  0  0  2  2 0.77418915D+03 0.00000000D+00  -5  7  0 0.00000000D+00 0.00000000D+00 0.00000000D+00 0.00000000D+00 0.00000000D+00
  <mgrwgt>
 0.1825427365D-02    5    2    0
 0.947765379324921D+03 0.000000000000000D+00 0.000000000000000D+00 0.947765379324921D+03
 0.947765379324921D+03 0.000000000000000D+00 0.000000000000000D+00 -.947765379324921D+03
 0.925746898712268D+03 0.651660532887827D+03 0.206609642251961D+03 -.619024321110150D+03
 0.445866184538134D+03 -.220963473136742D+03 -.139014064119665D+03 0.361451086636733D+03
 0.124928754865404D+03 -.867365006422017D+02 -.841795751727688D+00 0.899069776406581D+02
 0.398988920534038D+03 -.343960559108883D+03 -.667537823805680D+02 0.167666256832759D+03
 0.000000000000000D+00 0.000000000000000D+00 -.000000000000000D+00 -.000000000000000D+00
 0.119787743953936D+04 0.000000000000000D+00 0.000000000000000D+00 0.119787743953936D+04
 0.188439029258433D+04 0.000000000000000D+00 0.000000000000000D+00 -.188439029258433D+04
 0.897727708287054D+03 0.425986671245696D+03 0.484553472866602D+03 -.619024321110150D+03
 0.494429177008865D+03 -.337334759312033D+03 0.431082436212353D+01 0.361451086636733D+03
 0.157009986418351D+03 -.121629338879598D+03 0.421328272291922D+02 0.899069776406581D+02
 0.498369622363410D+03 -.455017969437438D+03 0.700264447146272D+02 0.167666256832759D+03
 0.103473123804600D+04 0.487995396383372D+03 -.601023569172545D+03 -.686512853044969D+03
0.314091905758D-02 0.000000000000D+00 0.000000000000D+00 0.125150669404D-04 0.000000000000D+00  7 1 -2 -24 -11 11 23 21 0 0.15145582D+00 0.14037475D+00 0.48873295D+06 0.48873295D+06 0.48873295D+06 0.10692107D+01  1  2  2  2  7  2       -2 0.183886652767D-02 0.100000000000D+01
-.154846965063D-03 0.000000000000D+00 -.120619562041D-04 0.125150669404D-04 0.000000000000D+00  7 1 -2 -24 -11 11 23 21 2 0.15145582D+00 0.14037475D+00 0.48873295D+06 0.48873295D+06 0.48873295D+06 0.10692107D+01  1  2  3  2  7  2       -2 -.103638883100D-03 0.100000000000D+01
0.197139453740D-03 0.000000000000D+00 0.000000000000D+00 0.125150669404D-04 0.000000000000D+00  7 1 -2 -24 -11 11 23 21 2 0.15145582D+00 0.14037475D+00 0.48873295D+06 0.48873295D+06 0.48873295D+06 0.10692107D+01  1  2 15  2  7  2       -2 0.131945193709D-03 0.100000000000D+01
-.808208463119D-03 0.000000000000D+00 -.863717722230D-03 0.125150669404D-04 0.000000000000D+00  7 1 -2 -24 -11 11 23 21 2 0.15145582D+00 0.30988386D+00 0.48873295D+06 0.48873295D+06 0.48873295D+06 0.10692107D+01  1  2  5  2  7  2       -2 -.369284691643D-04 0.100000000000D+01
-.149439474541D-04 0.000000000000D+00 -.741531421576D-04 0.125150669404D-04 0.000000000000D+00  7 1 21 -24 -11 11 23 2 2 0.15145582D+00 0.30988386D+00 0.48873295D+06 0.48873295D+06 0.48873295D+06 0.10692107D+01  1  2  5  4  7  2       -2 -.481700455473D-05 0.100000000000D+01
  </mgrwgt>
  </event>
  <event>
  8     66 0.29493621E-05 0.20486427E+03 0.75467711E-02 0.97333059E-01
        1 -1    0    0  501    0 0.00000000E+00 0.00000000E+00 0.22577935E+03 0.22577958E+03 0.32000000E+00 0.0000E+00 0.9000E+01
       -2 -1    0    0    0  501 0.00000000E+00 0.00000000E+00 -.83775229E+03 0.83775235E+03 0.32000000E+00 0.0000E+00 0.9000E+01
       25  2    1    2    0    0 0.55304131E+01 -.80184341E+02 -.79187184E+03 0.85071524E+03 0.30032531E+03 0.0000E+00 0.0000E+00
       23  2    3    3    0    0 -.10700044E+03 -.66184933E+02 -.51268864E+03 0.53588562E+03 0.92164093E+02 0.0000E+00 0.0000E+00
      -24  1    1    2    0    0 -.55304131E+01 0.80184341E+02 0.17989890E+03 0.21281669E+03 0.80419002E+02 0.0000E+00 0.9000E+01
      -11  1    4    4    0    0 0.22844693E+01 -.37445513E+02 -.75190881E+02 0.84030077E+02 0.51099893E-03 0.0000E+00 0.9000E+01
       11  1    4    4    0    0 -.10928491E+03 -.28739421E+02 -.43749775E+03 0.45185554E+03 0.51099893E-03 0.0000E+00 0.9000E+01
       23  1    3    3    0    0 0.11253085E+03 -.13999407E+02 -.27918320E+03 0.31482962E+03 0.91188000E+02 0.0000E+00 0.9000E+01
#aMCatNLO 1  0  0  2  1 0.31505549D+03 0.00000000D+00  -5  7  0 0.00000000D+00 0.00000000D+00 0.00000000D+00 0.00000000D+00 0.00000000D+00
  <mgrwgt>
 0.1627753598D-02    3    2    0
 0.434910702495707D+03 0.000000000000000D+00 0.000000000000000D+00 0.434910702495707D+03
 0.434910702495707D+03 0.000000000000000D+00 0.000000000000000D+00 -.434910702495707D+03
 0.386781238822738D+03 -.553041309206116D+01 0.801843406399026D+02 0.369692300160629D+03
 0.498422834427700D+02 0.228446928233408D+01 -.374455129062033D+02 -.328156667169640D+02
 0.244677822056190D+03 -.109284908620906D+03 -.287394205149701D+02 -.217020946137337D+03
 0.188520060669715D+03 0.112530852430633D+03 -.139994072187292D+02 -.119855687306328D+03
 0.000000000000000D+00 -.000000000000000D+00 0.000000000000000D+00 0.000000000000000D+00
 0.105182145022868D+04 0.000000000000000D+00 0.000000000000000D+00 0.105182145022868D+04
 0.504672665570584D+03 0.000000000000000D+00 0.000000000000000D+00 -.504672665570584D+03
 0.387697979455710D+03 0.810086872098430D+02 -.246516352023659D+02 0.369692300160629D+03
 0.639975516144276D+02 0.150047549554160D+02 -.528552358739452D+02 -.328156667169640D+02
 0.243062316447921D+03 -.547855860166204D+02 -.947614804627918D+02 -.217020946137337D+03
 0.230363355098023D+03 0.159336232196027D+03 -.707008016780511D+02 -.119855687306328D+03
 0.631372913183186D+03 -.200564088344666D+03 0.242969153217154D+03 0.547148784658100D+03
0.232399164716D-03 0.000000000000D+00 0.000000000000D+00 0.801663483205D-05 0.000000000000D+00  7 1 -2 -24 -11 11 23 21 0 0.34735307D-01 0.12888499D+00 0.41969371D+05 0.41969371D+05 0.41969371D+05 0.11540443D+01  1  2  2  2  7  2       -2 0.153471898020D-02 0.100000000000D+01
-.401506512452D-05 0.000000000000D+00 -.892473984613D-06 0.801663483205D-05 0.000000000000D+00  7 1 -2 -24 -11 11 23 21 2 0.34735307D-01 0.12888499D+00 0.41969371D+05 0.41969371D+05 0.41969371D+05 0.11540443D+01  1  2  3  2  7  2       -2 -.353127746095D-04 0.100000000000D+01
0.145931081761D-04 0.000000000000D+00 0.000000000000D+00 0.801663483205D-05 0.000000000000D+00  7 1 -2 -24 -11 11 23 21 2 0.34735307D-01 0.12888499D+00 0.41969371D+05 0.41969371D+05 0.41969371D+05 0.11540443D+01  1  2 15  2  7  2       -2 0.128347392606D-03 0.100000000000D+01
  </mgrwgt>
  </event>
  <event>
  8     66 0.29493621E-05 0.84481030E+03 0.75467711E-02 0.88476543E-01
        1 -1    0    0  501    0 0.00000000E+00 0.00000000E+00 0.23828073E+04 0.23828074E+04 0.32000000E+00 0.0000E+00 0.9000E+01
       -2 -1    0    0    0  501 0.00000000E+00 0.00000000E+00 -.90079365E+03 0.90079371E+03 0.32000000E+00 0.0000E+00 0.9000E+01
       25  2    1    2    0    0 0.39523496E+03 -.76692250E+03 0.20521698E+04 0.22463325E+04 0.30037966E+03 0.0000E+00 0.0000E+00
       23  2    3    3    0    0 0.39861030E+01 -.11311577E+03 0.28245145E+03 0.31740604E+03 0.90314507E+02 0.0000E+00 0.0000E+00
      -24  1    1    2    0    0 -.39523496E+03 0.76692250E+03 -.57015615E+03 0.10372686E+04 0.80419002E+02 0.0000E+00 0.9000E+01
      -13  1    4    4    0    0 0.46783704E+02 -.65312875E+02 0.16712883E+03 0.18543609E+03 0.10565837E+00 0.0000E+00 0.9000E+01
       13  1    4    4    0    0 -.42797601E+02 -.47802891E+02 0.11532262E+03 0.13196995E+03 0.10565837E+00 0.0000E+00 0.9000E+01
       23  1    3    3    0    0 0.39124886E+03 -.65380673E+03 0.17697184E+04 0.19289265E+04 0.91188000E+02 0.0000E+00 0.9000E+01
#aMCatNLO 1  0  0  1  1 0.88577688D+01 0.00000000D+00  -5  7  0 0.00000000D+00 0.00000000D+00 0.00000000D+00 0.00000000D+00 0.00000000D+00
  <mgrwgt>
 0.2977505462D-02   10    2    0
 0.146506582072435D+04 0.000000000000000D+00 0.000000000000000D+00 0.146506582072435D+04
 0.146506582072435D+04 0.000000000000000D+00 0.000000000000000D+00 -.146506582072435D+04
 0.145077282357681D+04 -.395234961839731D+03 0.766922495476738D+03 -.116356941372053D+04
 0.123274690479293D+03 0.467838266209406D+02 -.653128991390076D+02 0.934994550012196D+02
 0.895614509317735D+02 -.427977236659416D+02 -.478028668695061D+02 0.624859525099398D+02
 0.126652267646082D+04 0.391248858884732D+03 -.653806729468224D+03 0.100758400620937D+04
 0.000000000000000D+00 -.000000000000000D+00 0.000000000000000D+00 0.000000000000000D+00
 0.147160691939717D+04 0.000000000000000D+00 0.000000000000000D+00 0.147160691939717D+04
 0.146807432135422D+04 0.000000000000000D+00 0.000000000000000D+00 -.146807432135422D+04
 0.144843238688054D+04 -.395127263024250D+03 0.762541689928565D+03 -.116356941372053D+04
 0.123476110411071D+03 0.467929928465251D+02 -.656857486612344D+02 0.934994550012196D+02
 0.897031445823735D+02 -.427910643979033D+02 -.480737422569353D+02 0.624859525099398D+02
 0.126853338803275D+04 0.391343030395717D+03 -.657637292283234D+03 0.100758400620937D+04
 0.953621084465775D+01 -.217695820089455D+00 0.885509327283875D+01 0.353259804294370D+01
0.957465397224D-02 0.000000000000D+00 0.000000000000D+00 0.106426157150D-03 0.000000000000D+00  7 1 -2 -24 -13 13 23 21 0 0.36658575D+00 0.13858364D+00 0.79066338D+06 0.79066338D+06 0.79066338D+06 0.10547226D+01  1  2  2  1  7  1        1 0.606018383260D-03 0.100000000000D+01
-.370664841684D-03 0.000000000000D+00 -.367691923177D-04 0.106426157150D-03 0.000000000000D+00  7 1 -2 -24 -13 13 23 21 2 0.36658575D+00 0.13858364D+00 0.79066338D+06 0.79066338D+06 0.79066338D+06 0.10547226D+01  1  2  3  1  7  1        1 -.260988026400D-04 0.100000000000D+01
0.589825041235D-03 0.000000000000D+00 0.000000000000D+00 0.106426157150D-03 0.000000000000D+00  7 1 -2 -24 -13 13 23 21 2 0.36658575D+00 0.13858364D+00 0.79066338D+06 0.79066338D+06 0.79066338D+06 0.10547226D+01  1  2 15  1  7  1        1 0.415300444288D-04 0.100000000000D+01
-.986575846227D-04 0.000000000000D+00 0.000000000000D+00 0.106426157150D-03 0.000000000000D+00  7 1 -2 -24 -13 13 23 21 2 0.36658575D+00 0.13858364D+00 0.79066338D+06 0.79066338D+06 0.79066338D+06 0.10547226D+01  1  2  4  1  7  1        1 -.694655802344D-05 0.100000000000D+01
-.166518196389D+01 0.000000000000D+00 -.160317584963D+00 0.106426157150D-03 0.000000000000D+00  7 1 -2 -24 -13 13 23 21 2 0.36852143D+00 0.13858364D+00 0.79066338D+06 0.79066338D+06 0.79066338D+06 0.10547226D+01  1  2  5  1  7  1        1 -.114916389013D+00 0.100000000000D+01
0.166600537970D+01 0.000000000000D+00 0.160315361790D+00 0.106426157150D-03 0.000000000000D+00  7 1 -2 -24 -13 13 23 21 2 0.36658575D+00 0.13858364D+00 0.79066338D+06 0.79066338D+06 0.79066338D+06 0.10547226D+01  1  2  6  1  7  1        1 0.117304747341D+00 0.100000000000D+01
0.986582015755D-04 0.000000000000D+00 0.000000000000D+00 0.106426157150D-03 0.804339046761D-05  7 1 -2 -24 -13 13 23 21 2 0.36822245D+00 0.13886823D+00 0.79846653D+06 0.79846653D+06 0.79846653D+06 0.10544330D+01  1  2 11  1  7  1        1 0.678234363709D-05 0.100000000000D+01
0.306714371749D-03 0.000000000000D+00 0.000000000000D+00 0.106426157150D-03 0.000000000000D+00  7 21 -2 -24 -13 13 23 -1 2 0.36859761D+00 0.13858364D+00 0.79846653D+06 0.79846653D+06 0.79846653D+06 0.10544330D+01  1  2 12  3  7  1        1 0.742355451401D-05 0.100000000000D+01
-.162971311998D-02 0.000000000000D+00 -.157062251631D-03 0.106426157150D-03 0.000000000000D+00  7 21 -2 -24 -13 13 23 -1 2 0.36852143D+00 0.13858364D+00 0.79066338D+06 0.79066338D+06 0.79066338D+06 0.10547226D+01  1  2  5  3  7  1        1 -.395644385957D-04 0.100000000000D+01
0.107719944270D-06 0.000000000000D+00 0.000000000000D+00 0.106426157150D-03 0.669125179647D-08  7 21 -2 -24 -13 13 23 -1 2 0.36822245D+00 0.13886823D+00 0.79846653D+06 0.79846653D+06 0.79846653D+06 0.10544330D+01  1  2 11  3  7  1        1 0.260789522179D-08 0.100000000000D+01
  </mgrwgt>
  </event>
  <event>
  8     66 0.29493621E-05 0.56846999E+03 0.75467711E-02 0.92939011E-01
        1 -1    0    0  501    0 0.00000000E+00 0.00000000E+00 0.20498965E+04 0.20498966E+04 0.32000000E+00 0.0000E+00 0.9000E+01
       -2 -1    0    0    0  501 0.00000000E+00 0.00000000E+00 -.22068262E+03 0.22068286E+03 0.32000000E+00 0.0000E+00 0.9000E+01
       25  2    1    2    0    0 -.45813933E+03 -.26553975E+03 0.36003004E+03 0.70681107E+03 0.29926117E+03 0.0000E+00 0.0000E+00
       23  2    3    3    0    0 -.17519588E+03 -.23443212E+03 0.21310171E+03 0.37375271E+03 0.92880215E+02 0.0000E+00 0.0000E+00
      -24  1    1    2    0    0 0.45813933E+03 0.26553975E+03 0.14691839E+04 0.15637683E+04 0.80419002E+02 0.0000E+00 0.9000E+01
      -13  1    4    4    0    0 -.75382343E+02 -.16334162E+03 0.15784506E+03 0.23932835E+03 0.10565837E+00 0.0000E+00 0.9000E+01
       13  1    4    4    0    0 -.99813535E+02 -.71090498E+02 0.55256648E+02 0.13442436E+03 0.10565837E+00 0.0000E+00 0.9000E+01
       23  1    3    3    0    0 -.28294345E+03 -.31107626E+02 0.14692833E+03 0.33305836E+03 0.91188000E+02 0.0000E+00 0.9000E+01
#aMCatNLO 1  0  0  2  2 0.26260457D+02 0.00000000D+00  -5  7  0 0.00000000D+00 0.00000000D+00 0.00000000D+00 0.00000000D+00 0.00000000D+00
  <mgrwgt>
 0.9297109269D-03    6    2    0
 0.672589650171821D+03 0.000000000000000D+00 0.000000000000000D+00 0.672589650171821D+03
 0.672589650171821D+03 0.000000000000000D+00 0.000000000000000D+00 -.672589650171821D+03
 0.641705280225585D+03 0.458139330202022D+03 0.265539748572257D+03 0.353433794033976D+03
 0.189329188234280D+03 -.753823115026061D+02 -.163341743639719D+03 -.590129088819698D+02
 0.151760359204961D+03 -.998135667907885D+02 -.710903785174968D+02 -.895243910493601D+02
 0.362384472678816D+03 -.282943451908628D+03 -.311076264150409D+02 -.204896494102647D+03
 0.000000000000000D+00 -.000000000000000D+00 -.000000000000000D+00 0.000000000000000D+00
 0.737306431295594D+03 0.000000000000000D+00 0.000000000000000D+00 0.737306431295594D+03
 0.675387046759955D+03 0.000000000000000D+00 0.000000000000000D+00 -.675387046759955D+03
 0.651480296675377D+03 0.470601072668635D+03 0.267541668978396D+03 0.353433794033976D+03
 0.187406513235266D+03 -.717519096689089D+02 -.162758536633730D+03 -.590129088819698D+02
 0.149645266444656D+03 -.969090808825596D+02 -.706237864959874D+02 -.895243910493601D+02
 0.356903526584091D+03 -.276012055544295D+03 -.299941301393818D+02 -.204896494102647D+03
 0.672578751161590D+02 -.259280265728715D+02 -.416521570929663D+01 0.619193845356391D+02
0.425659826346D-03 0.000000000000D+00 0.000000000000D+00 0.360781234112D-05 0.000000000000D+00  7 1 -2 -24 -13 13 23 21 0 0.31536872D+00 0.33951193D-01 0.32315813D+06 0.32315813D+06 0.32315813D+06 0.10821707D+01  1  2  2  2  7  2       -2 0.106150897939D-02 0.100000000000D+01
-.228344584207D-04 0.000000000000D+00 -.163464581197D-05 0.360781234112D-05 0.000000000000D+00  7 1 -2 -24 -13 13 23 21 2 0.31536872D+00 0.33951193D-01 0.32315813D+06 0.32315813D+06 0.32315813D+06 0.10821707D+01  1  2  3  2  7  2       -2 -.666873182766D-04 0.100000000000D+01
0.267882534734D-04 0.000000000000D+00 0.000000000000D+00 0.360781234112D-05 0.000000000000D+00  7 1 -2 -24 -13 13 23 21 2 0.31536872D+00 0.33951193D-01 0.32315813D+06 0.32315813D+06 0.32315813D+06 0.10821707D+01  1  2 15  2  7  2       -2 0.782342524854D-04 0.100000000000D+01
-.490730196844D-04 0.000000000000D+00 0.000000000000D+00 0.360781234112D-05 0.000000000000D+00  7 1 -2 -24 -13 13 23 21 2 0.31536872D+00 0.33951193D-01 0.32315813D+06 0.32315813D+06 0.32315813D+06 0.10821707D+01  1  2  4  2  7  2       -2 -.143316211937D-03 0.100000000000D+01
0.468410202484D-07 0.000000000000D+00 0.000000000000D+00 0.360781234112D-05 0.000000000000D+00  7 1 -2 -24 -13 13 23 21 2 0.31536872D+00 0.38827078D-01 0.32315813D+06 0.32315813D+06 0.32315813D+06 0.10821707D+01  1  2  5  2  7  2       -2 0.106800375542D-06 0.100000000000D+01
-.464224052522D-07 0.000000000000D+00 0.000000000000D+00 0.360781234112D-05 0.000000000000D+00  7 1 -2 -24 -13 13 23 21 2 0.31536872D+00 0.33951193D-01 0.32315813D+06 0.32315813D+06 0.32315813D+06 0.10821707D+01  1  2  6  2  7  2       -2 -.135575175779D-06 0.100000000000D+01
  </mgrwgt>
  </event>
  <event>
  8     66 0.29493621E-05 0.28097044E+03 0.75467711E-02 0.97717867E-01
        1 -1    0    0  501    0 0.00000000E+00 0.00000000E+00 0.75426802E+03 0.75426809E+03 0.32000000E+00 0.0000E+00 0.9000E+01
       -2 -1    0    0    0  501 0.00000000E+00 0.00000000E+00 -.15920371E+03 0.15920404E+03 0.32000000E+00 0.0000E+00 0.9000E+01
       25  2    1    2    0    0 -.83409591E+02 0.19799716E+03 0.12324913E+03 0.38884195E+03 0.29974602E+03 0.0000E+00 0.0000E+00
       23  2    3    3    0    0 -.85234275E+02 -.36259871E+01 -.20280271E+02 0.12507849E+03 0.89192543E+02 0.0000E+00 0.0000E+00
      -24  1    1    2    0    0 0.83409591E+02 -.19799716E+03 0.47181518E+03 0.52463017E+03 0.80419002E+02 0.0000E+00 0.9000E+01
      -13  1    4    4    0    0 -.81543196E+02 -.28283781E+02 -.38189048E+02 0.94380504E+02 0.10565837E+00 0.0000E+00 0.9000E+01
       13  1    4    4    0    0 -.36910795E+01 0.24657794E+02 0.17908777E+02 0.30697985E+02 0.10565837E+00 0.0000E+00 0.9000E+01
       23  1    3    3    0    0 0.18246841E+01 0.20162315E+03 0.14352940E+03 0.26376346E+03 0.91188000E+02 0.0000E+00 0.9000E+01
#aMCatNLO 1  0  0  2  2 0.16839270D+03 0.00000000D+00  -5  7  0 0.00000000D+00 0.00000000D+00 0.00000000D+00 0.00000000D+00 0.00000000D+00
  <mgrwgt>
 0.1632856941D-02    3    2    0
 0.346529144358284D+03 0.000000000000000D+00 0.000000000000000D+00 0.346529144358284D+03
 0.346529144358284D+03 0.000000000000000D+00 0.000000000000000D+00 -.346529144358284D+03
 0.286375139672098D+03 0.834095913041785D+02 -.197997164648773D+03 0.171416065575429D+03
 0.157185952429668D+03 -.815433049897369D+02 -.282838548543285D+02 -.131370227247850D+03
 0.250841114262734D+02 -.369097032332638D+01 0.246578676330710D+02 -.275298890444017D+01
 0.224413085188530D+03 0.182468400888477D+01 0.201623151870030D+03 -.372928494231388D+02
 0.000000000000000D+00 -.000000000000000D+00 0.000000000000000D+00 0.000000000000000D+00
 0.975310854937617D+03 0.000000000000000D+00 0.000000000000000D+00 0.975310854937617D+03
 0.368069035493203D+03 0.000000000000000D+00 0.000000000000000D+00 -.368069035493203D+03
 0.344139761830022D+03 0.888053072420044D+02 -.273304060683970D+03 0.171416065575429D+03
 0.167197766333225D+03 -.787673477567986D+02 -.670273182144976D+02 -.131370227247850D+03
 0.197740056075076D+02 -.330709096307113D+01 0.193001424663069D+02 -.275298890444017D+01
 0.182110655998647D+03 0.530356551383027D+01 0.153069119220701D+03 -.372928494231388D+02
 0.630157700661418D+03 -.120344340359649D+02 0.167962117211460D+03 0.607241819444414D+03
0.422716237833D-04 0.000000000000D+00 0.000000000000D+00 0.184826058965D-05 0.000000000000D+00  7 1 -2 -24 -13 13 23 21 0 0.11604126D+00 0.24492909D-01 0.78944388D+05 0.78944388D+05 0.78944388D+05 0.11302467D+01  1  2  2  2  7  2       -2 0.160931019593D-02 0.100000000000D+01
-.222284162971D-05 0.000000000000D+00 -.162334165702D-06 0.184826058965D-05 0.000000000000D+00  7 1 -2 -24 -13 13 23 21 2 0.11604126D+00 0.24492909D-01 0.78944388D+05 0.78944388D+05 0.78944388D+05 0.11302467D+01  1  2  3  2  7  2       -2 -.108105014727D-03 0.100000000000D+01
0.270700681635D-05 0.000000000000D+00 0.000000000000D+00 0.184826058965D-05 0.000000000000D+00  7 1 -2 -24 -13 13 23 21 2 0.11604126D+00 0.24492909D-01 0.78944388D+05 0.78944388D+05 0.78944388D+05 0.11302467D+01  1  2 15  2  7  2       -2 0.131651759547D-03 0.100000000000D+01
  </mgrwgt>
  </event>
  <event>
  8     66 0.29493621E-05 0.17086585E+03 0.75467711E-02 0.97421091E-01
        1 -1    0    0  501    0 0.00000000E+00 0.00000000E+00 0.10572402E+03 0.10572451E+03 0.32000000E+00 0.0000E+00 0.9000E+01
       -2 -1    0    0    0  501 0.00000000E+00 0.00000000E+00 -.46127684E+03 0.46127695E+03 0.32000000E+00 0.0000E+00 0.9000E+01
       25  2    1    2    0    0 0.88357699E+02 0.41212339E+02 -.25915626E+03 0.40805162E+03 0.29973090E+03 0.0000E+00 0.0000E+00
       23  2    3    3    0    0 0.21239387E+02 0.53083877E+02 0.19746142E+02 0.10680819E+03 0.88028799E+02 0.0000E+00 0.0000E+00
      -24  1    1    2    0    0 -.88357699E+02 -.41212339E+02 -.96396556E+02 0.15894984E+03 0.80419002E+02 0.0000E+00 0.9000E+01
      -13  1    4    4    0    0 -.13128026E+02 -.18156000E+02 -.67364751E+01 0.23396083E+02 0.10565837E+00 0.0000E+00 0.9000E+01
       13  1    4    4    0    0 0.34367413E+02 0.71239877E+02 0.26482617E+02 0.83412106E+02 0.10565837E+00 0.0000E+00 0.9000E+01
       23  1    3    3    0    0 0.67118312E+02 -.11871538E+02 -.27890240E+03 0.30124343E+03 0.91188000E+02 0.0000E+00 0.9000E+01
#aMCatNLO 1  0  0  1  2 0.30978434D+03 0.00000000D+00  -5  7  0 0.00000000D+00 0.00000000D+00 0.00000000D+00 0.00000000D+00 0.00000000D+00
  <mgrwgt>
 0.7970770337D-03    5    2    0
 0.220835259583913D+03 0.000000000000000D+00 0.000000000000000D+00 0.220835259583913D+03
 0.220835259583913D+03 0.000000000000000D+00 0.000000000000000D+00 -.220835259583913D+03
 0.126453372173505D+03 -.883577048796693D+02 -.412123418709385D+02 0.420692828446768D+01
 0.246119506925461D+02 -.131280930060517D+02 -.181561269025869D+02 0.101860859418097D+02
 0.128400736482229D+03 0.343674824226533D+02 0.712400043778029D+02 0.101145870194280D+03
 0.162204459819545D+03 0.671183154630677D+02 -.118715356042775D+02 -.115538884420557D+03
 0.000000000000000D+00 -.000000000000000D+00 -.000000000000000D+00 0.000000000000000D+00
 0.127423579548086D+04 0.000000000000000D+00 0.000000000000000D+00 0.127423579548086D+04
 0.293624448652128D+03 0.000000000000000D+00 0.000000000000000D+00 -.293624448652128D+03
 0.897444019995075D+02 -.391416738010589D+02 0.608874883202736D+01 0.420692828446768D+01
 0.145991988624778D+02 -.420192731119239D+01 -.957726826833709D+01 0.101860859418097D+02
 0.208839621271974D+03 0.111138078196272D+03 0.145023542676707D+03 0.101145870194280D+03
 0.226297253066476D+03 0.155558228633453D+03 0.731272800855334D+02 -.115538884420557D+03
 0.102837976893256D+04 -.223352705717474D+03 -.214662303325930D+03 0.980611346828737D+03
0.132619194895D-04 0.000000000000D+00 0.000000000000D+00 0.129837022355D-06 0.000000000000D+00  7 1 -2 -24 -13 13 23 21 0 0.16265280D-01 0.70965714D-01 0.29195139D+05 0.29195139D+05 0.29195139D+05 0.11684333D+01  1  2  2  1  7  1        1 0.938425899717D-03 0.100000000000D+01
-.677818447414D-06 0.000000000000D+00 -.509292627834D-07 0.129837022355D-06 0.000000000000D+00  7 1 -2 -24 -13 13 23 21 2 0.16265280D-01 0.70965714D-01 0.29195139D+05 0.29195139D+05 0.29195139D+05 0.11684333D+01  1  2  3  1  7  1        1 -.654809316757D-04 0.100000000000D+01
0.869335237548D-06 0.000000000000D+00 0.000000000000D+00 0.129837022355D-06 0.000000000000D+00  7 1 -2 -24 -13 13 23 21 2 0.16265280D-01 0.70965714D-01 0.29195139D+05 0.29195139D+05 0.29195139D+05 0.11684333D+01  1  2 15  1  7  1        1 0.839824904594D-04 0.100000000000D+01
-.134430549333D-04 0.000000000000D+00 -.756921935870D-05 0.129837022355D-06 0.000000000000D+00  7 1 -2 -24 -13 13 23 21 2 0.11426829D+00 0.70965714D-01 0.29195139D+05 0.29195139D+05 0.29195139D+05 0.11684333D+01  1  2  5  1  7  1        1 -.995610785238D-04 0.100000000000D+01
-.392068449152D-05 0.000000000000D+00 -.180348617083D-05 0.129837022355D-06 0.000000000000D+00  7 21 -2 -24 -13 13 23 -1 2 0.11426829D+00 0.70965714D-01 0.29195139D+05 0.29195139D+05 0.29195139D+05 0.11684333D+01  1  2  5  3  7  1        1 -.602893462639D-04 0.100000000000D+01
  </mgrwgt>
  </event>
  <event>
  8     66 0.29493621E-05 0.31765408E+03 0.75467711E-02 0.99248703E-01
        1 -1    0    0  501    0 0.00000000E+00 0.00000000E+00 0.15020787E+04 0.15020787E+04 0.32000000E+00 0.0000E+00 0.9000E+01
       -2 -1    0    0    0  501 0.00000000E+00 0.00000000E+00 -.10861695E+03 0.10861743E+03 0.32000000E+00 0.0000E+00 0.9000E+01
       25  2    1    2    0    0 0.67548546E+02 0.24626616E+03 0.32441900E+03 0.50863925E+03 0.29707973E+03 0.0000E+00 0.0000E+00
       23  2    3    3    0    0 -.43165459E+02 -.72493451E+01 0.77784398E+02 0.12696978E+03 0.90305610E+02 0.0000E+00 0.0000E+00
      -24  1    1    2    0    0 -.67548546E+02 -.24626616E+03 0.10690427E+04 0.11020569E+04 0.80419002E+02 0.0000E+00 0.9000E+01
      -13  1    4    4    0    0 -.17351511E+02 0.27802452E+02 0.76718257E+02 0.83425136E+02 0.10565837E+00 0.0000E+00 0.9000E+01
       13  1    4    4    0    0 -.25813948E+02 -.35051797E+02 0.10661411E+01 0.43544646E+02 0.10565837E+00 0.0000E+00 0.9000E+01
       23  1    3    3    0    0 0.11071400E+03 0.25351551E+03 0.24663461E+03 0.38166947E+03 0.91188000E+02 0.0000E+00 0.9000E+01
#aMCatNLO 1  0  0  2  1 0.43304273D+02 0.00000000D+00  -5  7  0 0.00000000D+00 0.00000000D+00 0.00000000D+00 0.00000000D+00 0.00000000D+00
  <mgrwgt>
 0.2636728432D-02    4    2    0
 0.403920311006635D+03 0.000000000000000D+00 0.000000000000000D+00 0.403920311006635D+03
 0.403920311006635D+03 0.000000000000000D+00 0.000000000000000D+00 -.403920311006635D+03
 0.353298226475922D+03 -.675485460529554D+02 -.246266161070915D+03 0.230526772228710D+03
 0.340024173295317D+02 -.173514993862022D+02 0.278025380882958D+02 0.906138671237043D+01
 0.849816420633680D+02 -.258139590342050D+02 -.350518830614088D+02 -.729855088398794D+02
 0.335558336144448D+03 0.110714004473363D+03 0.253515506044028D+03 -.166602650101201D+03
 0.000000000000000D+00 0.000000000000000D+00 -.000000000000000D+00 0.000000000000000D+00
 0.481716908207269D+03 0.000000000000000D+00 0.000000000000000D+00 0.481716908207269D+03
 0.410571647139769D+03 0.000000000000000D+00 0.000000000000000D+00 -.410571647139769D+03
 0.346353338669521D+03 -.800088493603622D+02 -.232270124129206D+03 0.230526772228710D+03
 0.357828537508698D+02 -.185943260836179D+02 0.291985433010125D+02 0.906138671237043D+01
 0.846203853854963D+02 -.288344521036727D+02 -.316591139177143D+02 -.729855088398794D+02
 0.342243873760042D+03 0.986428228472844D+02 0.267074462018097D+03 -.166602650101201D+03
 0.832881037811087D+02 0.287948047003684D+02 -.323437672721891D+02 0.711452610675008D+02
0.148027676225D-03 0.000000000000D+00 0.000000000000D+00 0.197441346179D-06 0.000000000000D+00  7 1 -2 -24 -13 13 23 21 0 0.23108907D+00 0.16710339D-01 0.10090411D+06 0.10090411D+06 0.10090411D+06 0.11214014D+01  1  2  2  2  7  2       -2 0.299001994428D-02 0.100000000000D+01
-.764660084917D-05 0.000000000000D+00 -.568465253287D-06 0.197441346179D-06 0.000000000000D+00  7 1 -2 -24 -13 13 23 21 2 0.23108907D+00 0.16710339D-01 0.10090411D+06 0.10090411D+06 0.10090411D+06 0.11214014D+01  1  2  3  2  7  2       -2 -.194232448901D-03 0.100000000000D+01
0.958482660766D-05 0.000000000000D+00 0.000000000000D+00 0.197441346179D-06 0.000000000000D+00  7 1 -2 -24 -13 13 23 21 2 0.23108907D+00 0.16710339D-01 0.10090411D+06 0.10090411D+06 0.10090411D+06 0.11214014D+01  1  2 15  2  7  2       -2 0.243465610540D-03 0.100000000000D+01
-.158467111394D-04 0.000000000000D+00 0.000000000000D+00 0.197441346179D-06 0.000000000000D+00  7 1 -2 -24 -13 13 23 21 2 0.23108907D+00 0.16710339D-01 0.10090411D+06 0.10090411D+06 0.10090411D+06 0.11214014D+01  1  2  4  2  7  2       -2 -.402524673690D-03 0.100000000000D+01
  </mgrwgt>
  </event>
  <event>
  8     66 0.29493621E-05 0.23787391E+03 0.75467711E-02 0.90306693E-01
        1 -1    0    0  501    0 0.00000000E+00 0.00000000E+00 0.93874665E+03 0.93874671E+03 0.32000000E+00 0.0000E+00 0.9000E+01
       -2 -1    0    0    0  501 0.00000000E+00 0.00000000E+00 -.63354653E+02 0.63355461E+02 0.32000000E+00 0.0000E+00 0.9000E+01
       25  2    1    2    0    0 -.47227734E+02 -.12476254E+03 0.64382026E+03 0.72301645E+03 0.30075257E+03 0.0000E+00 0.0000E+00
       23  2    3    3    0    0 -.63369318E+02 0.51843409E+02 0.32189240E+03 0.34433055E+03 0.90804189E+02 0.0000E+00 0.0000E+00
      -24  1    1    2    0    0 0.47227734E+02 0.12476254E+03 0.23157174E+03 0.27908571E+03 0.80419002E+02 0.0000E+00 0.9000E+01
      -11  1    4    4    0    0 -.74079001E+02 0.68414268E+02 0.28762281E+03 0.30478696E+03 0.51099893E-03 0.0000E+00 0.9000E+01
       11  1    4    4    0    0 0.10709683E+02 -.16570859E+02 0.34269591E+02 0.39543590E+02 0.51099893E-03 0.0000E+00 0.9000E+01
       23  1    3    3    0    0 0.16141584E+02 -.17660595E+03 0.32192787E+03 0.37868591E+03 0.91188000E+02 0.0000E+00 0.9000E+01
#aMCatNLO 1  0  0  1  1 0.67589005D+03 0.00000000D+00  -5  7  0 0.00000000D+00 0.00000000D+00 0.00000000D+00 0.00000000D+00 0.00000000D+00
  <mgrwgt>
 0.1472278899D-02    3    2    0
 0.243873739112457D+03 0.000000000000000D+00 0.000000000000000D+00 0.243873739112457D+03
 0.243873739112457D+03 0.000000000000000D+00 0.000000000000000D+00 -.243873739112457D+03
 0.157779092733360D+03 0.472277335812328D+02 0.124762543888103D+03 -.251172246225768D+02
 0.109985123762526D+03 -.740790005035938D+02 0.684142678837504D+02 0.439148845310695D+02
 0.197384755327210D+02 0.107096826750494D+02 -.165708585720470D+02 -.562813948647785D+00
 0.200244786196306D+03 0.161415842473116D+02 -.176605953199806D+03 -.182348459598449D+02
 0.000000000000000D+00 -.000000000000000D+00 0.000000000000000D+00 -.000000000000000D+00
 0.684440872579318D+03 0.000000000000000D+00 0.000000000000000D+00 0.684440872579318D+03
 0.843389135279471D+03 0.000000000000000D+00 0.000000000000000D+00 -.843389135279471D+03
 0.290898821758819D+03 0.269810591617722D+03 0.687479325103853D+02 -.251172246225768D+02
 0.652644049455585D+02 0.128598474081484D+02 0.465354681308764D+02 0.439148845310695D+02
 0.537267868035311D+02 0.471547750877459D+02 -.257425338130376D+02 -.562813948647785D+00
 0.423611610400683D+03 0.325628044966170D+03 -.254490494609505D+03 -.182348459598449D+02
 0.694328383950198D+03 -.655453259079786D+03 0.164949627781281D+03 -.158948262700153D+03
0.123451736923D-04 0.000000000000D+00 0.000000000000D+00 0.690128828772D-06 0.000000000000D+00  7 1 -2 -24 -11 11 23 21 0 0.14442263D+00 0.97469360D-02 0.56583998D+05 0.56583998D+05 0.56583998D+05 0.11425997D+01  1  2  2  1  7  1        1 0.145347261874D-02 0.100000000000D+01
-.685325555467D-06 0.000000000000D+00 -.474087175373D-07 0.690128828772D-06 0.000000000000D+00  7 1 -2 -24 -11 11 23 21 2 0.14442263D+00 0.97469360D-02 0.56583998D+05 0.56583998D+05 0.56583998D+05 0.11425997D+01  1  2  3  1  7  1        1 -.105340349112D-03 0.100000000000D+01
0.807675867332D-06 0.000000000000D+00 0.000000000000D+00 0.690128828772D-06 0.000000000000D+00  7 1 -2 -24 -11 11 23 21 2 0.14442263D+00 0.97469360D-02 0.56583998D+05 0.56583998D+05 0.56583998D+05 0.11425997D+01  1  2 15  1  7  1        1 0.124146629518D-03 0.100000000000D+01
  </mgrwgt>
  </event>
  <event>
  8     66 0.29493621E-05 0.25834388E+03 0.75467711E-02 0.96173616E-01
        1 -1    0    0  501    0 0.00000000E+00 0.00000000E+00 0.19759303E+04 0.19759303E+04 0.32000000E+00 0.0000E+00 0.9000E+01
       -2 -1    0    0    0  501 0.00000000E+00 0.00000000E+00 -.15250481E+03 0.15250515E+03 0.32000000E+00 0.0000E+00 0.9000E+01
       25  2    1    2    0    0 0.13691769E+03 -.11551742E+03 0.18893735E+04 0.19212952E+04 0.29925316E+03 0.0000E+00 0.0000E+00
       23  2    3    3    0    0 0.17456918E+03 -.52202268E+02 0.15263042E+04 0.15397706E+04 0.89942693E+02 0.0000E+00 0.0000E+00
      -24  1    1    2    0    0 -.13691769E+03 0.11551742E+03 -.65947999E+02 0.20714025E+03 0.80419002E+02 0.0000E+00 0.9000E+01
      -13  1    4    4    0    0 0.17608849E+03 -.66867305E+02 0.14025690E+04 0.14151601E+04 0.10565837E+00 0.0000E+00 0.9000E+01
       13  1    4    4    0    0 -.15193082E+01 0.14665036E+02 0.12373516E+03 0.12461049E+03 0.10565837E+00 0.0000E+00 0.9000E+01
       23  1    3    3    0    0 -.37651489E+02 -.63315148E+02 0.36306936E+03 0.38152464E+03 0.91188000E+02 0.0000E+00 0.9000E+01
#aMCatNLO 1  0  0  1  1 0.31084733D+03 0.00000000D+00  -5  7  0 0.00000000D+00 0.00000000D+00 0.00000000D+00 0.00000000D+00 0.00000000D+00
  <mgrwgt>
 0.1731357959D-02    3    2    0
 0.548943775287874D+03 0.000000000000000D+00 0.000000000000000D+00 0.548943775287874D+03
 0.548943775287874D+03 0.000000000000000D+00 0.000000000000000D+00 -.548943775287874D+03
 0.511105092310782D+03 -.136917689858435D+03 0.115517416135458D+03 -.471879722180197D+03
 0.414065663149732D+03 0.176088731858451D+03 -.668674170362639D+02 0.368743651404344D+03
 0.360719613979479D+02 -.151955327795135D+01 0.146651489640178D+02 0.329212813054668D+02
 0.136644833717286D+03 -.376514887220649D+02 -.633151480632114D+02 0.702147894703858D+02
 0.000000000000000D+00 0.000000000000000D+00 -.000000000000000D+00 -.000000000000000D+00
 0.627695174158141D+03 0.000000000000000D+00 0.000000000000000D+00 0.627695174158141D+03
 0.993040021522010D+03 0.000000000000000D+00 0.000000000000000D+00 -.993040021522010D+03
 0.579327047192698D+03 -.277515103470545D+03 0.171661022936229D+03 -.471879722180197D+03
 0.377019975967195D+03 0.740882581231770D+02 -.261364082377328D+02 0.368743651404344D+03
 0.394293060478876D+02 -.112544854601175D+02 0.185525192265717D+02 0.329212813054668D+02
 0.145268426464999D+03 -.740006330738036D+02 -.488001437285037D+02 0.702147894703858D+02
 0.479690440007371D+03 0.288681963881289D+03 -.115276990196564D+03 -.365344847363869D+03
0.284938677173D-03 0.000000000000D+00 0.000000000000D+00 0.499255113331D-05 0.000000000000D+00  7 1 -2 -24 -13 13 23 21 0 0.30398931D+00 0.23462307D-01 0.66741559D+05 0.66741559D+05 0.66741559D+05 0.11364237D+01  1  2  2  1  7  1        1 0.163623428206D-02 0.100000000000D+01
-.489634176179D-05 0.000000000000D+00 -.109423954642D-05 0.499255113331D-05 0.000000000000D+00  7 1 -2 -24 -13 13 23 21 2 0.30398931D+00 0.23462307D-01 0.66741559D+05 0.66741559D+05 0.66741559D+05 0.11364237D+01  1  2  3  1  7  1        1 -.363116814144D-04 0.100000000000D+01
0.177230139137D-04 0.000000000000D+00 0.000000000000D+00 0.499255113331D-05 0.000000000000D+00  7 1 -2 -24 -13 13 23 21 2 0.30398931D+00 0.23462307D-01 0.66741559D+05 0.66741559D+05 0.66741559D+05 0.11364237D+01  1  2 15  1  7  1        1 0.131435358528D-03 0.100000000000D+01
  </mgrwgt>
  </event>
  <event>
  9     66 0.29493621E-05 0.42064472E+03 0.75467711E-02 0.93603927E-01
        1 -1    0    0  501    0 0.00000000E+00 0.00000000E+00 0.77000406E+03 0.77000413E+03 0.32000000E+00 0.0000E+00 0.9000E+01
       21 -1    0    0  502  501 0.00000000E+00 0.00000000E+00 -.45335269E+03 0.45335331E+03 0.75000000E+00 0.0000E+00 0.9000E+01
       25  2    1    2    0    0 0.28440507E+03 -.30381870E+03 0.33530908E+03 0.61325674E+03 0.30076503E+03 0.0000E+00 0.0000E+00
       23  2    3    3    0    0 0.13092825E+03 -.20035255E+02 0.51100840E+02 0.17373683E+03 0.10014774E+03 0.0000E+00 0.0000E+00
      -24  1    1    2    0    0 -.35857244E+03 0.94964196E+02 0.37685790E+02 0.38141818E+03 0.80419002E+02 0.0000E+00 0.9000E+01
      -13  1    4    4    0    0 0.13599244E+03 0.23104184E+01 0.60640099E+02 0.14891781E+03 0.10565837E+00 0.0000E+00 0.9000E+01
       13  1    4    4    0    0 -.50641847E+01 -.22345673E+02 -.95392589E+01 0.24819019E+02 0.10565837E+00 0.0000E+00 0.9000E+01
       23  1    3    3    0    0 0.15347682E+03 -.28378345E+03 0.28420824E+03 0.43951992E+03 0.91188000E+02 0.0000E+00 0.9000E+01
        2  1    1    2  502    0 0.74167370E+02 0.20885451E+03 -.56343501E+02 0.22868252E+03 0.32000000E+00 0.0000E+00 0.9000E+01
#aMCatNLO 2  0  0  2  1 0.22163259D+03 0.00000000D+00  -5  7  0 0.00000000D+00 0.00000000D+00 0.00000000D+00 0.00000000D+00 0.00000000D+00
  <mgrwgt>
 0.1119222978D-03    2    2    0
 0.447529891750728D+03 0.000000000000000D+00 0.000000000000000D+00 0.447529891750728D+03
 0.447529891750728D+03 0.000000000000000D+00 0.000000000000000D+00 -.447529891750728D+03
 0.400609904908889D+03 -.326050593705090D+03 0.186545355430979D+03 -.113635032751465D+03
 0.152029199762103D+03 0.147753063388397D+03 0.354278342908634D+02 0.517478474034232D+01
 0.259225463026201D+02 -.275608447671903D+01 -.158456745621984D+02 -.203297073967524D+02
 0.316498132527844D+03 0.181053614793411D+03 -.206127515159644D+03 0.128789955407875D+03
 0.000000000000000D+00 0.000000000000000D+00 0.000000000000000D+00 -.000000000000000D+00
 0.519141769182661D+03 0.000000000000000D+00 0.000000000000000D+00 0.519141769182661D+03
 0.672424635344402D+03 0.000000000000000D+00 0.000000000000000D+00 -.672424635344402D+03
 0.396197587672632D+03 -.358572438071523D+03 0.949641959385732D+02 -.113635032751465D+03
 0.136110614762250D+03 0.135992583861060D+03 0.231045204264455D+01 0.517478474034232D+01
 0.306312675424037D+02 -.506433879074075D+01 -.223456935678744D+02 -.203297073967524D+02
 0.359152184768825D+03 0.153476822820656D+03 -.283783460975327D+03 0.128789955407875D+03
 0.269474749780951D+03 0.741673701805485D+02 0.208854506561984D+03 -.153282866161741D+03
-.128079557953D-05 0.000000000000D+00 0.000000000000D+00 0.598190419675D-07 0.000000000000D+00  7 1 21 -24 -13 13 23 2 2 0.10212119D+00 0.71961055D-01 0.29996174D+06 0.29996174D+06 0.29996174D+06 0.10845560D+01  1  2 13  4  7  2       -2 -.844525776154D-04 0.100000000000D+01
0.347603583658D-05 0.000000000000D+00 0.000000000000D+00 0.598190419675D-07 0.502833830073D-12  7 1 21 -24 -13 13 23 2 2 0.11846220D+00 0.69746609D-01 0.29996174D+06 0.29996174D+06 0.29996174D+06 0.10845560D+01  1  2  1  4  7  2       -2 0.196374875451D-03 0.100000000000D+01
  </mgrwgt>
  </event>
  <event>
  8     66 0.29493621E-05 0.12240539E+03 0.75467711E-02 0.10250257E+00
        1 -1    0    0  501    0 0.00000000E+00 0.00000000E+00 0.99605763E+03 0.99605768E+03 0.32000000E+00 0.0000E+00 0.9000E+01
       -2 -1    0    0    0  501 0.00000000E+00 0.00000000E+00 -.10971297E+03 0.10971344E+03 0.32000000E+00 0.0000E+00 0.9000E+01
       25  2    1    2    0    0 -.73613689E+02 0.13874716E+03 0.86420884E+03 0.92793142E+03 0.29921572E+03 0.0000E+00 0.0000E+00
       23  2    3    3    0    0 -.20046878E+01 0.53015811E+02 0.70568227E+03 0.71363340E+03 0.92035194E+02 0.0000E+00 0.0000E+00
      -24  1    1    2    0    0 0.73613689E+02 -.13874716E+03 0.22135823E+02 0.17783970E+03 0.80419002E+02 0.0000E+00 0.9000E+01
      -13  1    4    4    0    0 -.27582751E+02 0.41544812E+02 0.64344214E+03 0.64537166E+03 0.10565837E+00 0.0000E+00 0.9000E+01
       13  1    4    4    0    0 0.25578063E+02 0.11471000E+02 0.62240127E+02 0.68261744E+02 0.10565837E+00 0.0000E+00 0.9000E+01
       23  1    3    3    0    0 -.71609002E+02 0.85731346E+02 0.15852657E+03 0.21429801E+03 0.91188000E+02 0.0000E+00 0.9000E+01
#aMCatNLO 1  0  0  1  2 0.11343900D+03 0.00000000D+00  -5  7  0 0.00000000D+00 0.00000000D+00 0.00000000D+00 0.00000000D+00 0.00000000D+00
  <mgrwgt>
 0.8336059505D-03    7    2    0
 0.330576354039187D+03 0.000000000000000D+00 0.000000000000000D+00 0.330576354039187D+03
 0.330576354039187D+03 0.000000000000000D+00 0.000000000000000D+00 -.330576354039187D+03
 0.267759679502533D+03 0.736136894636559D+02 -.138747157030279D+03 -.201390866606438D+03
 0.216775934371018D+03 -.275828203446066D+02 0.415448512929024D+02 0.210962127111280D+03
 0.307273919955712D+02 0.255781326219518D+02 0.114709599330811D+02 0.125836730979862D+02
 0.145889702209251D+03 -.716090017410011D+02 0.857313458042951D+02 -.221549336028280D+02
 0.000000000000000D+00 -.000000000000000D+00 -.000000000000000D+00 0.000000000000000D+00
 0.708401662872159D+03 0.000000000000000D+00 0.000000000000000D+00 0.708401662872159D+03
 0.344032017645388D+03 0.000000000000000D+00 0.000000000000000D+00 -.344032017645388D+03
 0.279614016674140D+03 0.119404424324297D+03 -.130004171723706D+03 -.201390866606438D+03
 0.216631847279951D+03 0.867405672994035D+01 0.484675037571994D+02 0.210962127111280D+03
 0.358562833363782D+02 0.311482128878991D+02 0.125344748574390D+02 0.125836730979862D+02
 0.138711768618245D+03 -.478005677905980D+02 0.902771734446330D+02 -.221549336028280D+02
 0.381619764608832D+03 -.111426126151538D+03 -.212749803355657D+02 0.364369645226772D+03
0.255358968638D-04 0.000000000000D+00 0.000000000000D+00 0.147503928482D-05 0.000000000000D+00  7 1 -2 -24 -13 13 23 21 0 0.15323968D+00 0.16878958D-01 0.39711440D+05 0.39711440D+05 0.39711440D+05 0.11562015D+01  1  2  2  1  7  1        1 0.115569834038D-02 0.100000000000D+01
-.976783271555D-06 0.000000000000D+00 -.980645677132D-07 0.147503928482D-05 0.000000000000D+00  7 1 -2 -24 -13 13 23 21 2 0.15323968D+00 0.16878958D-01 0.39711440D+05 0.39711440D+05 0.39711440D+05 0.11562015D+01  1  2  3  1  7  1        1 -.590960769590D-04 0.100000000000D+01
0.158770651964D-05 0.000000000000D+00 0.000000000000D+00 0.147503928482D-05 0.000000000000D+00  7 1 -2 -24 -13 13 23 21 2 0.15323968D+00 0.16878958D-01 0.39711440D+05 0.39711440D+05 0.39711440D+05 0.11562015D+01  1  2 15  1  7  1        1 0.960573644176D-04 0.100000000000D+01
0.369354667709D-04 0.000000000000D+00 0.000000000000D+00 0.147503928482D-05 0.000000000000D+00  7 1 -2 -24 -13 13 23 21 2 0.32788097D+00 0.16878958D-01 0.69473564D+05 0.69473564D+05 0.69473564D+05 0.11349384D+01  1  2 12  1  7  1        1 0.371074764269D-03 0.100000000000D+01
-.698052418984D-04 0.000000000000D+00 -.732862849501D-05 0.147503928482D-05 0.000000000000D+00  7 1 -2 -24 -13 13 23 21 2 0.33164806D+00 0.16878958D-01 0.39711440D+05 0.39711440D+05 0.39711440D+05 0.11562015D+01  1  2  5  1  7  1        1 -.717664820716D-03 0.100000000000D+01
0.304033756160D-05 0.000000000000D+00 0.000000000000D+00 0.147503928482D-05 0.000000000000D+00  7 21 -2 -24 -13 13 23 -1 2 0.32788097D+00 0.16878958D-01 0.69473564D+05 0.69473564D+05 0.69473564D+05 0.11349384D+01  1  2 12  3  7  1        1 0.149634912044D-04 0.100000000000D+01
-.537602940525D-05 0.000000000000D+00 -.612657652033D-06 0.147503928482D-05 0.000000000000D+00  7 21 -2 -24 -13 13 23 -1 2 0.33164806D+00 0.16878958D-01 0.39711440D+05 0.39711440D+05 0.39711440D+05 0.11562015D+01  1  2  5  3  7  1        1 -.274271121485D-04 0.100000000000D+01
  </mgrwgt>
  </event>
  <event>
  8     66 0.29493621E-05 0.10460560E+03 0.75467711E-02 0.10293763E+00
        1 -1    0    0  501    0 0.00000000E+00 0.00000000E+00 0.76530462E+03 0.76530469E+03 0.32000000E+00 0.0000E+00 0.9000E+01
       -2 -1    0    0    0  501 0.00000000E+00 0.00000000E+00 -.88790226E+02 0.88790802E+02 0.32000000E+00 0.0000E+00 0.9000E+01
       25  2    1    2    0    0 0.57170611E+02 0.13636340E+03 0.54902060E+03 0.64294309E+03 0.30014786E+03 0.0000E+00 0.0000E+00
       23  2    3    3    0    0 0.11753256E+03 0.94953373E+02 0.16208842E+03 0.23872765E+03 0.88815471E+02 0.0000E+00 0.0000E+00
      -24  1    1    2    0    0 -.57170611E+02 -.13636340E+03 0.12749379E+03 0.21115240E+03 0.80419002E+02 0.0000E+00 0.9000E+01
      -11  1    4    4    0    0 0.32017293E+02 0.36090460E+02 0.11504272E+03 0.12474957E+03 0.51099893E-03 0.0000E+00 0.9000E+01
       11  1    4    4    0    0 0.85515268E+02 0.58862913E+02 0.47045698E+02 0.11397807E+03 0.51099893E-03 0.0000E+00 0.9000E+01
       23  1    3    3    0    0 -.60361950E+02 0.41410024E+02 0.38693218E+03 0.40421544E+03 0.91188000E+02 0.0000E+00 0.9000E+01
#aMCatNLO 1  0  0  2  1 0.68540373D+02 0.00000000D+00  -5  7  0 0.00000000D+00 0.00000000D+00 0.00000000D+00 0.00000000D+00 0.00000000D+00
  <mgrwgt>
 0.1077661231D-02    9    2    0
 0.260675746572148D+03 0.000000000000000D+00 0.000000000000000D+00 0.260675746572148D+03
 0.260675746572148D+03 0.000000000000000D+00 0.000000000000000D+00 -.260675746572148D+03
 0.180478873262277D+03 -.571706114402153D+02 -.136363396364254D+03 -.651302775919769D+02
 0.550875781520338D+02 0.320172934272203D+02 0.360904599363439D+02 0.265897139855784D+02
 0.125675418262678D+03 0.855152683698781D+02 0.588629128533759D+02 -.708280108540589D+02
 0.160109623467307D+03 -.603619503568831D+02 0.414100235745342D+02 0.109368574460457D+03
 0.000000000000000D+00 0.000000000000000D+00 0.000000000000000D+00 -.000000000000000D+00
 0.281988367593814D+03 0.000000000000000D+00 0.000000000000000D+00 0.281988367593814D+03
 0.324506192689200D+03 0.000000000000000D+00 0.000000000000000D+00 -.324506192689200D+03
 0.193573517420019D+03 -.809588183034733D+02 -.142152057219322D+03 -.651302775919769D+02
 0.503498882759841D+02 0.253119004795842D+02 0.344587587367979D+02 0.265897139855784D+02
 0.114003471800547D+03 0.702726682432485D+02 0.551537538070607D+02 -.708280108540589D+02
 0.167910704054216D+03 -.812227056970706D+02 0.363337335229541D+02 0.109368574460457D+03
 0.806569787322469D+02 0.665969552777111D+02 0.162058111525089D+02 -.425178250953867D+02
0.898590360112D-05 0.000000000000D+00 0.000000000000D+00 0.468405046898D-06 0.000000000000D+00  7 1 -2 -24 -11 11 23 21 0 0.11773922D+00 0.13660084D-01 0.47810575D+05 0.47810575D+05 0.47810575D+05 0.11490098D+01  1  2  2  2  7  2       -2 0.868392904713D-03 0.100000000000D+01
-.480462993684D-06 0.000000000000D+00 -.345082358711D-07 0.468405046898D-06 0.000000000000D+00  7 1 -2 -24 -11 11 23 21 2 0.11773922D+00 0.13660084D-01 0.47810575D+05 0.47810575D+05 0.47810575D+05 0.11490098D+01  1  2  3  2  7  2       -2 -.613002028280D-04 0.100000000000D+01
0.574061373965D-06 0.000000000000D+00 0.000000000000D+00 0.468405046898D-06 0.000000000000D+00  7 1 -2 -24 -11 11 23 21 2 0.11773922D+00 0.13660084D-01 0.47810575D+05 0.47810575D+05 0.47810575D+05 0.11490098D+01  1  2 15  2  7  2       -2 0.732420168095D-04 0.100000000000D+01
0.901884093920D-05 0.000000000000D+00 0.000000000000D+00 0.468405046898D-06 0.000000000000D+00  7 1 -2 -24 -11 11 23 21 2 0.11773922D+00 0.17460489D-01 0.65107386D+05 0.65107386D+05 0.65107386D+05 0.11373444D+01  1  2 12  2  7  2       -2 0.761784413792D-03 0.100000000000D+01
-.972558035060D-05 0.000000000000D+00 0.000000000000D+00 0.468405046898D-06 0.000000000000D+00  7 1 -2 -24 -11 11 23 21 2 0.11773922D+00 0.13660084D-01 0.47810575D+05 0.47810575D+05 0.47810575D+05 0.11490098D+01  1  2  4  2  7  2       -2 -.124084488493D-02 0.100000000000D+01
-.155155865925D-04 0.000000000000D+00 -.476863470755D-05 0.468405046898D-06 0.000000000000D+00  7 1 -2 -24 -11 11 23 21 2 0.11773922D+00 0.18339943D-01 0.47810575D+05 0.47810575D+05 0.47810575D+05 0.11490098D+01  1  2  5  2  7  2       -2 -.123775208152D-02 0.100000000000D+01
0.164031637564D-04 0.000000000000D+00 0.456892546015D-05 0.468405046898D-06 0.000000000000D+00  7 1 -2 -24 -11 11 23 21 2 0.11773922D+00 0.13660084D-01 0.47810575D+05 0.47810575D+05 0.47810575D+05 0.11490098D+01  1  2  6  2  7  2       -2 0.209280897490D-02 0.100000000000D+01
0.301124468382D-06 0.000000000000D+00 0.000000000000D+00 0.468405046898D-06 0.000000000000D+00  7 1 21 -24 -11 11 23 2 2 0.11773922D+00 0.17460489D-01 0.65107386D+05 0.65107386D+05 0.65107386D+05 0.11373444D+01  1  2 12  4  7  2       -2 0.338357577759D-03 0.100000000000D+01
-.487996335850D-06 0.000000000000D+00 -.181929308892D-06 0.468405046898D-06 0.000000000000D+00  7 1 21 -24 -11 11 23 2 2 0.11773922D+00 0.18339943D-01 0.47810575D+05 0.47810575D+05 0.47810575D+05 0.11490098D+01  1  2  5  4  7  2       -2 -.517027487671D-03 0.100000000000D+01
  </mgrwgt>
  </event>
  <event>
  8     66 0.29493621E-05 0.22544173E+03 0.75467711E-02 0.96405813E-01
        1 -1    0    0  501    0 0.00000000E+00 0.00000000E+00 0.25531171E+03 0.25531191E+03 0.32000000E+00 0.0000E+00 0.9000E+01
       -2 -1    0    0    0  501 0.00000000E+00 0.00000000E+00 -.28084367E+03 0.28084386E+03 0.32000000E+00 0.0000E+00 0.9000E+01
       25  2    1    2    0    0 -.16956581E+03 -.27260928E+02 -.22433613E+02 0.34649149E+03 0.30009560E+03 0.0000E+00 0.0000E+00
       23  2    3    3    0    0 -.83520675E+02 -.42240064E+02 -.12409439E+03 0.18438565E+03 0.99190347E+02 0.0000E+00 0.0000E+00
      -24  1    1    2    0    0 0.16956581E+03 0.27260928E+02 -.30983492E+01 0.18966428E+03 0.80419002E+02 0.0000E+00 0.9000E+01
      -13  1    4    4    0    0 -.62645769E+02 -.74009453E+02 -.76712897E+02 0.12363968E+03 0.10565837E+00 0.0000E+00 0.9000E+01
       13  1    4    4    0    0 -.20874906E+02 0.31769388E+02 -.47381493E+02 0.60745969E+02 0.10565837E+00 0.0000E+00 0.9000E+01
       23  1    3    3    0    0 -.86045134E+02 0.14979137E+02 0.10166078E+03 0.16210584E+03 0.91188000E+02 0.0000E+00 0.9000E+01
#aMCatNLO 1  0  0  2  1 0.30644642D+03 0.00000000D+00  -5  7  0 0.00000000D+00 0.00000000D+00 0.00000000D+00 0.00000000D+00 0.00000000D+00
  <mgrwgt>
 0.9282277018D-03    3    2    0
 0.267773751700252D+03 0.000000000000000D+00 0.000000000000000D+00 0.267773751700252D+03
 0.267773751700252D+03 0.000000000000000D+00 0.000000000000000D+00 -.267773751700252D+03
 0.189731981362392D+03 0.169565809226794D+03 0.272609278535253D+02 0.594028207712165D+01
 0.120122911295035D+03 -.626457949881181D+02 -.740095252203702D+02 -.709056299947822D+02
 0.585559813843486D+02 -.208748578474667D+02 0.317694527554860D+02 -.445392538930456D+02
 0.167136629358728D+03 -.860451563912091D+02 0.149791446113589D+02 0.109504601810706D+03
 0.000000000000000D+00 0.000000000000000D+00 -.000000000000000D+00 0.000000000000000D+00
 0.476004530151523D+03 0.000000000000000D+00 0.000000000000000D+00 0.476004530151523D+03
 0.448682979811124D+03 0.000000000000000D+00 0.000000000000000D+00 -.448682979811124D+03
 0.195178650546660D+03 0.129710252691267D+03 0.121521409926221D+03 0.594028207712165D+01
 0.113352891765101D+03 -.868210380111260D+02 -.168338072112135D+02 -.709056299947822D+02
 0.888601361201101D+02 -.361390540488205D+02 0.678700775481489D+02 -.445392538930456D+02
 0.219633878889935D+03 -.126093293750588D+03 0.109695090435466D+03 0.109504601810706D+03
 0.307661952640842D+03 0.119343133119268D+03 -.282252770698623D+03 0.273215503403988D+02
0.149671095481D-04 0.000000000000D+00 0.000000000000D+00 0.456759291259D-07 0.000000000000D+00  7 1 -2 -24 -13 13 23 21 0 0.39278754D-01 0.43206749D-01 0.50823974D+05 0.50823974D+05 0.50823974D+05 0.11466715D+01  1  2  2  2  7  2       -2 0.916977550576D-03 0.100000000000D+01
-.801568886127D-06 0.000000000000D+00 -.574776415951D-07 0.456759291259D-07 0.000000000000D+00  7 1 -2 -24 -13 13 23 21 2 0.39278754D-01 0.43206749D-01 0.50823974D+05 0.50823974D+05 0.50823974D+05 0.11466715D+01  1  2  3  2  7  2       -2 -.645713207159D-04 0.100000000000D+01
0.941224868383D-06 0.000000000000D+00 0.000000000000D+00 0.456759291259D-07 0.000000000000D+00  7 1 -2 -24 -13 13 23 21 2 0.39278754D-01 0.43206749D-01 0.50823974D+05 0.50823974D+05 0.50823974D+05 0.11466715D+01  1  2 15  2  7  2       -2 0.758214719833D-04 0.100000000000D+01
  </mgrwgt>
  </event>
  <event>
  8     66 0.29493621E-05 0.43592970E+03 0.75467711E-02 0.95184891E-01
        1 -1    0    0  501    0 0.00000000E+00 0.00000000E+00 0.13571516E+04 0.13571516E+04 0.32000000E+00 0.0000E+00 0.9000E+01
       -2 -1    0    0    0  501 0.00000000E+00 0.00000000E+00 -.22220342E+03 0.22220365E+03 0.32000000E+00 0.0000E+00 0.9000E+01
       25  2    1    2    0    0 -.36652244E+03 -.14727927E+03 0.10579385E+04 0.11689560E+04 0.30198403E+03 0.0000E+00 0.0000E+00
       23  2    3    3    0    0 -.25816562E+03 -.41505911E+00 0.43885094E+03 0.51711632E+03 0.90385191E+02 0.0000E+00 0.0000E+00
      -24  1    1    2    0    0 0.36652244E+03 0.14727927E+03 0.77009686E+02 0.41039931E+03 0.80419002E+02 0.0000E+00 0.9000E+01
      -13  1    4    4    0    0 -.65866805E+02 0.25618760E+02 0.65560953E+02 0.96400241E+02 0.10565837E+00 0.0000E+00 0.9000E+01
       13  1    4    4    0    0 -.19229881E+03 -.26033819E+02 0.37328999E+03 0.42071608E+03 0.10565837E+00 0.0000E+00 0.9000E+01
       23  1    3    3    0    0 -.10835683E+03 -.14686421E+03 0.61908754E+03 0.65183965E+03 0.91188000E+02 0.0000E+00 0.9000E+01
#aMCatNLO 1  0  0  1  1 0.79138052D+02 0.00000000D+00  -5  7  0 0.00000000D+00 0.00000000D+00 0.00000000D+00 0.00000000D+00 0.00000000D+00
  <mgrwgt>
 0.1314941339D-02    4    2    0
 0.549148377178229D+03 0.000000000000000D+00 0.000000000000000D+00 0.549148377178229D+03
 0.549148377178229D+03 0.000000000000000D+00 0.000000000000000D+00 -.549148377178229D+03
 0.510576318004647D+03 0.366522442950496D+03 0.147279271528658D+03 -.313354552455203D+03
 0.708749469590736D+02 -.658666318010886D+02 0.256188308185524D+02 -.534045214581129D+01
 0.219244566581557D+03 -.192298984117785D+03 -.260338903632202D+02 0.102036842539145D+03
 0.297600922811180D+03 -.108356827031621D+03 -.146864211983990D+03 0.216658162061869D+03
 0.000000000000000D+00 -.000000000000000D+00 -.000000000000000D+00 -.000000000000000D+00
 0.556798512709817D+03 0.000000000000000D+00 0.000000000000000D+00 0.556798512709817D+03
 0.802034765715020D+03 0.000000000000000D+00 0.000000000000000D+00 -.802034765715020D+03
 0.527973578074211D+03 0.374605236481474D+03 0.183762685130504D+03 -.313354552455203D+03
 0.718343908235707D+02 -.647559580466596D+02 0.306320938450353D+02 -.534045214581129D+01
 0.214984397172501D+03 -.188919480569187D+03 -.107797798555267D+02 0.102036842539145D+03
 0.286351853353624D+03 -.103812057695644D+03 -.126350425658264D+03 0.216658162061869D+03
 0.257689059000931D+03 -.171177401699835D+02 -.772645734617492D+02 -.245236253005204D+03
0.187063267056D-03 0.000000000000D+00 0.000000000000D+00 0.748186341819D-06 0.000000000000D+00  7 1 -2 -24 -13 13 23 21 0 0.20879257D+00 0.34185163D-01 0.19003470D+06 0.19003470D+06 0.19003470D+06 0.10995343D+01  1  2  2  1  7  1        1 0.136729639961D-02 0.100000000000D+01
-.971880846267D-05 0.000000000000D+00 -.718372200386D-06 0.748186341819D-06 0.000000000000D+00  7 1 -2 -24 -13 13 23 21 2 0.20879257D+00 0.34185163D-01 0.19003470D+06 0.19003470D+06 0.19003470D+06 0.10995343D+01  1  2  3  1  7  1        1 -.858825056919D-04 0.100000000000D+01
0.116744751478D-04 0.000000000000D+00 0.000000000000D+00 0.748186341819D-06 0.000000000000D+00  7 1 -2 -24 -13 13 23 21 2 0.20879257D+00 0.34185163D-01 0.19003470D+06 0.19003470D+06 0.19003470D+06 0.10995343D+01  1  2 15  1  7  1        1 0.103164208059D-03 0.100000000000D+01
-.788037507297D-05 0.000000000000D+00 0.000000000000D+00 0.748186341819D-06 0.000000000000D+00  7 1 -2 -24 -13 13 23 21 2 0.20879257D+00 0.34185163D-01 0.19003470D+06 0.19003470D+06 0.19003470D+06 0.10995343D+01  1  2  4  1  7  1        1 -.696367625371D-04 0.100000000000D+01
  </mgrwgt>
  </event>
  <event>
  8     66 0.29493621E-05 0.29897216E+03 0.75467711E-02 0.97794138E-01
        1 -1    0    0  501    0 0.00000000E+00 0.00000000E+00 0.60469816E+03 0.60469825E+03 0.32000000E+00 0.0000E+00 0.9000E+01
       -2 -1    0    0    0  501 0.00000000E+00 0.00000000E+00 -.17972184E+03 0.17972212E+03 0.32000000E+00 0.0000E+00 0.9000E+01
       25  2    1    2    0    0 0.98731203E+02 0.23304560E+03 0.27352637E+03 0.47870416E+03 0.30047112E+03 0.0000E+00 0.0000E+00
       23  2    3    3    0    0 0.95863523E+02 0.32313627E+02 0.11620102E+02 0.13634222E+03 0.90665263E+02 0.0000E+00 0.0000E+00
      -24  1    1    2    0    0 -.98731203E+02 -.23304560E+03 0.15144995E+03 0.30571621E+03 0.80419002E+02 0.0000E+00 0.9000E+01
      -13  1    4    4    0    0 0.19229151E+02 0.29482859E+02 0.41163739E+02 0.54161461E+02 0.10565837E+00 0.0000E+00 0.9000E+01
       13  1    4    4    0    0 0.76634372E+02 0.28307678E+01 -.29543637E+02 0.82180764E+02 0.10565837E+00 0.0000E+00 0.9000E+01
       23  1    3    3    0    0 0.28676800E+01 0.20073197E+03 0.26190627E+03 0.34236193E+03 0.91188000E+02 0.0000E+00 0.9000E+01
#aMCatNLO 1  0  0  2  1 0.14285933D+03 0.00000000D+00  -5  7  0 0.00000000D+00 0.00000000D+00 0.00000000D+00 0.00000000D+00 0.00000000D+00
  <mgrwgt>
 0.8389921888D-03    4    2    0
 0.329662874653566D+03 0.000000000000000D+00 0.000000000000000D+00 0.329662874653566D+03
 0.329662874653566D+03 0.000000000000000D+00 0.000000000000000D+00 -.329662874653566D+03
 0.266101216107815D+03 -.987312034763220D+02 -.233045596511778D+03 -.168683332393595D+02
 0.379048869583994D+02 0.192290729505040D+02 0.294828956531383D+02 0.140635014380983D+02
 0.116815825531707D+03 0.766344501572671D+02 0.283073183463747D+01 -.881197202732049D+02
 0.238503820709211D+03 0.286768036855089D+01 0.200731969024002D+03 0.909245520744661D+02
 0.000000000000000D+00 -.000000000000000D+00 0.000000000000000D+00 0.000000000000000D+00
 0.419610081209501D+03 0.000000000000000D+00 0.000000000000000D+00 0.419610081209501D+03
 0.399309650620348D+03 0.000000000000000D+00 0.000000000000000D+00 -.399309650620348D+03
 0.266511451100028D+03 -.441620972316902D+02 -.249652370537307D+03 -.168683332393595D+02
 0.409105517491699D+02 0.273041494805038D+02 0.270254434351858D+02 0.140635014380983D+02
 0.135233378187174D+03 0.102458281664532D+03 -.502812024902988D+01 -.881197202732049D+02
 0.231969872484295D+03 0.510703058970987D+02 0.186062677832000D+03 0.909245520744661D+02
 0.144294478309182D+03 -.136670639810445D+03 0.415923695191508D+02 0.203004305891533D+02
0.316512724169D-04 0.000000000000D+00 0.000000000000D+00 0.249727669701D-05 0.000000000000D+00  7 1 -2 -24 -13 13 23 21 0 0.93030515D-01 0.27649542D-01 0.89384354D+05 0.89384354D+05 0.89384354D+05 0.11257437D+01  1  2  2  2  7  2       -2 0.135668237202D-02 0.100000000000D+01
-.173798816079D-05 0.000000000000D+00 -.121549220052D-06 0.249727669701D-05 0.000000000000D+00  7 1 -2 -24 -13 13 23 21 2 0.93030515D-01 0.27649542D-01 0.89384354D+05 0.89384354D+05 0.89384354D+05 0.11257437D+01  1  2  3  2  7  2       -2 -.944088820513D-04 0.100000000000D+01
0.202711415300D-05 0.000000000000D+00 0.000000000000D+00 0.249727669701D-05 0.000000000000D+00  7 1 -2 -24 -13 13 23 21 2 0.93030515D-01 0.27649542D-01 0.89384354D+05 0.89384354D+05 0.89384354D+05 0.11257437D+01  1  2 15  2  7  2       -2 0.110114433051D-03 0.100000000000D+01
-.981936710837D-05 0.000000000000D+00 0.000000000000D+00 0.249727669701D-05 0.000000000000D+00  7 1 -2 -24 -13 13 23 21 2 0.93030515D-01 0.27649542D-01 0.89384354D+05 0.89384354D+05 0.89384354D+05 0.11257437D+01  1  2  4  2  7  2       -2 -.533395734255D-03 0.100000000000D+01
  </mgrwgt>
  </event>
  <event>
  8     66 0.29493621E-05 0.57029585E+03 0.75467711E-02 0.86882868E-01
        1 -1    0    0  501    0 0.00000000E+00 0.00000000E+00 0.17858395E+04 0.17858395E+04 0.32000000E+00 0.0000E+00 0.9000E+01
       -2 -1    0    0    0  501 0.00000000E+00 0.00000000E+00 -.23429988E+03 0.23430010E+03 0.32000000E+00 0.0000E+00 0.9000E+01
       25  2    1    2    0    0 0.25768434E+03 0.46859343E+03 0.12736437E+04 0.14121311E+04 0.29319764E+03 0.0000E+00 0.0000E+00
       23  2    3    3    0    0 0.25391389E+03 0.23616581E+03 0.80607089E+03 0.88205900E+03 0.89617200E+02 0.0000E+00 0.0000E+00
      -24  1    1    2    0    0 -.25768434E+03 -.46859343E+03 0.27789587E+03 0.60800851E+03 0.80419002E+02 0.0000E+00 0.9000E+01
      -13  1    4    4    0    0 0.17407126E+03 0.19079210E+03 0.50374886E+03 0.56609659E+03 0.10565837E+00 0.0000E+00 0.9000E+01
       13  1    4    4    0    0 0.79842625E+02 0.45373711E+02 0.30232203E+03 0.31596241E+03 0.10565837E+00 0.0000E+00 0.9000E+01
       23  1    3    3    0    0 0.37704501E+01 0.23242762E+03 0.46757281E+03 0.53007207E+03 0.91188000E+02 0.0000E+00 0.9000E+01
#aMCatNLO 1  0  0  1  1 0.74117001D+03 0.00000000D+00  -5  7  0 0.00000000D+00 0.00000000D+00 0.00000000D+00 0.00000000D+00 0.00000000D+00
  <mgrwgt>
 0.2098970472D-02    5    2    0
 0.646855645667967D+03 0.000000000000000D+00 0.000000000000000D+00 0.646855645667967D+03
 0.646855645667967D+03 0.000000000000000D+00 0.000000000000000D+00 -.646855645667967D+03
 0.616131001171429D+03 -.257684337886900D+03 -.468593434618012D+03 -.295244254289262D+03
 0.279821410613150D+03 0.174071393900390D+03 0.190792302371607D+03 0.107691545716688D+03
 0.130804529382895D+03 0.798424937600977D+02 0.453735085920937D+02 0.931463676977933D+02
 0.266954350168461D+03 0.377045022641228D+01 0.232427623654311D+03 0.944063408747804D+02
 0.000000000000000D+00 -.000000000000000D+00 0.000000000000000D+00 0.000000000000000D+00
 0.112990065173244D+04 0.000000000000000D+00 0.000000000000000D+00 0.112990065173244D+04
 0.110274678291346D+04 0.000000000000000D+00 0.000000000000000D+00 -.110274678291346D+04
 0.787536166742658D+03 0.135339077025118D+02 -.725529917801345D+03 -.295244254289262D+03
 0.319713563112808D+03 0.289914257123505D+03 0.810494721510543D+02 0.107691545716688D+03
 0.166079531658812D+03 0.137206786392837D+03 -.897010526516994D+01 0.931463676977933D+02
 0.217650916738784D+03 0.974064583189061D+02 0.143722283914621D+03 0.944063408747804D+02
 0.741667256392837D+03 -.538061409537759D+03 0.509728267000840D+03 0.271538688189873D+02
0.623312779398D-03 0.000000000000D+00 0.000000000000D+00 0.430711655546D-07 0.000000000000D+00  7 1 -2 -24 -13 13 23 21 0 0.27474455D+00 0.36046155D-01 0.32523735D+06 0.32523735D+06 0.32523735D+06 0.10819661D+01  1  2  2  1  7  1        1 0.208722083651D-02 0.100000000000D+01
-.339603979799D-04 0.000000000000D+00 -.239368519491D-05 0.430711655546D-07 0.000000000000D+00  7 1 -2 -24 -13 13 23 21 2 0.27474455D+00 0.36046155D-01 0.32523735D+06 0.32523735D+06 0.32523735D+06 0.10819661D+01  1  2  3  1  7  1        1 -.133125856748D-03 0.100000000000D+01
0.392834863707D-04 0.000000000000D+00 0.000000000000D+00 0.430711655546D-07 0.000000000000D+00  7 1 -2 -24 -13 13 23 21 2 0.27474455D+00 0.36046155D-01 0.32523735D+06 0.32523735D+06 0.32523735D+06 0.10819661D+01  1  2 15  1  7  1        1 0.153992535136D-03 0.100000000000D+01
-.639782114942D-04 0.000000000000D+00 -.154436669518D-03 0.430711655546D-07 0.000000000000D+00  7 1 -2 -24 -13 13 23 21 2 0.57581104D+00 0.36046155D-01 0.32523735D+06 0.32523735D+06 0.32523735D+06 0.10819661D+01  1  2  5  1  7  1        1 -.918193250928D-05 0.100000000000D+01
0.443515680036D-05 0.000000000000D+00 -.123583496645D-04 0.430711655546D-07 0.000000000000D+00  7 21 -2 -24 -13 13 23 -1 2 0.57581104D+00 0.36046155D-01 0.32523735D+06 0.32523735D+06 0.32523735D+06 0.10819661D+01  1  2  5  3  7  1        1 0.648898675248D-07 0.100000000000D+01
  </mgrwgt>
  </event>
  <event>
  8     66 0.29493621E-05 0.26077673E+03 0.75467711E-02 0.96482912E-01
        3 -1    0    0  501    0 0.00000000E+00 0.00000000E+00 0.53916964E+03 0.53916987E+03 0.50000000E+00 0.0000E+00 0.9000E+01
       -4 -1    0    0    0  501 0.00000000E+00 0.00000000E+00 -.13612322E+03 0.13613204E+03 0.15500000E+01 0.0000E+00 0.9000E+01
       25  2    1    2    0    0 0.95634286E+02 0.13117459E+03 0.17303637E+03 0.38251440E+03 0.30003831E+03 0.0000E+00 0.0000E+00
       23  2    3    3    0    0 -.67811138E+02 0.47920469E+01 0.50258402E+02 0.12546064E+03 0.92699252E+02 0.0000E+00 0.0000E+00
      -24  1    1    2    0    0 -.95634286E+02 -.13117459E+03 0.23001005E+03 0.29278751E+03 0.80419002E+02 0.0000E+00 0.9000E+01
      -11  1    4    4    0    0 -.84037384E+02 -.18613555E+02 0.42200892E+02 0.95862723E+02 0.51099893E-03 0.0000E+00 0.9000E+01
       11  1    4    4    0    0 0.16226246E+02 0.23405602E+02 0.80575098E+01 0.29597918E+02 0.51099893E-03 0.0000E+00 0.9000E+01
       23  1    3    3    0    0 0.16344542E+03 0.12638254E+03 0.12277797E+03 0.25705376E+03 0.91188000E+02 0.0000E+00 0.9000E+01
#aMCatNLO 1  0  0  1  2 0.26918613D+03 0.00000000D+00  -5  7  0 0.00000000D+00 0.00000000D+00 0.00000000D+00 0.00000000D+00 0.00000000D+00
  <mgrwgt>
 0.2087995146D-03    3    2    0
 0.270918001597430D+03 0.000000000000000D+00 0.000000000000000D+00 0.270918001597430D+03
 0.270918001597430D+03 0.000000000000000D+00 0.000000000000000D+00 -.270918001597430D+03
 0.193813699222702D+03 -.956342857648816D+02 -.131174588100026D+03 0.688755753155408D+02
 0.880845150287942D+02 -.840373841518035D+02 -.186135549606612D+02 -.187119059560091D+02
 0.308949200408328D+02 0.162262464320827D+02 0.234056018727470D+02 -.119742562202936D+02
 0.229042868902531D+03 0.163445423484602D+03 0.126382541187940D+03 -.381894131392381D+02
 0.000000000000000D+00 -.000000000000000D+00 -.000000000000000D+00 -.000000000000000D+00
 0.374648049247531D+03 0.000000000000000D+00 0.000000000000000D+00 0.374648049247531D+03
 0.553626515655280D+03 0.000000000000000D+00 0.000000000000000D+00 -.553626515655280D+03
 0.150600035243550D+03 -.945248342952428D+02 -.503424819352204D+02 0.688755753155408D+02
 0.885364994401273D+02 -.834684392333457D+02 0.228384754428665D+02 -.187119059560091D+02
 0.462350492797545D+02 0.164747033002402D+02 0.415076031714811D+02 -.119742562202936D+02
 0.319646948933468D+03 0.165212904464179D+03 0.255157178110015D+03 -.381894131392381D+02
 0.323256032005912D+03 -.369433423583059D+01 -.269160774789142D+03 -.178978466407749D+03
0.209885906778D-04 0.000000000000D+00 0.000000000000D+00 0.138238377661D-05 0.000000000000D+00  7 3 -4 -24 -11 11 23 21 0 0.82949872D-01 0.20942730D-01 0.68004500D+05 0.68004500D+05 0.68004500D+05 0.11357289D+01  1  2  2  1  7  1        3 0.206062988870D-03 0.100000000000D+01
-.116396925044D-05 0.000000000000D+00 -.806017146257D-07 0.138238377661D-05 0.000000000000D+00  7 3 -4 -24 -11 11 23 21 2 0.82949872D-01 0.20942730D-01 0.68004500D+05 0.68004500D+05 0.68004500D+05 0.11357289D+01  1  2  3  1  7  1        3 -.147403433350D-04 0.100000000000D+01
0.138005863897D-05 0.000000000000D+00 0.000000000000D+00 0.138238377661D-05 0.000000000000D+00  7 3 -4 -24 -11 11 23 21 2 0.82949872D-01 0.20942730D-01 0.68004500D+05 0.68004500D+05 0.68004500D+05 0.11357289D+01  1  2 15  1  7  1        3 0.174768690438D-04 0.100000000000D+01
  </mgrwgt>
  </event>
  <event>
  8     66 0.29493621E-05 0.32563876E+03 0.75467711E-02 0.93587532E-01
        1 -1    0    0  501    0 0.00000000E+00 0.00000000E+00 0.10559331E+04 0.10559331E+04 0.32000000E+00 0.0000E+00 0.9000E+01
       -2 -1    0    0    0  501 0.00000000E+00 0.00000000E+00 -.28125128E+03 0.28125146E+03 0.32000000E+00 0.0000E+00 0.9000E+01
       25  2    1    2    0    0 0.35955255E+03 -.20654761E+03 0.75773257E+03 0.91446190E+03 0.30023651E+03 0.0000E+00 0.0000E+00
       23  2    3    3    0    0 0.16082345E+03 -.12104450E+03 0.57770832E+03 0.61861055E+03 0.91739616E+02 0.0000E+00 0.0000E+00
      -24  1    1    2    0    0 -.35955255E+03 0.20654761E+03 0.16949208E+02 0.42272266E+03 0.80419002E+02 0.0000E+00 0.9000E+01
      -13  1    4    4    0    0 0.19177279E+02 -.64452746E+02 0.14582955E+03 0.16058702E+03 0.10565837E+00 0.0000E+00 0.9000E+01
       13  1    4    4    0    0 0.14164617E+03 -.56591751E+02 0.43187877E+03 0.45802353E+03 0.10565837E+00 0.0000E+00 0.9000E+01
       23  1    3    3    0    0 0.19872910E+03 -.85503117E+02 0.18002424E+03 0.29585135E+03 0.91188000E+02 0.0000E+00 0.9000E+01
#aMCatNLO 1  0  0  1  2 0.20454186D+03 0.00000000D+00  -5  7  0 0.00000000D+00 0.00000000D+00 0.00000000D+00 0.00000000D+00 0.00000000D+00
  <mgrwgt>
 0.1332036082D-02    9    2    0
 0.544961166610670D+03 0.000000000000000D+00 0.000000000000000D+00 0.544961166610670D+03
 0.544961166610670D+03 0.000000000000000D+00 0.000000000000000D+00 -.544961166610670D+03
 0.506575519297416D+03 -.359552554637001D+03 0.206547614205786D+03 -.279663341031643D+03
 0.933669865251995D+02 0.191771167878484D+02 -.644527562837470D+02 0.647724831385205D+02
 0.254966429946262D+03 0.141646335880806D+03 -.565917407467701D+02 0.204307539778477D+03
 0.235013397452462D+03 0.198729101968347D+03 -.855031171752686D+02 0.105833181146446D+02
 0.000000000000000D+00 0.000000000000000D+00 0.000000000000000D+00 0.000000000000000D+00
 0.672004082445371D+03 0.000000000000000D+00 0.000000000000000D+00 0.672004082445371D+03
 0.643467854372021D+03 0.000000000000000D+00 0.000000000000000D+00 -.643467854372021D+03
 0.570423521888963D+03 -.456256522196839D+03 0.180372337140987D+03 -.279663341031643D+03
 0.946832499758432D+02 0.229204700154235D+01 -.690231104384670D+02 0.647724831385205D+02
 0.236533249677507D+03 0.975144775816096D+02 -.685370998412778D+02 0.204307539778477D+03
 0.207309060167023D+03 0.159012876645152D+03 -.962532779808147D+02 0.105833181146446D+02
 0.206522855108056D+03 0.197437120968535D+03 0.534411511195721D+02 0.285362280733503D+02
0.126788437627D-03 0.000000000000D+00 0.000000000000D+00 0.113009761701D-04 0.000000000000D+00  7 1 -2 -24 -13 13 23 21 0 0.16245126D+00 0.43269445D-01 0.19225415D+06 0.19225415D+06 0.19225415D+06 0.10991453D+01  1  2  2  1  7  1        1 0.976625091786D-03 0.100000000000D+01
-.663892908196D-05 0.000000000000D+00 -.486900984650D-06 0.113009761701D-04 0.000000000000D+00  7 1 -2 -24 -13 13 23 21 2 0.16245126D+00 0.43269445D-01 0.19225415D+06 0.19225415D+06 0.19225415D+06 0.10991453D+01  1  2  3  1  7  1        1 -.617812200685D-04 0.100000000000D+01
0.797991389682D-05 0.000000000000D+00 0.000000000000D+00 0.113009761701D-04 0.000000000000D+00  7 1 -2 -24 -13 13 23 21 2 0.16245126D+00 0.43269445D-01 0.19225415D+06 0.19225415D+06 0.19225415D+06 0.10991453D+01  1  2 15  1  7  1        1 0.742602926618D-04 0.100000000000D+01
0.502286610571D-04 0.000000000000D+00 0.000000000000D+00 0.113009761701D-04 0.000000000000D+00  7 1 -2 -24 -13 13 23 21 2 0.21207066D+00 0.43269445D-01 0.30084992D+06 0.30084992D+06 0.30084992D+06 0.10844610D+01  1  2 12  1  7  1        1 0.264347654626D-03 0.100000000000D+01
-.647160159549D-04 0.000000000000D+00 0.000000000000D+00 0.113009761701D-04 0.000000000000D+00  7 1 -2 -24 -13 13 23 21 2 0.16245126D+00 0.43269445D-01 0.19225415D+06 0.19225415D+06 0.19225415D+06 0.10991453D+01  1  2  4  1  7  1        1 -.602240869621D-03 0.100000000000D+01
-.128448366398D-03 0.000000000000D+00 -.571038980480D-04 0.113009761701D-04 0.000000000000D+00  7 1 -2 -24 -13 13 23 21 2 0.22291278D+00 0.43269445D-01 0.19225415D+06 0.19225415D+06 0.19225415D+06 0.10991453D+01  1  2  5  1  7  1        1 -.634169788033D-03 0.100000000000D+01
0.142088175472D-03 0.000000000000D+00 0.543601108971D-04 0.113009761701D-04 0.000000000000D+00  7 1 -2 -24 -13 13 23 21 2 0.16245126D+00 0.43269445D-01 0.19225415D+06 0.19225415D+06 0.19225415D+06 0.10991453D+01  1  2  6  1  7  1        1 0.132225856454D-02 0.100000000000D+01
0.178178684195D-05 0.000000000000D+00 0.000000000000D+00 0.113009761701D-04 0.000000000000D+00  7 21 -2 -24 -13 13 23 -1 2 0.21207066D+00 0.43269445D-01 0.30084992D+06 0.30084992D+06 0.30084992D+06 0.10844610D+01  1  2 12  3  7  1        1 0.816877168410D-05 0.100000000000D+01
-.377014489004D-05 0.000000000000D+00 -.229379403414D-05 0.113009761701D-04 0.000000000000D+00  7 21 -2 -24 -13 13 23 -1 2 0.22291278D+00 0.43269445D-01 0.19225415D+06 0.19225415D+06 0.19225415D+06 0.10991453D+01  1  2  5  3  7  1        1 -.154324153088D-04 0.100000000000D+01
  </mgrwgt>
  </event>
  <event>
  9     66 0.29493621E-05 0.17377067E+03 0.75467711E-02 0.10689241E+00
        3 -1    0    0  501    0 0.00000000E+00 0.00000000E+00 0.64504609E+03 0.64504628E+03 0.50000000E+00 0.0000E+00 0.9000E+01
       -4 -1    0    0    0  502 0.00000000E+00 0.00000000E+00 -.13570103E+03 0.13570988E+03 0.15500000E+01 0.0000E+00 0.9000E+01
       25  2    1    2    0    0 -.69859202E+02 0.56651027E+02 0.51614952E+03 0.60376417E+03 0.30005200E+03 0.0000E+00 0.0000E+00
       23  2    3    3    0    0 -.30210360E+02 -.57815942E+02 0.67817336E+02 0.13048654E+03 0.90400207E+02 0.0000E+00 0.0000E+00
      -24  1    1    2    0    0 0.55787393E+02 -.24517478E+02 -.56895322E+02 0.11583451E+03 0.80419002E+02 0.0000E+00 0.9000E+01
      -13  1    4    4    0    0 0.13597234E+02 -.50937737E+02 0.41316032E+01 0.52883071E+02 0.10565837E+00 0.0000E+00 0.9000E+01
       13  1    4    4    0    0 -.43807593E+02 -.68782048E+01 0.63685733E+02 0.77603471E+02 0.10565837E+00 0.0000E+00 0.9000E+01
       23  1    3    3    0    0 -.39648843E+02 0.11446697E+03 0.44833218E+03 0.47327763E+03 0.91188000E+02 0.0000E+00 0.9000E+01
       21  1    1    2  501  502 0.14071809E+02 -.32133549E+02 0.50090862E+02 0.61157483E+02 0.75000000E+00 0.0000E+00 0.9000E+01
#aMCatNLO 2  0  0  2  1 0.35079635D+02 0.00000000D+00  -5  7  0 0.00000000D+00 0.00000000D+00 0.00000000D+00 0.00000000D+00 0.00000000D+00
  <mgrwgt>
 0.6559321219D-04    1    2    0
 0.276440437837538D+03 0.000000000000000D+00 0.000000000000000D+00 0.276440437837538D+03
 0.276440437837538D+03 0.000000000000000D+00 0.000000000000000D+00 -.276440437837538D+03
 0.200869018189208D+03 0.608535158983694D+02 -.360861743834561D+02 -.169928761941878D+03
 0.687043035070609D+02 0.153004973744746D+02 -.548270912352232D+02 -.384729277176633D+02
 0.473880882532105D+02 -.425949055687959D+02 -.964754491674909D+01 0.183910251198441D+02
 0.235919465725598D+03 -.335591077040480D+02 0.100560810535428D+03 0.190010664539697D+03
 0.000000000000000D+00 0.000000000000000D+00 -.000000000000000D+00 0.000000000000000D+00
 0.303132627025976D+03 0.000000000000000D+00 0.000000000000000D+00 0.303132627025976D+03
 0.288767117219465D+03 0.000000000000000D+00 0.000000000000000D+00 -.288767117219465D+03
 0.197626769653941D+03 0.557873936064886D+02 -.245174776226421D+02 -.169928761941878D+03
 0.652664710396129D+02 0.135973116744074D+02 -.509377972631828D+02 -.384729277176633D+02
 0.480067781754232D+02 -.438076713597741D+02 -.687814479780580D+01 0.183910251198441D+02
 0.243092619604872D+03 -.396488428470658D+02 0.114466968966730D+03 0.190010664539697D+03
 0.379071057715914D+02 0.140718089259438D+02 -.321335492830997D+02 0.143655098065106D+02
0.756354696850D-05 0.000000000000D+00 0.000000000000D+00 0.290763326004D-05 0.169780002180D-07  7 3 -4 -24 -13 13 23 21 2 0.99237300D-01 0.20877513D-01 0.36992475D+05 0.36992475D+05 0.36992475D+05 0.11589865D+01  1  2  1  2  7  2       -4 0.655932121944D-04 0.100000000000D+01
  </mgrwgt>
  </event>
  <event>
  8     66 0.29493621E-05 0.28284004E+03 0.75467711E-02 0.97850487E-01
        3 -1    0    0  501    0 0.00000000E+00 0.00000000E+00 0.22818214E+03 0.22818269E+03 0.50000000E+00 0.0000E+00 0.9000E+01
       -4 -1    0    0    0  501 0.00000000E+00 0.00000000E+00 -.44536037E+03 0.44536307E+03 0.15500000E+01 0.0000E+00 0.9000E+01
       25  2    1    2    0    0 0.36578905E+02 0.19668097E+03 0.95236720E+01 0.36068414E+03 0.29996821E+03 0.0000E+00 0.0000E+00
       23  2    3    3    0    0 -.55283536E+01 -.42431046E+02 -.42778739E+01 0.10096638E+03 0.91350720E+02 0.0000E+00 0.0000E+00
      -24  1    1    2    0    0 -.36578905E+02 -.19668097E+03 -.22670190E+03 0.31286161E+03 0.80419002E+02 0.0000E+00 0.9000E+01
      -13  1    4    4    0    0 0.29221237E+02 0.72327884E+01 0.19487122E+02 0.35860188E+02 0.10565837E+00 0.0000E+00 0.9000E+01
       13  1    4    4    0    0 -.34749591E+02 -.49663835E+02 -.23764996E+02 0.65106196E+02 0.10565837E+00 0.0000E+00 0.9000E+01
       23  1    3    3    0    0 0.42107259E+02 0.23911202E+03 0.13801546E+02 0.25971776E+03 0.91188000E+02 0.0000E+00 0.9000E+01
#aMCatNLO 1  0  0  1  1 0.17334979D+03 0.00000000D+00  -5  7  0 0.00000000D+00 0.00000000D+00 0.00000000D+00 0.00000000D+00 0.00000000D+00
  <mgrwgt>
 0.1943183296D-03    3    2    0
 0.318785781758297D+03 0.000000000000000D+00 0.000000000000000D+00 0.318785781758297D+03
 0.318785781758297D+03 0.000000000000000D+00 0.000000000000000D+00 -.318785781758297D+03
 0.253292184098065D+03 -.365789052777171D+02 -.196680972127099D+03 -.132922133080315D+03
 0.445214991516224D+02 0.292213227666541D+02 0.723286432234567D+01 0.328018879970267D+02
 0.606846008497359D+02 -.347496764333720D+02 -.496639109429633D+02 -.292860340727837D+01
 0.279073279417170D+03 0.421072589444351D+02 0.239112018747716D+03 0.103048848490567D+03
 0.000000000000000D+00 0.000000000000000D+00 -.000000000000000D+00 -.000000000000000D+00
 0.350836770307713D+03 0.000000000000000D+00 0.000000000000000D+00 0.350836770307713D+03
 0.697217569098996D+03 0.000000000000000D+00 0.000000000000000D+00 -.697217569098996D+03
 0.233537883152455D+03 -.843562056004006D+02 -.152605583210580D+03 -.132922133080315D+03
 0.416315648371777D+02 0.207662968986768D+02 0.150327724568242D+02 0.328018879970267D+02
 0.606761732644327D+02 -.466599723298295D+02 -.386764562269850D+02 -.292860340727837D+01
 0.324871904121067D+03 -.171636701814276D+02 0.293790479753717D+03 0.103048848490567D+03
 0.387336814031577D+03 0.127413551212981D+03 -.117541212772976D+03 -.346380798791283D+03
0.406049296860D-04 0.000000000000D+00 0.000000000000D+00 0.497432129456D-05 0.000000000000D+00  7 3 -4 -24 -13 13 23 21 0 0.35105194D-01 0.68517230D-01 0.79998486D+05 0.79998486D+05 0.79998486D+05 0.11297631D+01  1  2  2  1  7  1        3 0.191886252490D-03 0.100000000000D+01
-.221657171726D-05 0.000000000000D+00 -.155933621518D-06 0.497432129456D-05 0.000000000000D+00  7 3 -4 -24 -13 13 23 21 2 0.35105194D-01 0.68517230D-01 0.79998486D+05 0.79998486D+05 0.79998486D+05 0.11297631D+01  1  2  3  1  7  1        3 -.133697009559D-04 0.100000000000D+01
0.261978742138D-05 0.000000000000D+00 0.000000000000D+00 0.497432129456D-05 0.000000000000D+00  7 3 -4 -24 -13 13 23 21 2 0.35105194D-01 0.68517230D-01 0.79998486D+05 0.79998486D+05 0.79998486D+05 0.11297631D+01  1  2 15  1  7  1        3 0.158017780877D-04 0.100000000000D+01
  </mgrwgt>
  </event>
  <event>
  8     66 0.29493621E-05 0.17047434E+03 0.75467711E-02 0.93883543E-01
        1 -1    0    0  501    0 0.00000000E+00 0.00000000E+00 0.11750144E+04 0.11750145E+04 0.32000000E+00 0.0000E+00 0.9000E+01
       -2 -1    0    0    0  501 0.00000000E+00 0.00000000E+00 -.38587277E+02 0.38588604E+02 0.32000000E+00 0.0000E+00 0.9000E+01
       25  2    1    2    0    0 -.53821950E+02 0.51437160E+02 0.92959542E+03 0.97953222E+03 0.29965504E+03 0.0000E+00 0.0000E+00
       23  2    3    3    0    0 -.47977876E+02 -.61816793E+02 0.68103802E+03 0.69151028E+03 0.90832145E+02 0.0000E+00 0.0000E+00
      -24  1    1    2    0    0 0.53821950E+02 -.51437160E+02 0.20683174E+03 0.23407086E+03 0.80419002E+02 0.0000E+00 0.9000E+01
      -11  1    4    4    0    0 -.15331728E+01 -.28835804E+02 0.51805938E+03 0.51886354E+03 0.51099893E-03 0.0000E+00 0.9000E+01
       11  1    4    4    0    0 -.46444703E+02 -.32980990E+02 0.16297864E+03 0.17264673E+03 0.51099893E-03 0.0000E+00 0.9000E+01
       23  1    3    3    0    0 -.58440734E+01 0.11325395E+03 0.24855740E+03 0.28802195E+03 0.91188000E+02 0.0000E+00 0.9000E+01
#aMCatNLO 1  0  0  2  2 0.47929059D+03 0.00000000D+00  -5  7  0 0.00000000D+00 0.00000000D+00 0.00000000D+00 0.00000000D+00 0.00000000D+00
  <mgrwgt>
 0.1706213723D-02    3    2    0
 0.212935292672370D+03 0.000000000000000D+00 0.000000000000000D+00 0.212935292672370D+03
 0.212935292672370D+03 0.000000000000000D+00 0.000000000000000D+00 -.212935292672370D+03
 0.115105186126711D+03 0.538219497093838D+02 -.514371602450431D+02 -.352051728344084D+02
 0.961739237554064D+02 -.153317285123923D+01 -.288358035217956D+02 0.917364127638057D+02
 0.570860053953525D+02 -.464447034450639D+02 -.329809895556458D+02 0.373575451932685D+01
 0.157505470067270D+03 -.584407341308066D+01 0.113253953322485D+03 -.602669944487242D+02
 0.000000000000000D+00 -.000000000000000D+00 -.000000000000000D+00 0.000000000000000D+00
 0.904285832242226D+03 0.000000000000000D+00 0.000000000000000D+00 0.904285832242226D+03
 0.418967953180109D+03 0.000000000000000D+00 0.000000000000000D+00 -.418967953180109D+03
 0.172322866269281D+03 0.141935825435352D+03 0.429275150524077D+02 -.352051728344084D+02
 0.119894917853756D+03 0.647048401022560D+02 0.421011349933582D+02 0.917364127638057D+02
 0.231410267456625D+02 -.218503234567199D+02 -.664188390831343D+01 0.373575451932685D+01
 0.325800470537585D+03 0.142318081369944D+03 0.271926733429810D+03 -.602669944487242D+02
 0.682094504016051D+03 -.327108423450832D+03 -.350313499567263D+03 0.485317879062117D+03
0.100609670772D-04 0.000000000000D+00 0.000000000000D+00 0.624856360789D-06 0.000000000000D+00  7 1 -2 -24 -11 11 23 21 0 0.18077156D+00 0.59366096D-02 0.29061502D+05 0.29061502D+05 0.29061502D+05 0.11686188D+01  1  2  2  2  7  2       -2 0.167527365973D-02 0.100000000000D+01
-.525327700532D-06 0.000000000000D+00 -.386367626897D-07 0.624856360789D-06 0.000000000000D+00  7 1 -2 -24 -11 11 23 21 2 0.18077156D+00 0.59366096D-02 0.29061502D+05 0.29061502D+05 0.29061502D+05 0.11686188D+01  1  2  3  2  7  2       -2 -.119459872994D-03 0.100000000000D+01
0.661387383397D-06 0.000000000000D+00 0.000000000000D+00 0.624856360789D-06 0.000000000000D+00  7 1 -2 -24 -11 11 23 21 2 0.18077156D+00 0.59366096D-02 0.29061502D+05 0.29061502D+05 0.29061502D+05 0.11686188D+01  1  2 15  2  7  2       -2 0.150399936536D-03 0.100000000000D+01
  </mgrwgt>
  </event>
  <event>
  8     66 0.29493621E-05 0.21964838E+03 0.75467711E-02 0.10443857E+00
        1 -1    0    0  501    0 0.00000000E+00 0.00000000E+00 0.97217374E+02 0.97217901E+02 0.32000000E+00 0.0000E+00 0.9000E+01
       -2 -1    0    0    0  501 0.00000000E+00 0.00000000E+00 -.73283598E+03 0.73283605E+03 0.32000000E+00 0.0000E+00 0.9000E+01
       25  2    1    2    0    0 0.14585886E+03 -.15465852E+00 -.54930692E+03 0.64245930E+03 0.29956807E+03 0.0000E+00 0.0000E+00
       23  2    3    3    0    0 0.16233565E+03 -.33571966E+02 -.49479933E+03 0.52987808E+03 0.92002548E+02 0.0000E+00 0.0000E+00
      -24  1    1    2    0    0 -.14585886E+03 0.15465852E+00 -.86311682E+02 0.18759465E+03 0.80419002E+02 0.0000E+00 0.9000E+01
      -13  1    4    4    0    0 -.13500569E+01 -.85355397E+01 -.58664986E+00 0.86621830E+01 0.10565837E+00 0.0000E+00 0.9000E+01
       13  1    4    4    0    0 0.16368570E+03 -.25036427E+02 -.49421268E+03 0.52121590E+03 0.10565837E+00 0.0000E+00 0.9000E+01
       23  1    3    3    0    0 -.16476788E+02 0.33417308E+02 -.54507591E+02 0.11258121E+03 0.91188000E+02 0.0000E+00 0.9000E+01
#aMCatNLO 1  0  0  2  2 0.18815637D+02 0.00000000D+00  -5  7  0 0.00000000D+00 0.00000000D+00 0.00000000D+00 0.00000000D+00 0.00000000D+00
  <mgrwgt>
 0.9385780815D-03    4    2    0
 0.266916910578286D+03 0.000000000000000D+00 0.000000000000000D+00 0.266916910578286D+03
 0.266916910578286D+03 0.000000000000000D+00 0.000000000000000D+00 -.266916910578286D+03
 0.188920905682322D+03 -.145858857620338D+03 0.154658516464556D+00 0.891575144555500D+02
 0.127699777290498D+02 -.135027421199628D+01 -.853551777475522D+01 0.940180977629752D+01
 0.221991725282969D+03 0.163685919893724D+03 -.250364486653380D+02 -.147852703596797D+03
 0.110151212462230D+03 -.164767880613898D+02 0.334173079236287D+02 0.492933793649497D+02
 0.000000000000000D+00 0.000000000000000D+00 -.000000000000000D+00 0.000000000000000D+00
 0.318491240625451D+03 0.000000000000000D+00 0.000000000000000D+00 0.318491240625451D+03
 0.268804293607337D+03 0.000000000000000D+00 0.000000000000000D+00 -.268804293607337D+03
 0.193606372115938D+03 -.151843901266846D+03 0.325248116013355D+01 0.891575144555500D+02
 0.126818839988810D+02 -.174849549494202D+01 -.832940083052543D+01 0.940180977629752D+01
 0.216600272074646D+03 0.156823684441383D+03 -.214845968116174D+02 -.147852703596797D+03
 0.111276780300457D+03 -.199412630888213D+02 0.352104993892689D+02 0.492933793649497D+02
 0.531302257428662D+02 0.167099754092265D+02 -.864898290725956D+01 0.496869470181143D+02
0.378836213134D-04 0.000000000000D+00 0.000000000000D+00 0.147749716503D-05 0.000000000000D+00  7 1 -2 -24 -13 13 23 21 0 0.14956565D-01 0.11274404D+00 0.48245412D+05 0.48245412D+05 0.48245412D+05 0.11486625D+01  1  2  2  2  7  2       -2 0.103628002953D-02 0.100000000000D+01
-.200743224381D-05 0.000000000000D+00 -.145483080830D-06 0.147749716503D-05 0.000000000000D+00  7 1 -2 -24 -13 13 23 21 2 0.14956565D-01 0.11274404D+00 0.48245412D+05 0.48245412D+05 0.48245412D+05 0.11486625D+01  1  2  3  2  7  2       -2 -.724521737508D-04 0.100000000000D+01
0.245633971508D-05 0.000000000000D+00 0.000000000000D+00 0.147749716503D-05 0.000000000000D+00  7 1 -2 -24 -13 13 23 21 2 0.14956565D-01 0.11274404D+00 0.48245412D+05 0.48245412D+05 0.48245412D+05 0.11486625D+01  1  2 15  2  7  2       -2 0.886541263730D-04 0.100000000000D+01
-.315593516457D-05 0.000000000000D+00 0.000000000000D+00 0.147749716503D-05 0.000000000000D+00  7 1 -2 -24 -13 13 23 21 2 0.14956565D-01 0.11274404D+00 0.48245412D+05 0.48245412D+05 0.48245412D+05 0.11486625D+01  1  2  4  2  7  2       -2 -.113903900665D-03 0.100000000000D+01
  </mgrwgt>
  </event>
  <event>
  8     66 0.29493621E-05 0.20290135E+03 0.75467711E-02 0.96628990E-01
        3 -1    0    0  501    0 0.00000000E+00 0.00000000E+00 0.73123159E+03 0.73123176E+03 0.50000000E+00 0.0000E+00 0.9000E+01
       -4 -1    0    0    0  501 0.00000000E+00 0.00000000E+00 -.77723005E+02 0.77738459E+02 0.15500000E+01 0.0000E+00 0.9000E+01
       25  2    1    2    0    0 0.11515520E+03 -.34598035E+02 0.51815959E+03 0.61086845E+03 0.30035506E+03 0.0000E+00 0.0000E+00
       23  2    3    3    0    0 0.12627596E+03 -.74208429E+02 0.46956972E+03 0.49965298E+03 0.87777390E+02 0.0000E+00 0.0000E+00
      -24  1    1    2    0    0 -.11515520E+03 0.34598035E+02 0.13534900E+03 0.19810177E+03 0.80419002E+02 0.0000E+00 0.9000E+01
      -11  1    4    4    0    0 0.19364996E+02 -.46935939E+02 0.79933973E+02 0.94696492E+02 0.51099893E-03 0.0000E+00 0.9000E+01
       11  1    4    4    0    0 0.10691097E+03 -.27272490E+02 0.38963574E+03 0.40495649E+03 0.51099893E-03 0.0000E+00 0.9000E+01
       23  1    3    3    0    0 -.11120761E+02 0.39610393E+02 0.48589872E+02 0.11121547E+03 0.91188000E+02 0.0000E+00 0.9000E+01
#aMCatNLO 1  0  0  2  2 0.33538301D+03 0.00000000D+00  -5  7  0 0.00000000D+00 0.00000000D+00 0.00000000D+00 0.00000000D+00 0.00000000D+00
  <mgrwgt>
 0.9848083460D-04    5    2    0
 0.238411066084867D+03 0.000000000000000D+00 0.000000000000000D+00 0.238411066084867D+03
 0.238411066084867D+03 0.000000000000000D+00 0.000000000000000D+00 -.238411066084867D+03
 0.150594310310737D+03 -.115155199677967D+03 0.345980354880039D+02 -.418770375157384D+02
 0.511073253572715D+02 0.193649955569412D+02 -.469359391782153D+02 0.582865899779072D+01
 0.153028622365107D+03 0.106910965380649D+03 -.272724896382968D+02 0.106037804830491D+03
 0.122091874136617D+03 -.111207612596231D+02 0.396103933285082D+02 -.699894263125433D+02
 0.000000000000000D+00 0.000000000000000D+00 -.000000000000000D+00 -.000000000000000D+00
 0.339346211981233D+03 0.000000000000000D+00 0.000000000000000D+00 0.339346211981233D+03
 0.878952852369332D+03 0.000000000000000D+00 0.000000000000000D+00 -.878952852369332D+03
 0.253528311790916D+03 -.194657285334493D+03 0.134774789631789D+03 -.418770375157384D+02
 0.281567185908601D+02 0.377156805052006D+01 -.272874112097988D+02 0.582865899779072D+01
 0.125319432628815D+03 0.521522122196150D+02 0.417263813640618D+02 0.106037804830491D+03
 0.175954463552571D+03 -.697547108894443D+02 0.113492213007078D+03 -.699894263125433D+02
 0.635340137787403D+03 0.208488215953802D+03 -.262705972793130D+03 -.539606640388099D+03
0.775424144244D-05 0.000000000000D+00 0.000000000000D+00 0.123458067102D-06 0.000000000000D+00  7 3 -4 -24 -11 11 23 21 0 0.11249837D+00 0.11958587D-01 0.41168957D+05 0.41168957D+05 0.41168957D+05 0.11547940D+01  1  2  2  2  7  2       -4 0.993623371958D-04 0.100000000000D+01
-.417167642143D-06 0.000000000000D+00 -.297783288776D-07 0.123458067102D-06 0.000000000000D+00  7 3 -4 -24 -11 11 23 21 2 0.11249837D+00 0.11958587D-01 0.41168957D+05 0.41168957D+05 0.41168957D+05 0.11547940D+01  1  2  3  2  7  2       -4 -.712856546468D-05 0.100000000000D+01
0.504629696052D-06 0.000000000000D+00 0.000000000000D+00 0.123458067102D-06 0.000000000000D+00  7 3 -4 -24 -11 11 23 21 2 0.11249837D+00 0.11958587D-01 0.41168957D+05 0.41168957D+05 0.41168957D+05 0.11547940D+01  1  2 15  2  7  2       -4 0.862311804733D-05 0.100000000000D+01
-.188195882366D-06 0.000000000000D+00 -.329679252106D-05 0.123458067102D-06 0.000000000000D+00  7 3 -4 -24 -11 11 23 21 2 0.11249837D+00 0.60373396D-01 0.41168957D+05 0.41168957D+05 0.41168957D+05 0.11547940D+01  1  2  5  2  7  2       -4 -.135096097012D-06 0.100000000000D+01
-.136880049138D-06 0.000000000000D+00 -.650918727419D-06 0.123458067102D-06 0.000000000000D+00  7 3 21 -24 -11 11 23 4 2 0.11249837D+00 0.60373396D-01 0.41168957D+05 0.41168957D+05 0.41168957D+05 0.11547940D+01  1  2  5  4  7  2       -4 -.224095908060D-05 0.100000000000D+01
  </mgrwgt>
  </event>
  <event>
  8     66 0.29493621E-05 0.22830437E+03 0.75467711E-02 0.98307342E-01
        1 -1    0    0  501    0 0.00000000E+00 0.00000000E+00 0.52147374E+03 0.52147383E+03 0.32000000E+00 0.0000E+00 0.9000E+01
       -2 -1    0    0    0  501 0.00000000E+00 0.00000000E+00 -.16647268E+03 0.16647299E+03 0.32000000E+00 0.0000E+00 0.9000E+01
       25  2    1    2    0    0 -.14846454E+03 0.26464758E+02 0.70142586E+02 0.35575160E+03 0.31447912E+03 0.0000E+00 0.0000E+00
       23  2    3    3    0    0 -.75566611E+02 0.11088632E+03 -.46665289E+02 0.17027804E+03 0.93866261E+02 0.0000E+00 0.0000E+00
      -24  1    1    2    0    0 0.14846454E+03 -.26464758E+02 0.28485847E+03 0.33219522E+03 0.80419002E+02 0.0000E+00 0.9000E+01
      -11  1    4    4    0    0 -.37096704E+02 0.91115332E+02 0.10119085E+02 0.98896739E+02 0.51099893E-03 0.0000E+00 0.9000E+01
       11  1    4    4    0    0 -.38469907E+02 0.19770987E+02 -.56784374E+02 0.71381306E+02 0.51099893E-03 0.0000E+00 0.9000E+01
       23  1    3    3    0    0 -.72897924E+02 -.84421560E+02 0.11680788E+03 0.18547355E+03 0.91188000E+02 0.0000E+00 0.9000E+01
#aMCatNLO 1  0  0  2  2 0.22462798D+03 0.00000000D+00  -5  7  0 0.00000000D+00 0.00000000D+00 0.00000000D+00 0.00000000D+00 0.00000000D+00
  <mgrwgt>
 0.1032311151D-02    3    2    0
 0.294637521258539D+03 0.000000000000000D+00 0.000000000000000D+00 0.294637521258539D+03
 0.294637521258539D+03 0.000000000000000D+00 0.000000000000000D+00 -.294637521258539D+03
 0.216210735364018D+03 0.148464537249984D+03 -.264647585433144D+02 0.132430222633169D+03
 0.109360495501180D+03 -.370967047721974D+02 0.911153304186234D+02 -.477655632648998D+02
 0.117542828174075D+03 -.384699074626658D+02 0.197709861989135D+02 -.109295428905771D+03
 0.146160983477805D+03 -.728979250151211D+02 -.844215580742225D+02 0.246307695375018D+02
 0.000000000000000D+00 0.000000000000000D+00 -.000000000000000D+00 0.000000000000000D+00
 0.674238232161290D+03 0.000000000000000D+00 0.000000000000000D+00 0.674238232161290D+03
 0.350463954658296D+03 0.000000000000000D+00 0.000000000000000D+00 -.350463954658296D+03
 0.174254527591450D+03 0.767202119170526D+02 -.217639529608164D+02 0.132430222633169D+03
 0.133418256841612D+03 -.817050206571141D+02 0.940381402626710D+02 -.477655632648998D+02
 0.140919136604864D+03 -.859598663566631D+02 0.228826060078049D+02 -.109295428905771D+03
 0.182044902645027D+03 -.133202674513068D+03 -.804702922176465D+02 0.246307695375018D+02
 0.394065363136633D+03 0.224147349609793D+03 -.146865010920132D+02 0.323774277502994D+03
0.167864564154D-04 0.000000000000D+00 0.000000000000D+00 0.856999782511D-09 0.000000000000D+00  7 1 -2 -24 -11 11 23 21 0 0.80226760D-01 0.25611212D-01 0.52122885D+05 0.52122885D+05 0.52122885D+05 0.11457104D+01  1  2  2  2  7  2       -2 0.101479970848D-02 0.100000000000D+01
-.858811936875D-06 0.000000000000D+00 -.644644126107D-07 0.856999782511D-09 0.000000000000D+00  7 1 -2 -24 -11 11 23 21 2 0.80226760D-01 0.25611212D-01 0.52122885D+05 0.52122885D+05 0.52122885D+05 0.11457104D+01  1  2  3  2  7  2       -2 -.681505015959D-04 0.100000000000D+01
0.107948581546D-05 0.000000000000D+00 0.000000000000D+00 0.856999782511D-09 0.000000000000D+00  7 1 -2 -24 -11 11 23 21 2 0.80226760D-01 0.25611212D-01 0.52122885D+05 0.52122885D+05 0.52122885D+05 0.11457104D+01  1  2 15  2  7  2       -2 0.856619437046D-04 0.100000000000D+01
  </mgrwgt>
  </event>
  <event>
  8     66 0.29493621E-05 0.18768416E+03 0.75467711E-02 0.10349362E+00
        1 -1    0    0  501    0 0.00000000E+00 0.00000000E+00 0.40158976E+02 0.40160251E+02 0.32000000E+00 0.0000E+00 0.9000E+01
       -2 -1    0    0    0  501 0.00000000E+00 0.00000000E+00 -.13496992E+04 0.13496993E+04 0.32000000E+00 0.0000E+00 0.9000E+01
       25  2    1    2    0    0 0.34310746E+02 -.23201869E+02 -.12379219E+04 0.12744821E+04 0.30023038E+03 0.0000E+00 0.0000E+00
       23  2    3    3    0    0 0.35320532E+01 -.12152504E+03 -.83581523E+03 0.84948816E+03 0.90896785E+02 0.0000E+00 0.0000E+00
      -24  1    1    2    0    0 -.34310746E+02 0.23201869E+02 -.71618303E+02 0.11537743E+03 0.80419002E+02 0.0000E+00 0.9000E+01
      -13  1    4    4    0    0 0.88567533E+01 -.13372163E+03 -.80249982E+03 0.81361287E+03 0.10565837E+00 0.0000E+00 0.9000E+01
       13  1    4    4    0    0 -.53247001E+01 0.12196593E+02 -.33315401E+02 0.35875290E+02 0.10565837E+00 0.0000E+00 0.9000E+01
       23  1    3    3    0    0 0.30778693E+02 0.98323167E+02 -.40210671E+03 0.42499392E+03 0.91188000E+02 0.0000E+00 0.9000E+01
#aMCatNLO 1  0  0  2  2 0.10390737D+03 0.00000000D+00  -5  7  0 0.00000000D+00 0.00000000D+00 0.00000000D+00 0.00000000D+00 0.00000000D+00
  <mgrwgt>
 0.2521450845D-02    7    2    0
 0.232816346116797D+03 0.000000000000000D+00 0.000000000000000D+00 0.232816346116797D+03
 0.232816346116797D+03 0.000000000000000D+00 0.000000000000000D+00 -.232816346116797D+03
 0.142969707694246D+03 -.343107476480878D+02 0.232018701783545D+02 0.110713897862299D+03
 0.171598477725594D+03 0.885677312412710D+01 -.133721823255170D+03 -.107173080168865D+03
 0.133874930009442D+02 -.532471886531827D+01 0.121967895541367D+02 0.145281190377680D+01
 0.137677013812811D+03 0.307786933892789D+02 0.983231635226792D+02 -.499362959721130D+01
 0.000000000000000D+00 -.000000000000000D+00 -.000000000000000D+00 -.000000000000000D+00
 0.287864382738286D+03 0.000000000000000D+00 0.000000000000000D+00 0.287864382738286D+03
 0.293268910908283D+03 0.000000000000000D+00 0.000000000000000D+00 -.293268910908283D+03
 0.138874826349481D+03 -.324671960807711D+01 0.234711114170362D+02 0.110713897862299D+03
 0.177536857254701D+03 0.473373839771435D+02 -.133388300271031D+03 -.107173080168865D+03
 0.125521805341707D+02 -.246572871751390D+01 0.122215692783818D+02 0.145281190377680D+01
 0.148121605063579D+03 0.622785283628218D+02 0.985961820306338D+02 -.499362959721130D+01
 0.104047824444637D+03 -.103903464014374D+03 -.900562455020810D+00 -.540452816999664D+01
0.119047300021D-03 0.000000000000D+00 0.000000000000D+00 0.225642818727D-05 0.000000000000D+00  7 1 -2 -24 -13 13 23 21 0 0.61784050D-02 0.20764613D+00 0.35225345D+05 0.35225345D+05 0.35225345D+05 0.11609207D+01  1  2  2  2  7  2       -2 0.196072767502D-02 0.100000000000D+01
-.624033380423D-05 0.000000000000D+00 -.457172977956D-06 0.225642818727D-05 0.000000000000D+00  7 1 -2 -24 -13 13 23 21 2 0.61784050D-02 0.20764613D+00 0.35225345D+05 0.35225345D+05 0.35225345D+05 0.11609207D+01  1  2  3  2  7  2       -2 -.138519406924D-03 0.100000000000D+01
0.745498186881D-05 0.000000000000D+00 0.000000000000D+00 0.225642818727D-05 0.000000000000D+00  7 1 -2 -24 -13 13 23 21 2 0.61784050D-02 0.20764613D+00 0.35225345D+05 0.35225345D+05 0.35225345D+05 0.11609207D+01  1  2 15  2  7  2       -2 0.165481478954D-03 0.100000000000D+01
-.444579535047D-04 0.000000000000D+00 0.000000000000D+00 0.225642818727D-05 0.000000000000D+00  7 1 -2 -24 -13 13 23 21 2 0.61784050D-02 0.20764613D+00 0.35225345D+05 0.35225345D+05 0.35225345D+05 0.11609207D+01  1  2  4  2  7  2       -2 -.986852553998D-03 0.100000000000D+01
-.856990242739D-04 0.000000000000D+00 -.443369086663D-04 0.225642818727D-05 0.000000000000D+00  7 1 -2 -24 -13 13 23 21 2 0.61784050D-02 0.29557412D+00 0.35225345D+05 0.35225345D+05 0.35225345D+05 0.11609207D+01  1  2  5  2  7  2       -2 -.530455592204D-03 0.100000000000D+01
0.978196395024D-04 0.000000000000D+00 0.417098335766D-04 0.225642818727D-05 0.000000000000D+00  7 1 -2 -24 -13 13 23 21 2 0.61784050D-02 0.20764613D+00 0.35225345D+05 0.35225345D+05 0.35225345D+05 0.11609207D+01  1  2  6  2  7  2       -2 0.217134513544D-02 0.100000000000D+01
-.245563532509D-05 0.000000000000D+00 -.192746365461D-05 0.225642818727D-05 0.000000000000D+00  7 1 21 -24 -13 13 23 2 2 0.61784050D-02 0.29557412D+00 0.35225345D+05 0.35225345D+05 0.35225345D+05 0.11609207D+01  1  2  5  4  7  2       -2 -.120275891729D-03 0.100000000000D+01
  </mgrwgt>
  </event>
  <event>
  8     66 0.29493621E-05 0.43784218E+03 0.75467711E-02 0.84917948E-01
        1 -1    0    0  501    0 0.00000000E+00 0.00000000E+00 0.19058790E+04 0.19058790E+04 0.32000000E+00 0.0000E+00 0.9000E+01
       -2 -1    0    0    0  501 0.00000000E+00 0.00000000E+00 -.68993255E+03 0.68993262E+03 0.32000000E+00 0.0000E+00 0.9000E+01
       25  2    1    2    0    0 -.22413419E+03 -.32266703E+03 -.57676940E+03 0.75879029E+03 0.29790873E+03 0.0000E+00 0.0000E+00
       23  2    3    3    0    0 -.20292223E+03 -.30957895E+03 -.53267948E+03 0.65448105E+03 0.87071549E+02 0.0000E+00 0.0000E+00
      -24  1    1    2    0    0 0.22413419E+03 0.32266703E+03 0.17927159E+04 0.18370214E+04 0.80419002E+02 0.0000E+00 0.9000E+01
      -11  1    4    4    0    0 -.14052171E+03 -.27491971E+03 -.42586874E+03 0.52601462E+03 0.51099893E-03 0.0000E+00 0.9000E+01
       11  1    4    4    0    0 -.62400521E+02 -.34659232E+02 -.10681074E+03 0.12846643E+03 0.51099893E-03 0.0000E+00 0.9000E+01
       23  1    3    3    0    0 -.21211965E+02 -.13088089E+02 -.44089911E+02 0.10430924E+03 0.91188000E+02 0.0000E+00 0.9000E+01
#aMCatNLO 1  0  0  2  2 0.12285530D+04 0.00000000D+00  -5  7  0 0.00000000D+00 0.00000000D+00 0.00000000D+00 0.00000000D+00 0.00000000D+00
  <mgrwgt>
 0.2766388397D-02    5    2    0
 0.114670313846333D+04 0.000000000000000D+00 0.000000000000000D+00 0.114670313846333D+04
 0.114670313846333D+04 0.000000000000000D+00 0.000000000000000D+00 -.114670313846333D+04
 0.112876423344835D+04 0.224134192167401D+03 0.322667034263660D+03 0.105512621408950D+04
 0.821166529532534D+03 -.140521706493877D+03 -.274919713296117D+03 -.760912130583904D+03
 0.202036070753225D+03 -.624005209754013D+02 -.346592320080367D+02 -.189006577938477D+03
 0.141439443192557D+03 -.212119646981220D+02 -.130880889595068D+02 -.105207505567114D+03
 0.000000000000000D+00 0.000000000000000D+00 0.000000000000000D+00 -.000000000000000D+00
 0.134975062252593D+04 0.000000000000000D+00 0.000000000000000D+00 0.134975062252593D+04
 0.902046205610081D+04 0.000000000000000D+00 0.000000000000000D+00 -.902046205610081D+04
 0.109758035386710D+04 0.173923478302602D+03 -.233826245911245D+03 0.105512621408950D+04
 0.108500749333579D+04 -.183511618740194D+03 -.751383707510633D+03 -.760912130583904D+03
 0.250693887346767D+03 -.726109324784972D+02 -.147822836982730D+03 -.189006577938477D+03
 0.168458997587718D+03 -.282010992758597D+02 -.905497724803197D+02 -.105207505567114D+03
 0.776847194648938D+04 0.110400172191949D+03 0.122358256288493D+04 -.767071143357488D+04
0.867244284429D-02 0.000000000000D+00 0.000000000000D+00 0.607938290419D-06 0.000000000000D+00  7 1 -2 -24 -11 11 23 21 0 0.29321216D+00 0.10614348D+00 0.19170578D+06 0.19170578D+06 0.19170578D+06 0.10992410D+01  1  2  2  2  7  2       -2 0.255975722589D-02 0.100000000000D+01
0.612122635691D-04 0.000000000000D+00 -.333044640287D-04 0.607938290419D-06 0.000000000000D+00  7 1 -2 -24 -11 11 23 21 2 0.29321216D+00 0.10614348D+00 0.19170578D+06 0.19170578D+06 0.19170578D+06 0.10992410D+01  1  2  3  2  7  2       -2 0.218313991275D-04 0.100000000000D+01
0.521316932104D-03 0.000000000000D+00 0.000000000000D+00 0.607938290419D-06 0.000000000000D+00  7 1 -2 -24 -11 11 23 21 2 0.29321216D+00 0.10614348D+00 0.19170578D+06 0.19170578D+06 0.19170578D+06 0.10992410D+01  1  2 15  2  7  2       -2 0.185928069852D-03 0.100000000000D+01
-.335217401030D-01 0.000000000000D+00 -.468950734511D-02 0.607938290419D-06 0.000000000000D+00  7 1 -2 -24 -11 11 23 21 2 0.29321216D+00 0.83942199D+00 0.19170578D+06 0.19170578D+06 0.19170578D+06 0.10992410D+01  1  2  5  2  7  2       -2 -.111176701953D-05 0.100000000000D+01
-.897128324984D-02 0.000000000000D+00 -.117798853402D-02 0.607938290419D-06 0.000000000000D+00  7 1 21 -24 -11 11 23 2 2 0.29321216D+00 0.83942199D+00 0.19170578D+06 0.19170578D+06 0.19170578D+06 0.10992410D+01  1  2  5  4  7  2       -2 -.165310655830D-07 0.100000000000D+01
  </mgrwgt>
  </event>
  <event>
  8     66 0.29493621E-05 0.24500280E+03 0.75467711E-02 0.99648511E-01
        1 -1    0    0  501    0 0.00000000E+00 0.00000000E+00 0.53971656E+03 0.53971665E+03 0.32000000E+00 0.0000E+00 0.9000E+01
       -2 -1    0    0    0  501 0.00000000E+00 0.00000000E+00 -.16099199E+03 0.16099231E+03 0.32000000E+00 0.0000E+00 0.9000E+01
       25  2    1    2    0    0 -.11775176E+03 -.14802157E+03 0.13219545E+03 0.37974216E+03 0.30158350E+03 0.0000E+00 0.0000E+00
       23  2    3    3    0    0 -.30993204E+02 -.54699062E+01 0.16152545E+03 0.18732718E+03 0.89501423E+02 0.0000E+00 0.0000E+00
      -24  1    1    2    0    0 0.11775176E+03 0.14802157E+03 0.24652911E+03 0.32096680E+03 0.80419002E+02 0.0000E+00 0.9000E+01
      -13  1    4    4    0    0 0.31470659E+02 -.48398333E+01 0.64513098E+02 0.71942876E+02 0.10565837E+00 0.0000E+00 0.9000E+01
       13  1    4    4    0    0 -.62463863E+02 -.63007292E+00 0.97012349E+02 0.11538431E+03 0.10565837E+00 0.0000E+00 0.9000E+01
       23  1    3    3    0    0 -.86758558E+02 -.14255167E+03 -.29329994E+02 0.19241498E+03 0.91188000E+02 0.0000E+00 0.9000E+01
#aMCatNLO 1  0  0  1  1 0.15534013D+03 0.00000000D+00  -5  7  0 0.00000000D+00 0.00000000D+00 0.00000000D+00 0.00000000D+00 0.00000000D+00
  <mgrwgt>
 0.5728266875D-03    4    2    0
 0.294771415225405D+03 0.000000000000000D+00 0.000000000000000D+00 0.294771415225405D+03
 0.294771415225405D+03 0.000000000000000D+00 0.000000000000000D+00 -.294771415225405D+03
 0.223118108090709D+03 0.117751764999884D+03 0.148021578700042D+03 0.868251592694541D+02
 0.440651540489500D+02 0.314707893120839D+02 -.483984085473734D+01 0.304615029493448D+02
 0.748204876625895D+02 -.624639947745742D+02 -.630069448837947D+00 0.411820075197813D+02
 0.247539080648561D+03 -.867585595373935D+02 -.142551668396466D+03 -.158468669738580D+03
 0.000000000000000D+00 -.000000000000000D+00 -.000000000000000D+00 -.000000000000000D+00
 0.374471958873349D+03 0.000000000000000D+00 0.000000000000000D+00 0.374471958873349D+03
 0.391459131828247D+03 0.000000000000000D+00 0.000000000000000D+00 -.391459131828247D+03
 0.275384210033532D+03 0.131318606979787D+03 0.211154119922260D+03 0.868251592694541D+02
 0.460645739958193D+02 0.339236881926268D+02 0.657458705112369D+01 0.304615029493448D+02
 0.737539591961674D+02 -.584205109842302D+02 0.181860564744543D+02 0.411820075197813D+02
 0.214462167842924D+03 -.741851015916279D+02 -.840417842802689D+02 -.158468669738580D+03
 0.156266179633153D+03 -.326366825965554D+02 -.151872979167569D+03 -.169871729548982D+02
0.149533714912D-04 0.000000000000D+00 0.000000000000D+00 0.967619761011D-07 0.000000000000D+00  7 1 -2 -24 -13 13 23 21 0 0.83033348D-01 0.24768030D-01 0.60026374D+05 0.60026374D+05 0.60026374D+05 0.11403786D+01  1  2  2  1  7  1        1 0.911567926899D-03 0.100000000000D+01
-.796199436289D-06 0.000000000000D+00 -.574248838393D-07 0.967619761011D-07 0.000000000000D+00  7 1 -2 -24 -13 13 23 21 2 0.83033348D-01 0.24768030D-01 0.60026374D+05 0.60026374D+05 0.60026374D+05 0.11403786D+01  1  2  3  1  7  1        1 -.631204242235D-04 0.100000000000D+01
0.967833306946D-06 0.000000000000D+00 0.000000000000D+00 0.967619761011D-07 0.000000000000D+00  7 1 -2 -24 -13 13 23 21 2 0.83033348D-01 0.24768030D-01 0.60026374D+05 0.60026374D+05 0.60026374D+05 0.11403786D+01  1  2 15  1  7  1        1 0.767270687817D-04 0.100000000000D+01
-.444450730488D-05 0.000000000000D+00 0.000000000000D+00 0.967619761011D-07 0.000000000000D+00  7 1 -2 -24 -13 13 23 21 2 0.83033348D-01 0.24768030D-01 0.60026374D+05 0.60026374D+05 0.60026374D+05 0.11403786D+01  1  2  4  1  7  1        1 -.352347883912D-03 0.100000000000D+01
  </mgrwgt>
  </event>
  <event>
  8     66 0.29493621E-05 0.10643922E+03 0.75467711E-02 0.10316865E+00
        1 -1    0    0  501    0 0.00000000E+00 0.00000000E+00 0.76583049E+03 0.76583055E+03 0.32000000E+00 0.0000E+00 0.9000E+01
       -2 -1    0    0    0  501 0.00000000E+00 0.00000000E+00 -.99491688E+02 0.99492202E+02 0.32000000E+00 0.0000E+00 0.9000E+01
       25  2    1    2    0    0 -.11269156E+03 0.12363874E+03 0.54258794E+03 0.64223663E+03 0.30013380E+03 0.0000E+00 0.0000E+00
       23  2    3    3    0    0 -.73699746E+02 0.15033056E+03 0.49129260E+03 0.52743560E+03 0.93749441E+02 0.0000E+00 0.0000E+00
      -24  1    1    2    0    0 0.11269156E+03 -.12363874E+03 0.12375086E+03 0.22308612E+03 0.80419002E+02 0.0000E+00 0.9000E+01
      -13  1    4    4    0    0 -.76041829E+02 0.15260468E+03 0.49437138E+03 0.52294705E+03 0.10565837E+00 0.0000E+00 0.9000E+01
       13  1    4    4    0    0 0.23420833E+01 -.22741216E+01 -.30787775E+01 0.44885429E+01 0.10565837E+00 0.0000E+00 0.9000E+01
       23  1    3    3    0    0 -.38991818E+02 -.26691822E+02 0.51295331E+02 0.11480103E+03 0.91188000E+02 0.0000E+00 0.9000E+01
#aMCatNLO 1  0  0  1  2 0.38844349D+02 0.00000000D+00  -5  7  0 0.00000000D+00 0.00000000D+00 0.00000000D+00 0.00000000D+00 0.00000000D+00
  <mgrwgt>
 0.1320576419D-02    9    2    0
 0.276032641445842D+03 0.000000000000000D+00 0.000000000000000D+00 0.276032641445842D+03
 0.276032641445842D+03 0.000000000000000D+00 0.000000000000000D+00 -.276032641445842D+03
 0.200305110102400D+03 0.112691564955318D+03 -.123638737835466D+03 -.752927278901395D+02
 0.222979612904851D+03 -.760419281590995D+02 0.152604877870494D+03 0.143698587965141D+03
 0.107512594090964D+02 0.234218235700676D+01 -.227431718445704D+01 -.102435951712615D+02
 0.118029300475335D+03 -.389918191532248D+02 -.266918228505705D+02 -.581622649037404D+02
 0.000000000000000D+00 0.000000000000000D+00 0.000000000000000D+00 0.000000000000000D+00
 0.330085257930967D+03 0.000000000000000D+00 0.000000000000000D+00 0.330085257930967D+03
 0.283783097628457D+03 0.000000000000000D+00 0.000000000000000D+00 -.283783097628457D+03
 0.202633105856755D+03 0.103840295045222D+03 -.134689115694502D+03 -.752927278901395D+02
 0.218495251408778D+03 -.857397255577926D+02 0.140497651817686D+03 0.143698587965141D+03
 0.107997106147395D+02 0.186877614992542D+01 -.286534169531230D+01 -.102435951712615D+02
 0.121502108418376D+03 -.442535616936211D+02 -.332608512339471D+02 -.581622649037404D+02
 0.604381792607760D+02 0.242842160562662D+02 0.303176568060752D+02 0.463021603025099D+02
0.110960350155D-04 0.000000000000D+00 0.000000000000D+00 0.669801262059D-06 0.000000000000D+00  7 1 -2 -24 -13 13 23 21 0 0.11782012D+00 0.15306458D-01 0.53380675D+05 0.53380675D+05 0.53380675D+05 0.11448045D+01  1  2  2  1  7  1        1 0.894728938449D-03 0.100000000000D+01
-.592721065228D-06 0.000000000000D+00 -.426116961126D-07 0.669801262059D-06 0.000000000000D+00  7 1 -2 -24 -13 13 23 21 2 0.11782012D+00 0.15306458D-01 0.53380675D+05 0.53380675D+05 0.53380675D+05 0.11448045D+01  1  2  3  1  7  1        1 -.626378224416D-04 0.100000000000D+01
0.723104403050D-06 0.000000000000D+00 0.000000000000D+00 0.669801262059D-06 0.000000000000D+00  7 1 -2 -24 -13 13 23 21 2 0.11782012D+00 0.15306458D-01 0.53380675D+05 0.53380675D+05 0.53380675D+05 0.11448045D+01  1  2 15  1  7  1        1 0.764165268659D-04 0.100000000000D+01
0.309301737924D-04 0.000000000000D+00 0.000000000000D+00 0.669801262059D-06 0.000000000000D+00  7 1 -2 -24 -13 13 23 21 2 0.14232538D+00 0.15306458D-01 0.62915805D+05 0.62915805D+05 0.62915805D+05 0.11386200D+01  1  2 12  1  7  1        1 0.239137165608D-02 0.100000000000D+01
-.314963290106D-04 0.000000000000D+00 0.000000000000D+00 0.669801262059D-06 0.000000000000D+00  7 1 -2 -24 -13 13 23 21 2 0.11782012D+00 0.15306458D-01 0.53380675D+05 0.53380675D+05 0.53380675D+05 0.11448045D+01  1  2  4  1  7  1        1 -.332848211388D-02 0.100000000000D+01
-.469188090616D-04 0.000000000000D+00 -.787148377658D-05 0.669801262059D-06 0.000000000000D+00  7 1 -2 -24 -13 13 23 21 2 0.14296929D+00 0.15306458D-01 0.53380675D+05 0.53380675D+05 0.53380675D+05 0.11448045D+01  1  2  5  1  7  1        1 -.364464469791D-02 0.100000000000D+01
0.476914116739D-04 0.000000000000D+00 0.772642840103D-05 0.669801262059D-06 0.000000000000D+00  7 1 -2 -24 -13 13 23 21 2 0.11782012D+00 0.15306458D-01 0.53380675D+05 0.53380675D+05 0.53380675D+05 0.11448045D+01  1  2  6  1  7  1        1 0.503995277319D-02 0.100000000000D+01
0.847193328306D-06 0.000000000000D+00 0.000000000000D+00 0.669801262059D-06 0.000000000000D+00  7 21 -2 -24 -13 13 23 -1 2 0.14232538D+00 0.15306458D-01 0.62915805D+05 0.62915805D+05 0.62915805D+05 0.11386200D+01  1  2 12  3  7  1        1 0.101889437881D-03 0.100000000000D+01
-.122320625706D-05 0.000000000000D+00 -.219577414484D-06 0.669801262059D-06 0.000000000000D+00  7 21 -2 -24 -13 13 23 -1 2 0.14296929D+00 0.15306458D-01 0.53380675D+05 0.53380675D+05 0.53380675D+05 0.11448045D+01  1  2  5  3  7  1        1 -.148018279030D-03 0.100000000000D+01
  </mgrwgt>
  </event>
  <event>
  8     66 0.29493621E-05 0.41194863E+03 0.75467711E-02 0.87140517E-01
        1 -1    0    0  501    0 0.00000000E+00 0.00000000E+00 0.10557538E+04 0.10557538E+04 0.32000000E+00 0.0000E+00 0.9000E+01
       -2 -1    0    0    0  501 0.00000000E+00 0.00000000E+00 -.23960181E+03 0.23960203E+03 0.32000000E+00 0.0000E+00 0.9000E+01
       25  2    1    2    0    0 -.17241584E+03 0.32212015E+03 0.93577813E+02 0.48167949E+03 0.29961593E+03 0.0000E+00 0.0000E+00
       23  2    3    3    0    0 0.50206536E+02 0.80340282E+02 0.21181926E+01 0.12855297E+03 0.86868413E+02 0.0000E+00 0.0000E+00
      -24  1    1    2    0    0 0.17241584E+03 -.32212015E+03 0.72257417E+03 0.81367639E+03 0.80419002E+02 0.0000E+00 0.9000E+01
      -11  1    4    4    0    0 -.78262268E+01 0.32722175E+02 0.33233666E+02 0.47291300E+02 0.51099893E-03 0.0000E+00 0.9000E+01
       11  1    4    4    0    0 0.58032762E+02 0.47618107E+02 -.31115473E+02 0.81261666E+02 0.51099893E-03 0.0000E+00 0.9000E+01
       23  1    3    3    0    0 -.22262237E+03 0.24177987E+03 0.91459620E+02 0.35312652E+03 0.91188000E+02 0.0000E+00 0.9000E+01
#aMCatNLO 1  0  0  2  2 0.87276543D+03 0.00000000D+00  -5  7  0 0.00000000D+00 0.00000000D+00 0.00000000D+00 0.00000000D+00 0.00000000D+00
  <mgrwgt>
 0.2021134367D-02    3    2    0
 0.502951978840966D+03 0.000000000000000D+00 0.000000000000000D+00 0.502951978840966D+03
 0.502951978840966D+03 0.000000000000000D+00 0.000000000000000D+00 -.502951978840966D+03
 0.461545196949700D+03 0.172415835910012D+03 -.322120150976267D+03 0.270311192397662D+03
 0.339349907031874D+02 -.782622679309264D+01 0.327221749455214D+02 0.442640204265117D+01
 0.129890860759538D+03 0.580327623483540D+02 0.476181074307630D+02 -.106001651155940D+03
 0.380532909269506D+03 -.222622371465273D+03 0.241779868599983D+03 -.168735943284373D+03
 0.000000000000000D+00 -.000000000000000D+00 0.000000000000000D+00 0.000000000000000D+00
 0.123116779730993D+04 0.000000000000000D+00 0.000000000000000D+00 0.123116779730993D+04
 0.100274570622662D+04 0.000000000000000D+00 0.000000000000000D+00 -.100274570622662D+04
 0.909265904468535D+03 0.552666954729213D+03 -.664671622298941D+03 0.270311192397662D+03
 0.208799718978401D+02 0.737896875537411D+01 0.190244845270146D+02 0.442640204265117D+01
 0.181724147210844D+03 0.144472064816069D+03 -.302512498833439D+02 -.106001651155940D+03
 0.219881553251660D+03 -.560726033077968D+02 0.917425240473678D+02 -.168735943284373D+03
 0.902161926707671D+03 -.648445384992858D+03 0.584155863607902D+03 0.228422091083301D+03
0.191053248190D-03 0.000000000000D+00 0.000000000000D+00 0.848408774623D-06 0.000000000000D+00  7 1 -2 -24 -11 11 23 21 0 0.16242368D+00 0.36861837D-01 0.16970167D+06 0.16970167D+06 0.16970167D+06 0.11033472D+01  1  2  2  2  7  2       -2 0.199520966632D-02 0.100000000000D+01
-.100999460169D-04 0.000000000000D+00 -.733694778525D-06 0.848408774623D-06 0.000000000000D+00  7 1 -2 -24 -11 11 23 21 2 0.16242368D+00 0.36861837D-01 0.16970167D+06 0.16970167D+06 0.16970167D+06 0.11033472D+01  1  2  3  2  7  2       -2 -.128403702056D-03 0.100000000000D+01
0.121391245490D-04 0.000000000000D+00 0.000000000000D+00 0.848408774623D-06 0.000000000000D+00  7 1 -2 -24 -11 11 23 21 2 0.16242368D+00 0.36861837D-01 0.16970167D+06 0.16970167D+06 0.16970167D+06 0.11033472D+01  1  2 15  2  7  2       -2 0.154328402271D-03 0.100000000000D+01
  </mgrwgt>
  </event>
  <event>
  8     66 0.29493621E-05 0.21820883E+03 0.75467711E-02 0.98779233E-01
        1 -1    0    0  501    0 0.00000000E+00 0.00000000E+00 0.81447243E+03 0.81447250E+03 0.32000000E+00 0.0000E+00 0.9000E+01
       -2 -1    0    0    0  501 0.00000000E+00 0.00000000E+00 -.14655065E+03 0.14655100E+03 0.32000000E+00 0.0000E+00 0.9000E+01
       25  2    1    2    0    0 -.24546389E+02 -.13795419E+03 0.64399363E+02 0.33625121E+03 0.29880380E+03 0.0000E+00 0.0000E+00
       23  2    3    3    0    0 0.31635937E+02 -.14725304E+03 0.12236002E+03 0.21411353E+03 0.90489457E+02 0.0000E+00 0.0000E+00
      -24  1    1    2    0    0 0.24546389E+02 0.13795419E+03 0.60352242E+03 0.62477229E+03 0.80419002E+02 0.0000E+00 0.9000E+01
      -13  1    4    4    0    0 -.22746947E+02 -.26550481E+02 0.17227536E+01 0.35004724E+02 0.10565837E+00 0.0000E+00 0.9000E+01
       13  1    4    4    0    0 0.54382884E+02 -.12070256E+03 0.12063726E+03 0.17910881E+03 0.10565837E+00 0.0000E+00 0.9000E+01
       23  1    3    3    0    0 -.56182326E+02 0.92988463E+01 -.57960655E+02 0.12213767E+03 0.91188000E+02 0.0000E+00 0.9000E+01
#aMCatNLO 1  0  0  2  2 0.20079079D+03 0.00000000D+00  -5  7  0 0.00000000D+00 0.00000000D+00 0.00000000D+00 0.00000000D+00 0.00000000D+00
  <mgrwgt>
 0.1590536506D-02    4    2    0
 0.345487572201011D+03 0.000000000000000D+00 0.000000000000000D+00 0.345487572201011D+03
 0.345487572201011D+03 0.000000000000000D+00 0.000000000000000D+00 -.345487572201011D+03
 0.285560310766959D+03 0.245463890577254D+02 0.137954191775016D+03 0.235464627676602D+03
 0.470199496396585D+02 -.227470518181413D+02 -.265503525905155D+02 -.314408345152943D+02
 0.132496226156602D+03 0.543829891060786D+02 -.120702685297252D+03 -.534810280958526D+01
 0.225898657838803D+03 -.561823263456627D+02 0.929884611275158D+01 -.198675690351722D+03
 0.000000000000000D+00 0.000000000000000D+00 -.000000000000000D+00 0.000000000000000D+00
 0.529132281809345D+03 0.000000000000000D+00 0.000000000000000D+00 0.529132281809345D+03
 0.419294977575406D+03 0.000000000000000D+00 0.000000000000000D+00 -.419294977575406D+03
 0.336509204823441D+03 0.153955881128052D+02 0.226032329449383D+03 0.235464627676602D+03
 0.419740667634263D+02 -.240561764561180D+02 -.139497878103778D+02 -.314408345152943D+02
 0.101456707641335D+03 0.509414818886206D+02 -.875775470354628D+02 -.534810280958526D+01
 0.239617936056467D+03 -.630301939561658D+02 0.752108280041889D+02 -.198675690351722D+03
 0.228869344100082D+03 0.207493004108580D+02 -.199715822607731D+03 0.109837304233940D+03
0.488638215532D-04 0.000000000000D+00 0.000000000000D+00 0.111348123582D-05 0.000000000000D+00  7 1 -2 -24 -13 13 23 21 0 0.12530348D+00 0.22546286D-01 0.47615093D+05 0.47615093D+05 0.47615093D+05 0.11491671D+01  1  2  2  2  7  2       -2 0.191056699238D-02 0.100000000000D+01
-.201774903863D-05 0.000000000000D+00 -.187649940904D-06 0.111348123582D-05 0.000000000000D+00  7 1 -2 -24 -13 13 23 21 2 0.12530348D+00 0.22546286D-01 0.47615093D+05 0.47615093D+05 0.47615093D+05 0.11491671D+01  1  2  3  2  7  2       -2 -.104185749988D-03 0.100000000000D+01
0.302257911413D-05 0.000000000000D+00 0.000000000000D+00 0.111348123582D-05 0.000000000000D+00  7 1 -2 -24 -13 13 23 21 2 0.12530348D+00 0.22546286D-01 0.47615093D+05 0.47615093D+05 0.47615093D+05 0.11491671D+01  1  2 15  2  7  2       -2 0.156069791572D-03 0.100000000000D+01
-.720281018013D-05 0.000000000000D+00 0.000000000000D+00 0.111348123582D-05 0.000000000000D+00  7 1 -2 -24 -13 13 23 21 2 0.12530348D+00 0.22546286D-01 0.47615093D+05 0.47615093D+05 0.47615093D+05 0.11491671D+01  1  2  4  2  7  2       -2 -.371914527660D-03 0.100000000000D+01
  </mgrwgt>
  </event>
  <event>
  8     66 0.29493621E-05 0.20479317E+03 0.75467711E-02 0.10571920E+00
        1 -1    0    0  501    0 0.00000000E+00 0.00000000E+00 0.19007852E+04 0.19007852E+04 0.32000000E+00 0.0000E+00 0.9000E+01
       -2 -1    0    0    0  501 0.00000000E+00 0.00000000E+00 -.24563186E+02 0.24565270E+02 0.32000000E+00 0.0000E+00 0.9000E+01
       25  2    1    2    0    0 0.62183660E+02 0.45893149E+02 0.15458972E+04 0.15767035E+04 0.30037139E+03 0.0000E+00 0.0000E+00
       23  2    3    3    0    0 0.52872406E+02 -.88920660E+02 0.54288435E+03 0.56052863E+03 0.93629857E+02 0.0000E+00 0.0000E+00
      -24  1    1    2    0    0 -.62183660E+02 -.45893149E+02 0.33032483E+03 0.34864696E+03 0.80419002E+02 0.0000E+00 0.9000E+01
      -13  1    4    4    0    0 0.29645068E+02 0.11617695E+02 0.19782841E+03 0.20037438E+03 0.10565837E+00 0.0000E+00 0.9000E+01
       13  1    4    4    0    0 0.23227338E+02 -.10053835E+03 0.34505594E+03 0.36015425E+03 0.10565837E+00 0.0000E+00 0.9000E+01
       23  1    3    3    0    0 0.93112537E+01 0.13481381E+03 0.10030128E+04 0.10161749E+04 0.91188000E+02 0.0000E+00 0.9000E+01
#aMCatNLO 1  0  0  1  2 0.77489263D+01 0.00000000D+00  -5  7  0 0.00000000D+00 0.00000000D+00 0.00000000D+00 0.00000000D+00 0.00000000D+00
  <mgrwgt>
 0.8021054373D-03    6    2    0
 0.216081864097607D+03 0.000000000000000D+00 0.000000000000000D+00 0.216081864097607D+03
 0.216081864097607D+03 0.000000000000000D+00 0.000000000000000D+00 -.216081864097607D+03
 0.119179074128045D+03 -.621836750572559D+02 -.458931602045566D+02 -.419933823174568D+02
 0.338317345299588D+02 0.296450718891706D+02 0.116178249728127D+02 0.114360009134576D+02
 0.106491223618894D+03 0.232273384517379D+02 -.100538481638677D+03 -.263227119819977D+02
 0.172661695918316D+03 0.931126471634748D+01 0.134813816870421D+03 0.568800933859969D+02
 0.000000000000000D+00 0.000000000000000D+00 0.000000000000000D+00 -.000000000000000D+00
 0.217500325161430D+03 0.000000000000000D+00 0.000000000000000D+00 0.217500325161430D+03
 0.226965161020132D+03 0.000000000000000D+00 0.000000000000000D+00 -.226965161020132D+03
 0.120410219292766D+03 -.630767218915277D+02 -.478465040804460D+02 -.419933823174568D+02
 0.334267035488195D+02 0.293943723092907D+02 0.110694746845036D+02 0.114360009134576D+02
 0.107974660557900D+03 0.224279367915519D+02 -.102286997256643D+03 -.263227119819977D+02
 0.170421610405143D+03 0.803245356318996D+01 0.132016698243964D+03 0.568800933859969D+02
 0.122322923769335D+02 0.322195922749519D+01 0.704732840862139D+01 -.946483585870251D+01
0.128063964525D-04 0.000000000000D+00 0.000000000000D+00 0.197952003181D-06 0.000000000000D+00  7 1 -2 -24 -13 13 23 21 0 0.29242865D+00 0.37791141D-02 0.41940242D+05 0.41940242D+05 0.41940242D+05 0.11540713D+01  1  2  2  1  7  1        1 0.138754455159D-02 0.100000000000D+01
-.708975976249D-06 0.000000000000D+00 -.491799343790D-07 0.197952003181D-06 0.000000000000D+00  7 1 -2 -24 -13 13 23 21 2 0.29242865D+00 0.37791141D-02 0.41940242D+05 0.41940242D+05 0.41940242D+05 0.11540713D+01  1  2  3  1  7  1        1 -.102309694230D-03 0.100000000000D+01
0.837501657792D-06 0.000000000000D+00 0.000000000000D+00 0.197952003181D-06 0.000000000000D+00  7 1 -2 -24 -13 13 23 21 2 0.29242865D+00 0.37791141D-02 0.41940242D+05 0.41940242D+05 0.41940242D+05 0.11540713D+01  1  2 15  1  7  1        1 0.120856758756D-03 0.100000000000D+01
-.424723969175D-05 0.000000000000D+00 0.000000000000D+00 0.197952003181D-06 0.000000000000D+00  7 1 -2 -24 -13 13 23 21 2 0.29242865D+00 0.37791141D-02 0.41940242D+05 0.41940242D+05 0.41940242D+05 0.11540713D+01  1  2  4  1  7  1        1 -.612903411033D-03 0.100000000000D+01
0.667975402968D-07 0.000000000000D+00 0.000000000000D+00 0.197952003181D-06 0.233831054845D-07  7 1 -2 -24 -13 13 23 21 2 0.29434829D+00 0.39694550D-02 0.43550465D+05 0.43550465D+05 0.43550465D+05 0.11526086D+01  1  2 11  1  7  1        1 0.877687048638D-05 0.100000000000D+01
0.179047745783D-08 0.000000000000D+00 0.000000000000D+00 0.197952003181D-06 0.290258267461D-10  7 21 -2 -24 -13 13 23 -1 2 0.29434829D+00 0.39694550D-02 0.43550465D+05 0.43550465D+05 0.43550465D+05 0.11526086D+01  1  2 11  3  7  1        1 0.140361755163D-06 0.100000000000D+01
  </mgrwgt>
  </event>
  <event>
  8     66 0.29493621E-05 0.17734685E+03 0.75467711E-02 0.89988515E-01
        1 -1    0    0  501    0 0.00000000E+00 0.00000000E+00 0.79575664E+03 0.79575670E+03 0.32000000E+00 0.0000E+00 0.9000E+01
       -2 -1    0    0    0  501 0.00000000E+00 0.00000000E+00 -.17266501E+03 0.17266530E+03 0.32000000E+00 0.0000E+00 0.9000E+01
       25  2    1    2    0    0 -.87114232E+02 0.23368783E+02 -.19357342E+02 0.31470732E+03 0.30088370E+03 0.0000E+00 0.0000E+00
       23  2    3    3    0    0 -.12533881E+03 -.12930115E+01 0.79093887E+02 0.17301322E+03 0.89253802E+02 0.0000E+00 0.0000E+00
      -24  1    1    2    0    0 0.87114232E+02 -.23368783E+02 0.64244897E+03 0.65371468E+03 0.80419002E+02 0.0000E+00 0.9000E+01
      -13  1    4    4    0    0 -.44144527E+02 0.19307980E+02 -.11594163E+02 0.49557776E+02 0.10565837E+00 0.0000E+00 0.9000E+01
       13  1    4    4    0    0 -.81194287E+02 -.20600992E+02 0.90688050E+02 0.12345544E+03 0.10565837E+00 0.0000E+00 0.9000E+01
       23  1    3    3    0    0 0.38224582E+02 0.24661795E+02 -.98451229E+02 0.14169410E+03 0.91188000E+02 0.0000E+00 0.9000E+01
#aMCatNLO 1  0  0  2  2 0.74645158D+03 0.00000000D+00  -5  7  0 0.00000000D+00 0.00000000D+00 0.00000000D+00 0.00000000D+00 0.00000000D+00
  <mgrwgt>
 0.1109200080D-02    5    2    0
 0.370674385946609D+03 0.000000000000000D+00 0.000000000000000D+00 0.370674385946609D+03
 0.370674385946609D+03 0.000000000000000D+00 0.000000000000000D+00 -.370674385946609D+03
 0.313977869365171D+03 0.871142316618082D+02 -.233687831435236D+02 0.289792852073831D+03
 0.744818871742368D+02 -.441444746478066D+02 0.193080362380532D+02 -.567980335199638D+02
 0.850477085376453D+02 -.811943380697186D+02 -.206010476573135D+02 0.147033679252618D+02
 0.267841306816166D+03 0.382245810557170D+02 0.246617945627839D+02 -.247698186479129D+03
 0.000000000000000D+00 0.000000000000000D+00 -.000000000000000D+00 -.000000000000000D+00
 0.600239236543615D+03 0.000000000000000D+00 0.000000000000000D+00 0.600239236543615D+03
 0.240285681830301D+04 0.000000000000000D+00 0.000000000000000D+00 -.240285681830301D+04
 0.356307590389621D+03 -.164378364297563D+03 0.974050268346551D+02 0.289792852073831D+03
 0.154179999905498D+03 -.129938923478143D+03 0.605089408638560D+02 -.567980335199638D+02
 0.185406573587386D+03 -.182669386513757D+03 0.281301214316036D+02 0.147033679252618D+02
 0.356145740062155D+03 -.195896747373306D+03 0.137093433846883D+03 -.247698186479129D+03
 0.195105615090197D+04 0.672883421662769D+03 -.323137522976998D+03 -.180261758175940D+04
0.333369067724D-04 0.000000000000D+00 0.000000000000D+00 0.785652267747D-06 0.000000000000D+00  7 1 -2 -24 -13 13 23 21 0 0.12242413D+00 0.26563875D-01 0.31451906D+05 0.31451906D+05 0.31451906D+05 0.11654363D+01  1  2  2  2  7  2       -2 0.103179048084D-02 0.100000000000D+01
-.628210829255D-06 0.000000000000D+00 -.128022499815D-06 0.785652267747D-06 0.000000000000D+00  7 1 -2 -24 -13 13 23 21 2 0.12242413D+00 0.26563875D-01 0.31451906D+05 0.31451906D+05 0.31451906D+05 0.11654363D+01  1  2  3  2  7  2       -2 -.264088024300D-04 0.100000000000D+01
0.205279812357D-05 0.000000000000D+00 0.000000000000D+00 0.785652267747D-06 0.000000000000D+00  7 1 -2 -24 -13 13 23 21 2 0.12242413D+00 0.26563875D-01 0.31451906D+05 0.31451906D+05 0.31451906D+05 0.11654363D+01  1  2 15  2  7  2       -2 0.862957745225D-04 0.100000000000D+01
0.253009088256D-04 0.000000000000D+00 -.211773710796D-04 0.785652267747D-06 0.000000000000D+00  7 1 -2 -24 -13 13 23 21 2 0.12242413D+00 0.23007403D+00 0.31451906D+05 0.31451906D+05 0.31451906D+05 0.11654363D+01  1  2  5  2  7  2       -2 0.784074372097D-05 0.100000000000D+01
0.374706370041D-05 0.000000000000D+00 -.551625952266D-05 0.785652267747D-06 0.000000000000D+00  7 1 21 -24 -13 13 23 2 2 0.12242413D+00 0.23007403D+00 0.31451906D+05 0.31451906D+05 0.31451906D+05 0.11654363D+01  1  2  5  4  7  2       -2 0.968188384710D-05 0.100000000000D+01
  </mgrwgt>
  </event>
  <event>
  9     66 0.29493621E-05 0.20073116E+03 0.75467711E-02 0.10557795E+00
        1 -1    0    0  501    0 0.00000000E+00 0.00000000E+00 0.51002917E+03 0.51002927E+03 0.32000000E+00 0.0000E+00 0.9000E+01
       -2 -1    0    0    0  502 0.00000000E+00 0.00000000E+00 -.13600083E+03 0.13600121E+03 0.32000000E+00 0.0000E+00 0.9000E+01
       25  2    1    2    0    0 -.69233324E+02 0.25167155E+02 0.37849574E+03 0.48902152E+03 0.30075968E+03 0.0000E+00 0.0000E+00
       23  2    3    3    0    0 -.15012118E+03 0.39378421E+02 0.27614973E+03 0.32922552E+03 0.89686910E+02 0.0000E+00 0.0000E+00
      -24  1    1    2    0    0 0.88998766E+02 -.20511230E+02 -.29054716E+02 0.12511148E+03 0.80419002E+02 0.0000E+00 0.9000E+01
      -11  1    4    4    0    0 -.35615126E+02 -.38608706E+00 0.15042545E+03 0.15458462E+03 0.51099893E-03 0.0000E+00 0.9000E+01
       11  1    4    4    0    0 -.11450605E+03 0.39764508E+02 0.12572428E+03 0.17464091E+03 0.51099893E-03 0.0000E+00 0.9000E+01
       23  1    3    3    0    0 0.80887854E+02 -.14211266E+02 0.10234601E+03 0.15979600E+03 0.91188000E+02 0.0000E+00 0.9000E+01
       21  1    1    2  501  502 -.19765442E+02 -.46559245E+01 0.24587311E+02 0.31897472E+02 0.75000000E+00 0.0000E+00 0.9000E+01
#aMCatNLO 2  0  0  2  2 0.20306411D+02 0.00000000D+00  -5  7  0 0.00000000D+00 0.00000000D+00 0.00000000D+00 0.00000000D+00 0.00000000D+00
  <mgrwgt>
 0.6195370816D-03    2    2    0
 0.252308327920018D+03 0.000000000000000D+00 0.000000000000000D+00 0.252308327920018D+03
 0.252308327920018D+03 0.000000000000000D+00 0.000000000000000D+00 -.252308327920018D+03
 0.169087562405325D+03 0.823166063735675D+02 -.220852722047307D+02 -.121899978968768D+03
 0.853646738056360D+02 -.389287323920917D+02 -.116663634120415D+01 0.759626242828336D+02
 0.129598667736422D+03 -.119497669872411D+03 0.385886884173874D+02 0.320473821137646D+02
 0.120565751892653D+03 0.761097958909349D+02 -.153367798714526D+02 0.138899725721702D+02
 0.000000000000000D+00 -.000000000000000D+00 -.000000000000000D+00 0.000000000000000D+00
 0.267308247111184D+03 0.000000000000000D+00 0.000000000000000D+00 0.267308247111184D+03
 0.259479929570949D+03 0.000000000000000D+00 0.000000000000000D+00 -.259479929570949D+03
 0.172244918003205D+03 0.889987661563310D+02 -.205112304268866D+02 -.121899978968768D+03
 0.838981915562413D+02 -.356151259334191D+02 -.386087062101518D+00 0.759626242828336D+02
 0.125378972463515D+03 -.114506051932012D+03 0.397645081272798D+02 0.320473821137646D+02
 0.123502986344147D+03 0.808878536512858D+02 -.142112661489067D+02 0.138899725721702D+02
 0.217631083150254D+02 -.197654419421857D+02 -.465592448938490D+01 0.782831754023556D+01
-.251487462146D-06 0.000000000000D+00 0.000000000000D+00 0.308389165132D-06 0.000000000000D+00  7 1 -2 -24 -11 11 23 21 2 0.74061138D-01 0.20344456D-01 0.40293000D+05 0.40293000D+05 0.40293000D+05 0.11556332D+01  1  2  8  2  7  2       -2 -.332529232772D-04 0.100000000000D+01
0.562859277341D-05 0.000000000000D+00 0.000000000000D+00 0.308389165132D-06 0.530360821483D-08  7 1 -2 -24 -11 11 23 21 2 0.78464128D-01 0.20922726D-01 0.44425712D+05 0.44425712D+05 0.44425712D+05 0.11518384D+01  1  2  1  2  7  2       -2 0.652790004884D-03 0.100000000000D+01
  </mgrwgt>
  </event>
  <event>
  8     66 0.29493621E-05 0.23249390E+03 0.75467711E-02 0.90923290E-01
        1 -1    0    0  501    0 0.00000000E+00 0.00000000E+00 0.13732483E+03 0.13732520E+03 0.32000000E+00 0.0000E+00 0.9000E+01
       -2 -1    0    0    0  501 0.00000000E+00 0.00000000E+00 -.52358404E+03 0.52358414E+03 0.32000000E+00 0.0000E+00 0.9000E+01
       25  2    1    2    0    0 -.13942741E+03 -.64743656E+02 -.15331102E+03 0.37045484E+03 0.30016791E+03 0.0000E+00 0.0000E+00
       23  2    3    3    0    0 -.58479317E+02 0.79966945E+02 -.53016549E+02 0.15628672E+03 0.10862891E+03 0.0000E+00 0.0000E+00
      -24  1    1    2    0    0 0.13942741E+03 0.64743656E+02 -.23294819E+03 0.29045451E+03 0.80419002E+02 0.0000E+00 0.9000E+01
      -13  1    4    4    0    0 -.59576009E+02 0.81137123E+02 0.25539916E+01 0.10069294E+03 0.10565837E+00 0.0000E+00 0.9000E+01
       13  1    4    4    0    0 0.10966919E+01 -.11701780E+01 -.55570541E+02 0.55593779E+02 0.10565837E+00 0.0000E+00 0.9000E+01
       23  1    3    3    0    0 -.80948092E+02 -.14471060E+03 -.10029447E+03 0.21416812E+03 0.91188000E+02 0.0000E+00 0.9000E+01
#aMCatNLO 1  0  0  2  2 0.63146613D+03 0.00000000D+00  -5  7  0 0.00000000D+00 0.00000000D+00 0.00000000D+00 0.00000000D+00 0.00000000D+00
  <mgrwgt>
 0.9126894972D-03    5    2    0
 0.268144074431770D+03 0.000000000000000D+00 0.000000000000000D+00 0.268144074431770D+03
 0.268144074431770D+03 0.000000000000000D+00 0.000000000000000D+00 -.268144074431770D+03
 0.190169615367196D+03 0.139427410027483D+03 0.647436566414184D+02 -.778814670654262D+02
 0.125931177616579D+03 -.595759267142132D+02 0.811373316966621D+02 0.756710238941361D+02
 0.284877985380327D+02 0.109673241142118D+01 -.117008717716421D+01 -.284426218826450D+02
 0.191699557341733D+03 -.809482157246909D+02 -.144710901160916D+03 0.306530650539351D+02
 0.000000000000000D+00 0.000000000000000D+00 0.000000000000000D+00 -.000000000000000D+00
 0.590358388794429D+03 0.000000000000000D+00 0.000000000000000D+00 0.590358388794429D+03
 0.980233387045184D+03 0.000000000000000D+00 0.000000000000000D+00 -.980233387045184D+03
 0.162212506866582D+03 0.791047980582319D+02 -.867328625232307D+02 -.778814670654262D+02
 0.131735371854413D+03 -.103684632294012D+03 -.296243374016870D+02 0.756710238941361D+02
 0.448105454352117D+02 -.114508609042050D+02 -.326784336710713D+02 -.284426218826450D+02
 0.489706690304967D+03 -.197594895782273D+03 -.437623168889671D+03 0.306530650539351D+02
 0.742126661378440D+03 0.233625590922258D+03 0.586658802485660D+03 -.389874998250755D+03
0.234032497455D-04 0.000000000000D+00 0.000000000000D+00 0.133107833542D-07 0.000000000000D+00  7 1 -2 -24 -13 13 23 21 0 0.21126933D-01 0.80551428D-01 0.54053413D+05 0.54053413D+05 0.54053413D+05 0.11443295D+01  1  2  2  2  7  2       -2 0.896872339988D-03 0.100000000000D+01
-.126800748611D-05 0.000000000000D+00 -.898746412399D-07 0.133107833542D-07 0.000000000000D+00  7 1 -2 -24 -13 13 23 21 2 0.21126933D-01 0.80551428D-01 0.54053413D+05 0.54053413D+05 0.54053413D+05 0.11443295D+01  1  2  3  2  7  2       -2 -.636324282387D-04 0.100000000000D+01
0.149527864579D-05 0.000000000000D+00 0.000000000000D+00 0.133107833542D-07 0.000000000000D+00  7 1 -2 -24 -13 13 23 21 2 0.21126933D-01 0.80551428D-01 0.54053413D+05 0.54053413D+05 0.54053413D+05 0.11443295D+01  1  2 15  2  7  2       -2 0.750375783799D-04 0.100000000000D+01
0.139342884300D-04 0.000000000000D+00 -.971786982725D-05 0.133107833542D-07 0.000000000000D+00  7 1 -2 -24 -13 13 23 21 2 0.21126933D-01 0.43605347D+00 0.54053413D+05 0.54053413D+05 0.54053413D+05 0.11443295D+01  1  2  5  2  7  2       -2 0.177869219415D-05 0.100000000000D+01
0.245368125833D-05 0.000000000000D+00 -.200761327485D-05 0.133107833542D-07 0.000000000000D+00  7 1 21 -24 -13 13 23 2 2 0.21126933D-01 0.43605347D+00 0.54053413D+05 0.54053413D+05 0.54053413D+05 0.11443295D+01  1  2  5  4  7  2       -2 0.263331490705D-05 0.100000000000D+01
  </mgrwgt>
  </event>
  <event>
  8     66 0.29493621E-05 0.31138677E+03 0.75467711E-02 0.95118748E-01
        1 -1    0    0  501    0 0.00000000E+00 0.00000000E+00 0.11041582E+04 0.11041583E+04 0.32000000E+00 0.0000E+00 0.9000E+01
       -2 -1    0    0    0  501 0.00000000E+00 0.00000000E+00 -.24268743E+03 0.24268764E+03 0.32000000E+00 0.0000E+00 0.9000E+01
       25  2    1    2    0    0 0.10527348E+03 -.44330314E+03 0.61901781E+03 0.82449465E+03 0.29834242E+03 0.0000E+00 0.0000E+00
       23  2    3    3    0    0 0.25748204E+02 -.95579625E+02 0.44890014E+02 0.14245807E+03 0.92091013E+02 0.0000E+00 0.0000E+00
      -24  1    1    2    0    0 -.10527348E+03 0.44330314E+03 0.24245298E+03 0.52235127E+03 0.80419002E+02 0.0000E+00 0.9000E+01
      -11  1    4    4    0    0 0.35943391E+02 -.10101813E+03 0.12354493E+02 0.10793157E+03 0.51099893E-03 0.0000E+00 0.9000E+01
       11  1    4    4    0    0 -.10195187E+02 0.54385093E+01 0.32535520E+02 0.34526501E+02 0.51099893E-03 0.0000E+00 0.9000E+01
       23  1    3    3    0    0 0.79525272E+02 -.34772352E+03 0.57412780E+03 0.68203658E+03 0.91188000E+02 0.0000E+00 0.9000E+01
#aMCatNLO 1  0  0  1  2 0.82857911D+01 0.00000000D+00  -5  7  0 0.00000000D+00 0.00000000D+00 0.00000000D+00 0.00000000D+00 0.00000000D+00
  <mgrwgt>
 0.2076111038D-02   11    2    0
 0.517653838673344D+03 0.000000000000000D+00 0.000000000000000D+00 0.517653838673344D+03
 0.517653838673344D+03 0.000000000000000D+00 0.000000000000000D+00 -.517653838673344D+03
 0.477790818379985D+03 -.105273475678521D+03 0.443303140235046D+03 -.119233683790095D+03
 0.130129588112063D+03 0.359433907868616D+02 -.101018133941142D+03 -.737368223888681D+02
 0.178434654433540D+02 -.101951866929686D+02 0.543850931854762D+01 0.135966923814491D+02
 0.409543805411286D+03 0.795252715846283D+02 -.347723515612451D+03 0.179373813797514D+03
 0.000000000000000D+00 0.000000000000000D+00 -.000000000000000D+00 0.000000000000000D+00
 0.531970719891379D+03 0.000000000000000D+00 0.000000000000000D+00 0.531970719891379D+03
 0.518870641797361D+03 0.000000000000000D+00 0.000000000000000D+00 -.518870641797361D+03
 0.480753806028412D+03 -.108186792391385D+03 0.445798107508702D+03 -.119233683790095D+03
 0.129389383035440D+03 0.351546315192208D+02 -.100342639735220D+03 -.737368223888681D+02
 0.179343225159098D+02 -.103039265731545D+02 0.553163425797051D+01 0.135966923814491D+02
 0.407263321724480D+03 0.770427394269420D+02 -.345597472651905D+03 0.179373813797514D+03
 0.155005283844990D+02 0.629334801837697D+01 -.538962937954738D+01 0.131000780940179D+02
0.581693603072D-04 0.000000000000D+00 0.000000000000D+00 0.796563812951D-06 0.000000000000D+00  7 1 -2 -24 -11 11 23 21 0 0.16987052D+00 0.37336548D-01 0.22544649D+06 0.22544649D+06 0.22544649D+06 0.10938528D+01  1  2  2  1  7  1        1 0.541694966377D-03 0.100000000000D+01
-.320230822236D-05 0.000000000000D+00 -.223385659924D-06 0.796563812951D-06 0.000000000000D+00  7 1 -2 -24 -11 11 23 21 2 0.16987052D+00 0.37336548D-01 0.22544649D+06 0.22544649D+06 0.22544649D+06 0.10938528D+01  1  2  3  1  7  1        1 -.356813618363D-04 0.100000000000D+01
0.366767426749D-05 0.000000000000D+00 0.000000000000D+00 0.796563812951D-06 0.000000000000D+00  7 1 -2 -24 -11 11 23 21 2 0.16987052D+00 0.37336548D-01 0.22544649D+06 0.22544649D+06 0.22544649D+06 0.10938528D+01  1  2 15  1  7  1        1 0.408666510370D-04 0.100000000000D+01
0.228254590508D-03 0.000000000000D+00 0.000000000000D+00 0.796563812951D-06 0.000000000000D+00  7 1 -2 -24 -11 11 23 21 2 0.17476522D+00 0.37336548D-01 0.22928339D+06 0.22928339D+06 0.22928339D+06 0.10932966D+01  1  2 12  1  7  1        1 0.240773502325D-02 0.100000000000D+01
-.236158467320D-03 0.000000000000D+00 0.000000000000D+00 0.796563812951D-06 0.000000000000D+00  7 1 -2 -24 -11 11 23 21 2 0.16987052D+00 0.37336548D-01 0.22544649D+06 0.22544649D+06 0.22544649D+06 0.10938528D+01  1  2  4  1  7  1        1 -.263136935549D-02 0.100000000000D+01
-.301562345382D-02 0.000000000000D+00 -.239905491992D-03 0.796563812951D-06 0.000000000000D+00  7 1 -2 -24 -11 11 23 21 2 0.17475639D+00 0.37336548D-01 0.22544649D+06 0.22544649D+06 0.22544649D+06 0.10938528D+01  1  2  5  1  7  1        1 -.318635172230D-01 0.100000000000D+01
0.302130796512D-02 0.000000000000D+00 0.239809071557D-03 0.796563812951D-06 0.000000000000D+00  7 1 -2 -24 -11 11 23 21 2 0.16987052D+00 0.37336548D-01 0.22544649D+06 0.22544649D+06 0.22544649D+06 0.10938528D+01  1  2  6  1  7  1        1 0.336645866783D-01 0.100000000000D+01
0.376005414544D-05 0.000000000000D+00 0.000000000000D+00 0.796563812951D-06 0.740005007629D-07  7 1 -2 -24 -11 11 23 21 2 0.17456867D+00 0.37424311D-01 0.22928339D+06 0.22928339D+06 0.22928339D+06 0.10932966D+01  1  2 11  1  7  1        1 0.395750783036D-04 0.100000000000D+01
0.802133434360D-05 0.000000000000D+00 0.000000000000D+00 0.796563812951D-06 0.000000000000D+00  7 21 -2 -24 -11 11 23 -1 2 0.17476522D+00 0.37336548D-01 0.22928339D+06 0.22928339D+06 0.22928339D+06 0.10932966D+01  1  2 12  3  7  1        1 0.964550841418D-04 0.100000000000D+01
-.153031433414D-04 0.000000000000D+00 -.122298226880D-05 0.796563812951D-06 0.000000000000D+00  7 21 -2 -24 -11 11 23 -1 2 0.17475639D+00 0.37336548D-01 0.22544649D+06 0.22544649D+06 0.22544649D+06 0.10938528D+01  1  2  5  3  7  1        1 -.184461755915D-03 0.100000000000D+01
0.189128675556D-07 0.000000000000D+00 0.000000000000D+00 0.796563812951D-06 0.363054367150D-09  7 21 -2 -24 -11 11 23 -1 2 0.17456867D+00 0.37424311D-01 0.22928339D+06 0.22928339D+06 0.22928339D+06 0.10932966D+01  1  2 11  3  7  1        1 0.227253249856D-06 0.100000000000D+01
  </mgrwgt>
  </event>
  <event>
  8     66 0.29493621E-05 0.34461397E+03 0.75467711E-02 0.94462924E-01
        1 -1    0    0  501    0 0.00000000E+00 0.00000000E+00 0.13766584E+04 0.13766585E+04 0.32000000E+00 0.0000E+00 0.9000E+01
       -2 -1    0    0    0  501 0.00000000E+00 0.00000000E+00 -.88782177E+02 0.88782754E+02 0.32000000E+00 0.0000E+00 0.9000E+01
       25  2    1    2    0    0 0.24613725E+03 0.11608480E+03 0.63651013E+03 0.75494543E+03 0.30122786E+03 0.0000E+00 0.0000E+00
       23  2    3    3    0    0 0.27580539E+03 0.93810336E+02 0.49414377E+03 0.58185649E+03 0.97518793E+02 0.0000E+00 0.0000E+00
      -24  1    1    2    0    0 -.24613725E+03 -.11608480E+03 0.65136612E+03 0.71049579E+03 0.80419002E+02 0.0000E+00 0.9000E+01
      -11  1    4    4    0    0 0.58136535E+01 0.28694091E+02 0.41190998E+02 0.50535608E+02 0.51099893E-03 0.0000E+00 0.9000E+01
       11  1    4    4    0    0 0.26999173E+03 0.65116244E+02 0.45295278E+03 0.53132088E+03 0.51099893E-03 0.0000E+00 0.9000E+01
       23  1    3    3    0    0 -.29668134E+02 0.22274465E+02 0.14236635E+03 0.17308894E+03 0.91188000E+02 0.0000E+00 0.9000E+01
#aMCatNLO 1  0  0  2  2 0.27303541D+03 0.00000000D+00  -5  7  0 0.00000000D+00 0.00000000D+00 0.00000000D+00 0.00000000D+00 0.00000000D+00
  <mgrwgt>
 0.1711488165D-02    3    2    0
 0.349604321123664D+03 0.000000000000000D+00 0.000000000000000D+00 0.349604321123664D+03
 0.349604321123664D+03 0.000000000000000D+00 0.000000000000000D+00 -.349604321123664D+03
 0.289342615980251D+03 -.246137252162021D+03 -.116084800770776D+03 0.565040316797222D+02
 0.300454753479481D+02 0.581365353524618D+01 0.286940912178132D+02 -.675138138754517D+01
 0.279276289862968D+03 0.269991732742152D+03 0.651162443937104D+02 -.293186808463994D+02
 0.100544261056162D+03 -.296681341153771D+02 0.222744651592523D+02 -.204339694457776D+02
 0.000000000000000D+00 0.000000000000000D+00 0.000000000000000D+00 0.000000000000000D+00
 0.586741614170734D+03 0.000000000000000D+00 0.000000000000000D+00 0.586741614170734D+03
 0.463462139515159D+03 0.000000000000000D+00 0.000000000000000D+00 -.463462139515159D+03
 0.374725273629613D+03 -.271823283733966D+03 -.238476857507051D+03 0.565040316797222D+02
 0.208227591236804D+02 0.384607898889225D+01 0.193187427979651D+02 -.675138138754517D+01
 0.253274036371866D+03 0.249392777865184D+03 -.330362649555196D+02 -.293186808463994D+02
 0.101805042635047D+03 -.374949703236856D+02 -.150198353865401D+02 -.204339694457776D+02
 0.299576641925686D+03 0.560793972035759D+02 0.267214215051146D+03 0.123279474655575D+03
0.502000166792D-04 0.000000000000D+00 0.000000000000D+00 0.369743790245D-07 0.000000000000D+00  7 1 -2 -24 -11 11 23 21 0 0.21179365D+00 0.13658844D-01 0.11875879D+06 0.11875879D+06 0.11875879D+06 0.11156459D+01  1  2  2  2  7  2       -2 0.169266222694D-02 0.100000000000D+01
-.278818891212D-05 0.000000000000D+00 -.192781282016D-06 0.369743790245D-07 0.000000000000D+00  7 1 -2 -24 -11 11 23 21 2 0.21179365D+00 0.13658844D-01 0.11875879D+06 0.11875879D+06 0.11875879D+06 0.11156459D+01  1  2  3  2  7  2       -2 -.117014952997D-03 0.100000000000D+01
0.323676638386D-05 0.000000000000D+00 0.000000000000D+00 0.369743790245D-07 0.000000000000D+00  7 1 -2 -24 -11 11 23 21 2 0.21179365D+00 0.13658844D-01 0.11875879D+06 0.11875879D+06 0.11875879D+06 0.11156459D+01  1  2 15  2  7  2       -2 0.135840891061D-03 0.100000000000D+01
  </mgrwgt>
  </event>
  <event>
  8     66 0.29493621E-05 0.29224089E+03 0.75467711E-02 0.10011286E+00
        1 -1    0    0  501    0 0.00000000E+00 0.00000000E+00 0.31232138E+03 0.31232154E+03 0.32000000E+00 0.0000E+00 0.9000E+01
       -2 -1    0    0    0  501 0.00000000E+00 0.00000000E+00 -.40528757E+03 0.40528770E+03 0.32000000E+00 0.0000E+00 0.9000E+01
       25  2    1    2    0    0 0.21068055E+03 0.10675665E+03 0.10873134E+03 0.39677846E+03 0.29971214E+03 0.0000E+00 0.0000E+00
       23  2    3    3    0    0 0.23455250E+02 -.39767519E+02 -.26775304E+02 0.10833445E+03 0.94275303E+02 0.0000E+00 0.0000E+00
      -24  1    1    2    0    0 -.21068055E+03 -.10675665E+03 -.20169753E+03 0.32083078E+03 0.80419002E+02 0.0000E+00 0.9000E+01
      -13  1    4    4    0    0 -.15574585E+02 -.38238373E+02 0.21245381E+02 0.46434021E+02 0.10565837E+00 0.0000E+00 0.9000E+01
       13  1    4    4    0    0 0.39029835E+02 -.15291459E+01 -.48020685E+02 0.61900433E+02 0.10565837E+00 0.0000E+00 0.9000E+01
       23  1    3    3    0    0 0.18722531E+03 0.14652416E+03 0.13550664E+03 0.28844401E+03 0.91188000E+02 0.0000E+00 0.9000E+01
#aMCatNLO 1  0  0  1  1 0.47913995D+02 0.00000000D+00  -5  7  0 0.00000000D+00 0.00000000D+00 0.00000000D+00 0.00000000D+00 0.00000000D+00
  <mgrwgt>
 0.3387548758D-03    4    2    0
 0.355780941475611D+03 0.000000000000000D+00 0.000000000000000D+00 0.355780941475611D+03
 0.355780941475611D+03 0.000000000000000D+00 0.000000000000000D+00 -.355780941475611D+03
 0.297205465272539D+03 -.210680554676734D+03 -.106756645117070D+03 -.161494876816410D+03
 0.496043680578929D+02 -.155746534108611D+02 -.382384191652562D+02 0.274926681370985D+02
 0.561525680180747D+02 0.390299005441730D+02 -.152910186698203D+01 -.403415369813404D+02
 0.308599481602716D+03 0.187225307543422D+03 0.146524166149308D+03 0.174343745660652D+03
 0.000000000000000D+00 0.000000000000000D+00 -.000000000000000D+00 -.000000000000000D+00
 0.369967454106218D+03 0.000000000000000D+00 0.000000000000000D+00 0.369967454106218D+03
 0.399479134201079D+03 0.000000000000000D+00 0.000000000000000D+00 -.399479134201079D+03
 0.309425749256083D+03 -.230234422051159D+03 -.100938565539337D+03 -.161494876816410D+03
 0.499875830113469D+02 -.187848538689457D+02 -.372832525290113D+02 0.274926681370985D+02
 0.537313711974262D+02 0.354879529448083D+02 -.475226815123268D+00 -.403415369813404D+02
 0.300028532301376D+03 0.167607076270097D+03 0.152361396633537D+03 0.174343745660652D+03
 0.562733525410648D+02 0.459242467051998D+02 -.136643517500649D+02 -.295116800948608D+02
0.305721318996D-04 0.000000000000D+00 0.000000000000D+00 0.563599033527D-06 0.000000000000D+00  7 1 -2 -24 -13 13 23 21 0 0.48049465D-01 0.62351957D-01 0.85404737D+05 0.85404737D+05 0.85404737D+05 0.11273885D+01  1  2  2  1  7  1        1 0.696146828688D-03 0.100000000000D+01
-.161852249792D-05 0.000000000000D+00 -.117405036322D-06 0.563599033527D-06 0.000000000000D+00  7 1 -2 -24 -13 13 23 21 2 0.48049465D-01 0.62351957D-01 0.85404737D+05 0.85404737D+05 0.85404737D+05 0.11273885D+01  1  2  3  1  7  1        1 -.468426066043D-04 0.100000000000D+01
0.195489297107D-05 0.000000000000D+00 0.000000000000D+00 0.563599033527D-06 0.000000000000D+00  7 1 -2 -24 -13 13 23 21 2 0.48049465D-01 0.62351957D-01 0.85404737D+05 0.85404737D+05 0.85404737D+05 0.11273885D+01  1  2 15  1  7  1        1 0.565777012770D-04 0.100000000000D+01
-.126851050616D-04 0.000000000000D+00 0.000000000000D+00 0.563599033527D-06 0.000000000000D+00  7 1 -2 -24 -13 13 23 21 2 0.48049465D-01 0.62351957D-01 0.85404737D+05 0.85404737D+05 0.85404737D+05 0.11273885D+01  1  2  4  1  7  1        1 -.367127047601D-03 0.100000000000D+01
  </mgrwgt>
  </event>
  <event>
  8     66 0.29493621E-05 0.31809835E+03 0.75467711E-02 0.93900569E-01
        1 -1    0    0  501    0 0.00000000E+00 0.00000000E+00 0.10656391E+04 0.10656392E+04 0.32000000E+00 0.0000E+00 0.9000E+01
       -2 -1    0    0    0  501 0.00000000E+00 0.00000000E+00 -.57339396E+03 0.57339405E+03 0.32000000E+00 0.0000E+00 0.9000E+01
       25  2    1    2    0    0 -.27043291E+03 -.36432191E+03 -.37229589E+03 0.65935834E+03 0.30047426E+03 0.0000E+00 0.0000E+00
       23  2    3    3    0    0 -.30160479E+02 -.22647311E+03 -.96679661E+02 0.25809448E+03 0.71176390E+02 0.0000E+00 0.0000E+00
      -24  1    1    2    0    0 0.27043291E+03 0.36432191E+03 0.86454105E+03 0.97967487E+03 0.80419002E+02 0.0000E+00 0.9000E+01
      -11  1    4    4    0    0 0.83936811E+01 -.16262366E+03 -.51037652E+02 0.17065096E+03 0.51099893E-03 0.0000E+00 0.9000E+01
       11  1    4    4    0    0 -.38554160E+02 -.63849448E+02 -.45642009E+02 0.87443515E+02 0.51099893E-03 0.0000E+00 0.9000E+01
       23  1    3    3    0    0 -.24027243E+03 -.13784881E+03 -.27561623E+03 0.40126387E+03 0.91188000E+02 0.0000E+00 0.9000E+01
#aMCatNLO 1  0  0  2  1 0.71758033D+02 0.00000000D+00  -5  7  0 0.00000000D+00 0.00000000D+00 0.00000000D+00 0.00000000D+00 0.00000000D+00
  <mgrwgt>
 0.4941209238D-02    9    2    0
 0.781684812920349D+03 0.000000000000000D+00 0.000000000000000D+00 0.781684812920349D+03
 0.781684812920349D+03 0.000000000000000D+00 0.000000000000000D+00 -.781684812920349D+03
 0.754878112060769D+03 0.270432906558295D+03 0.364321914168761D+03 0.597920842604524D+03
 0.194979886012698D+03 0.839368112673971D+01 -.162623660423128D+03 -.107239205224818D+03
 0.106046504024343D+03 -.385541598681541D+02 -.638494483940375D+02 -.753835904718190D+02
 0.507465123742889D+03 -.240272427816881D+03 -.137848805351596D+03 -.415298046907887D+03
 0.000000000000000D+00 0.000000000000000D+00 -.000000000000000D+00 -.000000000000000D+00
 0.796892498494523D+03 0.000000000000000D+00 0.000000000000000D+00 0.796892498494523D+03
 0.871998963308184D+03 0.000000000000000D+00 0.000000000000000D+00 -.871998963308184D+03
 0.753805952769403D+03 0.240908652966224D+03 0.382374012429340D+03 0.597920842604524D+03
 0.190962690857921D+03 0.840962318916873D+00 -.158005680103044D+03 -.107239205224818D+03
 0.106139141572024D+03 -.427065354086816D+02 -.613105496192161D+02 -.753835904718190D+02
 0.514107806521616D+03 -.260264140435201D+03 -.125625215703250D+03 -.415298046907887D+03
 0.103875870081742D+03 0.612210605587416D+02 -.374325670038296D+02 -.751064648136611D+02
0.211440884169D-02 0.000000000000D+00 0.000000000000D+00 0.986755116841D-07 0.000000000000D+00  7 1 -2 -24 -11 11 23 21 0 0.16394449D+00 0.88214466D-01 0.24495172D+06 0.24495172D+06 0.24495172D+06 0.10911262D+01  1  2  2  2  7  2       -2 0.356745586391D-02 0.100000000000D+01
-.876330648582D-04 0.000000000000D+00 -.811988668874D-05 0.986755116841D-07 0.000000000000D+00  7 1 -2 -24 -11 11 23 21 2 0.16394449D+00 0.88214466D-01 0.24495172D+06 0.24495172D+06 0.24495172D+06 0.10911262D+01  1  2  3  2  7  2       -2 -.176030384192D-03 0.100000000000D+01
0.130845085591D-03 0.000000000000D+00 0.000000000000D+00 0.986755116841D-07 0.000000000000D+00  7 1 -2 -24 -11 11 23 21 2 0.16394449D+00 0.88214466D-01 0.24495172D+06 0.24495172D+06 0.24495172D+06 0.10911262D+01  1  2 15  2  7  2       -2 0.262831280904D-03 0.100000000000D+01
0.797373233765D-02 0.000000000000D+00 0.000000000000D+00 0.986755116841D-07 0.000000000000D+00  7 1 -2 -24 -11 11 23 21 2 0.16394449D+00 0.99200334D-01 0.28438873D+06 0.28438873D+06 0.28438873D+06 0.10862731D+01  1  2 12  2  7  2       -2 0.119432627661D-01 0.100000000000D+01
-.812609176682D-02 0.000000000000D+00 0.000000000000D+00 0.986755116841D-07 0.000000000000D+00  7 1 -2 -24 -11 11 23 21 2 0.16394449D+00 0.88214466D-01 0.24495172D+06 0.24495172D+06 0.24495172D+06 0.10911262D+01  1  2  4  2  7  2       -2 -.163230517842D-01 0.100000000000D+01
-.132960394932D-01 0.000000000000D+00 -.223621626408D-02 0.986755116841D-07 0.000000000000D+00  7 1 -2 -24 -11 11 23 21 2 0.16394449D+00 0.99591773D-01 0.24495172D+06 0.24495172D+06 0.24495172D+06 0.10911262D+01  1  2  5  2  7  2       -2 -.200590505329D-01 0.100000000000D+01
0.134843273910D-01 0.000000000000D+00 0.221986272387D-02 0.986755116841D-07 0.000000000000D+00  7 1 -2 -24 -11 11 23 21 2 0.16394449D+00 0.88214466D-01 0.24495172D+06 0.24495172D+06 0.24495172D+06 0.10911262D+01  1  2  6  2  7  2       -2 0.270862526039D-01 0.100000000000D+01
0.148494423096D-03 0.000000000000D+00 0.000000000000D+00 0.986755116841D-07 0.000000000000D+00  7 1 21 -24 -11 11 23 2 2 0.16394449D+00 0.99200334D-01 0.28438873D+06 0.28438873D+06 0.28438873D+06 0.10862731D+01  1  2 12  4  7  2       -2 0.205490668906D-02 0.100000000000D+01
-.244034194058D-03 0.000000000000D+00 -.428178063451D-04 0.986755116841D-07 0.000000000000D+00  7 1 21 -24 -11 11 23 2 2 0.16394449D+00 0.99591773D-01 0.24495172D+06 0.24495172D+06 0.24495172D+06 0.10911262D+01  1  2  5  4  7  2       -2 -.341536726457D-02 0.100000000000D+01
  </mgrwgt>
  </event>
  <event>
  8     66 0.29493621E-05 0.11664302E+03 0.75467711E-02 0.10353338E+00
        3 -1    0    0  501    0 0.00000000E+00 0.00000000E+00 0.80713907E+03 0.80713922E+03 0.50000000E+00 0.0000E+00 0.9000E+01
       -4 -1    0    0    0  501 0.00000000E+00 0.00000000E+00 -.62152635E+02 0.62171960E+02 0.15500000E+01 0.0000E+00 0.9000E+01
       25  2    1    2    0    0 -.87200486E+02 -.27021852E+02 0.61909003E+03 0.69423627E+03 0.30059512E+03 0.0000E+00 0.0000E+00
       23  2    3    3    0    0 0.47901067E+02 -.57710740E+02 0.12703410E+03 0.17497860E+03 0.94099979E+02 0.0000E+00 0.0000E+00
      -24  1    1    2    0    0 0.87200486E+02 0.27021852E+02 0.12589640E+03 0.17507491E+03 0.80419002E+02 0.0000E+00 0.9000E+01
      -13  1    4    4    0    0 0.55904841E+02 -.55473531E+02 0.41462964E+02 0.89004789E+02 0.10565837E+00 0.0000E+00 0.9000E+01
       13  1    4    4    0    0 -.80037746E+01 -.22372089E+01 0.85571137E+02 0.85973811E+02 0.10565837E+00 0.0000E+00 0.9000E+01
       23  1    3    3    0    0 -.13510155E+03 0.30688888E+02 0.49205593E+03 0.51925767E+03 0.91188000E+02 0.0000E+00 0.9000E+01
#aMCatNLO 1  0  0  2  1 0.98038703D+02 0.00000000D+00  -5  7  0 0.00000000D+00 0.00000000D+00 0.00000000D+00 0.00000000D+00 0.00000000D+00
  <mgrwgt>
 0.1027512721D-03    9    2    0
 0.223996175959868D+03 0.000000000000000D+00 0.000000000000000D+00 0.223996175959868D+03
 0.223996175959868D+03 0.000000000000000D+00 0.000000000000000D+00 -.223996175959868D+03
 0.130367125535123D+03 0.872005022468703D+02 0.270218569434073D+02 -.468429623438106D+02
 0.103759698437103D+03 0.559049139607965D+02 -.554735956374553D+02 -.675529111278456D+02
 0.245285613401713D+02 -.800384820723239D+01 -.223714598619573D+01 0.230777796403938D+02
 0.189336966607339D+03 -.135101568000434D+03 0.306888846802437D+02 0.913180938312623D+02
 0.000000000000000D+00 0.000000000000000D+00 0.000000000000000D+00 -.000000000000000D+00
 0.260600189187588D+03 0.000000000000000D+00 0.000000000000000D+00 0.260600189187588D+03
 0.306059567068598D+03 0.000000000000000D+00 0.000000000000000D+00 -.306059567068598D+03
 0.116095781862604D+03 0.689897438981542D+02 0.756086818044947D+01 -.468429623438106D+02
 0.106720188100909D+03 0.403528846859674D+02 -.720933245451193D+02 -.675529111278456D+02
 0.266632961194002D+02 -.117863344055055D+02 -.627931270935292D+01 0.230777796403938D+02
 0.209115036727076D+03 -.164542562683563D+03 -.773334285451327D+00 0.913180938312623D+02
 0.108065453446196D+03 0.669862685049469D+02 0.715851033594741D+02 -.454593778810101D+02
0.647024478802D-05 0.000000000000D+00 0.000000000000D+00 0.121465892231D-06 0.000000000000D+00  7 3 -4 -24 -13 13 23 21 0 0.12417674D+00 0.95634423D-02 0.35079092D+05 0.35079092D+05 0.35079092D+05 0.11610855D+01  1  2  2  2  7  2       -4 0.937629344387D-04 0.100000000000D+01
-.345462594927D-06 0.000000000000D+00 -.248474436406D-07 0.121465892231D-06 0.000000000000D+00  7 3 -4 -24 -13 13 23 21 2 0.12417674D+00 0.95634423D-02 0.35079092D+05 0.35079092D+05 0.35079092D+05 0.11610855D+01  1  2  3  2  7  2       -4 -.674900766585D-05 0.100000000000D+01
0.410561106706D-06 0.000000000000D+00 0.000000000000D+00 0.121465892231D-06 0.000000000000D+00  7 3 -4 -24 -13 13 23 21 2 0.12417674D+00 0.95634423D-02 0.35079092D+05 0.35079092D+05 0.35079092D+05 0.11610855D+01  1  2 15  2  7  2       -4 0.802078169142D-05 0.100000000000D+01
0.229384218990D-05 0.000000000000D+00 0.000000000000D+00 0.121465892231D-06 0.000000000000D+00  7 3 -4 -24 -13 13 23 21 2 0.12417674D+00 0.13620713D-01 0.59623969D+05 0.59623969D+05 0.59623969D+05 0.11406309D+01  1  2 12  2  7  2       -4 0.240427572434D-04 0.100000000000D+01
-.390577229227D-05 0.000000000000D+00 0.000000000000D+00 0.121465892231D-06 0.000000000000D+00  7 3 -4 -24 -13 13 23 21 2 0.12417674D+00 0.95634423D-02 0.35079092D+05 0.35079092D+05 0.35079092D+05 0.11610855D+01  1  2  4  2  7  2       -4 -.763037374486D-04 0.100000000000D+01
-.484889676683D-05 0.000000000000D+00 -.252506407828D-05 0.121465892231D-06 0.000000000000D+00  7 3 -4 -24 -13 13 23 21 2 0.12417674D+00 0.15183603D-01 0.35079092D+05 0.35079092D+05 0.35079092D+05 0.11610855D+01  1  2  5  2  7  2       -4 -.431248760663D-04 0.100000000000D+01
0.564940400101D-05 0.000000000000D+00 0.227737189677D-05 0.121465892231D-06 0.000000000000D+00  7 3 -4 -24 -13 13 23 21 2 0.12417674D+00 0.95634423D-02 0.35079092D+05 0.35079092D+05 0.35079092D+05 0.11610855D+01  1  2  6  2  7  2       -4 0.110367580949D-03 0.100000000000D+01
0.998345518517D-07 0.000000000000D+00 0.000000000000D+00 0.121465892231D-06 0.000000000000D+00  7 3 21 -24 -13 13 23 4 2 0.12417674D+00 0.13620713D-01 0.59623969D+05 0.59623969D+05 0.59623969D+05 0.11406309D+01  1  2 12  4  7  2       -4 0.219539500417D-04 0.100000000000D+01
-.153322191056D-06 0.000000000000D+00 -.133932578339D-06 0.121465892231D-06 0.000000000000D+00  7 3 21 -24 -13 13 23 4 2 0.12417674D+00 0.15183603D-01 0.35079092D+05 0.35079092D+05 0.35079092D+05 0.11610855D+01  1  2  5  4  7  2       -4 -.292191111218D-04 0.100000000000D+01
  </mgrwgt>
  </event>
  <event>
  8     66 0.29493621E-05 0.24464650E+03 0.75467711E-02 0.10112512E+00
        1 -1    0    0  501    0 0.00000000E+00 0.00000000E+00 0.76788501E+03 0.76788508E+03 0.32000000E+00 0.0000E+00 0.9000E+01
       -2 -1    0    0    0  501 0.00000000E+00 0.00000000E+00 -.75712063E+03 0.75712070E+03 0.32000000E+00 0.0000E+00 0.9000E+01
       25  2    1    2    0    0 -.11925539E+03 0.18803736E+03 0.70146872E+03 0.79485539E+03 0.30026126E+03 0.0000E+00 0.0000E+00
       23  2    3    3    0    0 -.67083039E+01 -.33425350E+02 0.11093089E+03 0.14773658E+03 0.91423071E+02 0.0000E+00 0.0000E+00
      -24  1    1    2    0    0 0.11925539E+03 -.18803736E+03 -.69070434E+03 0.73015039E+03 0.80419002E+02 0.0000E+00 0.9000E+01
      -13  1    4    4    0    0 0.31221989E+02 -.33430435E+02 0.97149856E+02 0.10738022E+03 0.10565837E+00 0.0000E+00 0.9000E+01
       13  1    4    4    0    0 -.37930293E+02 0.50852206E-02 0.13781036E+02 0.40356353E+02 0.10565837E+00 0.0000E+00 0.9000E+01
       23  1    3    3    0    0 -.11254708E+03 0.22146271E+03 0.59053783E+03 0.64711881E+03 0.91188000E+02 0.0000E+00 0.9000E+01
#aMCatNLO 1  0  0  2  1 0.24335001D+00 0.00000000D+00  -5  7  0 0.00000000D+00 0.00000000D+00 0.00000000D+00 0.00000000D+00 0.00000000D+00
  <mgrwgt>
 0.3457883776D-03    9    2    0
 0.762483892439397D+03 0.000000000000000D+00 0.000000000000000D+00 0.762483892439397D+03
 0.762483892439397D+03 0.000000000000000D+00 0.000000000000000D+00 -.762483892439397D+03
 0.735044096515682D+03 0.119255387501065D+03 -.188037358480804D+03 -.695875500528447D+03
 0.106697229373914D+03 0.312220813529965D+02 -.334304798315354D+02 0.963944158667385D+02
 0.402599928590010D+02 -.379303852294027D+02 0.512987398804832D-02 0.134964022998839D+02
 0.642966466130198D+03 -.112547083624659D+03 0.221462708438351D+03 0.585984682361825D+03
 0.000000000000000D+00 -.000000000000000D+00 -.000000000000000D+00 -.000000000000000D+00
 0.762589893680513D+03 0.000000000000000D+00 0.000000000000000D+00 0.762589893680513D+03
 0.762623581295602D+03 0.000000000000000D+00 0.000000000000000D+00 -.762623581295602D+03
 0.735055720631861D+03 0.119369536794153D+03 -.188010366546866D+03 -.695875500528447D+03
 0.106700851745367D+03 0.312386511394980D+02 -.334265617119351D+02 0.963944158667385D+02
 0.402541031753481D+02 -.379241335266008D+02 0.660816215315891D-02 0.134964022998839D+02
 0.642957128742768D+03 -.112447235119402D+03 0.221486318783933D+03 0.585984682361825D+03
 0.245670680769747D+00 -.236819287647575D+00 -.559986872845388D-01 -.336876150888509D-01
0.808735121524D-04 0.000000000000D+00 0.000000000000D+00 0.366257512139D-04 0.000000000000D+00  7 1 -2 -24 -13 13 23 21 0 0.11813617D+00 0.11648011D+00 0.85569045D+05 0.85569045D+05 0.85569045D+05 0.11273189D+01  1  2  2  2  7  2       -2 0.127078257654D-03 0.100000000000D+01
0.521027341608D-06 0.000000000000D+00 -.310575581150D-06 0.366257512139D-04 0.000000000000D+00  7 1 -2 -24 -13 13 23 21 2 0.11813617D+00 0.11648011D+00 0.85569045D+05 0.85569045D+05 0.85569045D+05 0.11273189D+01  1  2  3  2  7  2       -2 0.104044482581D-05 0.100000000000D+01
0.502717415091D-05 0.000000000000D+00 0.000000000000D+00 0.366257512139D-04 0.000000000000D+00  7 1 -2 -24 -13 13 23 21 2 0.11813617D+00 0.11648011D+00 0.85569045D+05 0.85569045D+05 0.85569045D+05 0.11273189D+01  1  2 15  2  7  2       -2 0.100388154633D-04 0.100000000000D+01
-.398055699699D-01 0.000000000000D+00 0.000000000000D+00 0.366257512139D-04 0.000000000000D+00  7 1 -2 -24 -13 13 23 21 2 0.11813617D+00 0.11648011D+00 0.85569045D+05 0.85569045D+05 0.85569045D+05 0.11273189D+01  1  2  4  2  7  2       -2 -.794881496730D-01 0.100000000000D+01
-.481458800960D+00 0.000000000000D+00 -.324382058069D-01 0.366257512139D-04 0.000000000000D+00  7 1 -2 -24 -13 13 23 21 2 0.11813617D+00 0.11651387D+00 0.85569045D+05 0.85569045D+05 0.85569045D+05 0.11273189D+01  1  2  5  2  7  2       -2 -.960734131368D+00 0.100000000000D+01
0.481468182499D+00 0.000000000000D+00 0.324382044448D-01 0.366257512139D-04 0.000000000000D+00  7 1 -2 -24 -13 13 23 21 2 0.11813617D+00 0.11648011D+00 0.85569045D+05 0.85569045D+05 0.85569045D+05 0.11273189D+01  1  2  6  2  7  2       -2 0.961448736501D+00 0.100000000000D+01
0.398055705228D-01 0.000000000000D+00 0.000000000000D+00 0.366257512139D-04 0.419171213455D-02  7 1 -2 -24 -13 13 23 21 2 0.11815259D+00 0.11650145D+00 0.85644809D+05 0.85644809D+05 0.85644809D+05 0.11272869D+01  1  2 11  2  7  2       -2 0.794267859012D-01 0.100000000000D+01
-.261483260496D-04 0.000000000000D+00 -.176180787636D-05 0.366257512139D-04 0.000000000000D+00  7 1 21 -24 -13 13 23 2 2 0.11813617D+00 0.11651387D+00 0.85569045D+05 0.85569045D+05 0.85569045D+05 0.11273189D+01  1  2  5  4  7  2       -2 -.487981744939D-03 0.100000000000D+01
0.227058820588D-05 0.000000000000D+00 0.000000000000D+00 0.366257512139D-04 0.143946706418D-06  7 1 21 -24 -13 13 23 2 2 0.11815259D+00 0.11650145D+00 0.85644809D+05 0.85644809D+05 0.85644809D+05 0.11272869D+01  1  2 11  4  7  2       -2 0.423712441764D-04 0.100000000000D+01
  </mgrwgt>
  </event>
  <event>
  8     66 0.29493621E-05 0.41418767E+03 0.75467711E-02 0.95692840E-01
        1 -1    0    0  501    0 0.00000000E+00 0.00000000E+00 0.12630590E+04 0.12630591E+04 0.32000000E+00 0.0000E+00 0.9000E+01
       21 -1    0    0  502  501 0.00000000E+00 0.00000000E+00 -.29925194E+03 0.29925288E+03 0.75000000E+00 0.0000E+00 0.9000E+01
       25  2    1    2    0    0 0.35776531E+03 0.11874849E+03 0.54616248E+03 0.72817287E+03 0.29974164E+03 0.0000E+00 0.0000E+00
      -24  1    1    2    0    0 -.32938243E+03 -.19145875E+03 -.19705964E+02 0.38987790E+03 0.80419002E+02 0.0000E+00 0.9000E+01
      -13  1    3    3    0    0 0.42383385E+02 0.95294344E+02 0.61133496E+02 0.12089119E+03 0.10565837E+00 0.0000E+00 0.9000E+01
       13  1    3    3    0    0 0.14345736E+03 0.36171363E+00 0.98834151E+02 0.17420777E+03 0.10565837E+00 0.0000E+00 0.9000E+01
       23  1    3    3    0    0 0.17192456E+03 0.23092437E+02 0.38619483E+03 0.43307391E+03 0.91188000E+02 0.0000E+00 0.9000E+01
        2  1    1    2  502    0 -.28382877E+02 0.72710253E+02 0.43735058E+03 0.44426119E+03 0.32000000E+00 0.0000E+00 0.9000E+01
#aMCatNLO 2  0  0  2  2 0.78053626D+02 0.00000000D+00  -5  7  0 0.00000000D+00 0.00000000D+00 0.00000000D+00 0.00000000D+00 0.00000000D+00
  <mgrwgt>
 0.1587141643D-03    1    2    0
 0.491627067527832D+03 0.000000000000000D+00 0.000000000000000D+00 0.491627067527832D+03
 0.491627067527832D+03 0.000000000000000D+00 0.000000000000000D+00 -.491627067527832D+03
 0.449228143547068D+03 -.342376104837218D+03 -.158172015078203D+03 -.230432040920896D+03
 0.110555510935552D+03 0.392856882687929D+02 0.103229788230225D+03 0.477142718807980D+01
 0.141057771854966D+03 0.139339089006723D+03 0.109114723364554D+02 0.190487019745452D+02
 0.282412708718077D+03 0.163751327561703D+03 0.440307545115228D+02 0.206611911758271D+03
 0.000000000000000D+00 -.000000000000000D+00 0.000000000000000D+00 0.000000000000000D+00
 0.757561354425495D+03 0.000000000000000D+00 0.000000000000000D+00 0.757561354425495D+03
 0.498934495443748D+03 0.000000000000000D+00 0.000000000000000D+00 -.498934495443748D+03
 0.452454837383586D+03 -.329382431762844D+03 -.191458747725098D+03 -.230432040920896D+03
 0.104403639560766D+03 0.423833500689651D+02 0.952943076634418D+02 0.477142718807980D+01
 0.144716834105307D+03 0.143457234609264D+03 0.361752415987143D+00 0.190487019745452D+02
 0.284772022653780D+03 0.171924724562737D+03 0.230924348206161D+02 0.206611911758271D+03
 0.270148516165804D+03 -.283828774781218D+02 0.727102528250533D+02 0.258626858981747D+03
0.254481288000D-05 0.000000000000D+00 0.000000000000D+00 0.901785639799D-08 0.355873473990D-13  7 1 21 -24 -13 13 23 2 2 0.19431681D+00 0.46038827D-01 0.20755383D+06 0.20755383D+06 0.20755383D+06 0.10965909D+01  1  2  1  4  7  2       -2 0.158714164270D-03 0.100000000000D+01
  </mgrwgt>
  </event>
  <event>
  8     66 0.29493621E-05 0.29039375E+03 0.75467711E-02 0.86116704E-01
        1 -1    0    0  501    0 0.00000000E+00 0.00000000E+00 0.42123481E+03 0.42123494E+03 0.32000000E+00 0.0000E+00 0.9000E+01
       -2 -1    0    0    0  501 0.00000000E+00 0.00000000E+00 -.93130814E+03 0.93130820E+03 0.32000000E+00 0.0000E+00 0.9000E+01
       25  2    1    2    0    0 -.25388105E+03 0.83405597E+02 0.29628763E+03 0.49925696E+03 0.30009842E+03 0.0000E+00 0.0000E+00
       23  2    3    3    0    0 -.15052948E+03 0.34055011E+02 0.32118050E+01 0.17165091E+03 0.75065641E+02 0.0000E+00 0.0000E+00
      -24  1    1    2    0    0 0.25388105E+03 -.83405597E+02 -.80636096E+03 0.85328618E+03 0.80419002E+02 0.0000E+00 0.9000E+01
      -11  1    4    4    0    0 -.62582954E+02 0.53613730E+01 0.37310271E+02 0.73057695E+02 0.51099893E-03 0.0000E+00 0.9000E+01
       11  1    4    4    0    0 -.87946529E+02 0.28693638E+02 -.34098466E+02 0.98593216E+02 0.51099893E-03 0.0000E+00 0.9000E+01
       23  1    3    3    0    0 -.10335157E+03 0.49350586E+02 0.29307583E+03 0.32760604E+03 0.91188000E+02 0.0000E+00 0.9000E+01
#aMCatNLO 1  0  0  1  2 0.10708198D+04 0.00000000D+00  -5  7  0 0.00000000D+00 0.00000000D+00 0.00000000D+00 0.00000000D+00 0.00000000D+00
  <mgrwgt>
 0.6189844374D-02    3    2    0
 0.626338192369998D+03 0.000000000000000D+00 0.000000000000000D+00 0.626338192369998D+03
 0.626338192369998D+03 0.000000000000000D+00 0.000000000000000D+00 -.626338192369998D+03
 0.592972892395080D+03 0.253881053754529D+03 -.834055969122815D+02 -.523199342611602D+03
 0.940743031137644D+02 -.625829543166139D+02 0.536137299468415D+01 0.700328780999105D+02
 0.925688872218897D+02 -.879465290727024D+02 0.286936379284471D+02 0.332897101135397D+01
 0.473060302009262D+03 -.103351570365213D+03 0.493505859891503D+02 0.449837493500338D+03
 0.000000000000000D+00 0.000000000000000D+00 0.000000000000000D+00 -.000000000000000D+00
 0.102463458505014D+04 0.000000000000000D+00 0.000000000000000D+00 0.102463458505014D+04
 0.225272276142842D+04 0.000000000000000D+00 0.000000000000000D+00 -.225272276142842D+04
 0.699311852609856D+03 -.456800273598467D+02 -.454692901019412D+03 -.523199342611602D+03
 0.153786976379174D+03 -.120039016642114D+03 -.658518380342255D+02 0.700328780999105D+02
 0.149898121980982D+03 -.144152159985032D+03 -.409697412376588D+02 0.332897101135397D+01
 0.644987627832276D+03 -.362523279925045D+03 -.271876607427760D+03 0.449837493500338D+03
 0.162937276767627D+04 0.672394483912038D+03 0.833391087719057D+03 -.122808817637828D+04
0.270531667760D-02 0.000000000000D+00 0.000000000000D+00 0.173500975467D-06 0.000000000000D+00  7 1 -2 -24 -11 11 23 21 0 0.64805370D-01 0.14327819D+00 0.84328529D+05 0.84328529D+05 0.84328529D+05 0.11278478D+01  1  2  2  1  7  1        1 0.584770363130D-02 0.100000000000D+01
-.423292648897D-04 0.000000000000D+00 -.103891283682D-04 0.173500975467D-06 0.000000000000D+00  7 1 -2 -24 -11 11 23 21 2 0.64805370D-01 0.14327819D+00 0.84328529D+05 0.84328529D+05 0.84328529D+05 0.11278478D+01  1  2  3  1  7  1        1 -.116388199985D-03 0.100000000000D+01
0.166762550499D-03 0.000000000000D+00 0.000000000000D+00 0.173500975467D-06 0.000000000000D+00  7 1 -2 -24 -11 11 23 21 2 0.64805370D-01 0.14327819D+00 0.84328529D+05 0.84328529D+05 0.84328529D+05 0.11278478D+01  1  2 15  1  7  1        1 0.458528942755D-03 0.100000000000D+01
  </mgrwgt>
  </event>
  <event>
  9     66 0.29493621E-05 0.55186269E+03 0.75467711E-02 0.92211200E-01
        1 -1    0    0  502    0 0.00000000E+00 0.00000000E+00 0.23318879E+04 0.23318880E+04 0.32000000E+00 0.0000E+00 0.9000E+01
       -2 -1    0    0    0  501 0.00000000E+00 0.00000000E+00 -.10531099E+04 0.10531099E+04 0.32000000E+00 0.0000E+00 0.9000E+01
       25  2    1    2    0    0 -.52141668E+03 0.76055230E+02 -.90331086E+03 0.10881741E+04 0.30082005E+03 0.0000E+00 0.0000E+00
       23  2    3    3    0    0 -.36468425E+02 -.15129376E+02 -.17946952E+03 0.20740687E+03 0.96174110E+02 0.0000E+00 0.0000E+00
      -24  1    1    2    0    0 0.55490208E+03 0.50354846E+02 0.14967210E+04 0.15990912E+04 0.80419002E+02 0.0000E+00 0.9000E+01
      -11  1    4    4    0    0 -.23114770E+02 -.23549925E+02 -.63930901E+01 0.33611950E+02 0.51099893E-03 0.0000E+00 0.9000E+01
       11  1    4    4    0    0 -.13353655E+02 0.84205493E+01 -.17307643E+03 0.17379492E+03 0.51099893E-03 0.0000E+00 0.9000E+01
       23  1    3    3    0    0 -.48494825E+03 0.91184606E+02 -.72384134E+03 0.88076727E+03 0.91188000E+02 0.0000E+00 0.9000E+01
       21  1    1    2  502  501 -.33485400E+02 -.12641008E+03 0.68536798E+03 0.69773248E+03 0.75000000E+00 0.0000E+00 0.9000E+01
#aMCatNLO 2  0  0  1  2 0.13076995D+03 0.00000000D+00  -5  7  0 0.00000000D+00 0.00000000D+00 0.00000000D+00 0.00000000D+00 0.00000000D+00
  <mgrwgt>
 0.1222882110D-03    2    2    0
 0.130883143504147D+04 0.000000000000000D+00 0.000000000000000D+00 0.130883143504147D+04
 0.130883143504147D+04 0.000000000000000D+00 0.000000000000000D+00 -.130883143504147D+04
 0.129278171988748D+04 0.538324441300475D+03 -.122270539518047D+02 0.117255049118196D+04
 0.373878965928705D+02 -.235832957246596D+02 -.253186483865741D+02 -.141650632995216D+02
 0.217415734999155D+03 -.161329000785140D+02 -.207132338851293D+01 -.216806459727794D+03
 0.107007751860344D+04 -.498608245497302D+03 0.396170257268917D+02 -.941578968154642D+03
 0.000000000000000D+00 -.000000000000000D+00 -.000000000000000D+00 0.000000000000000D+00
 0.186294182594803D+04 0.000000000000000D+00 0.000000000000000D+00 0.186294182594803D+04
 0.131820184242721D+04 0.000000000000000D+00 0.000000000000000D+00 -.131820184242721D+04
 0.130068973774778D+04 0.554902075191567D+03 0.503548458946346D+02 0.117255049118196D+04
 0.359101739000656D+02 -.231147698135770D+02 -.235499254291568D+02 -.141650632995216D+02
 0.217380465399360D+03 -.133536552149455D+02 0.842054926612684D+01 -.216806459727794D+03
 0.106694687882949D+04 -.484948250137539D+03 0.911846057038422D+02 -.941578968154642D+03
 0.560216412498539D+03 -.334854000255056D+02 -.126410075435447D+03 0.544739983520826D+03
-.887053224870D-01 0.000000000000D+00 0.000000000000D+00 0.233058156876D-05 0.000000000000D+00  7 1 -2 -24 -11 11 23 21 2 0.35936250D+00 0.16086518D+00 0.38707831D+06 0.38707831D+06 0.38707831D+06 0.10764572D+01  1  2 13  1  7  1        1 -.493234104327D-02 0.100000000000D+01
0.921933631615D-01 0.000000000000D+00 0.000000000000D+00 0.233058156876D-05 0.892933968815D-09  7 1 -2 -24 -11 11 23 21 2 0.35875193D+00 0.16201688D+00 0.38707831D+06 0.38707831D+06 0.38707831D+06 0.10764572D+01  1  2  1  1  7  1        1 0.505462925424D-02 0.100000000000D+01
  </mgrwgt>
  </event>
  <event>
  9     66 0.29493621E-05 0.22695186E+03 0.75467711E-02 0.10192230E+00
        1 -1    0    0  501    0 0.00000000E+00 0.00000000E+00 0.71294744E+03 0.71294751E+03 0.32000000E+00 0.0000E+00 0.9000E+01
       21 -1    0    0  502  501 0.00000000E+00 0.00000000E+00 -.54039502E+03 0.54039554E+03 0.75000000E+00 0.0000E+00 0.9000E+01
       25  2    1    2    0    0 -.17444315E+03 0.12441618E+02 -.36510316E+03 0.50398384E+03 0.30019026E+03 0.0000E+00 0.0000E+00
       23  2    3    3    0    0 -.19822178E+03 0.62608427E+02 -.31082406E+03 0.38421906E+03 0.88323255E+02 0.0000E+00 0.0000E+00
      -24  1    1    2    0    0 0.91404279E+02 0.32265538E+02 0.61476808E+03 0.62753711E+03 0.80419002E+02 0.0000E+00 0.9000E+01
      -13  1    4    4    0    0 -.15389083E+03 0.90211119E+01 -.18851312E+03 0.24351792E+03 0.10565837E+00 0.0000E+00 0.9000E+01
       13  1    4    4    0    0 -.44330953E+02 0.53587316E+02 -.12231095E+03 0.14070115E+03 0.10565837E+00 0.0000E+00 0.9000E+01
       23  1    3    3    0    0 0.23778636E+02 -.50166809E+02 -.54279092E+02 0.11976478E+03 0.91188000E+02 0.0000E+00 0.9000E+01
        2  1    1    2  502    0 0.83038868E+02 -.44707157E+02 -.77112505E+02 0.12182210E+03 0.32000000E+00 0.0000E+00 0.9000E+01
#aMCatNLO 2  0  0  2  1 0.94308979D+02 0.00000000D+00  -5  7  0 0.00000000D+00 0.00000000D+00 0.00000000D+00 0.00000000D+00 0.00000000D+00
  <mgrwgt>
 0.1744889965D-03    2    2    0
 0.549798349696989D+03 0.000000000000000D+00 0.000000000000000D+00 0.549798349696989D+03
 0.549798349696989D+03 0.000000000000000D+00 0.000000000000000D+00 -.549798349696989D+03
 0.511763050390839D+03 0.129700072064239D+03 0.116475304340516D+02 0.488340485862360D+03
 0.281401979417802D+03 -.132267744910827D+03 -.262065236590200D+01 -.248365556906827D+03
 0.167030274629568D+03 -.315556852949533D+02 0.467094087296307D+02 -.157230984556235D+03
 0.139401394955769D+03 0.341233581415409D+02 -.557362867977803D+02 -.827439443992969D+02
 0.000000000000000D+00 0.000000000000000D+00 -.000000000000000D+00 -.000000000000000D+00
 0.569679168660750D+03 0.000000000000000D+00 0.000000000000000D+00 0.569679168660750D+03
 0.676298870919281D+03 0.000000000000000D+00 0.000000000000000D+00 -.676298870919281D+03
 0.504320784034489D+03 0.914042786871378D+02 0.322655382752237D+02 0.488340485862360D+03
 0.292317062083582D+03 -.153890986148861D+03 0.902104814692571D+01 -.248365556906827D+03
 0.171925592137159D+03 -.443307963614495D+02 0.535873793084661D+02 -.157230984556235D+03
 0.135070144424571D+03 0.237786355862911D+02 -.501668090053075D+02 -.827439443992969D+02
 0.142344456900229D+03 0.830388682368818D+02 -.447071567253080D+02 -.106619702258531D+03
-.900376213597D-05 0.000000000000D+00 0.000000000000D+00 0.306880890503D-05 0.000000000000D+00  7 1 21 -24 -13 13 23 2 2 0.10585644D+00 0.84162813D-01 0.75822707D+05 0.75822707D+05 0.75822707D+05 0.11317214D+01  1  2 13  4  7  2       -2 -.462509534853D-03 0.100000000000D+01
0.126952821191D-04 0.000000000000D+00 0.000000000000D+00 0.306880890503D-05 0.732534986966D-10  7 1 21 -24 -13 13 23 2 2 0.10968423D+00 0.83137715D-01 0.75822707D+05 0.75822707D+05 0.75822707D+05 0.11317214D+01  1  2  1  4  7  2       -2 0.636998531366D-03 0.100000000000D+01
  </mgrwgt>
  </event>
  <event>
  8     66 0.29493621E-05 0.22386266E+03 0.75467711E-02 0.97131537E-01
        1 -1    0    0  501    0 0.00000000E+00 0.00000000E+00 0.10312404E+04 0.10312405E+04 0.32000000E+00 0.0000E+00 0.9000E+01
       -2 -1    0    0    0  501 0.00000000E+00 0.00000000E+00 -.14479028E+03 0.14479063E+03 0.32000000E+00 0.0000E+00 0.9000E+01
       25  2    1    2    0    0 -.27668366E+03 -.14974136E+03 0.61283445E+03 0.75140294E+03 0.30010664E+03 0.0000E+00 0.0000E+00
       23  2    3    3    0    0 -.29304369E+03 -.12666826E+03 0.51506050E+03 0.61474638E+03 0.10347143E+03 0.0000E+00 0.0000E+00
      -24  1    1    2    0    0 0.27668366E+03 0.14974136E+03 0.27361572E+03 0.42462819E+03 0.80419002E+02 0.0000E+00 0.9000E+01
      -11  1    4    4    0    0 -.12761695E+03 -.10816965E+03 0.29037440E+03 0.33511797E+03 0.51099893E-03 0.0000E+00 0.9000E+01
       11  1    4    4    0    0 -.16542674E+03 -.18498614E+02 0.22468609E+03 0.27962841E+03 0.51099893E-03 0.0000E+00 0.9000E+01
       23  1    3    3    0    0 0.16360037E+02 -.23073092E+02 0.97773951E+02 0.13665656E+03 0.91188000E+02 0.0000E+00 0.9000E+01
#aMCatNLO 1  0  0  1  2 0.50805979D+02 0.00000000D+00  -5  7  0 0.00000000D+00 0.00000000D+00 0.00000000D+00 0.00000000D+00 0.00000000D+00
  <mgrwgt>
 0.1032582472D-02    9    2    0
 0.386411473924779D+03 0.000000000000000D+00 0.000000000000000D+00 0.386411473924779D+03
 0.386411473924779D+03 0.000000000000000D+00 0.000000000000000D+00 -.386411473924779D+03
 0.332326138566427D+03 0.276683657979811D+03 0.149741356204244D+03 -.706903534375536D+02
 0.176892684702935D+03 -.127616954648616D+03 -.108169649977301D+03 0.574827070640668D+02
 0.167798698172319D+03 -.165426740272763D+03 -.184986144266476D+02 0.211706866999436D+02
 0.958054264078769D+02 0.163600369415685D+02 -.230730918002951D+02 -.796304032645681D+01
 0.000000000000000D+00 0.000000000000000D+00 -.000000000000000D+00 0.000000000000000D+00
 0.443193058594938D+03 0.000000000000000D+00 0.000000000000000D+00 0.443193058594938D+03
 0.398779823949230D+03 0.000000000000000D+00 0.000000000000000D+00 -.398779823949230D+03
 0.327997274419851D+03 0.262023388918113D+03 0.165715459940289D+03 -.706903534375536D+02
 0.177708069508940D+03 -.135489676354359D+03 -.995913849616117D+02 0.574827070640668D+02
 0.174618350346960D+03 -.173028963613448D+03 -.102150894955828D+02 0.211706866999436D+02
 0.941674652910807D+02 0.121423253596935D+02 -.184773942688208D+02 -.796304032645681D+01
 0.674817229773357D+02 0.343529256900001D+02 -.374315912142742D+02 0.444132346457076D+02
0.226812593590D-04 0.000000000000D+00 0.000000000000D+00 0.534932686621D-07 0.000000000000D+00  7 1 -2 -24 -11 11 23 21 0 0.15865241D+00 0.22275458D-01 0.14210822D+06 0.14210822D+06 0.14210822D+06 0.11094090D+01  1  2  2  1  7  1        1 0.600580141188D-03 0.100000000000D+01
-.125913294341D-05 0.000000000000D+00 -.871020080514D-07 0.534932686621D-07 0.000000000000D+00  7 1 -2 -24 -11 11 23 21 2 0.15865241D+00 0.22275458D-01 0.14210822D+06 0.14210822D+06 0.14210822D+06 0.11094090D+01  1  2  3  1  7  1        1 -.410354046826D-04 0.100000000000D+01
0.143650195798D-05 0.000000000000D+00 0.000000000000D+00 0.534932686621D-07 0.000000000000D+00  7 1 -2 -24 -11 11 23 21 2 0.15865241D+00 0.22275458D-01 0.14210822D+06 0.14210822D+06 0.14210822D+06 0.11094090D+01  1  2 15  1  7  1        1 0.468158977823D-04 0.100000000000D+01
0.547153361045D-04 0.000000000000D+00 0.000000000000D+00 0.534932686621D-07 0.000000000000D+00  7 1 -2 -24 -11 11 23 21 2 0.18425014D+00 0.22275458D-01 0.16257421D+06 0.16257421D+06 0.16257421D+06 0.11048036D+01  1  2 12  1  7  1        1 0.133592345435D-02 0.100000000000D+01
-.553347776210D-04 0.000000000000D+00 0.000000000000D+00 0.534932686621D-07 0.000000000000D+00  7 1 -2 -24 -11 11 23 21 2 0.15865241D+00 0.22275458D-01 0.14210822D+06 0.14210822D+06 0.14210822D+06 0.11094090D+01  1  2  4  1  7  1        1 -.180337191921D-02 0.100000000000D+01
-.106940186575D-03 0.000000000000D+00 -.188449327653D-04 0.534932686621D-07 0.000000000000D+00  7 1 -2 -24 -11 11 23 21 2 0.18496514D+00 0.22275458D-01 0.14210822D+06 0.14210822D+06 0.14210822D+06 0.11094090D+01  1  2  5  1  7  1        1 -.262176407889D-02 0.100000000000D+01
0.108768567255D-03 0.000000000000D+00 0.186252142979D-04 0.534932686621D-07 0.000000000000D+00  7 1 -2 -24 -11 11 23 21 2 0.15865241D+00 0.22275458D-01 0.14210822D+06 0.14210822D+06 0.14210822D+06 0.11094090D+01  1  2  6  1  7  1        1 0.354479024428D-02 0.100000000000D+01
0.124526978855D-05 0.000000000000D+00 0.000000000000D+00 0.534932686621D-07 0.000000000000D+00  7 21 -2 -24 -11 11 23 -1 2 0.18425014D+00 0.22275458D-01 0.16257421D+06 0.16257421D+06 0.16257421D+06 0.11048036D+01  1  2 12  3  7  1        1 0.328108568372D-04 0.100000000000D+01
-.234841521917D-05 0.000000000000D+00 -.437844634463D-06 0.534932686621D-07 0.000000000000D+00  7 21 -2 -24 -11 11 23 -1 2 0.18496514D+00 0.22275458D-01 0.14210822D+06 0.14210822D+06 0.14210822D+06 0.11094090D+01  1  2  5  3  7  1        1 -.621667193440D-04 0.100000000000D+01
  </mgrwgt>
  </event>
  <event>
  8     66 0.29493621E-05 0.13359552E+03 0.75467711E-02 0.10313428E+00
        1 -1    0    0  501    0 0.00000000E+00 0.00000000E+00 0.25136358E+04 0.25136358E+04 0.32000000E+00 0.0000E+00 0.9000E+01
       -2 -1    0    0    0  501 0.00000000E+00 0.00000000E+00 -.52672145E+02 0.52673117E+02 0.32000000E+00 0.0000E+00 0.9000E+01
       25  2    1    2    0    0 -.99020090E+02 -.19282183E+02 0.44378478E+03 0.54500871E+03 0.29985460E+03 0.0000E+00 0.0000E+00
       23  2    3    3    0    0 0.97879254E-01 0.99781394E+02 0.15052092E+03 0.20103276E+03 0.88324907E+02 0.0000E+00 0.0000E+00
      -24  1    1    2    0    0 0.99020090E+02 0.19282183E+02 0.20171789E+04 0.20213003E+04 0.80419002E+02 0.0000E+00 0.9000E+01
      -11  1    4    4    0    0 0.77284432E+01 -.75981994E+01 -.49623252E+01 0.11919989E+02 0.51099893E-03 0.0000E+00 0.9000E+01
       11  1    4    4    0    0 -.76305639E+01 0.10737959E+03 0.15548324E+03 0.18911277E+03 0.51099893E-03 0.0000E+00 0.9000E+01
       23  1    3    3    0    0 -.99117970E+02 -.11906358E+03 0.29326386E+03 0.34397595E+03 0.91188000E+02 0.0000E+00 0.9000E+01
#aMCatNLO 1  0  0  1  2 0.81272725D+02 0.00000000D+00  -5  7  0 0.00000000D+00 0.00000000D+00 0.00000000D+00 0.00000000D+00 0.00000000D+00
  <mgrwgt>
 0.1709988524D-02    9    2    0
 0.363867921204423D+03 0.000000000000000D+00 0.000000000000000D+00 0.363867921204423D+03
 0.363867921204423D+03 0.000000000000000D+00 0.000000000000000D+00 -.363867921204423D+03
 0.306535602985060D+03 0.990200902822580D+02 0.192821825860578D+02 0.278064882892923D+03
 0.588159527454884D+02 0.772844318949894D+01 -.759819938106787D+01 -.578087781343954D+02
 0.141099542475269D+03 -.763056393475344D+01 0.107379593650625D+03 -.912166555415978D+02
 0.221284744203029D+03 -.991179695370035D+02 -.119063576855615D+03 -.129039449216930D+03
 0.000000000000000D+00 0.000000000000000D+00 0.000000000000000D+00 0.000000000000000D+00
 0.501152266159007D+03 0.000000000000000D+00 0.000000000000000D+00 0.501152266159007D+03
 0.378359939617576D+03 0.000000000000000D+00 0.000000000000000D+00 -.378359939617576D+03
 0.298283797209892D+03 0.720087703341647D+02 -.815855555570320D+00 0.278064882892923D+03
 0.589956882708998D+02 0.246695864042885D+01 -.115130586827238D+02 -.578087781343954D+02
 0.135501816236094D+03 -.199836197326027D+02 0.981881810477635D+02 -.912166555415978D+02
 0.239478701338857D+03 -.119695730177463D+03 -.134374661949420D+03 -.129039449216930D+03
 0.147252202720840D+03 0.652036209354718D+02 0.485153951399504D+02 0.122792326541430D+03
0.112202213362D-03 0.000000000000D+00 0.000000000000D+00 0.146516752050D-05 0.000000000000D+00  7 1 -2 -24 -11 11 23 21 0 0.38671328D+00 0.81034833D-02 0.45639015D+05 0.45639015D+05 0.45639015D+05 0.11507980D+01  1  2  2  1  7  1        1 0.154739341400D-02 0.100000000000D+01
-.408413384789D-05 0.000000000000D+00 -.430886042832D-06 0.146516752050D-05 0.000000000000D+00  7 1 -2 -24 -11 11 23 21 2 0.38671328D+00 0.81034833D-02 0.45639015D+05 0.45639015D+05 0.45639015D+05 0.11507980D+01  1  2  3  1  7  1        1 -.745928926823D-04 0.100000000000D+01
0.683161416379D-05 0.000000000000D+00 0.000000000000D+00 0.146516752050D-05 0.000000000000D+00  7 1 -2 -24 -11 11 23 21 2 0.38671328D+00 0.81034833D-02 0.45639015D+05 0.45639015D+05 0.45639015D+05 0.11507980D+01  1  2 15  1  7  1        1 0.124773056209D-03 0.100000000000D+01
0.144759774793D-03 0.000000000000D+00 0.000000000000D+00 0.146516752050D-05 0.000000000000D+00  7 1 -2 -24 -11 11 23 21 2 0.53813072D+00 0.81034833D-02 0.63236552D+05 0.63236552D+05 0.63236552D+05 0.11384303D+01  1  2 12  1  7  1        1 0.482975968145D-03 0.100000000000D+01
-.171270322150D-03 0.000000000000D+00 0.000000000000D+00 0.146516752050D-05 0.000000000000D+00  7 1 -2 -24 -11 11 23 21 2 0.38671328D+00 0.81034833D-02 0.45639015D+05 0.45639015D+05 0.45639015D+05 0.11507980D+01  1  2  4  1  7  1        1 -.312809257376D-02 0.100000000000D+01
-.182619190765D-03 0.000000000000D+00 -.359818783511D-04 0.146516752050D-05 0.000000000000D+00  7 1 -2 -24 -11 11 23 21 2 0.53709164D+00 0.81034833D-02 0.45639015D+05 0.45639015D+05 0.45639015D+05 0.11507980D+01  1  2  5  1  7  1        1 -.641994168610D-03 0.100000000000D+01
0.186162049616D-03 0.000000000000D+00 0.341242196462D-04 0.146516752050D-05 0.000000000000D+00  7 1 -2 -24 -11 11 23 21 2 0.38671328D+00 0.81034833D-02 0.45639015D+05 0.45639015D+05 0.45639015D+05 0.11507980D+01  1  2  6  1  7  1        1 0.340007607627D-02 0.100000000000D+01
0.599925072254D-05 0.000000000000D+00 0.000000000000D+00 0.146516752050D-05 0.000000000000D+00  7 21 -2 -24 -11 11 23 -1 2 0.53813072D+00 0.81034833D-02 0.63236552D+05 0.63236552D+05 0.63236552D+05 0.11384303D+01  1  2 12  3  7  1        1 0.286987582385D-05 0.100000000000D+01
-.660984504608D-05 0.000000000000D+00 -.148490192355D-05 0.146516752050D-05 0.000000000000D+00  7 21 -2 -24 -11 11 23 -1 2 0.53709164D+00 0.81034833D-02 0.45639015D+05 0.45639015D+05 0.45639015D+05 0.11507980D+01  1  2  5  3  7  1        1 -.342023153522D-05 0.100000000000D+01
  </mgrwgt>
  </event>
  <event>
  8     66 0.29493621E-05 0.18788961E+03 0.75467711E-02 0.10268646E+00
        1 -1    0    0  501    0 0.00000000E+00 0.00000000E+00 0.18384481E+04 0.18384482E+04 0.32000000E+00 0.0000E+00 0.9000E+01
       -2 -1    0    0    0  501 0.00000000E+00 0.00000000E+00 -.23673609E+03 0.23673630E+03 0.32000000E+00 0.0000E+00 0.9000E+01
       25  2    1    2    0    0 -.11691288E+03 0.36896117E+01 -.12312550E+03 0.34451581E+03 0.29974826E+03 0.0000E+00 0.0000E+00
       23  2    3    3    0    0 -.35477631E+02 0.16025564E+02 -.16822488E+03 0.21362241E+03 0.12577537E+03 0.0000E+00 0.0000E+00
      -24  1    1    2    0    0 0.11691288E+03 -.36896117E+01 0.17248376E+04 0.17306687E+04 0.80419002E+02 0.0000E+00 0.9000E+01
      -11  1    4    4    0    0 -.17398314E+02 0.60495372E+02 -.14929070E+03 0.16201884E+03 0.51099893E-03 0.0000E+00 0.9000E+01
       11  1    4    4    0    0 -.18079317E+02 -.44469808E+02 -.18934177E+02 0.51603571E+02 0.51099893E-03 0.0000E+00 0.9000E+01
       23  1    3    3    0    0 -.81435248E+02 -.12335953E+02 0.45099377E+02 0.13089339E+03 0.91188000E+02 0.0000E+00 0.9000E+01
#aMCatNLO 1  0  0  2  1 0.15310771D+03 0.00000000D+00  -5  7  0 0.00000000D+00 0.00000000D+00 0.00000000D+00 0.00000000D+00 0.00000000D+00
  <mgrwgt>
 0.2206732986D-02    4    2    0
 0.659717572435785D+03 0.000000000000000D+00 0.000000000000000D+00 0.659717572435785D+03
 0.659717572435785D+03 0.000000000000000D+00 0.000000000000000D+00 -.659717572435785D+03
 0.628120035703354D+03 0.116912878899688D+03 -.368961174358016D+01 0.611870352942664D+03
 0.436050003086419D+03 -.173983143190188D+02 0.604953722639630D+02 -.431482576456069D+03
 0.104146104024764D+03 -.180793167820736D+02 -.444698078622282D+02 -.924228623065032D+02
 0.151119002057034D+03 -.814352477985954D+02 -.123359526581546D+02 -.879649141800921D+02
 0.000000000000000D+00 -.000000000000000D+00 0.000000000000000D+00 0.000000000000000D+00
 0.937284409335192D+03 0.000000000000000D+00 0.000000000000000D+00 0.937284409335192D+03
 0.685600390656769D+03 0.000000000000000D+00 0.000000000000000D+00 -.685600390656769D+03
 0.634842048389992D+03 0.128132402417518D+03 -.758549213312210D+02 0.611870352942664D+03
 0.431729245746295D+03 -.968939746934752D+01 0.109107022770573D+02 -.431482576456069D+03
 0.109621684871312D+03 -.161803106558559D+02 -.566844411119866D+02 -.924228623065032D+02
 0.152095797352388D+03 -.787416391655459D+02 -.296615637327291D+02 -.879649141800921D+02
 0.294596023631974D+03 -.235210551267682D+02 0.151290223898879D+03 0.251684018678423D+03
0.609375548684D-03 0.000000000000D+00 0.000000000000D+00 0.504518453714D-07 0.000000000000D+00  7 1 -2 -24 -11 11 23 21 0 0.28283820D+00 0.36420955D-01 0.35302506D+05 0.35302506D+05 0.35302506D+05 0.11608340D+01  1  2  2  2  7  2       -2 0.206326185850D-02 0.100000000000D+01
0.310755482766D-04 0.000000000000D+00 -.234016255921D-05 0.504518453714D-07 0.000000000000D+00  7 1 -2 -24 -11 11 23 21 2 0.28283820D+00 0.36420955D-01 0.35302506D+05 0.35302506D+05 0.35302506D+05 0.11608340D+01  1  2  3  2  7  2       -2 0.141784366840D-03 0.100000000000D+01
0.371213980820D-04 0.000000000000D+00 0.000000000000D+00 0.504518453714D-07 0.000000000000D+00  7 1 -2 -24 -11 11 23 21 2 0.28283820D+00 0.36420955D-01 0.35302506D+05 0.35302506D+05 0.35302506D+05 0.11608340D+01  1  2 15  2  7  2       -2 0.169368980280D-03 0.100000000000D+01
-.367517028534D-04 0.000000000000D+00 0.000000000000D+00 0.504518453714D-07 0.000000000000D+00  7 1 -2 -24 -11 11 23 21 2 0.28283820D+00 0.36420955D-01 0.35302506D+05 0.35302506D+05 0.35302506D+05 0.11608340D+01  1  2  4  2  7  2       -2 -.167682219891D-03 0.100000000000D+01
  </mgrwgt>
  </event>
  <event>
  8     66 0.29493621E-05 0.27015035E+03 0.75467711E-02 0.88963372E-01
        1 -1    0    0  501    0 0.00000000E+00 0.00000000E+00 0.24571633E+04 0.24571633E+04 0.32000000E+00 0.0000E+00 0.9000E+01
       -2 -1    0    0    0  501 0.00000000E+00 0.00000000E+00 -.80534326E+02 0.80534962E+02 0.32000000E+00 0.0000E+00 0.9000E+01
       25  2    1    2    0    0 0.11457142E+02 0.20314102E+03 0.36493266E+03 0.51414032E+03 0.29961122E+03 0.0000E+00 0.0000E+00
       23  2    3    3    0    0 -.40633519E+02 0.19548050E+03 0.12905935E+03 0.25583123E+03 0.94496514E+02 0.0000E+00 0.0000E+00
      -24  1    1    2    0    0 -.11457142E+02 -.20314102E+03 0.20116963E+04 0.20235580E+04 0.80419002E+02 0.0000E+00 0.9000E+01
      -13  1    4    4    0    0 -.25861828E+02 0.64991117E+01 0.28136199E+00 0.26667638E+02 0.10565837E+00 0.0000E+00 0.9000E+01
       13  1    4    4    0    0 -.14771690E+02 0.18898139E+03 0.12877799E+03 0.22916359E+03 0.10565837E+00 0.0000E+00 0.9000E+01
       23  1    3    3    0    0 0.52090661E+02 0.76605146E+01 0.23587330E+03 0.25830909E+03 0.91188000E+02 0.0000E+00 0.9000E+01
#aMCatNLO 1  0  0  1  1 0.78793307D+03 0.00000000D+00  -5  7  0 0.00000000D+00 0.00000000D+00 0.00000000D+00 0.00000000D+00 0.00000000D+00
  <mgrwgt>
 0.1684600208D-02    3    2    0
 0.444844717091827D+03 0.000000000000000D+00 0.000000000000000D+00 0.444844717091827D+03
 0.444844717091827D+03 0.000000000000000D+00 0.000000000000000D+00 -.444844717091827D+03
 0.398030813988576D+03 -.114571420132644D+02 -.203141015902901D+03 0.332511314822312D+03
 0.753133213677444D+02 -.258618417828527D+02 0.649888442921665D+01 -.704345512956214D+02
 0.309648278068015D+03 -.147716773267047D+02 0.188981617037714D+03 -.244846486765184D+03
 0.106697020759319D+03 0.520906611228218D+02 0.766051443597115D+01 -.172302767615062D+02
 0.000000000000000D+00 0.000000000000000D+00 0.000000000000000D+00 -.000000000000000D+00
 0.694943012431075D+03 0.000000000000000D+00 0.000000000000000D+00 0.694943012431075D+03
 0.213516193002457D+04 0.000000000000000D+00 0.000000000000000D+00 -.213516193002457D+04
 0.700226675696870D+03 -.180465254164243D+03 -.583711143424289D+03 0.332511314822312D+03
 0.104638594332723D+03 -.535541942922800D+02 -.558583716323465D+02 -.704345512956214D+02
 0.265972662509985D+03 -.103352551479925D+03 -.104835692388611D+02 -.244846486765184D+03
 0.117600461228775D+03 0.175740797682224D+02 -.700634456777753D+02 -.172302767615062D+02
 0.164166654868729D+04 0.319797920168227D+03 0.720116529973272D+03 -.144021891759349D+04
0.212156604429D-03 0.000000000000D+00 0.000000000000D+00 0.116066559937D-05 0.000000000000D+00  7 1 -2 -24 -13 13 23 21 0 0.37802517D+00 0.12389947D-01 0.72981210D+05 0.72981210D+05 0.72981210D+05 0.11331230D+01  1  2  2  1  7  1        1 0.163624510841D-02 0.100000000000D+01
-.822175740171D-05 0.000000000000D+00 -.814737223124D-06 0.116066559937D-05 0.000000000000D+00  7 1 -2 -24 -13 13 23 21 2 0.37802517D+00 0.12389947D-01 0.72981210D+05 0.72981210D+05 0.72981210D+05 0.11331230D+01  1  2  3  1  7  1        1 -.814161583750D-04 0.100000000000D+01
0.131048654265D-04 0.000000000000D+00 0.000000000000D+00 0.116066559937D-05 0.000000000000D+00  7 1 -2 -24 -13 13 23 21 2 0.37802517D+00 0.12389947D-01 0.72981210D+05 0.72981210D+05 0.72981210D+05 0.11331230D+01  1  2 15  1  7  1        1 0.129771257764D-03 0.100000000000D+01
  </mgrwgt>
  </event>
  <event>
  8     66 0.29493621E-05 0.91468784E+02 0.75467711E-02 0.10550469E+00
        1 -1    0    0  501    0 0.00000000E+00 0.00000000E+00 0.76812810E+03 0.76812816E+03 0.32000000E+00 0.0000E+00 0.9000E+01
       -2 -1    0    0    0  501 0.00000000E+00 0.00000000E+00 -.31429913E+03 0.31429930E+03 0.32000000E+00 0.0000E+00 0.9000E+01
       25  2    1    2    0    0 0.45772637E+02 0.12324709E+02 0.73021636E+03 0.79070114E+03 0.29957525E+03 0.0000E+00 0.0000E+00
       23  2    3    3    0    0 0.14261373E+03 -.79413433E+01 0.38615799E+03 0.42126871E+03 0.89149262E+02 0.0000E+00 0.0000E+00
      -24  1    1    2    0    0 -.45772637E+02 -.12324709E+02 -.27638740E+03 0.29172632E+03 0.80419002E+02 0.0000E+00 0.9000E+01
      -13  1    4    4    0    0 -.10286272E+02 -.94830447E+01 0.19459071E+02 0.23966688E+02 0.10565837E+00 0.0000E+00 0.9000E+01
       13  1    4    4    0    0 0.15290000E+03 0.15417014E+01 0.36669892E+03 0.39730202E+03 0.10565837E+00 0.0000E+00 0.9000E+01
       23  1    3    3    0    0 -.96841092E+02 0.20266052E+02 0.34405838E+03 0.36943244E+03 0.91188000E+02 0.0000E+00 0.9000E+01
#aMCatNLO 1  0  0  1  2 0.32423437D+02 0.00000000D+00  -5  7  0 0.00000000D+00 0.00000000D+00 0.00000000D+00 0.00000000D+00 0.00000000D+00
  <mgrwgt>
 0.1526619313D-02    9    2    0
 0.491347250158156D+03 0.000000000000000D+00 0.000000000000000D+00 0.491347250158156D+03
 0.491347250158156D+03 0.000000000000000D+00 0.000000000000000D+00 -.491347250158156D+03
 0.448974917832226D+03 -.457726370754530D+02 -.123247090615977D+02 -.439163099690524D+03
 0.174120897763108D+02 -.102865012394940D+02 -.948306015466150D+01 0.103653428660738D+02
 0.268275004851537D+03 0.152900230274419D+03 0.154171682501431D+01 0.220432803637194D+03
 0.248032487856239D+03 -.968410919594715D+02 0.202660523912449D+02 0.208364953187257D+03
 0.000000000000000D+00 -.000000000000000D+00 0.000000000000000D+00 0.000000000000000D+00
 0.536355037748532D+03 0.000000000000000D+00 0.000000000000000D+00 0.536355037748532D+03
 0.497488952801518D+03 0.000000000000000D+00 0.000000000000000D+00 -.497488952801518D+03
 0.447712094599642D+03 -.309842440688959D+02 -.124359232113370D+02 -.439163099690524D+03
 0.170845302744550D+02 -.971757410256015D+01 -.948733869579640D+01 0.103653428660738D+02
 0.273465321076795D+03 0.161834751167724D+03 0.147452594470457D+01 0.220432803637194D+03
 0.244967305160593D+03 -.887104124802276D+02 0.202049066937587D+02 0.208364953187257D+03
 0.506147394385650D+02 -.324225205160407D+02 0.243829268670217D+00 0.388660849470138D+02
0.101562182387D-03 0.000000000000D+00 0.000000000000D+00 0.438593439247D-05 0.000000000000D+00  7 1 -2 -24 -13 13 23 21 0 0.11817357D+00 0.48353731D-01 0.38966874D+05 0.38966874D+05 0.38966874D+05 0.11569427D+01  1  2  2  1  7  1        1 0.112469278398D-02 0.100000000000D+01
0.626103794649D-07 0.000000000000D+00 -.390025522304D-06 0.438593439247D-05 0.000000000000D+00  7 1 -2 -24 -13 13 23 21 2 0.11817357D+00 0.48353731D-01 0.38966874D+05 0.38966874D+05 0.38966874D+05 0.11569427D+01  1  2  3  1  7  1        1 0.928051179646D-06 0.100000000000D+01
0.621988977039D-05 0.000000000000D+00 0.000000000000D+00 0.438593439247D-05 0.000000000000D+00  7 1 -2 -24 -13 13 23 21 2 0.11817357D+00 0.48353731D-01 0.38966874D+05 0.38966874D+05 0.38966874D+05 0.11569427D+01  1  2 15  1  7  1        1 0.921951933211D-04 0.100000000000D+01
0.587481497300D-03 0.000000000000D+00 0.000000000000D+00 0.438593439247D-05 0.000000000000D+00  7 1 -2 -24 -13 13 23 21 2 0.12969477D+00 0.48353731D-01 0.44887581D+05 0.44887581D+05 0.44887581D+05 0.11514387D+01  1  2 12  1  7  1        1 0.743331846143D-02 0.100000000000D+01
-.602009475633D-03 0.000000000000D+00 0.000000000000D+00 0.438593439247D-05 0.000000000000D+00  7 1 -2 -24 -13 13 23 21 2 0.11817357D+00 0.48353731D-01 0.38966874D+05 0.38966874D+05 0.38966874D+05 0.11569427D+01  1  2  4  1  7  1        1 -.892337035478D-02 0.100000000000D+01
-.864375139577D-03 0.000000000000D+00 -.138714921584D-03 0.438593439247D-05 0.000000000000D+00  7 1 -2 -24 -13 13 23 21 2 0.12986742D+00 0.48353731D-01 0.38966874D+05 0.38966874D+05 0.38966874D+05 0.11569427D+01  1  2  5  1  7  1        1 -.110659345553D-01 0.100000000000D+01
0.874184837529D-03 0.000000000000D+00 0.138099664138D-03 0.438593439247D-05 0.000000000000D+00  7 1 -2 -24 -13 13 23 21 2 0.11817357D+00 0.48353731D-01 0.38966874D+05 0.38966874D+05 0.38966874D+05 0.11569427D+01  1  2  6  1  7  1        1 0.129577280418D-01 0.100000000000D+01
0.898445509182D-05 0.000000000000D+00 0.000000000000D+00 0.438593439247D-05 0.000000000000D+00  7 21 -2 -24 -13 13 23 -1 2 0.12969477D+00 0.48353731D-01 0.44887581D+05 0.44887581D+05 0.44887581D+05 0.11514387D+01  1  2 12  3  7  1        1 0.200415723899D-03 0.100000000000D+01
-.129396412511D-04 0.000000000000D+00 -.214241303350D-05 0.438593439247D-05 0.000000000000D+00  7 21 -2 -24 -13 13 23 -1 2 0.12986742D+00 0.48353731D-01 0.38966874D+05 0.38966874D+05 0.38966874D+05 0.11569427D+01  1  2  5  3  7  1        1 -.293354032837D-03 0.100000000000D+01
  </mgrwgt>
  </event>
  <event>
  8     66 0.29493621E-05 0.39709716E+03 0.75467711E-02 0.81744119E-01
        1 -1    0    0  501    0 0.00000000E+00 0.00000000E+00 0.65665112E+03 0.65665120E+03 0.32000000E+00 0.0000E+00 0.9000E+01
       -2 -1    0    0    0  501 0.00000000E+00 0.00000000E+00 -.41550845E+03 0.41550857E+03 0.32000000E+00 0.0000E+00 0.9000E+01
       25  2    1    2    0    0 -.32639830E+03 -.17254014E+03 -.17860459E+03 0.50739351E+03 0.29873503E+03 0.0000E+00 0.0000E+00
       23  2    3    3    0    0 -.10556765E+03 -.92179007E+02 0.41528126E+02 0.17273286E+03 0.92035621E+02 0.0000E+00 0.0000E+00
      -24  1    1    2    0    0 0.32639830E+03 0.17254014E+03 0.41974727E+03 0.56476627E+03 0.80419002E+02 0.0000E+00 0.9000E+01
      -13  1    4    4    0    0 0.48661598E+01 0.11691239E+02 -.57737987E+01 0.13918064E+02 0.10565837E+00 0.0000E+00 0.9000E+01
       13  1    4    4    0    0 -.11043381E+03 -.10387025E+03 0.47301925E+02 0.15881479E+03 0.10565837E+00 0.0000E+00 0.9000E+01
       23  1    3    3    0    0 -.22083065E+03 -.80361134E+02 -.22013272E+03 0.33466065E+03 0.91188000E+02 0.0000E+00 0.9000E+01
#aMCatNLO 1  0  0  1  2 0.17880440D+04 0.00000000D+00  -5  7  0 0.00000000D+00 0.00000000D+00 0.00000000D+00 0.00000000D+00 0.00000000D+00
  <mgrwgt>
 0.1257965415D-02    5    2    0
 0.522344903674896D+03 0.000000000000000D+00 0.000000000000000D+00 0.522344903674896D+03
 0.522344903674896D+03 0.000000000000000D+00 0.000000000000000D+00 -.522344903674896D+03
 0.482727687174709D+03 0.326398301495892D+03 0.172540140333393D+03 0.300421125696918D+03
 0.156166061343054D+02 0.486631178702677D+01 0.116913911915538D+02 -.913831323338870D+01
 0.152072420826968D+03 -.110433966168479D+03 -.103870397913576D+03 0.118869983489905D+02
 0.394273093213810D+03 -.220830647114440D+03 -.803611336113706D+02 -.303169810812520D+03
 0.000000000000000D+00 0.000000000000000D+00 -.000000000000000D+00 0.000000000000000D+00
 0.264596372715651D+04 0.000000000000000D+00 0.000000000000000D+00 0.264596372715651D+04
 0.153171245251078D+04 0.000000000000000D+00 0.000000000000000D+00 -.153171245251078D+04
 0.642437519893896D+03 -.219459833693786D+03 0.517535776196335D+03 0.300421125696918D+03
 0.346066345623957D+02 -.194987897444250D+02 0.270907287736299D+02 -.913831323338870D+01
 0.366245461370600D+03 -.361888624412791D+03 0.550550702972265D+02 0.118869983489905D+02
 0.102757447326921D+04 -.910620072070484D+03 0.355602582843182D+03 -.303169810812520D+03
 0.210681209057119D+04 0.151146731992149D+04 -.955284158110373D+03 0.111425127464574D+04
0.161358570594D-03 0.000000000000D+00 0.000000000000D+00 0.194004538570D-05 0.000000000000D+00  7 1 -2 -24 -13 13 23 21 0 0.10102327D+00 0.63924392D-01 0.15768615D+06 0.15768615D+06 0.15768615D+06 0.11058433D+01  1  2  2  1  7  1        1 0.123888721182D-02 0.100000000000D+01
-.814520558834D-05 0.000000000000D+00 -.619659397769D-06 0.194004538570D-05 0.000000000000D+00  7 1 -2 -24 -13 13 23 21 2 0.10102327D+00 0.63924392D-01 0.15768615D+06 0.15768615D+06 0.15768615D+06 0.11058433D+01  1  2  3  1  7  1        1 -.764766749795D-04 0.100000000000D+01
0.999819898749D-05 0.000000000000D+00 0.000000000000D+00 0.194004538570D-05 0.000000000000D+00  7 1 -2 -24 -13 13 23 21 2 0.10102327D+00 0.63924392D-01 0.15768615D+06 0.15768615D+06 0.15768615D+06 0.11058433D+01  1  2 15  1  7  1        1 0.938747347816D-04 0.100000000000D+01
0.176085821267D-03 0.000000000000D+00 -.826848436012D-04 0.194004538570D-05 0.000000000000D+00  7 1 -2 -24 -13 13 23 21 2 0.69402927D+00 0.63924392D-01 0.15768615D+06 0.15768615D+06 0.15768615D+06 0.11058433D+01  1  2  5  1  7  1        1 0.166248438962D-05 0.100000000000D+01
0.340260781733D-04 0.000000000000D+00 -.194903674009D-04 0.194004538570D-05 0.000000000000D+00  7 21 -2 -24 -13 13 23 -1 2 0.69402927D+00 0.63924392D-01 0.15768615D+06 0.15768615D+06 0.15768615D+06 0.11058433D+01  1  2  5  3  7  1        1 0.176586075000D-07 0.100000000000D+01
  </mgrwgt>
  </event>
  <event>
  8     66 0.29493621E-05 0.25510982E+03 0.75467711E-02 0.89905270E-01
        1 -1    0    0  501    0 0.00000000E+00 0.00000000E+00 0.13680894E+04 0.13680895E+04 0.32000000E+00 0.0000E+00 0.9000E+01
       -2 -1    0    0    0  501 0.00000000E+00 0.00000000E+00 -.19979145E+03 0.19979170E+03 0.32000000E+00 0.0000E+00 0.9000E+01
       25  2    1    2    0    0 -.15815278E+03 -.81473019E+02 0.12911137E+04 0.13372276E+04 0.29925362E+03 0.0000E+00 0.0000E+00
       23  2    3    3    0    0 -.30211335E+02 -.12432265E+03 0.90187777E+03 0.91529749E+03 0.89538402E+02 0.0000E+00 0.0000E+00
      -24  1    1    2    0    0 0.15815278E+03 0.81473019E+02 -.12281576E+03 0.23065360E+03 0.80419002E+02 0.0000E+00 0.9000E+01
      -11  1    4    4    0    0 -.38504140E+02 -.13397994E+03 0.86768901E+03 0.87881591E+03 0.51099893E-03 0.0000E+00 0.9000E+01
       11  1    4    4    0    0 0.82928045E+01 0.96572819E+01 0.34188766E+02 0.36481576E+02 0.51099893E-03 0.0000E+00 0.9000E+01
       23  1    3    3    0    0 -.12794144E+03 0.42849635E+02 0.38923596E+03 0.42193008E+03 0.91188000E+02 0.0000E+00 0.9000E+01
#aMCatNLO 1  0  0  1  1 0.72287631D+03 0.00000000D+00  -5  7  0 0.00000000D+00 0.00000000D+00 0.00000000D+00 0.00000000D+00 0.00000000D+00
  <mgrwgt>
 0.2718711516D-02    3    2    0
 0.522812391793995D+03 0.000000000000000D+00 0.000000000000000D+00 0.522812391793995D+03
 0.522812391793995D+03 0.000000000000000D+00 0.000000000000000D+00 -.522812391793995D+03
 0.483082312971297D+03 0.158152778918830D+03 0.814730187723074D+02 -.441872324188455D+03
 0.348269866408001D+03 -.385041399208878D+02 -.133979935619341D+03 0.319153110447378D+03
 0.165031575010122D+02 0.829280453302385D+01 0.965728189319454D+01 0.105033569355541D+02
 0.197769446707680D+03 -.127941443530966D+03 0.428496349538389D+02 0.112215856805522D+03
 0.000000000000000D+00 0.000000000000000D+00 0.000000000000000D+00 -.000000000000000D+00
 0.708012748975962D+03 0.000000000000000D+00 0.000000000000000D+00 0.708012748975962D+03
 0.243932128150674D+04 0.000000000000000D+00 0.000000000000000D+00 -.243932128150674D+04
 0.474977308826495D+03 -.287018483166551D+02 -.151859411842632D+03 -.441872324188455D+03
 0.512332600953168D+03 -.206351265066352D+03 -.343576980452296D+03 0.319153110447378D+03
 0.112680117031246D+02 0.287646994228604D+01 0.289370031226903D+01 0.105033569355541D+02
 0.272595296100166D+03 -.219678770397065D+03 -.717062300652695D+02 0.112215856805522D+03
 0.187616081289975D+04 0.451855413837786D+03 0.564248922047929D+03 -.173130853253078D+04
0.286447265730D-03 0.000000000000D+00 0.000000000000D+00 0.330003222369D-05 0.000000000000D+00  7 1 -2 -24 -11 11 23 21 0 0.21047532D+00 0.30737168D-01 0.65081022D+05 0.65081022D+05 0.65081022D+05 0.11373595D+01  1  2  2  1  7  1        1 0.258638169720D-02 0.100000000000D+01
-.595206936309D-05 0.000000000000D+00 -.110003292370D-05 0.330003222369D-05 0.000000000000D+00  7 1 -2 -24 -11 11 23 21 2 0.21047532D+00 0.30737168D-01 0.65081022D+05 0.65081022D+05 0.65081022D+05 0.11373595D+01  1  2  3  1  7  1        1 -.695202690451D-04 0.100000000000D+01
0.172816609886D-04 0.000000000000D+00 0.000000000000D+00 0.330003222369D-05 0.000000000000D+00  7 1 -2 -24 -11 11 23 21 2 0.21047532D+00 0.30737168D-01 0.65081022D+05 0.65081022D+05 0.65081022D+05 0.11373595D+01  1  2 15  1  7  1        1 0.201850087455D-03 0.100000000000D+01
  </mgrwgt>
  </event>
  <event>
  8     66 0.29493621E-05 0.22113610E+03 0.75467711E-02 0.10481770E+00
        1 -1    0    0  501    0 0.00000000E+00 0.00000000E+00 0.72087470E+03 0.72087477E+03 0.32000000E+00 0.0000E+00 0.9000E+01
       -2 -1    0    0    0  501 0.00000000E+00 0.00000000E+00 -.98559892E+02 0.98560411E+02 0.32000000E+00 0.0000E+00 0.9000E+01
       25  2    1    2    0    0 -.59593851E+01 -.13904421E+03 0.25140588E+03 0.41519582E+03 0.29968959E+03 0.0000E+00 0.0000E+00
       23  2    3    3    0    0 -.86220359E+02 -.41878191E+02 0.21965098E+03 0.25642969E+03 0.91224453E+02 0.0000E+00 0.0000E+00
      -24  1    1    2    0    0 0.59593851E+01 0.13904421E+03 0.37090893E+03 0.40423936E+03 0.80419002E+02 0.0000E+00 0.9000E+01
      -11  1    4    4    0    0 -.14436529E+02 -.51561382E+02 0.13372630E+03 0.14404761E+03 0.51099893E-03 0.0000E+00 0.9000E+01
       11  1    4    4    0    0 -.71783830E+02 0.96831912E+01 0.85924675E+02 0.11238208E+03 0.51099893E-03 0.0000E+00 0.9000E+01
       23  1    3    3    0    0 0.80260974E+02 -.97166022E+02 0.31754897E+02 0.15876613E+03 0.91188000E+02 0.0000E+00 0.9000E+01
#aMCatNLO 1  0  0  1  1 0.26794141D+01 0.00000000D+00  -5  7  0 0.00000000D+00 0.00000000D+00 0.00000000D+00 0.00000000D+00 0.00000000D+00
  <mgrwgt>
 0.6233898859D-03    6    2    0
 0.266551259665812D+03 0.000000000000000D+00 0.000000000000000D+00 0.266551259665812D+03
 0.266551259665812D+03 0.000000000000000D+00 0.000000000000000D+00 -.266551259665812D+03
 0.188379959909155D+03 0.595938511715963D+01 0.139044212754902D+03 0.982394318458696D+02
 0.653116780831670D+02 -.144365287291538D+02 -.515613820304690D+02 0.373982060452047D+02
 0.724394130770452D+02 -.717838299980852D+02 0.968319124430171D+01 0.886636948853187D+00
 0.206971468262257D+03 0.802609736100794D+02 -.971660219687348D+02 -.136524274839927D+03
 0.000000000000000D+00 0.000000000000000D+00 0.000000000000000D+00 -.000000000000000D+00
 0.267290103251123D+03 0.000000000000000D+00 0.000000000000000D+00 0.267290103251123D+03
 0.268994968204744D+03 0.000000000000000D+00 0.000000000000000D+00 -.268994968204744D+03
 0.187851682855517D+03 0.531324195253331D+01 0.138353974600781D+03 0.982394318458696D+02
 0.655512813390605D+02 -.146612737987394D+02 -.518014644618420D+02 0.373982060452047D+02
 0.726513638381389D+02 -.720330100326649D+02 0.941700632348543D+01 0.886636948853187D+00
 0.207054924726611D+03 0.795499214459423D+02 -.979255987314812D+02 -.136524274839927D+03
 0.317581869653987D+01 0.183112043292860D+01 0.195608226905649D+01 -.170486495362137D+01
0.737883324695D-05 0.000000000000D+00 0.000000000000D+00 0.172135385504D-05 0.000000000000D+00  7 1 -2 -24 -11 11 23 21 0 0.11090385D+00 0.15163106D-01 0.48901176D+05 0.48901176D+05 0.48901176D+05 0.11481452D+01  1  2  2  1  7  1        1 0.662063554524D-03 0.100000000000D+01
-.392545340266D-06 0.000000000000D+00 -.283366625597D-07 0.172135385504D-05 0.000000000000D+00  7 1 -2 -24 -11 11 23 21 2 0.11090385D+00 0.15163106D-01 0.48901176D+05 0.48901176D+05 0.48901176D+05 0.11481452D+01  1  2  3  1  7  1        1 -.464296555197D-04 0.100000000000D+01
0.475311855839D-06 0.000000000000D+00 0.000000000000D+00 0.172135385504D-05 0.000000000000D+00  7 1 -2 -24 -11 11 23 21 2 0.11090385D+00 0.15163106D-01 0.48901176D+05 0.48901176D+05 0.48901176D+05 0.11481452D+01  1  2 15  1  7  1        1 0.562191509295D-04 0.100000000000D+01
-.343325941040D-04 0.000000000000D+00 0.000000000000D+00 0.172135385504D-05 0.000000000000D+00  7 1 -2 -24 -11 11 23 21 2 0.11090385D+00 0.15163106D-01 0.48901176D+05 0.48901176D+05 0.48901176D+05 0.11481452D+01  1  2  4  1  7  1        1 -.406080611292D-02 0.100000000000D+01
0.343289621331D-04 0.000000000000D+00 0.000000000000D+00 0.172135385504D-05 0.168441072179D-05  7 1 -2 -24 -11 11 23 21 2 0.11121126D+00 0.15302119D-01 0.49494492D+05 0.49494492D+05 0.49494492D+05 0.11476838D+01  1  2 11  1  7  1        1 0.398213734010D-02 0.100000000000D+01
0.124284010912D-06 0.000000000000D+00 0.000000000000D+00 0.172135385504D-05 0.872843618281D-09  7 21 -2 -24 -11 11 23 -1 2 0.11121126D+00 0.15302119D-01 0.49494492D+05 0.49494492D+05 0.49494492D+05 0.11476838D+01  1  2 11  3  7  1        1 0.302056088301D-04 0.100000000000D+01
  </mgrwgt>
  </event>
  <event>
  8     66 0.29493621E-05 0.25328594E+03 0.75467711E-02 0.10293014E+00
        1 -1    0    0  501    0 0.00000000E+00 0.00000000E+00 0.11680907E+03 0.11680951E+03 0.32000000E+00 0.0000E+00 0.9000E+01
       -2 -1    0    0    0  501 0.00000000E+00 0.00000000E+00 -.10721632E+04 0.10721633E+04 0.32000000E+00 0.0000E+00 0.9000E+01
       25  2    1    2    0    0 -.15243483E+03 0.82368332E+01 -.15464967E+03 0.36988847E+03 0.29932714E+03 0.0000E+00 0.0000E+00
       23  2    3    3    0    0 -.54758698E+00 0.98598031E+02 -.81554625E+02 0.15800874E+03 0.92702399E+02 0.0000E+00 0.0000E+00
      -24  1    1    2    0    0 0.15243483E+03 -.82368332E+01 -.80070449E+03 0.81908432E+03 0.80419002E+02 0.0000E+00 0.9000E+01
      -11  1    4    4    0    0 -.30398708E+01 0.11677205E+03 -.67616706E+02 0.13497026E+03 0.51099893E-03 0.0000E+00 0.9000E+01
       11  1    4    4    0    0 0.24922838E+01 -.18174014E+02 -.13937919E+02 0.23038487E+02 0.51099893E-03 0.0000E+00 0.9000E+01
       23  1    3    3    0    0 -.15188724E+03 -.90361198E+02 -.73095046E+02 0.21187973E+03 0.91188000E+02 0.0000E+00 0.9000E+01
#aMCatNLO 1  0  0  1  1 0.44251241D+01 0.00000000D+00  -5  7  0 0.00000000D+00 0.00000000D+00 0.00000000D+00 0.00000000D+00 0.00000000D+00
  <mgrwgt>
 0.9342203982D-03    8    2    0
 0.353890772950817D+03 0.000000000000000D+00 0.000000000000000D+00 0.353890772950817D+03
 0.353890772950817D+03 0.000000000000000D+00 0.000000000000000D+00 -.353890772950817D+03
 0.295165364776613D+03 0.152434831263432D+03 -.823683322788661D+01 -.239481008444105D+03
 0.135462788678173D+03 -.303987075982549D+01 0.116772045810283D+03 0.685945742716731D+02
 0.198881769914719D+02 0.249228378423933D+01 -.181740144409279D+02 0.768331339227250D+01
 0.257265215455375D+03 -.151887244287846D+03 -.903611981414689D+02 0.163203120780159D+03
 0.000000000000000D+00 0.000000000000000D+00 -.000000000000000D+00 -.000000000000000D+00
 0.354231372368447D+03 0.000000000000000D+00 0.000000000000000D+00 0.354231372368447D+03
 0.368568596234635D+03 0.000000000000000D+00 0.000000000000000D+00 -.368568596234635D+03
 0.294264260800935D+03 0.150717611964306D+03 -.756883536099229D+01 -.239481008444105D+03
 0.135747825850910D+03 -.383000427396769D+01 0.117079407544616D+03 0.685945742716731D+02
 0.198328502648958D+02 0.237656222626894D+01 -.181289987845599D+02 0.768331339227250D+01
 0.257950442018317D+03 -.153388251756479D+03 -.897773066211780D+02 0.163203120780159D+03
 0.150045896680239D+02 0.412408183987166D+01 -.160426677788581D+01 -.143372238661877D+02
0.111791948364D-03 0.000000000000D+00 0.000000000000D+00 0.152367479830D-05 0.000000000000D+00  7 1 -2 -24 -11 11 23 21 0 0.17970664D-01 0.16494823D+00 0.64153769D+05 0.64153769D+05 0.64153769D+05 0.11378936D+01  1  2  2  1  7  1        1 0.880520576863D-03 0.100000000000D+01
-.536590655564D-05 0.000000000000D+00 -.429310517216D-06 0.152367479830D-05 0.000000000000D+00  7 1 -2 -24 -11 11 23 21 2 0.17970664D-01 0.16494823D+00 0.64153769D+05 0.64153769D+05 0.64153769D+05 0.11378936D+01  1  2  3  1  7  1        1 -.547236913282D-04 0.100000000000D+01
0.704533510712D-05 0.000000000000D+00 0.000000000000D+00 0.152367479830D-05 0.000000000000D+00  7 1 -2 -24 -11 11 23 21 2 0.17970664D-01 0.16494823D+00 0.64153769D+05 0.64153769D+05 0.64153769D+05 0.11378936D+01  1  2 15  1  7  1        1 0.718511848292D-04 0.100000000000D+01
-.224190702278D-04 0.000000000000D+00 0.000000000000D+00 0.152367479830D-05 0.000000000000D+00  7 1 -2 -24 -11 11 23 21 2 0.17970664D-01 0.16494823D+00 0.64153769D+05 0.64153769D+05 0.64153769D+05 0.11378936D+01  1  2  4  1  7  1        1 -.228638770782D-03 0.100000000000D+01
0.127165444081D-04 0.000000000000D+00 0.000000000000D+00 0.152367479830D-05 0.000000000000D+00  7 1 -2 -24 -11 11 23 21 2 0.18862677D-01 0.16494823D+00 0.64153769D+05 0.64153769D+05 0.64153769D+05 0.11378936D+01  1  2  5  1  7  1        1 0.121765104007D-03 0.100000000000D+01
-.127016369152D-04 0.000000000000D+00 0.000000000000D+00 0.152367479830D-05 0.000000000000D+00  7 1 -2 -24 -11 11 23 21 2 0.17970664D-01 0.16494823D+00 0.64153769D+05 0.64153769D+05 0.64153769D+05 0.11378936D+01  1  2  6  1  7  1        1 -.129536444718D-03 0.100000000000D+01
0.207989591389D-04 0.000000000000D+00 0.000000000000D+00 0.152367479830D-05 0.537275867989D-06  7 1 -2 -24 -11 11 23 21 2 0.17987959D-01 0.17178955D+00 0.65179880D+05 0.65179880D+05 0.65179880D+05 0.11373031D+01  1  2 11  1  7  1        1 0.188511448441D-03 0.100000000000D+01
0.105781463343D-05 0.000000000000D+00 0.000000000000D+00 0.152367479830D-05 0.991173251313D-10  7 21 -2 -24 -11 11 23 -1 2 0.17987959D-01 0.17178955D+00 0.65179880D+05 0.65179880D+05 0.65179880D+05 0.11373031D+01  1  2 11  3  7  1        1 0.844709908704D-04 0.100000000000D+01
  </mgrwgt>
  </event>
  <event>
  8     66 0.29493621E-05 0.16125413E+03 0.75467711E-02 0.97711862E-01
        1 -1    0    0  501    0 0.00000000E+00 0.00000000E+00 0.49377315E+03 0.49377325E+03 0.32000000E+00 0.0000E+00 0.9000E+01
       -2 -1    0    0    0  501 0.00000000E+00 0.00000000E+00 -.18963057E+03 0.18963084E+03 0.32000000E+00 0.0000E+00 0.9000E+01
       25  2    1    2    0    0 -.45244632E+01 -.22216452E+03 0.15574197E+03 0.40435661E+03 0.29978519E+03 0.0000E+00 0.0000E+00
       23  2    3    3    0    0 -.92096892E+01 0.25725346E+02 0.88656203E+02 0.13180003E+03 0.93620052E+02 0.0000E+00 0.0000E+00
      -24  1    1    2    0    0 0.45244632E+01 0.22216452E+03 0.14840060E+03 0.27904749E+03 0.80419002E+02 0.0000E+00 0.9000E+01
      -13  1    4    4    0    0 0.12979091E+02 -.14784893E+00 -.16651793E+02 0.21113314E+02 0.10565837E+00 0.0000E+00 0.9000E+01
       13  1    4    4    0    0 -.22188780E+02 0.25873195E+02 0.10530800E+03 0.11068672E+03 0.10565837E+00 0.0000E+00 0.9000E+01
       23  1    3    3    0    0 0.46852260E+01 -.24788987E+03 0.67085772E+02 0.27255658E+03 0.91188000E+02 0.0000E+00 0.9000E+01
#aMCatNLO 1  0  0  2  1 0.19555778D+03 0.00000000D+00  -5  7  0 0.00000000D+00 0.00000000D+00 0.00000000D+00 0.00000000D+00 0.00000000D+00
  <mgrwgt>
 0.5241638679D-03    7    2    0
 0.305997733499972D+03 0.000000000000000D+00 0.000000000000000D+00 0.305997733499972D+03
 0.305997733499972D+03 0.000000000000000D+00 0.000000000000000D+00 -.305997733499972D+03
 0.237856750826857D+03 0.452446316391584D+01 0.222164519858951D+03 0.270383673408592D+02
 0.318522164909149D+02 0.129791346630952D+02 -.147880060526326D+00 -.290875212121805D+02
 0.712670972841732D+02 -.221888239251869D+02 0.258732300164232D+02 0.625877880791941D+02
 0.271019402397998D+03 0.468522609817587D+01 -.247889869814848D+03 -.605386342078728D+02
 0.000000000000000D+00 -.000000000000000D+00 0.000000000000000D+00 -.000000000000000D+00
 0.354523723416541D+03 0.000000000000000D+00 0.000000000000000D+00 0.354523723416541D+03
 0.608491629201340D+03 0.000000000000000D+00 0.000000000000000D+00 -.608491629201340D+03
 0.179958663888361D+03 0.154305011750956D+02 0.157951673239442D+03 0.270383673408592D+02
 0.341798986057129D+02 0.147027397093410D+02 -.102961654739584D+02 -.290875212121805D+02
 0.654790420418195D+02 -.186194041746306D+02 0.485711007184213D+01 0.625877880791941D+02
 0.362862975069421D+03 0.212311577699134D+02 -.345309425067179D+03 -.605386342078728D+02
 0.320534773012568D+03 -.327449944797194D+02 0.192796807229853D+03 -.253967905784799D+03
0.126785602213D-04 0.000000000000D+00 0.000000000000D+00 0.623104952281D-06 0.000000000000D+00  7 1 -2 -24 -13 13 23 21 0 0.75965129D-01 0.29173963D-01 0.74953071D+05 0.74953071D+05 0.74953071D+05 0.11321442D+01  1  2  2  2  7  2       -2 0.658898971175D-03 0.100000000000D+01
-.693761501031D-06 0.000000000000D+00 -.486890095915D-07 0.623104952281D-06 0.000000000000D+00  7 1 -2 -24 -13 13 23 21 2 0.75965129D-01 0.29173963D-01 0.74953071D+05 0.74953071D+05 0.74953071D+05 0.11321442D+01  1  2  3  2  7  2       -2 -.462128289169D-04 0.100000000000D+01
0.827710407391D-06 0.000000000000D+00 0.000000000000D+00 0.623104952281D-06 0.000000000000D+00  7 1 -2 -24 -13 13 23 21 2 0.75965129D-01 0.29173963D-01 0.74953071D+05 0.74953071D+05 0.74953071D+05 0.11321442D+01  1  2 15  2  7  2       -2 0.551354311138D-04 0.100000000000D+01
0.200931282758D-05 0.000000000000D+00 0.000000000000D+00 0.623104952281D-06 0.000000000000D+00  7 1 -2 -24 -13 13 23 21 2 0.75965129D-01 0.58254151D-01 0.14762611D+06 0.14762611D+06 0.14762611D+06 0.11080990D+01  1  2 12  2  7  2       -2 0.345705440514D-04 0.100000000000D+01
-.877328666727D-05 0.000000000000D+00 -.393092918022D-05 0.623104952281D-06 0.000000000000D+00  7 1 -2 -24 -13 13 23 21 2 0.75965129D-01 0.65085102D-01 0.74953071D+05 0.74953071D+05 0.74953071D+05 0.11321442D+01  1  2  5  2  7  2       -2 -.127371310151D-03 0.100000000000D+01
0.150359370230D-06 0.000000000000D+00 0.000000000000D+00 0.623104952281D-06 0.000000000000D+00  7 1 21 -24 -13 13 23 2 2 0.75965129D-01 0.58254151D-01 0.14762611D+06 0.14762611D+06 0.14762611D+06 0.11080990D+01  1  2 12  4  7  2       -2 0.267898840890D-04 0.100000000000D+01
-.515639093338D-06 0.000000000000D+00 -.342261431419D-06 0.623104952281D-06 0.000000000000D+00  7 1 21 -24 -13 13 23 2 2 0.75965129D-01 0.65085102D-01 0.74953071D+05 0.74953071D+05 0.74953071D+05 0.11321442D+01  1  2  5  4  7  2       -2 -.776468234317D-04 0.100000000000D+01
  </mgrwgt>
  </event>
  <event>
  8     66 0.29493621E-05 0.14949757E+03 0.75467711E-02 0.90966119E-01
        1 -1    0    0  501    0 0.00000000E+00 0.00000000E+00 0.49477500E+03 0.49477510E+03 0.32000000E+00 0.0000E+00 0.9000E+01
       -2 -1    0    0    0  501 0.00000000E+00 0.00000000E+00 -.64994478E+03 0.64994486E+03 0.32000000E+00 0.0000E+00 0.9000E+01
       25  2    1    2    0    0 -.50214419E+03 0.63452587E+02 -.22057422E+03 0.62807698E+03 0.29942058E+03 0.0000E+00 0.0000E+00
       23  2    3    3    0    0 -.27348205E+03 0.80593742E+02 -.23800131E+03 0.38069236E+03 0.83631724E+02 0.0000E+00 0.0000E+00
      -24  1    1    2    0    0 0.50214419E+03 -.63452587E+02 0.65404431E+02 0.51664299E+03 0.80419002E+02 0.0000E+00 0.9000E+01
      -11  1    4    4    0    0 -.19158013E+03 0.67041551E+02 -.21247232E+03 0.29384009E+03 0.51099893E-03 0.0000E+00 0.9000E+01
       11  1    4    4    0    0 -.81901924E+02 0.13552192E+02 -.25528998E+02 0.86852270E+02 0.51099893E-03 0.0000E+00 0.9000E+01
       23  1    3    3    0    0 -.22866214E+03 -.17141156E+02 0.17427096E+02 0.24738462E+03 0.91188000E+02 0.0000E+00 0.9000E+01
#aMCatNLO 1  0  0  2  1 0.32595963D+03 0.00000000D+00  -5  7  0 0.00000000D+00 0.00000000D+00 0.00000000D+00 0.00000000D+00 0.00000000D+00
  <mgrwgt>
 0.1949147181D-02    9    2    0
 0.567077183978477D+03 0.000000000000000D+00 0.000000000000000D+00 0.567077183978477D+03
 0.567077183978477D+03 0.000000000000000D+00 0.000000000000000D+00 -.567077183978477D+03
 0.530404279666317D+03 0.502144190454114D+03 -.634525868504462D+02 0.136698446037778D+03
 0.267507971492924D+03 -.191580126773106D+03 0.670415508241397D+02 -.174249821523449D+03
 0.841686110875357D+02 -.819019238393209D+02 0.135521915587738D+02 -.138840940567692D+02
 0.252073505710177D+03 -.228662139841687D+03 -.171411555324673D+02 0.514354695424399D+02
 0.000000000000000D+00 -.000000000000000D+00 0.000000000000000D+00 -.000000000000000D+00
 0.700626160951454D+03 0.000000000000000D+00 0.000000000000000D+00 0.700626160951454D+03
 0.830214438053189D+03 0.000000000000000D+00 0.000000000000000D+00 -.830214438053189D+03
 0.697337466410145D+03 0.673551483904296D+03 -.863380535229306D+02 0.136698446037778D+03
 0.221210564306166D+03 -.123349229071725D+03 0.579316938049431D+02 -.174249821523449D+03
 0.637285406422187D+02 -.612537292430208D+02 0.107953452206222D+02 -.138840940567692D+02
 0.197789449461570D+03 -.165855941538247D+03 -.255267331188525D+02 0.514354695424399D+02
 0.350774578184543D+03 -.323092584051302D+03 0.431377476162179D+02 -.129588277101734D+03
0.407166680503D-03 0.000000000000D+00 0.000000000000D+00 0.211312565887D-06 0.000000000000D+00  7 1 -2 -24 -11 11 23 21 0 0.76119244D-01 0.99991519D-01 0.27313357D+06 0.27313357D+06 0.27313357D+06 0.10875794D+01  1  2  2  2  7  2       -2 0.168633063817D-02 0.100000000000D+01
-.224370727509D-04 0.000000000000D+00 -.156362726258D-05 0.211312565887D-06 0.000000000000D+00  7 1 -2 -24 -11 11 23 21 2 0.76119244D-01 0.99991519D-01 0.27313357D+06 0.27313357D+06 0.27313357D+06 0.10875794D+01  1  2  3  2  7  2       -2 -.109915420352D-03 0.100000000000D+01
0.255986718190D-04 0.000000000000D+00 0.000000000000D+00 0.211312565887D-06 0.000000000000D+00  7 1 -2 -24 -11 11 23 21 2 0.76119244D-01 0.99991519D-01 0.27313357D+06 0.27313357D+06 0.27313357D+06 0.10875794D+01  1  2 15  2  7  2       -2 0.125403558864D-03 0.100000000000D+01
0.669369401841D-04 0.000000000000D+00 0.000000000000D+00 0.211312565887D-06 0.000000000000D+00  7 1 -2 -24 -11 11 23 21 2 0.76119244D-01 0.15375654D+00 0.48945798D+06 0.48945798D+06 0.48945798D+06 0.10691651D+01  1  2 12  2  7  2       -2 0.101283140729D-03 0.100000000000D+01
-.183546386715D-03 0.000000000000D+00 0.000000000000D+00 0.211312565887D-06 0.000000000000D+00  7 1 -2 -24 -11 11 23 21 2 0.76119244D-01 0.99991519D-01 0.27313357D+06 0.27313357D+06 0.27313357D+06 0.10875794D+01  1  2  4  2  7  2       -2 -.899162670370D-03 0.100000000000D+01
-.227406648173D-03 0.000000000000D+00 -.134366364074D-03 0.211312565887D-06 0.000000000000D+00  7 1 -2 -24 -11 11 23 21 2 0.76119244D-01 0.16941390D+00 0.27313357D+06 0.27313357D+06 0.27313357D+06 0.10875794D+01  1  2  5  2  7  2       -2 -.277592626319D-03 0.100000000000D+01
0.275758923711D-03 0.000000000000D+00 0.117632909222D-03 0.211312565887D-06 0.000000000000D+00  7 1 -2 -24 -11 11 23 21 2 0.76119244D-01 0.99991519D-01 0.27313357D+06 0.27313357D+06 0.27313357D+06 0.10875794D+01  1  2  6  2  7  2       -2 0.135089627565D-02 0.100000000000D+01
0.336305522538D-05 0.000000000000D+00 0.000000000000D+00 0.211312565887D-06 0.000000000000D+00  7 1 21 -24 -11 11 23 2 2 0.76119244D-01 0.15375654D+00 0.48945798D+06 0.48945798D+06 0.48945798D+06 0.10691651D+01  1  2 12  4  7  2       -2 0.423700458220D-04 0.100000000000D+01
-.695748827802D-05 0.000000000000D+00 -.790589837430D-05 0.211312565887D-06 0.000000000000D+00  7 1 21 -24 -11 11 23 2 2 0.76119244D-01 0.16941390D+00 0.27313357D+06 0.27313357D+06 0.27313357D+06 0.10875794D+01  1  2  5  4  7  2       -2 -.704657610490D-04 0.100000000000D+01
  </mgrwgt>
  </event>
  <event>
  8     66 0.29493621E-05 0.25162655E+03 0.75467711E-02 0.97336405E-01
        1 -1    0    0  501    0 0.00000000E+00 0.00000000E+00 0.28053214E+03 0.28053232E+03 0.32000000E+00 0.0000E+00 0.9000E+01
       -2 -1    0    0    0  501 0.00000000E+00 0.00000000E+00 -.89003683E+03 0.89003689E+03 0.32000000E+00 0.0000E+00 0.9000E+01
       25  2    1    2    0    0 -.65305337E+01 0.16437084E+03 -.82150328E+03 0.89044239E+03 0.30159509E+03 0.0000E+00 0.0000E+00
       23  2    3    3    0    0 0.11180330E+03 0.11968986E+03 -.46125304E+03 0.49789332E+03 0.91201736E+02 0.0000E+00 0.0000E+00
      -24  1    1    2    0    0 0.65305337E+01 -.16437084E+03 0.21199858E+03 0.28012682E+03 0.80419002E+02 0.0000E+00 0.9000E+01
      -13  1    4    4    0    0 0.92733954E+02 0.92274553E+02 -.43820712E+03 0.45731791E+03 0.10565837E+00 0.0000E+00 0.9000E+01
       13  1    4    4    0    0 0.19069341E+02 0.27415304E+02 -.23045920E+02 0.40575414E+02 0.10565837E+00 0.0000E+00 0.9000E+01
       23  1    3    3    0    0 -.11833383E+03 0.44680984E+02 -.36025024E+03 0.39254907E+03 0.91188000E+02 0.0000E+00 0.9000E+01
#aMCatNLO 1  0  0  1  1 0.26135055D+03 0.00000000D+00  -5  7  0 0.00000000D+00 0.00000000D+00 0.00000000D+00 0.00000000D+00 0.00000000D+00
  <mgrwgt>
 0.8939006449D-03    7    2    0
 0.499683976432529D+03 0.000000000000000D+00 0.000000000000000D+00 0.499683976432529D+03
 0.499683976432529D+03 0.000000000000000D+00 0.000000000000000D+00 -.499683976432529D+03
 0.457411067920762D+03 0.653053371900357D+01 -.164370840402527D+03 0.419162555647274D+03
 0.268402926202657D+03 0.927340525394581D+02 0.922746398662834D+02 -.234362789562050D+03
 0.334705739608331D+02 0.190692422053190D+02 0.274152165768368D+02 -.224704762468782D+01
 0.240083384780804D+03 -.118333828463781D+03 0.446809839594066D+02 -.182552718460535D+03
 0.000000000000000D+00 -.000000000000000D+00 -.000000000000000D+00 0.000000000000000D+00
 0.661106988561428D+03 0.000000000000000D+00 0.000000000000000D+00 0.661106988561428D+03
 0.634564408807921D+03 0.000000000000000D+00 0.000000000000000D+00 -.634564408807921D+03
 0.437903208749848D+03 0.701225534632940D+02 -.683928630638879D+02 0.419162555647274D+03
 0.310940524516594D+03 0.133883424460418D+03 0.154380443418524D+03 -.234362789562050D+03
 0.433272918775071D+02 0.245240099086468D+02 0.356479724025320D+02 -.224704762468782D+01
 0.240805457963407D+03 -.841774505533124D+02 0.962324219895730D+02 -.182552718460535D+03
 0.262694914261994D+03 -.144352537279046D+03 -.217867974746741D+03 0.265425797535074D+02
0.236204217054D-03 0.000000000000D+00 0.000000000000D+00 0.207731781348D-05 0.000000000000D+00  7 1 -2 -24 -13 13 23 21 0 0.43158809D-01 0.13692876D+00 0.63315919D+05 0.63315919D+05 0.63315919D+05 0.11383835D+01  1  2  2  1  7  1        1 0.994790193950D-03 0.100000000000D+01
-.561344735362D-05 0.000000000000D+00 -.907086387485D-06 0.207731781348D-05 0.000000000000D+00  7 1 -2 -24 -13 13 23 21 2 0.43158809D-01 0.13692876D+00 0.63315919D+05 0.63315919D+05 0.63315919D+05 0.11383835D+01  1  2  3  1  7  1        1 -.306373151452D-04 0.100000000000D+01
0.144754420152D-04 0.000000000000D+00 0.000000000000D+00 0.207731781348D-05 0.000000000000D+00  7 1 -2 -24 -13 13 23 21 2 0.43158809D-01 0.13692876D+00 0.63315919D+05 0.63315919D+05 0.63315919D+05 0.11383835D+01  1  2 15  1  7  1        1 0.790046919385D-04 0.100000000000D+01
-.899257129002D-04 0.000000000000D+00 0.000000000000D+00 0.207731781348D-05 0.000000000000D+00  7 1 -2 -24 -13 13 23 21 2 0.43158809D-01 0.13692876D+00 0.63315919D+05 0.63315919D+05 0.63315919D+05 0.11383835D+01  1  2  4  1  7  1        1 -.490800435494D-03 0.100000000000D+01
-.245853862682D-04 0.000000000000D+00 -.899010473978D-04 0.207731781348D-05 0.000000000000D+00  7 1 -2 -24 -13 13 23 21 2 0.71179881D-01 0.13692876D+00 0.63315919D+05 0.63315919D+05 0.63315919D+05 0.11383835D+01  1  2  5  1  7  1        1 -.692925778889D-04 0.100000000000D+01
0.707150309864D-04 0.000000000000D+00 0.797140193020D-04 0.207731781348D-05 0.000000000000D+00  7 1 -2 -24 -13 13 23 21 2 0.43158809D-01 0.13692876D+00 0.63315919D+05 0.63315919D+05 0.63315919D+05 0.11383835D+01  1  2  6  1  7  1        1 0.385951546946D-03 0.100000000000D+01
0.267099530914D-05 0.000000000000D+00 -.507145199382D-05 0.207731781348D-05 0.000000000000D+00  7 21 -2 -24 -13 13 23 -1 2 0.71179881D-01 0.13692876D+00 0.63315919D+05 0.63315919D+05 0.63315919D+05 0.11383835D+01  1  2  5  3  7  1        1 0.248845406342D-04 0.100000000000D+01
  </mgrwgt>
  </event>
  <event>
  9     66 0.29493621E-05 0.22248956E+03 0.75467711E-02 0.99945777E-01
        1 -1    0    0  502    0 0.00000000E+00 0.00000000E+00 0.15808861E+03 0.15808893E+03 0.32000000E+00 0.0000E+00 0.9000E+01
       -2 -1    0    0    0  501 0.00000000E+00 0.00000000E+00 -.85566588E+03 0.85566594E+03 0.32000000E+00 0.0000E+00 0.9000E+01
       25  2    1    2    0    0 0.36880085E+02 -.20468014E+03 -.34498267E+03 0.50230861E+03 0.30007797E+03 0.0000E+00 0.0000E+00
       23  2    3    3    0    0 0.49524403E+02 -.23564352E+03 -.30032493E+03 0.39540597E+03 0.90389573E+02 0.0000E+00 0.0000E+00
      -24  1    1    2    0    0 0.65976049E+02 0.67462726E+02 -.31126353E+03 0.33504665E+03 0.80419002E+02 0.0000E+00 0.9000E+01
      -11  1    4    4    0    0 0.65033480E+02 -.19476909E+03 -.27992356E+03 0.34716213E+03 0.51099893E-03 0.0000E+00 0.9000E+01
       11  1    4    4    0    0 -.15509077E+02 -.40874435E+02 -.20401379E+02 0.48243831E+02 0.51099893E-03 0.0000E+00 0.9000E+01
       23  1    3    3    0    0 -.12644319E+02 0.30963381E+02 -.44657738E+02 0.10690264E+03 0.91188000E+02 0.0000E+00 0.9000E+01
       21  1    1    2  502  501 -.10285613E+03 0.13721742E+03 -.41331079E+02 0.17639962E+03 0.75000000E+00 0.0000E+00 0.9000E+01
#aMCatNLO 2  0  0  1  2 0.17148762D+03 0.00000000D+00  -5  7  0 0.00000000D+00 0.00000000D+00 0.00000000D+00 0.00000000D+00 0.00000000D+00
  <mgrwgt>
 0.1771485920D-03    2    2    0
 0.245508017987393D+03 0.000000000000000D+00 0.000000000000000D+00 0.245508017987393D+03
 0.245508017987393D+03 0.000000000000000D+00 0.000000000000000D+00 -.245508017987393D+03
 0.160399214511221D+03 0.347384875041008D+02 0.109135859968787D+03 -.783791657026724D+02
 0.149861634735068D+03 0.288610274981906D+02 -.146512456278474D+03 -.126353002522266D+02
 0.468323138069115D+02 -.255557140852330D+02 -.274715048600407D+02 0.280265501770664D+02
 0.133922872921586D+03 -.380438009170583D+02 0.648481011697274D+02 0.629879157778326D+02
 0.000000000000000D+00 -.000000000000000D+00 0.000000000000000D+00 0.000000000000000D+00
 0.453991330156391D+03 0.000000000000000D+00 0.000000000000000D+00 0.453991330156391D+03
 0.297958802527333D+03 0.000000000000000D+00 0.000000000000000D+00 -.297958802527333D+03
 0.146678450715363D+03 0.659760486649174D+02 0.674627255320012D+02 -.783791657026724D+02
 0.205727980797856D+03 0.650334803373278D+02 -.194769088168306D+03 -.126353002522266D+02
 0.519301304647042D+02 -.155090768898839D+02 -.408744354001037D+02 0.280265501770664D+02
 0.115764150789782D+03 -.126443187746791D+02 0.309633805126030D+02 0.629879157778326D+02
 0.231849419916019D+03 -.102856133337682D+03 0.137217417523806D+03 0.156032527629059D+03
-.171149124182D-05 0.000000000000D+00 0.000000000000D+00 0.154315801820D-05 0.000000000000D+00  7 1 -2 -24 -11 11 23 21 2 0.24706307D-01 0.10846749D+00 0.10292999D+06 0.10292999D+06 0.10292999D+06 0.11206943D+01  1  2 13  1  7  1        1 -.333328032844D-04 0.100000000000D+01
0.172876300557D-04 0.000000000000D+00 0.000000000000D+00 0.154315801820D-05 0.412575457316D-09  7 1 -2 -24 -11 11 23 21 2 0.24321308D-01 0.13164069D+00 0.10292999D+06 0.10292999D+06 0.10292999D+06 0.11206943D+01  1  2  1  1  7  1        1 0.210481395304D-03 0.100000000000D+01
  </mgrwgt>
  </event>
  <event>
  8     66 0.29493621E-05 0.14060319E+03 0.75467711E-02 0.10251954E+00
        1 -1    0    0  501    0 0.00000000E+00 0.00000000E+00 0.13275739E+03 0.13275778E+03 0.32000000E+00 0.0000E+00 0.9000E+01
       -2 -1    0    0    0  501 0.00000000E+00 0.00000000E+00 -.54757016E+03 0.54757025E+03 0.32000000E+00 0.0000E+00 0.9000E+01
       25  2    1    2    0    0 -.85745420E+02 0.16855819E+02 -.45727482E+03 0.55420651E+03 0.30067956E+03 0.0000E+00 0.0000E+00
       23  2    3    3    0    0 -.73046604E+02 0.10002250E+03 -.11522461E+03 0.19035001E+03 0.87270316E+02 0.0000E+00 0.0000E+00
      -24  1    1    2    0    0 0.85745420E+02 -.16855819E+02 0.42462054E+02 0.12612152E+03 0.80419002E+02 0.0000E+00 0.9000E+01
      -11  1    4    4    0    0 -.85196346E+02 0.97743254E+02 -.78435858E+02 0.15153991E+03 0.51099893E-03 0.0000E+00 0.9000E+01
       11  1    4    4    0    0 0.12149742E+02 0.22792457E+01 -.36788756E+02 0.38810099E+02 0.51099893E-03 0.0000E+00 0.9000E+01
       23  1    3    3    0    0 -.12698816E+02 -.83166680E+02 -.34205021E+03 0.36385650E+03 0.91188000E+02 0.0000E+00 0.9000E+01
#aMCatNLO 1  0  0  1  2 0.13780738D+03 0.00000000D+00  -5  7  0 0.00000000D+00 0.00000000D+00 0.00000000D+00 0.00000000D+00 0.00000000D+00
  <mgrwgt>
 0.4712646312D-03    7    2    0
 0.269618525228499D+03 0.000000000000000D+00 0.000000000000000D+00 0.269618525228499D+03
 0.269618525228499D+03 0.000000000000000D+00 0.000000000000000D+00 -.269618525228499D+03
 0.191785425606334D+03 0.857454201159502D+02 -.168558190239819D+02 0.150592290024430D+03
 0.130852756288296D+03 -.851963459568680D+02 0.977432538368448D+02 0.176148458190204D+02
 0.206646638202607D+02 0.121497420908976D+02 0.227924565700648D+01 -.165595029262379D+02
 0.195934204742107D+03 -.126988162499798D+02 -.831666804698694D+02 -.151647632917213D+03
 0.000000000000000D+00 0.000000000000000D+00 -.000000000000000D+00 0.000000000000000D+00
 0.568185254233872D+03 0.000000000000000D+00 0.000000000000000D+00 0.568185254233872D+03
 0.294660796440338D+03 0.000000000000000D+00 0.000000000000000D+00 -.294660796440338D+03
 0.178255063127822D+03 0.497102086675605D+02 0.125900323970496D+02 0.150592290024430D+03
 0.167723770552215D+03 -.114272267662164D+03 0.121502383755921D+03 0.176148458190204D+02
 0.192930211836804D+02 0.825859052250904D+01 0.545886543261357D+01 -.165595029262379D+02
 0.191295724015452D+03 -.504079664288086D+02 -.523529849551514D+02 -.151647632917213D+03
 0.306278471795041D+03 0.106711434900903D+03 -.871982966304330D+02 0.273524457793535D+03
0.316813868946D-04 0.000000000000D+00 0.000000000000D+00 0.148869003856D-06 0.000000000000D+00  7 1 -2 -24 -11 11 23 21 0 0.20424251D-01 0.84241600D-01 0.37027649D+05 0.37027649D+05 0.37027649D+05 0.11589490D+01  1  2  2  1  7  1        1 0.115020884959D-02 0.100000000000D+01
-.151660971368D-05 0.000000000000D+00 -.121664867576D-06 0.148869003856D-06 0.000000000000D+00  7 1 -2 -24 -11 11 23 21 2 0.20424251D-01 0.84241600D-01 0.37027649D+05 0.37027649D+05 0.37027649D+05 0.11589490D+01  1  2  3  1  7  1        1 -.739562754686D-04 0.100000000000D+01
0.198800826802D-05 0.000000000000D+00 0.000000000000D+00 0.148869003856D-06 0.000000000000D+00  7 1 -2 -24 -11 11 23 21 2 0.20424251D-01 0.84241600D-01 0.37027649D+05 0.37027649D+05 0.37027649D+05 0.11589490D+01  1  2 15  1  7  1        1 0.969436538471D-04 0.100000000000D+01
0.904773697522D-05 0.000000000000D+00 0.000000000000D+00 0.148869003856D-06 0.000000000000D+00  7 1 -2 -24 -11 11 23 21 2 0.42969770D-01 0.84241600D-01 0.69297131D+05 0.69297131D+05 0.69297131D+05 0.11350324D+01  1  2 12  1  7  1        1 0.160989790830D-03 0.100000000000D+01
-.399494207523D-04 0.000000000000D+00 -.104470657719D-04 0.148869003856D-06 0.000000000000D+00  7 1 -2 -24 -11 11 23 21 2 0.46032468D-01 0.84241600D-01 0.37027649D+05 0.37027649D+05 0.37027649D+05 0.11589490D+01  1  2  5  1  7  1        1 -.686709565556D-03 0.100000000000D+01
0.727832257054D-06 0.000000000000D+00 0.000000000000D+00 0.148869003856D-06 0.000000000000D+00  7 21 -2 -24 -11 11 23 -1 2 0.42969770D-01 0.84241600D-01 0.69297131D+05 0.69297131D+05 0.69297131D+05 0.11350324D+01  1  2 12  3  7  1        1 0.658337086363D-04 0.100000000000D+01
-.286526938522D-05 0.000000000000D+00 -.922018180944D-06 0.148869003856D-06 0.000000000000D+00  7 21 -2 -24 -11 11 23 -1 2 0.46032468D-01 0.84241600D-01 0.37027649D+05 0.37027649D+05 0.37027649D+05 0.11589490D+01  1  2  5  3  7  1        1 -.242045530727D-03 0.100000000000D+01
  </mgrwgt>
  </event>
  <event>
  9     66 -.29493621E-05 0.51555375E+03 0.75467711E-02 0.94187862E-01
        1 -1    0    0  502    0 0.00000000E+00 0.00000000E+00 0.19106821E+04 0.19106821E+04 0.32000000E+00 0.0000E+00 0.9000E+01
       -2 -1    0    0    0  501 0.00000000E+00 0.00000000E+00 -.29167256E+03 0.29167274E+03 0.32000000E+00 0.0000E+00 0.9000E+01
       25  2    1    2    0    0 -.24703208E+03 -.43570595E+03 0.15715156E+04 0.16763019E+04 0.29910252E+03 0.0000E+00 0.0000E+00
       23  2    3    3    0    0 -.15359740E+03 -.19249544E+03 0.44977747E+03 0.52109931E+03 0.92725731E+02 0.0000E+00 0.0000E+00
      -24  1    1    2    0    0 0.25328411E+03 0.43026203E+03 0.29907892E+02 0.50659644E+03 0.80419002E+02 0.0000E+00 0.9000E+01
      -11  1    4    4    0    0 -.50017465E+02 -.35159643E+02 0.19425027E+03 0.20364458E+03 0.51099893E-03 0.0000E+00 0.9000E+01
       11  1    4    4    0    0 -.10357993E+03 -.15733579E+03 0.25552720E+03 0.31745473E+03 0.51099893E-03 0.0000E+00 0.9000E+01
       23  1    3    3    0    0 -.93434687E+02 -.24321052E+03 0.11217381E+04 0.11552026E+04 0.91188000E+02 0.0000E+00 0.9000E+01
       21  1    1    2  502  501 -.62520283E+01 0.54439258E+01 0.17586013E+02 0.19456479E+02 0.75000000E+00 0.0000E+00 0.9000E+01
#aMCatNLO 2  0  0  1  2 0.82900052D+01 0.00000000D+00  -5  7  0 0.00000000D+00 0.00000000D+00 0.00000000D+00 0.00000000D+00 0.00000000D+00
  <mgrwgt>
 -.5252994640D-03    3    2    0
 0.741690516660668D+03 0.000000000000000D+00 0.000000000000000D+00 0.741690516660668D+03
 0.741690516660668D+03 0.000000000000000D+00 0.000000000000000D+00 -.741690516660668D+03
 0.713715539726661D+03 0.250277127871698D+03 0.432880342943287D+03 -.502890269989930D+03
 0.900508848209295D+02 -.503968258468202D+02 -.348293166933541D+02 0.660018219466071D+02
 0.191154662307279D+03 -.104385877025467D+03 -.156634018285498D+03 0.333088263853970D+02
 0.488459946466466D+03 -.954944249994112D+02 -.241417007964435D+03 0.403579621657925D+03
 0.000000000000000D+00 -.000000000000000D+00 0.000000000000000D+00 0.000000000000000D+00
 0.748947510201429D+03 0.000000000000000D+00 0.000000000000000D+00 0.748947510201429D+03
 0.744073399322135D+03 0.000000000000000D+00 0.000000000000000D+00 -.744073399322135D+03
 0.713192885141950D+03 0.253284110580282D+03 0.430262026141908D+03 -.502890269989930D+03
 0.899677044532108D+02 -.500174652825844D+02 -.351596432151142D+02 0.660018219466071D+02
 0.191292528789229D+03 -.103579930357460D+03 -.157335792757241D+03 0.333088263853970D+02
 0.488951079467290D+03 -.934346866147054D+02 -.243210515989514D+03 0.403579621657925D+03
 0.961671167188355D+01 -.625202832553206D+01 0.544392581996129D+01 0.487411087929325D+01
-.142470697276D-03 0.000000000000D+00 0.000000000000D+00 0.476035847407D-05 0.000000000000D+00  7 1 -2 -24 -11 11 23 21 2 0.29440990D+00 0.44728137D-01 0.27016566D+06 0.27016566D+06 0.27016566D+06 0.10879336D+01  1  2 13  1  7  1        1 -.312228233072D-03 0.100000000000D+01
-.641757423830D-02 0.000000000000D+00 0.000000000000D+00 0.476035847407D-05 0.000000000000D+00  7 1 -2 -24 -11 11 23 21 2 0.29109713D+00 0.44728137D-01 0.26579567D+06 0.26579567D+06 0.26579567D+06 0.10884630D+01  1  2  8  1  7  1        1 -.145616304738D-01 0.100000000000D+01
0.655762088220D-02 0.000000000000D+00 0.000000000000D+00 0.476035847407D-05 0.437270420664D-06  7 1 -2 -24 -11 11 23 21 2 0.29394534D+00 0.44871839D-01 0.27016566D+06 0.27016566D+06 0.27016566D+06 0.10879336D+01  1  2  1  1  7  1        1 0.143485592429D-01 0.100000000000D+01
  </mgrwgt>
  </event>
  <event>
  8     66 0.29493621E-05 0.97725435E+02 0.75467711E-02 0.10332934E+00
        1 -1    0    0  501    0 0.00000000E+00 0.00000000E+00 0.25396755E+04 0.25396756E+04 0.32000000E+00 0.0000E+00 0.9000E+01
       -2 -1    0    0    0  501 0.00000000E+00 0.00000000E+00 -.34564552E+02 0.34566033E+02 0.32000000E+00 0.0000E+00 0.9000E+01
       25  2    1    2    0    0 -.11062753E+03 -.41001169E+02 0.79046154E+03 0.85365754E+03 0.29997033E+03 0.0000E+00 0.0000E+00
       23  2    3    3    0    0 0.18079525E+02 -.30367479E+02 0.79807157E+02 0.12563042E+03 0.90359100E+02 0.0000E+00 0.0000E+00
      -24  1    1    2    0    0 0.11062753E+03 0.41001169E+02 0.17146495E+04 0.17205841E+04 0.80419002E+02 0.0000E+00 0.9000E+01
      -11  1    4    4    0    0 -.31821953E+02 -.10486883E+02 0.55197667E+01 0.33957021E+02 0.51099893E-03 0.0000E+00 0.9000E+01
       11  1    4    4    0    0 0.49901478E+02 -.19880595E+02 0.74287390E+02 0.91673399E+02 0.51099893E-03 0.0000E+00 0.9000E+01
       23  1    3    3    0    0 -.12870706E+03 -.10633690E+02 0.71065439E+03 0.72802712E+03 0.91188000E+02 0.0000E+00 0.9000E+01
#aMCatNLO 1  0  0  1  2 0.98780379D+02 0.00000000D+00  -5  7  0 0.00000000D+00 0.00000000D+00 0.00000000D+00 0.00000000D+00 0.00000000D+00
  <mgrwgt>
 0.1116741462D-02    9    2    0
 0.296284795108508D+03 0.000000000000000D+00 0.000000000000000D+00 0.296284795108508D+03
 0.296284795108508D+03 0.000000000000000D+00 0.000000000000000D+00 -.296284795108508D+03
 0.225816292946701D+03 0.110627532802814D+03 0.410011687722372D+02 0.174946378502365D+03
 0.124181105544649D+03 -.318219531200235D+02 -.104868832883986D+02 -.119575647825190D+03
 0.841948665979121D+02 0.499014784278114D+02 -.198805953500326D+02 -.648334785484101D+02
 0.158377325127753D+03 -.128707058110602D+03 -.106336901338060D+02 0.946274787123465D+01
 0.000000000000000D+00 -.000000000000000D+00 0.000000000000000D+00 0.000000000000000D+00
 0.378558312411980D+03 0.000000000000000D+00 0.000000000000000D+00 0.378558312411980D+03
 0.331573422295571D+03 0.000000000000000D+00 0.000000000000000D+00 -.331573422295571D+03
 0.247330499730325D+03 0.149792932574749D+03 0.407553940239280D+02 0.174946378502365D+03
 0.120601083359069D+03 -.115597587358640D+02 -.106140346963750D+02 -.119575647825190D+03
 0.936957958748634D+02 0.646266314231875D+02 -.199730001459067D+02 -.648334785484101D+02
 0.139119058836359D+03 -.104081371137778D+03 -.107882237796498D+02 0.946274787123465D+01
 0.109385296906935D+03 -.987784341242943D+02 0.619864598003466D+00 0.469848901164087D+02
0.333726274042D-04 0.000000000000D+00 0.000000000000D+00 0.263034948259D-05 0.000000000000D+00  7 1 -2 -24 -11 11 23 21 0 0.39071943D+00 0.53177389D-02 0.37654990D+05 0.37654990D+05 0.37654990D+05 0.11582875D+01  1  2  2  1  7  1        1 0.832234460402D-03 0.100000000000D+01
-.145028462619D-05 0.000000000000D+00 -.128159676447D-06 0.263034948259D-05 0.000000000000D+00  7 1 -2 -24 -11 11 23 21 2 0.39071943D+00 0.53177389D-02 0.37654990D+05 0.37654990D+05 0.37654990D+05 0.11582875D+01  1  2  3  1  7  1        1 -.485222913383D-04 0.100000000000D+01
0.200194793880D-05 0.000000000000D+00 0.000000000000D+00 0.263034948259D-05 0.000000000000D+00  7 1 -2 -24 -11 11 23 21 2 0.39071943D+00 0.53177389D-02 0.37654990D+05 0.37654990D+05 0.37654990D+05 0.11582875D+01  1  2 15  1  7  1        1 0.669793359015D-04 0.100000000000D+01
0.127506464684D-04 0.000000000000D+00 0.000000000000D+00 0.263034948259D-05 0.000000000000D+00  7 1 -2 -24 -11 11 23 21 2 0.51743525D+00 0.53177389D-02 0.61440799D+05 0.61440799D+05 0.61440799D+05 0.11395064D+01  1  2 12  1  7  1        1 0.102555889661D-03 0.100000000000D+01
-.207556453390D-04 0.000000000000D+00 0.000000000000D+00 0.263034948259D-05 0.000000000000D+00  7 1 -2 -24 -11 11 23 21 2 0.39071943D+00 0.53177389D-02 0.37654990D+05 0.37654990D+05 0.37654990D+05 0.11582875D+01  1  2  4  1  7  1        1 -.694423323442D-03 0.100000000000D+01
-.313016840000D-04 0.000000000000D+00 -.121216441554D-04 0.263034948259D-05 0.000000000000D+00  7 1 -2 -24 -11 11 23 21 2 0.51538913D+00 0.53177389D-02 0.37654990D+05 0.37654990D+05 0.37654990D+05 0.11582875D+01  1  2  5  1  7  1        1 -.272339559886D-03 0.100000000000D+01
0.338044086261D-04 0.000000000000D+00 0.116712338595D-04 0.263034948259D-05 0.000000000000D+00  7 1 -2 -24 -11 11 23 21 2 0.39071943D+00 0.53177389D-02 0.37654990D+05 0.37654990D+05 0.37654990D+05 0.11582875D+01  1  2  6  1  7  1        1 0.113099686383D-02 0.100000000000D+01
0.469934729676D-06 0.000000000000D+00 0.000000000000D+00 0.263034948259D-05 0.000000000000D+00  7 21 -2 -24 -11 11 23 -1 2 0.51743525D+00 0.53177389D-02 0.61440799D+05 0.61440799D+05 0.61440799D+05 0.11395064D+01  1  2 12  3  7  1        1 0.631790187155D-06 0.100000000000D+01
-.902126218981D-06 0.000000000000D+00 -.442160844578D-06 0.263034948259D-05 0.000000000000D+00  7 21 -2 -24 -11 11 23 -1 2 0.51538913D+00 0.53177389D-02 0.37654990D+05 0.37654990D+05 0.37654990D+05 0.11582875D+01  1  2  5  3  7  1        1 -.137170281236D-05 0.100000000000D+01
  </mgrwgt>
  </event>
  <event>
  8     66 0.29493621E-05 0.49615623E+03 0.75467711E-02 0.84285748E-01
        1 -1    0    0  501    0 0.00000000E+00 0.00000000E+00 0.30724369E+04 0.30724369E+04 0.32000000E+00 0.0000E+00 0.9000E+01
       -2 -1    0    0    0  501 0.00000000E+00 0.00000000E+00 -.12124864E+04 0.12124864E+04 0.32000000E+00 0.0000E+00 0.9000E+01
       25  2    1    2    0    0 0.75579817E+03 0.10624172E+04 0.24960541E+04 0.28319759E+04 0.29973401E+03 0.0000E+00 0.0000E+00
       23  2    3    3    0    0 0.18556500E+03 0.26725107E+03 0.45730881E+03 0.56873652E+03 0.92045553E+02 0.0000E+00 0.0000E+00
      -24  1    1    2    0    0 -.75579817E+03 -.10624172E+04 -.63610356E+03 0.14529474E+04 0.80419002E+02 0.0000E+00 0.9000E+01
      -11  1    4    4    0    0 0.37973571E+02 0.22376235E+02 0.25711931E+02 0.51027359E+02 0.51099893E-03 0.0000E+00 0.9000E+01
       11  1    4    4    0    0 0.14759143E+03 0.24487483E+03 0.43159688E+03 0.51770916E+03 0.51099893E-03 0.0000E+00 0.9000E+01
       23  1    3    3    0    0 0.57023317E+03 0.79516611E+03 0.20387452E+04 0.22632394E+04 0.91188000E+02 0.0000E+00 0.9000E+01
#aMCatNLO 1  0  0  2  1 0.16742072D+03 0.00000000D+00  -5  7  0 0.00000000D+00 0.00000000D+00 0.00000000D+00 0.00000000D+00 0.00000000D+00
  <mgrwgt>
 0.3000018968D-03    9    2    0
 0.193010049001568D+04 0.000000000000000D+00 0.000000000000000D+00 0.193010049001568D+04
 0.193010049001568D+04 0.000000000000000D+00 0.000000000000000D+00 -.193010049001568D+04
 0.191930140733270D+04 -.755798174217889D+03 -.106241717341038D+04 -.140616128012632D+04
 0.442529806524103D+02 0.379735710223412D+02 0.223762346343493D+02 0.395453208639606D+01
 0.366715418539808D+03 0.147591432749060D+03 0.244874830433098D+03 0.229637289206843D+03
 0.152993117350645D+04 0.570233170446488D+03 0.795166108342931D+03 0.117256945883308D+04
 0.000000000000000D+00 0.000000000000000D+00 0.000000000000000D+00 -.000000000000000D+00
 0.197184807058650D+04 0.000000000000000D+00 0.000000000000000D+00 0.197184807058650D+04
 0.210739389072356D+04 0.000000000000000D+00 0.000000000000000D+00 -.210739389072356D+04
 0.196854729809525D+04 -.759412513228335D+03 -.114660993276242D+04 -.140616128012632D+04
 0.432543581906339D+02 0.378922198143996D+02 0.204812317988573D+02 0.395453208639606D+01
 0.356174924529634D+03 0.146919397655827D+03 0.229220380555203D+03 0.229637289206843D+03
 0.149585329429043D+04 0.567420249556873D+03 0.729641659515304D+03 0.117256945883308D+04
 0.215412086204111D+03 0.718064620123497D+01 0.167266660893057D+03 -.135545820137055D+03
0.223510402688D-01 0.000000000000D+00 0.000000000000D+00 0.140496485196D-03 0.000000000000D+00  7 1 -2 -24 -11 11 23 21 0 0.47268260D+00 0.18653637D+00 0.17148289D+07 0.17148289D+07 0.17148289D+07 0.10326196D+01  1  2  2  2  7  2       -2 0.176532754385D-03 0.100000000000D+01
-.101453885964D-02 0.000000000000D+00 -.858338797962D-04 0.140496485196D-03 0.000000000000D+00  7 1 -2 -24 -11 11 23 21 2 0.47268260D+00 0.18653637D+00 0.17148289D+07 0.17148289D+07 0.17148289D+07 0.10326196D+01  1  2  3  2  7  2       -2 -.854430968001D-05 0.100000000000D+01
0.140243110773D-02 0.000000000000D+00 0.000000000000D+00 0.140496485196D-03 0.000000000000D+00  7 1 -2 -24 -11 11 23 21 2 0.47268260D+00 0.18653637D+00 0.17148289D+07 0.17148289D+07 0.17148289D+07 0.10326196D+01  1  2 15  2  7  2       -2 0.118110859682D-04 0.100000000000D+01
0.716144925461D-01 0.000000000000D+00 0.000000000000D+00 0.140496485196D-03 0.000000000000D+00  7 1 -2 -24 -11 11 23 21 2 0.47268260D+00 0.20556533D+00 0.19448951D+07 0.19448951D+07 0.19448951D+07 0.10291579D+01  1  2 12  2  7  2       -2 0.434706522470D-03 0.100000000000D+01
-.722771283242D-01 0.000000000000D+00 0.000000000000D+00 0.140496485196D-03 0.000000000000D+00  7 1 -2 -24 -11 11 23 21 2 0.47268260D+00 0.18653637D+00 0.17148289D+07 0.17148289D+07 0.17148289D+07 0.10326196D+01  1  2  4  2  7  2       -2 -.608708243468D-03 0.100000000000D+01
-.146296284142D+00 0.000000000000D+00 -.255991387830D-01 0.140496485196D-03 0.000000000000D+00  7 1 -2 -24 -11 11 23 21 2 0.47268260D+00 0.20586301D+00 0.17148289D+07 0.17148289D+07 0.17148289D+07 0.10326196D+01  1  2  5  2  7  2       -2 -.901671773679D-03 0.100000000000D+01
0.148222995213D+00 0.000000000000D+00 0.254752422485D-01 0.140496485196D-03 0.000000000000D+00  7 1 -2 -24 -11 11 23 21 2 0.47268260D+00 0.18653637D+00 0.17148289D+07 0.17148289D+07 0.17148289D+07 0.10326196D+01  1  2  6  2  7  2       -2 0.124831410917D-02 0.100000000000D+01
0.113430941897D-02 0.000000000000D+00 0.000000000000D+00 0.140496485196D-03 0.000000000000D+00  7 1 21 -24 -11 11 23 2 2 0.47268260D+00 0.20556533D+00 0.19448951D+07 0.19448951D+07 0.19448951D+07 0.10291579D+01  1  2 12  4  7  2       -2 0.506796761005D-04 0.100000000000D+01
-.226486894534D-02 0.000000000000D+00 -.410695503740D-03 0.140496485196D-03 0.000000000000D+00  7 1 21 -24 -11 11 23 2 2 0.47268260D+00 0.20586301D+00 0.17148289D+07 0.17148289D+07 0.17148289D+07 0.10326196D+01  1  2  5  4  7  2       -2 -.103117924455D-03 0.100000000000D+01
  </mgrwgt>
  </event>
  <event>
  7     66 0.29493621E-05 0.48046528E+03 0.75467711E-02 0.91953839E-01
        1 -1    0    0  501    0 0.00000000E+00 0.00000000E+00 0.59238117E+03 0.59238126E+03 0.32000000E+00 0.0000E+00 0.9000E+01
       -2 -1    0    0    0  501 0.00000000E+00 0.00000000E+00 -.45551605E+03 0.45551616E+03 0.32000000E+00 0.0000E+00 0.9000E+01
       25  2    1    2    0    0 0.22674706E+03 0.37091678E+03 0.26031635E+03 0.58887574E+03 0.30002758E+03 0.0000E+00 0.0000E+00
      -24  1    1    2    0    0 -.22674706E+03 -.37091678E+03 -.12345123E+03 0.45902168E+03 0.80419002E+02 0.0000E+00 0.9000E+01
      -11  1    3    3    0    0 0.10535069E+02 -.13485350E+02 -.42771342E+01 0.17639054E+02 0.51099893E-03 0.0000E+00 0.9000E+01
       11  1    3    3    0    0 0.20951042E+03 0.34164991E+03 0.17914768E+03 0.43899108E+03 0.51099893E-03 0.0000E+00 0.9000E+01
       23  1    3    3    0    0 0.67015757E+01 0.42752215E+02 0.85445808E+02 0.13224561E+03 0.91188000E+02 0.0000E+00 0.9000E+01
#aMCatNLO 1  0  0  2  1 0.27550073D+03 0.00000000D+00  -5  7  0 0.00000000D+00 0.00000000D+00 0.00000000D+00 0.00000000D+00 0.00000000D+00
  <mgrwgt>
 0.1165536391D-02    4    2    0
 0.519460523540082D+03 0.000000000000000D+00 0.000000000000000D+00 0.519460523540082D+03
 0.519460523540082D+03 0.000000000000000D+00 0.000000000000000D+00 -.519460523540082D+03
 0.479250859371184D+03 -.226747060551656D+03 -.370916775263687D+03 -.184988341829476D+03
 0.183549171075578D+02 0.105350693610019D+02 -.134853499414739D+02 -.663781835697422D+01
 0.419183488612421D+03 0.209510416184659D+03 0.341649910916084D+03 0.122863831156458D+03
 0.122131781989001D+03 0.670157500599550D+01 0.427522142890766D+02 0.687623290299918D+02
 0.000000000000000D+00 0.000000000000000D+00 0.000000000000000D+00 0.000000000000000D+00
 0.700745693228791D+03 0.000000000000000D+00 0.000000000000000D+00 0.700745693228791D+03
 0.653590573681024D+03 0.000000000000000D+00 0.000000000000000D+00 -.653590573681024D+03
 0.604613510431953D+03 -.336138106957659D+03 -.460305080876348D+03 -.184988341829476D+03
 0.190887851408221D+02 0.675599341351129D+01 -.165734015400846D+02 -.663781835697422D+01
 0.333323489593333D+03 0.133562236627195D+03 0.279589264199066D+03 0.122863831156458D+03
 0.117803314432855D+03 -.175143250626444D+02 0.229643217042732D+02 0.687623290299918D+02
 0.279507167310852D+03 0.213334201979598D+03 0.174324896513093D+03 0.471551195477665D+02
0.228624346570D-03 0.000000000000D+00 0.000000000000D+00 0.875852355492D-08 0.000000000000D+00  7 1 -2 -24 -11 11 23 21 0 0.91135581D-01 0.70079407D-01 0.23084688D+06 0.23084688D+06 0.23084688D+06 0.10930729D+01  1  2  2  2  7  2       -2 0.165851465037D-02 0.100000000000D+01
-.126073110261D-04 0.000000000000D+00 -.877977689001D-06 0.875852355492D-08 0.000000000000D+00  7 1 -2 -24 -11 11 23 21 2 0.91135581D-01 0.70079407D-01 0.23084688D+06 0.23084688D+06 0.23084688D+06 0.10930729D+01  1  2  3  2  7  2       -2 -.109274170147D-03 0.100000000000D+01
0.146907699479D-04 0.000000000000D+00 0.000000000000D+00 0.875852355492D-08 0.000000000000D+00  7 1 -2 -24 -11 11 23 21 2 0.91135581D-01 0.70079407D-01 0.23084688D+06 0.23084688D+06 0.23084688D+06 0.10930729D+01  1  2 15  2  7  2       -2 0.127332600231D-03 0.100000000000D+01
-.589599398040D-04 0.000000000000D+00 0.000000000000D+00 0.875852355492D-08 0.000000000000D+00  7 1 -2 -24 -11 11 23 21 2 0.91135581D-01 0.70079407D-01 0.23084688D+06 0.23084688D+06 0.23084688D+06 0.10930729D+01  1  2  4  2  7  2       -2 -.511036689795D-03 0.100000000000D+01
  </mgrwgt>
  </event>
  <event>
  8     66 0.29493621E-05 0.34784781E+03 0.75467711E-02 0.95925928E-01
        1 -1    0    0  501    0 0.00000000E+00 0.00000000E+00 0.71656346E+03 0.71656353E+03 0.32000000E+00 0.0000E+00 0.9000E+01
       -2 -1    0    0    0  501 0.00000000E+00 0.00000000E+00 -.31471827E+03 0.31471843E+03 0.32000000E+00 0.0000E+00 0.9000E+01
       25  2    1    2    0    0 0.16449020E+03 -.22995953E+03 -.12274575E+03 0.42994903E+03 0.29975196E+03 0.0000E+00 0.0000E+00
       23  2    3    3    0    0 0.20713787E+03 -.12694717E+03 -.39131255E+02 0.26340473E+03 0.93963374E+02 0.0000E+00 0.0000E+00
      -24  1    1    2    0    0 -.16449020E+03 0.22995953E+03 0.52459094E+03 0.60133292E+03 0.80419002E+02 0.0000E+00 0.9000E+01
      -11  1    4    4    0    0 0.20732037E+03 -.98962811E+02 -.46671287E+02 0.23442181E+03 0.51099893E-03 0.0000E+00 0.9000E+01
       11  1    4    4    0    0 -.18250603E+00 -.27984355E+02 0.75400323E+01 0.28982918E+02 0.51099893E-03 0.0000E+00 0.9000E+01
       23  1    3    3    0    0 -.42647665E+02 -.10301237E+03 -.83614499E+02 0.16654431E+03 0.91188000E+02 0.0000E+00 0.9000E+01
#aMCatNLO 1  0  0  2  2 0.18738592D+03 0.00000000D+00  -5  7  0 0.00000000D+00 0.00000000D+00 0.00000000D+00 0.00000000D+00 0.00000000D+00
  <mgrwgt>
 0.1522478211D-02    4    2    0
 0.474884965501153D+03 0.000000000000000D+00 0.000000000000000D+00 0.474884965501153D+03
 0.474884965501153D+03 0.000000000000000D+00 0.000000000000000D+00 -.474884965501153D+03
 0.430988006625735D+03 -.164490201939835D+03 0.229959531817847D+03 0.315190471132556D+03
 0.274287072176917D+03 0.207320373144705D+03 -.989628114708235D+02 -.149860010637647D+03
 0.282801485459069D+02 -.182506035506236D+00 -.279843552813239D+02 -.407545737484764D+01
 0.216214703653748D+03 -.426476651693634D+02 -.103012365065699D+03 -.161255003120062D+03
 0.000000000000000D+00 -.000000000000000D+00 0.000000000000000D+00 0.000000000000000D+00
 0.670707903821192D+03 0.000000000000000D+00 0.000000000000000D+00 0.670707903821192D+03
 0.531065870105313D+03 0.000000000000000D+00 0.000000000000000D+00 -.531065870105313D+03
 0.403687748888884D+03 -.831450618972523D+02 0.224139350043547D+03 0.315190471132556D+03
 0.321767165467258D+03 0.265410134484719D+03 -.103119088908512D+03 -.149860010637647D+03
 0.291834218057925D+02 0.541773111852948D+01 -.283850479127290D+02 -.407545737484764D+01
 0.213440381495150D+03 -.774694928486575D+00 -.106008343658940D+03 -.161255003120062D+03
 0.233695056269420D+03 -.186908108777510D+03 0.133731304366340D+02 0.139642033715879D+03
0.152345600362D-03 0.000000000000D+00 0.000000000000D+00 0.261349128732D-05 0.000000000000D+00  7 1 -2 -24 -11 11 23 21 0 0.11024055D+00 0.48418213D-01 0.12099810D+06 0.12099810D+06 0.12099810D+06 0.11149917D+01  1  2  2  2  7  2       -2 0.181291179147D-02 0.100000000000D+01
-.746636194922D-05 0.000000000000D+00 -.585047218908D-06 0.261349128732D-05 0.000000000000D+00  7 1 -2 -24 -11 11 23 21 2 0.11024055D+00 0.48418213D-01 0.12099810D+06 0.12099810D+06 0.12099810D+06 0.11149917D+01  1  2  3  2  7  2       -2 -.110458490259D-03 0.100000000000D+01
0.973996646723D-05 0.000000000000D+00 0.000000000000D+00 0.261349128732D-05 0.000000000000D+00  7 1 -2 -24 -11 11 23 21 2 0.11024055D+00 0.48418213D-01 0.12099810D+06 0.12099810D+06 0.12099810D+06 0.11149917D+01  1  2 15  2  7  2       -2 0.144094540080D-03 0.100000000000D+01
-.219052528260D-04 0.000000000000D+00 0.000000000000D+00 0.261349128732D-05 0.000000000000D+00  7 1 -2 -24 -11 11 23 21 2 0.11024055D+00 0.48418213D-01 0.12099810D+06 0.12099810D+06 0.12099810D+06 0.11149917D+01  1  2  4  2  7  2       -2 -.324069630211D-03 0.100000000000D+01
  </mgrwgt>
  </event>
  <event>
  9     66 0.29493621E-05 0.23589462E+03 0.75467711E-02 0.10356704E+00
        1 -1    0    0  502    0 0.00000000E+00 0.00000000E+00 0.66465635E+03 0.66465643E+03 0.32000000E+00 0.0000E+00 0.9000E+01
       -2 -1    0    0    0  501 0.00000000E+00 0.00000000E+00 -.14193089E+03 0.14193125E+03 0.32000000E+00 0.0000E+00 0.9000E+01
       25  2    1    2    0    0 0.97719749E+02 -.71346179E+02 0.98850608E+02 0.34384371E+03 0.30629663E+03 0.0000E+00 0.0000E+00
       23  2    3    3    0    0 -.76247847E+02 0.63074624E+01 0.30106032E+02 0.12172689E+03 0.89763823E+02 0.0000E+00 0.0000E+00
      -24  1    1    2    0    0 -.10491519E+03 0.58222886E+02 0.42382008E+03 0.44775862E+03 0.80419002E+02 0.0000E+00 0.9000E+01
      -11  1    4    4    0    0 -.54804210E+02 -.38421110E+02 0.79517446E+01 0.67401138E+02 0.51099893E-03 0.0000E+00 0.9000E+01
       11  1    4    4    0    0 -.21443637E+02 0.44728572E+02 0.22154288E+02 0.54325751E+02 0.51099893E-03 0.0000E+00 0.9000E+01
       23  1    3    3    0    0 0.17396760E+03 -.77653642E+02 0.68744575E+02 0.22211682E+03 0.91188000E+02 0.0000E+00 0.9000E+01
       21  1    1    2  502  501 0.71954457E+01 0.13123293E+02 0.54768817E-01 0.14985351E+02 0.75000000E+00 0.0000E+00 0.9000E+01
#aMCatNLO 2  0  0  1  2 0.14966471D+02 0.00000000D+00  -5  7  0 0.00000000D+00 0.00000000D+00 0.00000000D+00 0.00000000D+00 0.00000000D+00
  <mgrwgt>
 0.3677375388D-03    2    2    0
 0.297163925779807D+03 0.000000000000000D+00 0.000000000000000D+00 0.297163925779807D+03
 0.297163925779807D+03 0.000000000000000D+00 0.000000000000000D+00 -.297163925779807D+03
 0.223677206229261D+03 -.102208116835536D+03 0.631601447514626D+02 0.170670951248490D+03
 0.812686146294877D+02 -.538114659262429D+02 -.366105104592114D+02 -.486681043660112D+02
 0.536028780761692D+02 -.207992851368341D+02 0.459037625255604D+02 -.182620607227740D+02
 0.235779152624696D+03 0.176818867898613D+03 -.724533968178116D+02 -.103740786159705D+03
 0.000000000000000D+00 0.000000000000000D+00 0.000000000000000D+00 -.000000000000000D+00
 0.300652844817416D+03 0.000000000000000D+00 0.000000000000000D+00 0.300652844817416D+03
 0.313754029048097D+03 0.000000000000000D+00 0.000000000000000D+00 -.313754029048097D+03
 0.223590903468736D+03 -.104915194552283D+03 0.582228864930928D+02 0.170670951248490D+03
 0.827542594745999D+02 -.548042097814302D+02 -.384211096773823D+02 -.486681043660112D+02
 0.528580890765605D+02 -.214436371611201D+02 0.447285719008057D+02 -.182620607227740D+02
 0.235313013861206D+03 0.173967595744895D+03 -.776536416799063D+02 -.103740786159705D+03
 0.198906079844104D+02 0.719544574993789D+01 0.131232929633902D+02 -.131011842306803D+02
-.167641592759D-05 0.000000000000D+00 0.000000000000D+00 0.118941662843D-07 0.000000000000D+00  7 1 -2 -24 -11 11 23 21 2 0.10106588D+00 0.20680493D-01 0.55646273D+05 0.55646273D+05 0.55646273D+05 0.11432305D+01  1  2  8  1  7  1        1 -.136536502276D-03 0.100000000000D+01
0.692292526605D-05 0.000000000000D+00 0.000000000000D+00 0.118941662843D-07 0.369052538004D-09  7 1 -2 -24 -11 11 23 21 2 0.10225247D+00 0.21835046D-01 0.59330215D+05 0.59330215D+05 0.59330215D+05 0.11408163D+01  1  2  1  1  7  1        1 0.504274041068D-03 0.100000000000D+01
  </mgrwgt>
  </event>
  <event>
  8     66 0.29493621E-05 0.64659471E+03 0.75467711E-02 0.89739553E-01
        1 -1    0    0  501    0 0.00000000E+00 0.00000000E+00 0.28490394E+04 0.28490394E+04 0.32000000E+00 0.0000E+00 0.9000E+01
       -2 -1    0    0    0  501 0.00000000E+00 0.00000000E+00 -.18264941E+03 0.18264969E+03 0.32000000E+00 0.0000E+00 0.9000E+01
       25  2    1    2    0    0 -.10116864E+02 -.63330341E+03 0.19496135E+04 0.20717873E+04 0.30022422E+03 0.0000E+00 0.0000E+00
       23  2    3    3    0    0 -.57302042E+02 -.24127929E+03 0.10960881E+04 0.11269433E+04 0.84219991E+02 0.0000E+00 0.0000E+00
      -24  1    1    2    0    0 0.10116864E+02 0.63330341E+03 0.71677649E+03 0.95990172E+03 0.80419002E+02 0.0000E+00 0.9000E+01
      -13  1    4    4    0    0 -.54060301E+02 -.17602961E+03 0.93771704E+03 0.95562660E+03 0.10565837E+00 0.0000E+00 0.9000E+01
       13  1    4    4    0    0 -.32417412E+01 -.65249689E+02 0.15837104E+03 0.17131674E+03 0.10565837E+00 0.0000E+00 0.9000E+01
       23  1    3    3    0    0 0.47185178E+02 -.39202412E+03 0.85352539E+03 0.94484400E+03 0.91188000E+02 0.0000E+00 0.9000E+01
#aMCatNLO 1  0  0  2  1 0.26032090D+03 0.00000000D+00  -5  7  0 0.00000000D+00 0.00000000D+00 0.00000000D+00 0.00000000D+00 0.00000000D+00
  <mgrwgt>
 0.2576061457D-02    4    2    0
 0.721370779060949D+03 0.000000000000000D+00 0.000000000000000D+00 0.721370779060949D+03
 0.721370779060949D+03 0.000000000000000D+00 0.000000000000000D+00 -.721370779060949D+03
 0.692374813937853D+03 0.101168643288320D+02 0.633303411099935D+03 -.267843434801834D+03
 0.275062351746055D+03 -.540603807822763D+02 -.176029780314948D+03 0.204328874660477D+03
 0.673022063293223D+02 -.324166127434259D+01 -.652495142790770D+02 0.161734194072130D+02
 0.408002186108669D+03 0.471851777277870D+02 -.392024116505911D+03 0.473411407341446D+02
 0.000000000000000D+00 -.000000000000000D+00 0.000000000000000D+00 0.000000000000000D+00
 0.135715502602966D+04 0.000000000000000D+00 0.000000000000000D+00 0.135715502602966D+04
 0.760163801790167D+03 0.000000000000000D+00 0.000000000000000D+00 -.760163801790167D+03
 0.698380612392327D+03 0.134348792819862D+03 0.625682475471794D+03 -.267843434801834D+03
 0.271712740883864D+03 -.521863411549031D+01 -.179025948947559D+03 0.204328874660477D+03
 0.685260610869202D+02 0.889146241171167D+01 -.659938137172555D+02 0.161734194072130D+02
 0.427419525730243D+03 0.121810844038426D+03 -.396601984740498D+03 0.473411407341446D+02
 0.651279887726476D+03 -.259832465154509D+03 0.159392719335181D+02 0.596991224239495D+03
0.272820268321D-02 0.000000000000D+00 0.000000000000D+00 0.932785411432D-06 0.000000000000D+00  7 1 -2 -24 -13 13 23 21 0 0.43831377D+00 0.28099932D-01 0.41808471D+06 0.41808471D+06 0.41808471D+06 0.10740459D+01  1  2  2  2  7  2       -2 0.262578350879D-02 0.100000000000D+01
-.149359894275D-03 0.000000000000D+00 -.104770166558D-04 0.932785411432D-06 0.000000000000D+00  7 1 -2 -24 -13 13 23 21 2 0.43831377D+00 0.28099932D-01 0.41808471D+06 0.41808471D+06 0.41808471D+06 0.10740459D+01  1  2  3  2  7  2       -2 -.165829577282D-03 0.100000000000D+01
0.172460381632D-03 0.000000000000D+00 0.000000000000D+00 0.932785411432D-06 0.000000000000D+00  7 1 -2 -24 -13 13 23 21 2 0.43831377D+00 0.28099932D-01 0.41808471D+06 0.41808471D+06 0.41808471D+06 0.10740459D+01  1  2 15  2  7  2       -2 0.191477319415D-03 0.100000000000D+01
-.678842983490D-04 0.000000000000D+00 0.000000000000D+00 0.932785411432D-06 0.000000000000D+00  7 1 -2 -24 -13 13 23 21 2 0.43831377D+00 0.28099932D-01 0.41808471D+06 0.41808471D+06 0.41808471D+06 0.10740459D+01  1  2  4  2  7  2       -2 -.753697942406D-04 0.100000000000D+01
  </mgrwgt>
  </event>
  <event>
  8     66 0.29493621E-05 0.38860358E+03 0.75467711E-02 0.89968236E-01
        1 -1    0    0  501    0 0.00000000E+00 0.00000000E+00 0.12057758E+04 0.12057758E+04 0.32000000E+00 0.0000E+00 0.9000E+01
       -2 -1    0    0    0  501 0.00000000E+00 0.00000000E+00 -.11094675E+04 0.11094676E+04 0.32000000E+00 0.0000E+00 0.9000E+01
       25  2    1    2    0    0 0.15956929E+03 -.62405942E+03 -.88743740E+03 0.11366275E+04 0.29910618E+03 0.0000E+00 0.0000E+00
       23  2    3    3    0    0 0.19374177E+03 -.29883922E+03 -.51217753E+03 0.63059280E+03 0.92090739E+02 0.0000E+00 0.0000E+00
      -24  1    1    2    0    0 -.15956929E+03 0.62405942E+03 0.98374568E+03 0.11786158E+04 0.80419002E+02 0.0000E+00 0.9000E+01
      -11  1    4    4    0    0 0.92681685E+02 -.71421704E+02 -.13421119E+03 0.17805504E+03 0.51099893E-03 0.0000E+00 0.9000E+01
       11  1    4    4    0    0 0.10106008E+03 -.22741752E+03 -.37796635E+03 0.45253776E+03 0.51099893E-03 0.0000E+00 0.9000E+01
       23  1    3    3    0    0 -.34172474E+02 -.32522021E+03 -.37525987E+03 0.50603474E+03 0.91188000E+02 0.0000E+00 0.9000E+01
#aMCatNLO 1  0  0  1  2 0.17648878D+03 0.00000000D+00  -5  7  0 0.00000000D+00 0.00000000D+00 0.00000000D+00 0.00000000D+00 0.00000000D+00
  <mgrwgt>
 0.8734892441D-03    6    2    0
 0.115661971458101D+04 0.000000000000000D+00 0.000000000000000D+00 0.115661971458101D+04
 0.115661971458101D+04 0.000000000000000D+00 0.000000000000000D+00 -.115661971458101D+04
 0.113868009095385D+04 -.159569291705759D+03 0.624059424759416D+03 0.935527984131825D+03
 0.183796971288365D+03 0.926816851181446D+02 -.714217037104494D+02 -.141740509867624D+03
 0.468665859901618D+03 0.101060080796313D+03 -.227417515192786D+03 -.397134513849281D+03
 0.522096507018196D+03 -.341724742086991D+02 -.325220205856180D+03 -.396652960414921D+03
 0.000000000000000D+00 0.000000000000000D+00 0.000000000000000D+00 -.000000000000000D+00
 0.124612584616534D+04 0.000000000000000D+00 0.000000000000000D+00 0.124612584616534D+04
 0.125037637963862D+04 0.000000000000000D+00 0.000000000000000D+00 -.125037637963862D+04
 0.114223987703108D+04 -.243854941199650D+03 0.602965073021944D+03 0.935527984131825D+03
 0.178794501687454D+03 0.792830309655778D+02 -.747750138551790D+02 -.141740509867624D+03
 0.466760731170736D+03 0.664937484001601D+02 -.236068505939339D+03 -.397134513849281D+03
 0.532167162387268D+03 -.731301313649716D+02 -.334970222945173D+03 -.396652960414921D+03
 0.176539953527418D+03 0.171208293198884D+03 0.428486697177475D+02 -.425053347327848D+01
0.374887966820D-02 0.000000000000D+00 0.000000000000D+00 0.160080060744D-04 0.000000000000D+00  7 1 -2 -24 -11 11 23 21 0 0.18550397D+00 0.17068732D+00 0.45866339D+06 0.45866339D+06 0.45866339D+06 0.10711691D+01  1  2  2  1  7  1        1 0.871569722327D-03 0.100000000000D+01
-.135731204679D-03 0.000000000000D+00 -.143966850286D-04 0.160080060744D-04 0.000000000000D+00  7 1 -2 -24 -11 11 23 21 2 0.18550397D+00 0.17068732D+00 0.45866339D+06 0.45866339D+06 0.45866339D+06 0.10711691D+01  1  2  3  1  7  1        1 -.362073233708D-04 0.100000000000D+01
0.231937599849D-03 0.000000000000D+00 0.000000000000D+00 0.160080060744D-04 0.000000000000D+00  7 1 -2 -24 -11 11 23 21 2 0.18550397D+00 0.17068732D+00 0.45866339D+06 0.45866339D+06 0.45866339D+06 0.10711691D+01  1  2 15  1  7  1        1 0.618711054648D-04 0.100000000000D+01
0.426888231060D-02 0.000000000000D+00 0.000000000000D+00 0.160080060744D-04 0.000000000000D+00  7 1 -2 -24 -11 11 23 21 2 0.20680598D+00 0.17068732D+00 0.59356747D+06 0.59356747D+06 0.59356747D+06 0.10632846D+01  1  2 12  1  7  1        1 0.880791007819D-03 0.100000000000D+01
-.344137923936D-02 0.000000000000D+00 0.000000000000D+00 0.160080060744D-04 0.000000000000D+00  7 1 -2 -24 -11 11 23 21 2 0.18550397D+00 0.17068732D+00 0.45866339D+06 0.45866339D+06 0.45866339D+06 0.10711691D+01  1  2  4  1  7  1        1 -.918013888225D-03 0.100000000000D+01
0.744889063089D-04 0.000000000000D+00 0.000000000000D+00 0.160080060744D-04 0.000000000000D+00  7 21 -2 -24 -11 11 23 -1 2 0.20680598D+00 0.17068732D+00 0.59356747D+06 0.59356747D+06 0.59356747D+06 0.10632846D+01  1  2 12  3  7  1        1 0.134786200672D-04 0.100000000000D+01
  </mgrwgt>
  </event>
  <event>
  8     66 0.29493621E-05 0.15002209E+03 0.75467711E-02 0.10210746E+00
        1 -1    0    0  501    0 0.00000000E+00 0.00000000E+00 0.23275329E+03 0.23275351E+03 0.32000000E+00 0.0000E+00 0.9000E+01
       -2 -1    0    0    0  501 0.00000000E+00 0.00000000E+00 -.40103817E+03 0.40103830E+03 0.32000000E+00 0.0000E+00 0.9000E+01
       25  2    1    2    0    0 -.17190694E+03 0.11122631E+03 -.19172074E+03 0.41256852E+03 0.30254364E+03 0.0000E+00 0.0000E+00
       23  2    3    3    0    0 -.12258596E+03 0.14507629E+03 -.23932496E+02 0.21245224E+03 0.92134366E+02 0.0000E+00 0.0000E+00
      -24  1    1    2    0    0 0.17190694E+03 -.11122631E+03 0.23435860E+02 0.22122329E+03 0.80419002E+02 0.0000E+00 0.9000E+01
      -13  1    4    4    0    0 -.37712833E+01 0.16787213E+02 0.25481959E+02 0.30746943E+02 0.10565837E+00 0.0000E+00 0.9000E+01
       13  1    4    4    0    0 -.11881468E+03 0.12828908E+03 -.49414455E+02 0.18170529E+03 0.10565837E+00 0.0000E+00 0.9000E+01
       23  1    3    3    0    0 -.49320982E+02 -.33849977E+02 -.16778824E+03 0.20011628E+03 0.91188000E+02 0.0000E+00 0.9000E+01
#aMCatNLO 1  0  0  1  2 0.21697989D+02 0.00000000D+00  -5  7  0 0.00000000D+00 0.00000000D+00 0.00000000D+00 0.00000000D+00 0.00000000D+00
  <mgrwgt>
 0.1860036499D-03    7    2    0
 0.305520972760784D+03 0.000000000000000D+00 0.000000000000000D+00 0.305520972760784D+03
 0.305520972760784D+03 0.000000000000000D+00 0.000000000000000D+00 -.305520972760784D+03
 0.235914113392952D+03 0.171906952897370D+03 -.111226317150120D+03 0.852347280301534D+02
 0.389094017180701D+02 -.377113146566447D+01 0.167870631851607D+02 0.348986334853423D+02
 0.174861532575489D+03 -.118814832173094D+03 0.128289218481731D+03 -.121146674536524D+01
 0.161356897835056D+03 -.493209892586114D+02 -.338499645167711D+02 -.118921894770130D+03
 0.000000000000000D+00 -.000000000000000D+00 0.000000000000000D+00 0.000000000000000D+00
 0.879252117296403D+03 0.000000000000000D+00 0.000000000000000D+00 0.879252117296403D+03
 0.305918753413727D+03 0.000000000000000D+00 0.000000000000000D+00 -.305918753413727D+03
 0.242352963721125D+03 0.175760183366652D+03 -.118790328522943D+03 0.852347280301534D+02
 0.383419834038030D+02 -.314874409009597D+01 0.155652973902954D+02 0.348986334853423D+02
 0.168997457564346D+03 -.116044480624043D+03 0.122850932142308D+03 -.121146674536524D+01
 0.161734665298187D+03 -.467179536013273D+02 -.389598045516522D+02 -.118921894770130D+03
 0.573743800722669D+03 -.984900505118634D+01 0.193339035419923D+02 0.573333363882676D+03
0.745577334389D-05 0.000000000000D+00 0.000000000000D+00 0.923025139979D-07 0.000000000000D+00  7 1 -2 -24 -13 13 23 21 0 0.35808225D-01 0.61698207D-01 0.67886075D+05 0.67886075D+05 0.67886075D+05 0.11357935D+01  1  2  2  1  7  1        1 0.255133140726D-03 0.100000000000D+01
-.401441539440D-06 0.000000000000D+00 -.286321327907D-07 0.923025139979D-07 0.000000000000D+00  7 1 -2 -24 -13 13 23 21 2 0.35808225D-01 0.61698207D-01 0.67886075D+05 0.67886075D+05 0.67886075D+05 0.11357935D+01  1  2  3  1  7  1        1 -.177212854712D-04 0.100000000000D+01
0.483984482648D-06 0.000000000000D+00 0.000000000000D+00 0.923025139979D-07 0.000000000000D+00  7 1 -2 -24 -13 13 23 21 2 0.35808225D-01 0.61698207D-01 0.67886075D+05 0.67886075D+05 0.67886075D+05 0.11357935D+01  1  2 15  1  7  1        1 0.213650714687D-04 0.100000000000D+01
0.120034089620D-02 0.000000000000D+00 0.000000000000D+00 0.923025139979D-07 0.000000000000D+00  7 1 -2 -24 -13 13 23 21 2 0.10302140D+00 0.61698207D-01 0.73727938D+05 0.73727938D+05 0.73727938D+05 0.11327490D+01  1  2 12  1  7  1        1 0.126610595568D-01 0.100000000000D+01
-.119675829958D-02 0.000000000000D+00 -.246704547678D-05 0.923025139979D-07 0.000000000000D+00  7 1 -2 -24 -13 13 23 21 2 0.10308337D+00 0.61698207D-01 0.67886075D+05 0.67886075D+05 0.67886075D+05 0.11357935D+01  1  2  5  1  7  1        1 -.127121575154D-01 0.100000000000D+01
0.143182875344D-03 0.000000000000D+00 0.000000000000D+00 0.923025139979D-07 0.000000000000D+00  7 21 -2 -24 -13 13 23 -1 2 0.10302140D+00 0.61698207D-01 0.73727938D+05 0.73727938D+05 0.73727938D+05 0.11327490D+01  1  2 12  3  7  1        1 0.339187411361D-02 0.100000000000D+01
-.142720708565D-03 0.000000000000D+00 -.294483031300D-06 0.923025139979D-07 0.000000000000D+00  7 21 -2 -24 -13 13 23 -1 2 0.10308337D+00 0.61698207D-01 0.67886075D+05 0.67886075D+05 0.67886075D+05 0.11357935D+01  1  2  5  3  7  1        1 -.341354943193D-02 0.100000000000D+01
  </mgrwgt>
  </event>
  <event>
  8     66 0.29493621E-05 0.23015408E+03 0.75467711E-02 0.10269330E+00
        1 -1    0    0  501    0 0.00000000E+00 0.00000000E+00 0.68604001E+02 0.68604747E+02 0.32000000E+00 0.0000E+00 0.9000E+01
       -2 -1    0    0    0  501 0.00000000E+00 0.00000000E+00 -.10500739E+04 0.10500740E+04 0.32000000E+00 0.0000E+00 0.9000E+01
       25  2    1    2    0    0 0.15452748E+03 0.66494387E+02 -.71384867E+03 0.79250608E+03 0.30030936E+03 0.0000E+00 0.0000E+00
       23  2    3    3    0    0 0.36159762E+02 -.75379191E+02 -.16491854E+03 0.20617974E+03 0.91227248E+02 0.0000E+00 0.0000E+00
      -24  1    1    2    0    0 -.15452748E+03 -.66494387E+02 -.26762126E+03 0.32617265E+03 0.80419002E+02 0.0000E+00 0.9000E+01
      -11  1    4    4    0    0 0.43739215E+02 -.87097696E+02 -.99471703E+02 0.13926143E+03 0.51099893E-03 0.0000E+00 0.9000E+01
       11  1    4    4    0    0 -.75794524E+01 0.11718505E+02 -.65446839E+02 0.66918310E+02 0.51099893E-03 0.0000E+00 0.9000E+01
       23  1    3    3    0    0 0.11836772E+03 0.14187358E+03 -.54893013E+03 0.58632633E+03 0.91188000E+02 0.0000E+00 0.9000E+01
#aMCatNLO 1  0  0  2  1 0.15554948D+02 0.00000000D+00  -5  7  0 0.00000000D+00 0.00000000D+00 0.00000000D+00 0.00000000D+00 0.00000000D+00
  <mgrwgt>
 0.1918874018D-02    9    2    0
 0.268402156964821D+03 0.000000000000000D+00 0.000000000000000D+00 0.268402156964821D+03
 0.268402156964821D+03 0.000000000000000D+00 0.000000000000000D+00 -.268402156964821D+03
 0.190423561187917D+03 -.154527477489430D+03 -.664943869847977D+02 0.386480517152866D+02
 0.108345476482104D+03 0.437392149154185D+02 -.870976955218539D+02 0.473245685400243D+02
 0.197948952975465D+02 -.757945244327207D+01 0.117185049939040D+02 -.140380348058001D+02
 0.218240380962074D+03 0.118367715017283D+03 0.141873577512748D+03 -.719345854495108D+02
 0.000000000000000D+00 -.000000000000000D+00 0.000000000000000D+00 -.000000000000000D+00
 0.272439168978692D+03 0.000000000000000D+00 0.000000000000000D+00 0.272439168978692D+03
 0.283928597853409D+03 0.000000000000000D+00 0.000000000000000D+00 -.283928597853409D+03
 0.190963595601163D+03 -.152832534706322D+03 -.717525144117425D+02 0.386480517152866D+02
 0.111181912601731D+03 0.447148281661497D+02 -.901242866509979D+02 0.473245685400243D+02
 0.194126310992360D+02 -.740520820686616D+01 0.111779567184318D+02 -.140380348058001D+02
 0.215471494756163D+03 0.120295196844112D+03 0.135894057047755D+03 -.719345854495108D+02
 0.193381327738081D+02 -.477228209707338D+01 0.148047872965538D+02 -.114894288747170D+02
0.524678519762D-04 0.000000000000D+00 0.000000000000D+00 0.219193184928D-05 0.000000000000D+00  7 1 -2 -24 -11 11 23 21 0 0.10554523D-01 0.16154990D+00 0.63484908D+05 0.63484908D+05 0.63484908D+05 0.11382841D+01  1  2  2  2  7  2       -2 0.881678990846D-03 0.100000000000D+01
-.290072134952D-05 0.000000000000D+00 -.201490366691D-06 0.219193184928D-05 0.000000000000D+00  7 1 -2 -24 -11 11 23 21 2 0.10554523D-01 0.16154990D+00 0.63484908D+05 0.63484908D+05 0.63484908D+05 0.11382841D+01  1  2  3  2  7  2       -2 -.631574493113D-04 0.100000000000D+01
0.339519291136D-05 0.000000000000D+00 0.000000000000D+00 0.219193184928D-05 0.000000000000D+00  7 1 -2 -24 -11 11 23 21 2 0.10554523D-01 0.16154990D+00 0.63484908D+05 0.63484908D+05 0.63484908D+05 0.11382841D+01  1  2 15  2  7  2       -2 0.739235860200D-04 0.100000000000D+01
0.203133033314D-03 0.000000000000D+00 0.000000000000D+00 0.219193184928D-05 0.000000000000D+00  7 1 -2 -24 -11 11 23 21 2 0.10554523D-01 0.17206382D+00 0.67519834D+05 0.67519834D+05 0.67519834D+05 0.11359939D+01  1  2 12  2  7  2       -2 0.368268503942D-02 0.100000000000D+01
-.203665311435D-03 0.000000000000D+00 0.000000000000D+00 0.219193184928D-05 0.000000000000D+00  7 1 -2 -24 -11 11 23 21 2 0.10554523D-01 0.16154990D+00 0.63484908D+05 0.63484908D+05 0.63484908D+05 0.11382841D+01  1  2  4  2  7  2       -2 -.443440787084D-02 0.100000000000D+01
-.654241072275D-03 0.000000000000D+00 -.928627953234D-04 0.219193184928D-05 0.000000000000D+00  7 1 -2 -24 -11 11 23 21 2 0.10554523D-01 0.17230961D+00 0.63484908D+05 0.63484908D+05 0.63484908D+05 0.11382841D+01  1  2  5  2  7  2       -2 -.118699564700D-01 0.100000000000D+01
0.659050982391D-03 0.000000000000D+00 0.926700893483D-04 0.219193184928D-05 0.000000000000D+00  7 1 -2 -24 -11 11 23 21 2 0.10554523D-01 0.16154990D+00 0.63484908D+05 0.63484908D+05 0.63484908D+05 0.11382841D+01  1  2  6  2  7  2       -2 0.143495268930D-01 0.100000000000D+01
0.264494424298D-05 0.000000000000D+00 0.000000000000D+00 0.219193184928D-05 0.000000000000D+00  7 1 21 -24 -11 11 23 2 2 0.10554523D-01 0.17206382D+00 0.67519834D+05 0.67519834D+05 0.67519834D+05 0.11359939D+01  1  2 12  4  7  2       -2 0.417756913711D-03 0.100000000000D+01
-.706521051752D-05 0.000000000000D+00 -.102176651657D-05 0.219193184928D-05 0.000000000000D+00  7 1 21 -24 -11 11 23 2 2 0.10554523D-01 0.17230961D+00 0.63484908D+05 0.63484908D+05 0.63484908D+05 0.11382841D+01  1  2  5  4  7  2       -2 -.111917561516D-02 0.100000000000D+01
  </mgrwgt>
  </event>
  <event>
  8     66 0.29493621E-05 0.28385201E+03 0.75467711E-02 0.99315896E-01
        1 -1    0    0  501    0 0.00000000E+00 0.00000000E+00 0.27894012E+03 0.27894030E+03 0.32000000E+00 0.0000E+00 0.9000E+01
       -2 -1    0    0    0  502 0.00000000E+00 0.00000000E+00 -.43274175E+03 0.43274187E+03 0.32000000E+00 0.0000E+00 0.9000E+01
       25  2    1    2    0    0 0.10344365E+03 0.95898560E+02 -.92181383E+02 0.34394326E+03 0.29983735E+03 0.0000E+00 0.0000E+00
      -24  1    1    2    0    0 -.16142121E+03 -.17588753E+03 -.85630160E+02 0.26606949E+03 0.80419002E+02 0.0000E+00 0.9000E+01
      -11  1    3    3    0    0 0.11149622E+03 0.11975912E+03 -.82347406E+02 0.18317956E+03 0.51099893E-03 0.0000E+00 0.9000E+01
       11  1    3    3    0    0 -.44784448E+02 0.24083411E+02 0.94260863E+00 0.50858096E+02 0.51099893E-03 0.0000E+00 0.9000E+01
       23  1    3    3    0    0 0.36731881E+02 -.47943976E+02 -.10776586E+02 0.10990561E+03 0.91188000E+02 0.0000E+00 0.9000E+01
       21  1    1    2  501  502 0.57977560E+02 0.79988972E+02 0.24009909E+02 0.10166942E+03 0.75000000E+00 0.0000E+00 0.9000E+01
#aMCatNLO 2  0  0  2  1 0.98790855D+02 0.00000000D+00  -5  7  0 0.00000000D+00 0.00000000D+00 0.00000000D+00 0.00000000D+00 0.00000000D+00
  <mgrwgt>
 0.1529960968D-03    1    2    0
 0.287549547957323D+03 0.000000000000000D+00 0.000000000000000D+00 0.287549547957323D+03
 0.287549547957323D+03 0.000000000000000D+00 0.000000000000000D+00 -.287549547957323D+03
 0.215009685675753D+03 -.138049244736297D+03 -.143642305046643D+03 -.844056921308314D+01
 0.196736931250313D+03 0.129667738482908D+03 0.144829559552042D+03 -.302670843405866D+02
 0.530719064855626D+02 -.394538643708009D+02 0.314377658877118D+02 0.164829220774767D+02
 0.110280572503018D+03 0.478353706241894D+02 -.326250203931107D+02 0.222247314761931D+02
 0.000000000000000D+00 0.000000000000000D+00 0.000000000000000D+00 0.000000000000000D+00
 0.376600855818469D+03 0.000000000000000D+00 0.000000000000000D+00 0.376600855818469D+03
 0.320520375980589D+03 0.000000000000000D+00 0.000000000000000D+00 -.320520375980589D+03
 0.252054935502341D+03 -.161421211114366D+03 -.175887532106314D+03 -.844056921308314D+01
 0.166402374883654D+03 0.111496206603421D+03 0.119759132785301D+03 -.302670843405866D+02
 0.534541269254351D+02 -.447844391100971D+02 0.240834170902379D+02 0.164829220774767D+02
 0.111611144283488D+03 0.367318840633250D+02 -.479439901159594D+02 0.222247314761931D+02
 0.113598650204138D+03 0.579775595577166D+02 0.799889723467345D+02 0.560804798378806D+02
0.534920649120D-05 0.000000000000D+00 0.000000000000D+00 0.108353958380D-08 0.788894568955D-12  7 1 -2 -24 -11 11 23 21 2 0.42913728D-01 0.66575431D-01 0.11375657D+06 0.11375657D+06 0.11375657D+06 0.11171573D+01  1  2  1  2  7  2       -2 0.152996096768D-03 0.100000000000D+01
  </mgrwgt>
  </event>
  <event>
  9     66 0.29493621E-05 0.19108753E+03 0.75467711E-02 0.10475865E+00
        1 -1    0    0  501    0 0.00000000E+00 0.00000000E+00 0.86496507E+02 0.86497099E+02 0.32000000E+00 0.0000E+00 0.9000E+01
       21 -1    0    0  502  501 0.00000000E+00 0.00000000E+00 -.93658186E+03 0.93658216E+03 0.75000000E+00 0.0000E+00 0.9000E+01
       25  2    1    2    0    0 0.97108230E+02 -.90908705E+02 -.75790023E+03 0.82663216E+03 0.30201583E+03 0.0000E+00 0.0000E+00
       23  2    3    3    0    0 0.13362044E+03 -.96731357E+02 -.28286010E+03 0.34150803E+03 0.96987203E+02 0.0000E+00 0.0000E+00
      -24  1    1    2    0    0 -.66178160E+02 0.36056690E+02 -.64079661E+02 0.12748746E+03 0.80419002E+02 0.0000E+00 0.9000E+01
      -13  1    4    4    0    0 0.47849246E+02 -.71153892E+02 -.70328237E+02 0.11089860E+03 0.10565837E+00 0.0000E+00 0.9000E+01
       13  1    4    4    0    0 0.85771199E+02 -.25577465E+02 -.21253186E+03 0.23060943E+03 0.10565837E+00 0.0000E+00 0.9000E+01
       23  1    3    3    0    0 -.36512215E+02 0.58226519E+01 -.47504013E+03 0.48512413E+03 0.91188000E+02 0.0000E+00 0.9000E+01
        2  1    1    2  502    0 -.30930070E+02 0.54852016E+02 -.28105461E+02 0.68959642E+02 0.32000000E+00 0.0000E+00 0.9000E+01
#aMCatNLO 2  0  0  2  2 0.62971524D+02 0.00000000D+00  -5  7  0 0.00000000D+00 0.00000000D+00 0.00000000D+00 0.00000000D+00 0.00000000D+00
  <mgrwgt>
 0.1638523283D-03    1    2    0
 0.240170715362599D+03 0.000000000000000D+00 0.000000000000000D+00 0.240170715362599D+03
 0.240170715362599D+03 0.000000000000000D+00 0.000000000000000D+00 -.240170715362599D+03
 0.151956070985234D+03 -.756135750193783D+02 0.527896083898104D+02 0.901070256624767D+02
 0.887268860253509D+02 0.418281859294152D+02 -.604760966093170D+02 0.496538508527831D+02
 0.859308926839053D+02 0.800165233003547D+02 -.153719277209606D+02 -.272979514710938D+02
 0.153727581030707D+03 -.462311342103917D+02 0.230584159404673D+02 -.112462925044166D+03
 0.000000000000000D+00 -.000000000000000D+00 0.000000000000000D+00 0.000000000000000D+00
 0.317115360777689D+03 0.000000000000000D+00 0.000000000000000D+00 0.317115360777689D+03
 0.255463305079622D+03 0.000000000000000D+00 0.000000000000000D+00 -.255463305079622D+03
 0.142359163630226D+03 -.661781926186901D+02 0.360567089889281D+02 0.901070256624767D+02
 0.990854812682985D+02 0.478492181308553D+02 -.711539177974463D+02 0.496538508527831D+02
 0.935739642923129D+02 0.857712269960855D+02 -.255774365104640D+02 -.272979514710938D+02
 0.149432939369410D+03 -.365121828876576D+02 0.582262963534412D+01 -.112462925044166D+03
 0.881271172970635D+02 -.309300696205933D+02 0.548520156836380D+02 0.616520556980672D+02
0.799658191120D-06 0.000000000000D+00 0.000000000000D+00 0.500496160653D-08 0.126321733055D-12  7 1 21 -24 -13 13 23 2 2 0.13307209D-01 0.14408943D+00 0.49914915D+05 0.49914915D+05 0.49914915D+05 0.11473605D+01  1  2  1  4  7  2       -2 0.163852328332D-03 0.100000000000D+01
  </mgrwgt>
  </event>
  <event>
  8     66 0.29493621E-05 0.62389866E+03 0.75467711E-02 0.90712916E-01
        1 -1    0    0  501    0 0.00000000E+00 0.00000000E+00 0.96286255E+03 0.96286260E+03 0.32000000E+00 0.0000E+00 0.9000E+01
       -2 -1    0    0    0  501 0.00000000E+00 0.00000000E+00 -.48362263E+03 0.48362273E+03 0.32000000E+00 0.0000E+00 0.9000E+01
       25  2    1    2    0    0 -.55307157E+03 -.23980209E+03 0.49838093E+03 0.83802267E+03 0.30084090E+03 0.0000E+00 0.0000E+00
       23  2    3    3    0    0 -.42676665E+03 -.15240811E+03 0.23030953E+03 0.51589201E+03 0.88000448E+02 0.0000E+00 0.0000E+00
      -24  1    1    2    0    0 0.55307157E+03 0.23980209E+03 -.19141006E+02 0.60846265E+03 0.80419002E+02 0.0000E+00 0.9000E+01
      -13  1    4    4    0    0 -.34400712E+03 -.85197548E+02 0.16564201E+03 0.39119920E+03 0.10565837E+00 0.0000E+00 0.9000E+01
       13  1    4    4    0    0 -.82759530E+02 -.67210557E+02 0.64667521E+02 0.12469282E+03 0.10565837E+00 0.0000E+00 0.9000E+01
       23  1    3    3    0    0 -.12630492E+03 -.87393984E+02 0.26807139E+03 0.32213066E+03 0.91188000E+02 0.0000E+00 0.9000E+01
#aMCatNLO 1  0  0  2  1 0.17390823D+03 0.00000000D+00  -5  7  0 0.00000000D+00 0.00000000D+00 0.00000000D+00 0.00000000D+00 0.00000000D+00
  <mgrwgt>
 0.6476307131D-03    4    2    0
 0.682394480458439D+03 0.000000000000000D+00 0.000000000000000D+00 0.682394480458439D+03
 0.682394480458439D+03 0.000000000000000D+00 0.000000000000000D+00 -.682394480458439D+03
 0.651606558697148D+03 0.553071574068405D+03 0.239802089521559D+03 -.233945898022086D+03
 0.356452266518197D+03 -.344007499937514D+03 -.851975742101152D+02 0.381894179245140D+02
 0.109448851986406D+03 -.827591536259405D+02 -.672105310930714D+02 0.247531453041295D+02
 0.247281283715127D+03 -.126304920504951D+03 -.873939842183721D+02 0.171003334793442D+03
 0.000000000000000D+00 0.000000000000000D+00 -.000000000000000D+00 0.000000000000000D+00
 0.785989234145886D+03 0.000000000000000D+00 0.000000000000000D+00 0.785989234145886D+03
 0.765004909016457D+03 0.000000000000000D+00 0.000000000000000D+00 -.765004909016457D+03
 0.615907896535271D+03 0.486649987381661D+03 0.285160354257389D+03 -.233945898022086D+03
 0.389412045852769D+03 -.383093043203853D+03 -.585066668221385D+02 0.381894179245140D+02
 0.114212835061613D+03 -.944797017218116D+02 -.592067517511418D+02 0.247531453041295D+02
 0.256291695156565D+03 -.152693665920161D+03 -.693735218913491D+02 0.171003334793442D+03
 0.175169670556126D+03 0.143616423464164D+03 -.980734137927595D+02 0.209843251294291D+02
0.495634373866D-03 0.000000000000D+00 0.000000000000D+00 0.978365120751D-06 0.000000000000D+00  7 1 -2 -24 -13 13 23 21 0 0.14813271D+00 0.74403493D-01 0.38924954D+06 0.38924954D+06 0.38924954D+06 0.10762816D+01  1  2  2  2  7  2       -2 0.144077978966D-02 0.100000000000D+01
-.272663497903D-04 0.000000000000D+00 -.190336649917D-05 0.978365120751D-06 0.000000000000D+00  7 1 -2 -24 -13 13 23 21 2 0.14813271D+00 0.74403493D-01 0.38924954D+06 0.38924954D+06 0.38924954D+06 0.10762816D+01  1  2  3  2  7  2       -2 -.918152944725D-04 0.100000000000D+01
0.310202915157D-04 0.000000000000D+00 0.000000000000D+00 0.978365120751D-06 0.000000000000D+00  7 1 -2 -24 -13 13 23 21 2 0.14813271D+00 0.74403493D-01 0.38924954D+06 0.38924954D+06 0.38924954D+06 0.10762816D+01  1  2 15  2  7  2       -2 0.104456123465D-03 0.100000000000D+01
-.239295092927D-03 0.000000000000D+00 0.000000000000D+00 0.978365120751D-06 0.000000000000D+00  7 1 -2 -24 -13 13 23 21 2 0.14813271D+00 0.74403493D-01 0.38924954D+06 0.38924954D+06 0.38924954D+06 0.10762816D+01  1  2  4  2  7  2       -2 -.805789905575D-03 0.100000000000D+01
  </mgrwgt>
  </event>
  <event>
  8     66 0.29493621E-05 0.25714425E+03 0.75467711E-02 0.97347001E-01
        3 -1    0    0  501    0 0.00000000E+00 0.00000000E+00 0.39486359E+03 0.39486391E+03 0.50000000E+00 0.0000E+00 0.9000E+01
       -4 -1    0    0    0  501 0.00000000E+00 0.00000000E+00 -.20253808E+03 0.20254401E+03 0.15500000E+01 0.0000E+00 0.9000E+01
       25  2    1    2    0    0 -.16839411E+03 -.37883571E+02 0.31139312E+02 0.34792857E+03 0.30048776E+03 0.0000E+00 0.0000E+00
       23  2    3    3    0    0 -.76779201E+02 0.79042673E+02 -.37416496E+02 0.16063151E+03 0.11072352E+03 0.0000E+00 0.0000E+00
      -24  1    1    2    0    0 0.16839411E+03 0.37883571E+02 0.16118620E+03 0.24947935E+03 0.80419002E+02 0.0000E+00 0.9000E+01
      -13  1    4    4    0    0 -.32986814E+02 -.21861748E+02 -.31314737E+02 0.50464739E+02 0.10565837E+00 0.0000E+00 0.9000E+01
       13  1    4    4    0    0 -.43792386E+02 0.10090442E+03 -.61017583E+01 0.11016677E+03 0.10565837E+00 0.0000E+00 0.9000E+01
       23  1    3    3    0    0 -.91614908E+02 -.11692624E+03 0.68555808E+02 0.18729706E+03 0.91188000E+02 0.0000E+00 0.9000E+01
#aMCatNLO 1  0  0  1  1 0.23444052D+03 0.00000000D+00  -5  7  0 0.00000000D+00 0.00000000D+00 0.00000000D+00 0.00000000D+00 0.00000000D+00
  <mgrwgt>
 0.1822830213D-03    3    2    0
 0.282801663572666D+03 0.000000000000000D+00 0.000000000000000D+00 0.282801663572666D+03
 0.282801663572666D+03 0.000000000000000D+00 0.000000000000000D+00 -.282801663572666D+03
 0.208698780564889D+03 0.168394109698879D+03 0.378835710238234D+02 0.854179367586569D+02
 0.639502857093738D+02 -.329866912789562D+02 -.218615486482652D+02 -.502353454400077D+02
 0.118436454166557D+03 -.437923744640365D+02 0.100904470914402D+03 -.439056871468035D+02
 0.174517806704512D+03 -.916150439558864D+02 -.116926493289961D+03 0.872309582815425D+01
 0.000000000000000D+00 -.000000000000000D+00 -.000000000000000D+00 -.000000000000000D+00
 0.313853967399340D+03 0.000000000000000D+00 0.000000000000000D+00 0.313853967399340D+03
 0.208576243234675D+04 0.000000000000000D+00 0.000000000000000D+00 -.208576243234675D+04
 0.296992248983909D+03 0.268471188154159D+03 0.486228054840357D+02 0.854179367586569D+02
 0.546645615397825D+02 -.951261979956623D+01 -.193425546763778D+02 -.502353454400077D+02
 0.114621908687998D+03 0.233025516786523D+01 0.105853873326863D+03 -.439056871468035D+02
 0.145987137482506D+03 -.281865934387234D+02 -.110120009606924D+03 0.872309582815425D+01
 0.178735054305190D+04 -.233102230083734D+03 -.250141145275960D+02 -.177190846494741D+04
0.201240049624D-04 0.000000000000D+00 0.000000000000D+00 0.759303248416D-08 0.000000000000D+00  7 3 -4 -24 -13 13 23 21 0 0.60748726D-01 0.31160185D-01 0.66123167D+05 0.66123167D+05 0.66123167D+05 0.11367692D+01  1  2  2  1  7  1        3 0.180068923730D-03 0.100000000000D+01
-.110570430181D-05 0.000000000000D+00 -.772814778280D-07 0.759303248416D-08 0.000000000000D+00  7 3 -4 -24 -13 13 23 21 2 0.60748726D-01 0.31160185D-01 0.66123167D+05 0.66123167D+05 0.66123167D+05 0.11367692D+01  1  2  3  1  7  1        3 -.127852115999D-04 0.100000000000D+01
0.129718624904D-05 0.000000000000D+00 0.000000000000D+00 0.759303248416D-08 0.000000000000D+00  7 3 -4 -24 -13 13 23 21 2 0.60748726D-01 0.31160185D-01 0.66123167D+05 0.66123167D+05 0.66123167D+05 0.11367692D+01  1  2 15  1  7  1        3 0.149993091746D-04 0.100000000000D+01
  </mgrwgt>
  </event>
  <event>
  8     66 0.29493621E-05 0.15938060E+03 0.75467711E-02 0.10302205E+00
        1 -1    0    0  501    0 0.00000000E+00 0.00000000E+00 0.18751934E+03 0.18751961E+03 0.32000000E+00 0.0000E+00 0.9000E+01
       -2 -1    0    0    0  501 0.00000000E+00 0.00000000E+00 -.32779461E+03 0.32779477E+03 0.32000000E+00 0.0000E+00 0.9000E+01
       25  2    1    2    0    0 0.24973003E+02 0.14083477E+03 -.91145666E+02 0.34402802E+03 0.29931532E+03 0.0000E+00 0.0000E+00
       23  2    3    3    0    0 -.32390888E+02 0.10202776E+03 -.15805386E+03 0.21140616E+03 0.90844404E+02 0.0000E+00 0.0000E+00
      -24  1    1    2    0    0 -.24973003E+02 -.14083477E+03 -.49129603E+02 0.17128636E+03 0.80419002E+02 0.0000E+00 0.9000E+01
      -13  1    4    4    0    0 -.61763436E+02 0.45708313E+02 -.89083112E+02 0.11764261E+03 0.10565837E+00 0.0000E+00 0.9000E+01
       13  1    4    4    0    0 0.29372547E+02 0.56319452E+02 -.68970748E+02 0.93763546E+02 0.10565837E+00 0.0000E+00 0.9000E+01
       23  1    3    3    0    0 0.57363892E+02 0.38807010E+02 0.66908194E+02 0.13262186E+03 0.91188000E+02 0.0000E+00 0.9000E+01
#aMCatNLO 1  0  0  2  1 0.83424357D+02 0.00000000D+00  -5  7  0 0.00000000D+00 0.00000000D+00 0.00000000D+00 0.00000000D+00 0.00000000D+00
  <mgrwgt>
 0.7159537872D-03    9    2    0
 0.247927287643093D+03 0.000000000000000D+00 0.000000000000000D+00 0.247927287643093D+03
 0.247927287643093D+03 0.000000000000000D+00 0.000000000000000D+00 -.247927287643093D+03
 0.164109928948707D+03 -.249730037517812D+02 -.140834776489520D+03 -.260146880425280D+01
 0.970582634295325D+02 -.617635580635850D+02 0.457082991360590D+02 -.592985732153081D+02
 0.779317203860382D+02 0.293726701041740D+02 0.563194662099385D+02 -.451521540915447D+02
 0.156754662521909D+03 0.573638917111921D+02 0.388070111435225D+02 0.107052196111106D+03
 0.000000000000000D+00 0.000000000000000D+00 0.000000000000000D+00 -.000000000000000D+00
 0.283271482761752D+03 0.000000000000000D+00 0.000000000000000D+00 0.283271482761752D+03
 0.306023069093354D+03 0.000000000000000D+00 0.000000000000000D+00 -.306023069093354D+03
 0.173914085822935D+03 -.529281565383426D+02 -.144812761519038D+03 -.260146880425280D+01
 0.107626644349629D+03 -.786913431321556D+02 0.432994954317899D+02 -.592985732153081D+02
 0.727996203843399D+02 0.169069354911886D+02 0.545456069843776D+02 -.451521540915447D+02
 0.148483061039359D+03 0.321202201805110D+02 0.352148666753514D+02 0.107052196111106D+03
 0.864711402588433D+02 0.825923439987986D+02 0.117527924275193D+02 -.227515863316015D+02
0.759589259738D-05 0.000000000000D+00 0.000000000000D+00 0.524477355924D-06 0.000000000000D+00  7 1 -2 -24 -13 13 23 21 0 0.28849162D-01 0.50429973D-01 0.43880296D+05 0.43880296D+05 0.43880296D+05 0.11523164D+01  1  2  2  2  7  2       -2 0.515128306001D-03 0.100000000000D+01
-.407422092428D-06 0.000000000000D+00 -.291702276184D-07 0.524477355924D-06 0.000000000000D+00  7 1 -2 -24 -13 13 23 21 2 0.28849162D-01 0.50429973D-01 0.43880296D+05 0.43880296D+05 0.43880296D+05 0.11523164D+01  1  2  3  2  7  2       -2 -.366880512858D-04 0.100000000000D+01
0.478859771338D-06 0.000000000000D+00 0.000000000000D+00 0.524477355924D-06 0.000000000000D+00  7 1 -2 -24 -13 13 23 21 2 0.28849162D-01 0.50429973D-01 0.43880296D+05 0.43880296D+05 0.43880296D+05 0.11523164D+01  1  2 15  2  7  2       -2 0.431209602427D-04 0.100000000000D+01
0.420680604644D-05 0.000000000000D+00 0.000000000000D+00 0.524477355924D-06 0.000000000000D+00  7 1 -2 -24 -13 13 23 21 2 0.28849162D-01 0.65152508D-01 0.64296621D+05 0.64296621D+05 0.64296621D+05 0.11378108D+01  1  2 12  2  7  2       -2 0.220130709992D-03 0.100000000000D+01
-.480710362996D-05 0.000000000000D+00 0.000000000000D+00 0.524477355924D-06 0.000000000000D+00  7 1 -2 -24 -13 13 23 21 2 0.28849162D-01 0.50429973D-01 0.43880296D+05 0.43880296D+05 0.43880296D+05 0.11523164D+01  1  2  4  2  7  2       -2 -.432876046219D-03 0.100000000000D+01
-.883588331588D-05 0.000000000000D+00 -.360272888431D-05 0.524477355924D-06 0.000000000000D+00  7 1 -2 -24 -13 13 23 21 2 0.28849162D-01 0.69786662D-01 0.43880296D+05 0.43880296D+05 0.43880296D+05 0.11523164D+01  1  2  5  2  7  2       -2 -.411530549912D-03 0.100000000000D+01
0.967340978126D-05 0.000000000000D+00 0.342064202303D-05 0.524477355924D-06 0.000000000000D+00  7 1 -2 -24 -13 13 23 21 2 0.28849162D-01 0.50429973D-01 0.43880296D+05 0.43880296D+05 0.43880296D+05 0.11523164D+01  1  2  6  2  7  2       -2 0.871083234709D-03 0.100000000000D+01
0.144940666857D-06 0.000000000000D+00 0.000000000000D+00 0.524477355924D-06 0.000000000000D+00  7 1 21 -24 -13 13 23 2 2 0.28849162D-01 0.65152508D-01 0.64296621D+05 0.64296621D+05 0.64296621D+05 0.11378108D+01  1  2 12  4  7  2       -2 0.790470389441D-04 0.100000000000D+01
-.270502707849D-06 0.000000000000D+00 -.147492985371D-06 0.524477355924D-06 0.000000000000D+00  7 1 21 -24 -13 13 23 2 2 0.28849162D-01 0.69786662D-01 0.43880296D+05 0.43880296D+05 0.43880296D+05 0.11523164D+01  1  2  5  4  7  2       -2 -.131461815243D-03 0.100000000000D+01
  </mgrwgt>
  </event>
  <event>
  8     66 0.29493621E-05 0.39744929E+03 0.75467711E-02 0.96775909E-01
        1 -1    0    0  501    0 0.00000000E+00 0.00000000E+00 0.18356031E+04 0.18356032E+04 0.32000000E+00 0.0000E+00 0.9000E+01
       -2 -1    0    0    0  501 0.00000000E+00 0.00000000E+00 -.13237216E+03 0.13237255E+03 0.32000000E+00 0.0000E+00 0.9000E+01
       25  2    1    2    0    0 0.29588702E+03 0.20799658E+03 0.41226166E+03 0.62488946E+03 0.29952539E+03 0.0000E+00 0.0000E+00
       23  2    3    3    0    0 0.23046917E+03 0.21036442E+03 0.19351453E+03 0.37902230E+03 0.94025557E+02 0.0000E+00 0.0000E+00
      -24  1    1    2    0    0 -.29588702E+03 -.20799658E+03 0.12909693E+04 0.13430863E+04 0.80419002E+02 0.0000E+00 0.9000E+01
      -11  1    4    4    0    0 0.13676330E+03 0.12993531E+03 0.16867692E+03 0.25305986E+03 0.51099893E-03 0.0000E+00 0.9000E+01
       11  1    4    4    0    0 0.93705868E+02 0.80429109E+02 0.24837604E+02 0.12596245E+03 0.51099893E-03 0.0000E+00 0.9000E+01
       23  1    3    3    0    0 0.65417851E+02 -.23678405E+01 0.21874713E+03 0.24586716E+03 0.91188000E+02 0.0000E+00 0.9000E+01
#aMCatNLO 1  0  0  2  1 0.34280541D+02 0.00000000D+00  -5  7  0 0.00000000D+00 0.00000000D+00 0.00000000D+00 0.00000000D+00 0.00000000D+00
  <mgrwgt>
 0.6477721505D-03    4    2    0
 0.492933229521655D+03 0.000000000000000D+00 0.000000000000000D+00 0.492933229521655D+03
 0.492933229521655D+03 0.000000000000000D+00 0.000000000000000D+00 -.492933229521655D+03
 0.450712378564601D+03 -.295887019767598D+03 -.207996579059382D+03 0.256637345040882D+03
 0.213740801383333D+03 0.136763300938474D+03 0.129935310385609D+03 -.100487535582266D+03
 0.208534185337660D+03 0.937058677574274D+02 0.804291092124980D+02 -.168038314659346D+03
 0.112879093757716D+03 0.654178510716959D+02 -.236784053872516D+01 0.118885052007296D+02
 0.000000000000000D+00 -.000000000000000D+00 -.000000000000000D+00 0.000000000000000D+00
 0.545157054258623D+03 0.000000000000000D+00 0.000000000000000D+00 0.545157054258623D+03
 0.498888987253799D+03 0.000000000000000D+00 0.000000000000000D+00 -.498888987253799D+03
 0.442243145006337D+03 -.293478247143279D+03 -.192664410140537D+03 0.256637345040882D+03
 0.219071409670776D+03 0.137930824043420D+03 0.137366755463056D+03 -.100487535582266D+03
 0.211928709204100D+03 0.948400782339625D+02 0.876485148301940D+02 -.168038314659346D+03
 0.113219016487234D+03 0.660277570793213D+02 0.151429505146003D+01 0.118885052007296D+02
 0.575837611439752D+02 -.532041221342504D+01 -.338651552041731D+02 0.462680670048240D+02
0.965435292240D-04 0.000000000000D+00 0.000000000000D+00 0.106223724677D-05 0.000000000000D+00  7 1 -2 -24 -11 11 23 21 0 0.28240051D+00 0.20364980D-01 0.15796594D+06 0.15796594D+06 0.15796594D+06 0.11057829D+01  1  2  2  2  7  2       -2 0.838030223998D-03 0.100000000000D+01
-.506122399545D-05 0.000000000000D+00 -.370752572715D-06 0.106223724677D-05 0.000000000000D+00  7 1 -2 -24 -11 11 23 21 2 0.28240051D+00 0.20364980D-01 0.15796594D+06 0.15796594D+06 0.15796594D+06 0.11057829D+01  1  2  3  2  7  2       -2 -.537194789979D-04 0.100000000000D+01
0.610365970232D-05 0.000000000000D+00 0.000000000000D+00 0.106223724677D-05 0.000000000000D+00  7 1 -2 -24 -11 11 23 21 2 0.28240051D+00 0.20364980D-01 0.15796594D+06 0.15796594D+06 0.15796594D+06 0.11057829D+01  1  2 15  2  7  2       -2 0.647838189900D-04 0.100000000000D+01
-.189677533955D-04 0.000000000000D+00 0.000000000000D+00 0.106223724677D-05 0.000000000000D+00  7 1 -2 -24 -11 11 23 21 2 0.28240051D+00 0.20364980D-01 0.15796594D+06 0.15796594D+06 0.15796594D+06 0.11057829D+01  1  2  4  2  7  2       -2 -.201322413527D-03 0.100000000000D+01
  </mgrwgt>
  </event>
  <event>
  8     66 0.29493621E-05 0.18798839E+03 0.75467711E-02 0.94410424E-01
        1 -1    0    0  501    0 0.00000000E+00 0.00000000E+00 0.22136002E+03 0.22136025E+03 0.32000000E+00 0.0000E+00 0.9000E+01
       -2 -1    0    0    0  501 0.00000000E+00 0.00000000E+00 -.11448601E+04 0.11448601E+04 0.32000000E+00 0.0000E+00 0.9000E+01
       25  2    1    2    0    0 -.31344256E+03 -.32839067E+03 -.54194710E+03 0.76777527E+03 0.29947542E+03 0.0000E+00 0.0000E+00
       23  2    3    3    0    0 -.19852864E+03 -.32367358E+03 -.34802908E+03 0.52457389E+03 0.99374626E+02 0.0000E+00 0.0000E+00
      -24  1    1    2    0    0 0.31344256E+03 0.32839067E+03 -.38155293E+03 0.59844509E+03 0.80419002E+02 0.0000E+00 0.9000E+01
      -13  1    4    4    0    0 -.53404888E+02 -.17241916E+03 -.18994594E+03 0.26203038E+03 0.10565837E+00 0.0000E+00 0.9000E+01
       13  1    4    4    0    0 -.14512376E+03 -.15125443E+03 -.15808314E+03 0.26254351E+03 0.10565837E+00 0.0000E+00 0.9000E+01
       23  1    3    3    0    0 -.11491391E+03 -.47170898E+01 -.19391803E+03 0.24320138E+03 0.91188000E+02 0.0000E+00 0.9000E+01
#aMCatNLO 1  0  0  1  2 0.21016114D+02 0.00000000D+00  -5  7  0 0.00000000D+00 0.00000000D+00 0.00000000D+00 0.00000000D+00 0.00000000D+00
  <mgrwgt>
 0.5974009243D-03    9    2    0
 0.503414777041281D+03 0.000000000000000D+00 0.000000000000000D+00 0.503414777041281D+03
 0.503414777041281D+03 0.000000000000000D+00 0.000000000000000D+00 -.503414777041281D+03
 0.462087864917806D+03 0.313442556405805D+03 0.328390672634467D+03 0.311658292108957D+02
 0.181337664273053D+03 -.534047873526063D+02 -.172419179150235D+03 -.174041326410872D+02
 0.211259731460229D+03 -.145123855770915D+03 -.151254405515756D+03 0.263029548702344D+02
 0.152144293431475D+03 -.114913913282283D+03 -.471708796847491D+01 -.400646514400430D+02
 0.000000000000000D+00 0.000000000000000D+00 0.000000000000000D+00 0.000000000000000D+00
 0.529752858865834D+03 0.000000000000000D+00 0.000000000000000D+00 0.529752858865834D+03
 0.507734343838356D+03 0.000000000000000D+00 0.000000000000000D+00 -.507734343838356D+03
 0.454536076097649D+03 0.312189899077854D+03 0.318907488973266D+03 0.311658292108957D+02
 0.185091154728813D+03 -.539055485969468D+02 -.176210168708616D+03 -.174041326410872D+02
 0.214832473875285D+03 -.145706152937194D+03 -.155662658954267D+03 0.263029548702344D+02
 0.152589166020966D+03 -.115330361712195D+03 -.786979131211555D+01 -.400646514400430D+02
 0.304383319814775D+02 0.275216416848138D+01 0.208351300017327D+02 0.220185150274778D+02
0.139593441559D-03 0.000000000000D+00 0.000000000000D+00 0.111084912294D-06 0.000000000000D+00  7 1 -2 -24 -13 13 23 21 0 0.34055409D-01 0.17613234D+00 0.24896431D+06 0.24896431D+06 0.24896431D+06 0.10905948D+01  1  2  2  1  7  1        1 0.379950643733D-03 0.100000000000D+01
-.775444732563D-05 0.000000000000D+00 -.536075571385D-06 0.111084912294D-06 0.000000000000D+00  7 1 -2 -24 -13 13 23 21 2 0.34055409D-01 0.17613234D+00 0.24896431D+06 0.24896431D+06 0.24896431D+06 0.10905948D+01  1  2  3  1  7  1        1 -.251038215378D-04 0.100000000000D+01
0.887873144840D-05 0.000000000000D+00 0.000000000000D+00 0.111084912294D-06 0.000000000000D+00  7 1 -2 -24 -13 13 23 21 2 0.34055409D-01 0.17613234D+00 0.24896431D+06 0.24896431D+06 0.24896431D+06 0.10905948D+01  1  2 15  1  7  1        1 0.287435171590D-04 0.100000000000D+01
0.813437770592D-03 0.000000000000D+00 0.000000000000D+00 0.111084912294D-06 0.000000000000D+00  7 1 -2 -24 -13 13 23 21 2 0.35978571D-01 0.17613234D+00 0.25969481D+06 0.25969481D+06 0.25969481D+06 0.10892182D+01  1  2 12  1  7  1        1 0.243986117829D-02 0.100000000000D+01
-.827478237400D-03 0.000000000000D+00 0.000000000000D+00 0.111084912294D-06 0.000000000000D+00  7 1 -2 -24 -13 13 23 21 2 0.34055409D-01 0.17613234D+00 0.24896431D+06 0.24896431D+06 0.24896431D+06 0.10905948D+01  1  2  4  1  7  1        1 -.267883256224D-02 0.100000000000D+01
-.282676760724D-02 0.000000000000D+00 -.333638382670D-03 0.111084912294D-06 0.000000000000D+00  7 1 -2 -24 -13 13 23 21 2 0.36083616D-01 0.17613234D+00 0.24896431D+06 0.24896431D+06 0.24896431D+06 0.10905948D+01  1  2  5  1  7  1        1 -.848072555105D-02 0.100000000000D+01
0.284186943950D-02 0.000000000000D+00 0.333080878537D-03 0.111084912294D-06 0.000000000000D+00  7 1 -2 -24 -13 13 23 21 2 0.34055409D-01 0.17613234D+00 0.24896431D+06 0.24896431D+06 0.24896431D+06 0.10905948D+01  1  2  6  1  7  1        1 0.920011191604D-02 0.100000000000D+01
0.118494038192D-04 0.000000000000D+00 0.000000000000D+00 0.111084912294D-06 0.000000000000D+00  7 21 -2 -24 -13 13 23 -1 2 0.35978571D-01 0.17613234D+00 0.25969481D+06 0.25969481D+06 0.25969481D+06 0.10892182D+01  1  2 12  3  7  1        1 0.198552128129D-03 0.100000000000D+01
-.277805522407D-04 0.000000000000D+00 -.332481071007D-05 0.111084912294D-06 0.000000000000D+00  7 21 -2 -24 -13 13 23 -1 2 0.36083616D-01 0.17613234D+00 0.24896431D+06 0.24896431D+06 0.24896431D+06 0.10905948D+01  1  2  5  3  7  1        1 -.465156524246D-03 0.100000000000D+01
  </mgrwgt>
  </event>
  <event>
  8     66 0.29493621E-05 0.31314943E+03 0.75467711E-02 0.92248427E-01
        1 -1    0    0  501    0 0.00000000E+00 0.00000000E+00 0.62798393E+03 0.62798401E+03 0.32000000E+00 0.0000E+00 0.9000E+01
       -2 -1    0    0    0  501 0.00000000E+00 0.00000000E+00 -.87378789E+03 0.87378795E+03 0.32000000E+00 0.0000E+00 0.9000E+01
       25  2    1    2    0    0 0.50869779E+03 -.27330367E+03 0.28728071E+03 0.71176258E+03 0.30101068E+03 0.0000E+00 0.0000E+00
       23  2    3    3    0    0 0.23233047E+03 -.14725542E+03 0.26666018E+03 0.39394578E+03 0.91782491E+02 0.0000E+00 0.0000E+00
      -24  1    1    2    0    0 -.50869779E+03 0.27330367E+03 -.53308466E+03 0.79000938E+03 0.80419002E+02 0.0000E+00 0.9000E+01
      -11  1    4    4    0    0 0.15680866E+03 -.11088780E+03 0.12438952E+03 0.22881829E+03 0.51099893E-03 0.0000E+00 0.9000E+01
       11  1    4    4    0    0 0.75521810E+02 -.36367619E+02 0.14227066E+03 0.16512749E+03 0.51099893E-03 0.0000E+00 0.9000E+01
       23  1    3    3    0    0 0.27636732E+03 -.12604825E+03 0.20620529E+02 0.31781680E+03 0.91188000E+02 0.0000E+00 0.9000E+01
#aMCatNLO 1  0  0  1  2 0.62843849D+02 0.00000000D+00  -5  7  0 0.00000000D+00 0.00000000D+00 0.00000000D+00 0.00000000D+00 0.00000000D+00
  <mgrwgt>
 0.1234010637D-02    9    2    0
 0.740759650237645D+03 0.000000000000000D+00 0.000000000000000D+00 0.740759650237645D+03
 0.740759650237645D+03 0.000000000000000D+00 0.000000000000000D+00 -.740759650237645D+03
 0.712363053191499D+03 -.508697792409739D+03 0.273303672217803D+03 -.409298866780334D+03
 0.252584176277908D+03 0.156808657226076D+03 -.110887798937600D+03 0.164053976397156D+03
 0.190989430139261D+03 0.755218102981155D+02 -.363676191357324D+02 0.171612397199659D+03
 0.325582640866622D+03 0.276367324885548D+03 -.126048254144470D+03 0.736324931835197D+02
 0.000000000000000D+00 -.000000000000000D+00 -.000000000000000D+00 0.000000000000000D+00
 0.791735669157333D+03 0.000000000000000D+00 0.000000000000000D+00 0.791735669157333D+03
 0.761050903334480D+03 0.000000000000000D+00 0.000000000000000D+00 -.761050903334480D+03
 0.719503565891963D+03 -.501941930361251D+03 0.302897510016897D+03 -.409298866780334D+03
 0.249705974349607D+03 0.159178572775980D+03 -.100506459609173D+03 0.164053976397156D+03
 0.190370188188469D+03 0.773211489641259D+02 -.284856736126645D+02 0.171612397199659D+03
 0.323271844387235D+03 0.279428763244048D+03 -.112637721252720D+03 0.736324931835197D+02
 0.699349996745370D+02 -.139865546229032D+02 -.612676555423387D+02 0.306847658228535D+02
0.485731774060D-03 0.000000000000D+00 0.000000000000D+00 0.561665628711D-05 0.000000000000D+00  7 1 -2 -24 -11 11 23 21 0 0.96612923D-01 0.13442892D+00 0.34578165D+06 0.34578165D+06 0.34578165D+06 0.10800177D+01  1  2  2  1  7  1        1 0.668462156010D-03 0.100000000000D+01
-.252359209614D-04 0.000000000000D+00 -.186533790850D-05 0.561665628711D-05 0.000000000000D+00  7 1 -2 -24 -11 11 23 21 2 0.96612923D-01 0.13442892D+00 0.34578165D+06 0.34578165D+06 0.34578165D+06 0.10800177D+01  1  2  3  1  7  1        1 -.405099075630D-04 0.100000000000D+01
0.303643911962D-04 0.000000000000D+00 0.000000000000D+00 0.561665628711D-05 0.000000000000D+00  7 1 -2 -24 -11 11 23 21 2 0.96612923D-01 0.13442892D+00 0.34578165D+06 0.34578165D+06 0.34578165D+06 0.10800177D+01  1  2 15  1  7  1        1 0.487423733195D-04 0.100000000000D+01
0.145553373871D-02 0.000000000000D+00 0.000000000000D+00 0.561665628711D-05 0.000000000000D+00  7 1 -2 -24 -11 11 23 21 2 0.10451884D+00 0.13442892D+00 0.38441004D+06 0.38441004D+06 0.38441004D+06 0.10766745D+01  1  2 12  1  7  1        1 0.205378169142D-02 0.100000000000D+01
-.140848769790D-02 0.000000000000D+00 0.000000000000D+00 0.561665628711D-05 0.000000000000D+00  7 1 -2 -24 -11 11 23 21 2 0.96612923D-01 0.13442892D+00 0.34578165D+06 0.34578165D+06 0.34578165D+06 0.10800177D+01  1  2  4  1  7  1        1 -.226097183188D-02 0.100000000000D+01
-.405885759498D-02 0.000000000000D+00 -.741092827125D-03 0.561665628711D-05 0.000000000000D+00  7 1 -2 -24 -11 11 23 21 2 0.10530209D+00 0.13442892D+00 0.34578165D+06 0.34578165D+06 0.34578165D+06 0.10800177D+01  1  2  5  1  7  1        1 -.572675436585D-02 0.100000000000D+01
0.411016930882D-02 0.000000000000D+00 0.738353033501D-03 0.561665628711D-05 0.000000000000D+00  7 1 -2 -24 -11 11 23 21 2 0.96612923D-01 0.13442892D+00 0.34578165D+06 0.34578165D+06 0.34578165D+06 0.10800177D+01  1  2  6  1  7  1        1 0.659784039676D-02 0.100000000000D+01
0.194236108759D-04 0.000000000000D+00 0.000000000000D+00 0.561665628711D-05 0.000000000000D+00  7 21 -2 -24 -11 11 23 -1 2 0.10451884D+00 0.13442892D+00 0.38441004D+06 0.38441004D+06 0.38441004D+06 0.10766745D+01  1  2 12  3  7  1        1 0.569770806023D-04 0.100000000000D+01
-.560212586497D-04 0.000000000000D+00 -.105658245136D-04 0.561665628711D-05 0.000000000000D+00  7 21 -2 -24 -11 11 23 -1 2 0.10530209D+00 0.13442892D+00 0.34578165D+06 0.34578165D+06 0.34578165D+06 0.10800177D+01  1  2  5  3  7  1        1 -.163556955419D-03 0.100000000000D+01
  </mgrwgt>
  </event>
  <event>
  8     66 0.29493621E-05 0.97879643E+02 0.75467711E-02 0.10594988E+00
        1 -1    0    0  501    0 0.00000000E+00 0.00000000E+00 0.41546673E+03 0.41546685E+03 0.32000000E+00 0.0000E+00 0.9000E+01
       -2 -1    0    0    0  501 0.00000000E+00 0.00000000E+00 -.24774123E+03 0.24774144E+03 0.32000000E+00 0.0000E+00 0.9000E+01
       25  2    1    2    0    0 0.11098044E+03 0.35293214E+02 -.11990118E+03 0.34264848E+03 0.29911439E+03 0.0000E+00 0.0000E+00
       23  2    3    3    0    0 0.69087496E+02 -.58829801E+02 0.37275271E+02 0.13376131E+03 0.90931923E+02 0.0000E+00 0.0000E+00
      -24  1    1    2    0    0 -.11098044E+03 -.35293214E+02 0.28762668E+03 0.32055981E+03 0.80419002E+02 0.0000E+00 0.9000E+01
      -11  1    4    4    0    0 0.36670445E+02 -.73876423E+01 -.26348162E+02 0.45755048E+02 0.51099893E-03 0.0000E+00 0.9000E+01
       11  1    4    4    0    0 0.32417051E+02 -.51442158E+02 0.63623433E+02 0.88006261E+02 0.51099893E-03 0.0000E+00 0.9000E+01
       23  1    3    3    0    0 0.41892940E+02 0.94123015E+02 -.15717645E+03 0.20888717E+03 0.91188000E+02 0.0000E+00 0.9000E+01
#aMCatNLO 1  0  0  1  2 0.30042635D+02 0.00000000D+00  -5  7  0 0.00000000D+00 0.00000000D+00 0.00000000D+00 0.00000000D+00 0.00000000D+00
  <mgrwgt>
 0.1439481799D-02    9    2    0
 0.320824479904442D+03 0.000000000000000D+00 0.000000000000000D+00 0.320824479904442D+03
 0.320824479904442D+03 0.000000000000000D+00 0.000000000000000D+00 -.320824479904442D+03
 0.256145654771797D+03 -.110980435522029D+03 -.352932140662016D+02 0.213497335993497D+03
 0.541797584890409D+02 0.366704452162184D+02 -.738764231717104D+01 -.391937165699895D+02
 0.743322481848846D+02 0.324170506577056D+02 -.514421581995939D+02 0.427565469448010D+02
 0.256991298363161D+03 0.418929396481050D+02 0.941230145829666D+02 -.217060166368309D+03
 0.000000000000000D+00 0.000000000000000D+00 -.000000000000000D+00 0.000000000000000D+00
 0.338089358819573D+03 0.000000000000000D+00 0.000000000000000D+00 0.338089358819573D+03
 0.334516831631532D+03 0.000000000000000D+00 0.000000000000000D+00 -.334516831631532D+03
 0.259078763297635D+03 -.119760933156620D+03 -.270332397354927D+02 0.213497335993497D+03
 0.527515421732590D+02 0.348481130448373D+02 -.567334119392558D+01 -.391937165699895D+02
 0.716578417709730D+02 0.299290753316636D+02 -.491016744156698D+02 0.427565469448010D+02
 0.258863740366337D+03 0.331016949234699D+02 0.102393098897368D+03 -.217060166368309D+03
 0.302543028429015D+02 0.218820498566490D+02 -.205848435522798D+02 0.357252718804086D+01
0.170131996735D-04 0.000000000000D+00 0.000000000000D+00 0.179267654139D-05 0.000000000000D+00  7 1 -2 -24 -11 11 23 21 0 0.63917983D-01 0.38114061D-01 0.35592830D+05 0.35592830D+05 0.35592830D+05 0.11605097D+01  1  2  2  1  7  1        1 0.697986729278D-03 0.100000000000D+01
-.621216455104D-06 0.000000000000D+00 -.653351664245D-07 0.179267654139D-05 0.000000000000D+00  7 1 -2 -24 -11 11 23 21 2 0.63917983D-01 0.38114061D-01 0.35592830D+05 0.35592830D+05 0.35592830D+05 0.11605097D+01  1  2  3  1  7  1        1 -.343242999775D-04 0.100000000000D+01
0.105756493275D-05 0.000000000000D+00 0.000000000000D+00 0.179267654139D-05 0.000000000000D+00  7 1 -2 -24 -11 11 23 21 2 0.63917983D-01 0.38114061D-01 0.35592830D+05 0.35592830D+05 0.35592830D+05 0.11605097D+01  1  2 15  1  7  1        1 0.584340219887D-04 0.100000000000D+01
0.363323022499D-04 0.000000000000D+00 0.000000000000D+00 0.179267654139D-05 0.000000000000D+00  7 1 -2 -24 -11 11 23 21 2 0.68656438D-01 0.38114061D-01 0.42162856D+05 0.42162856D+05 0.42162856D+05 0.11538654D+01  1  2 12  1  7  1        1 0.180141035805D-02 0.100000000000D+01
-.305496176383D-04 0.000000000000D+00 0.000000000000D+00 0.179267654139D-05 0.000000000000D+00  7 1 -2 -24 -11 11 23 21 2 0.63917983D-01 0.38114061D-01 0.35592830D+05 0.35592830D+05 0.35592830D+05 0.11605097D+01  1  2  4  1  7  1        1 -.168796919560D-02 0.100000000000D+01
-.110731709537D-03 0.000000000000D+00 -.262417392294D-04 0.179267654139D-05 0.000000000000D+00  7 1 -2 -24 -11 11 23 21 2 0.69824687D-01 0.38114061D-01 0.35592830D+05 0.35592830D+05 0.35592830D+05 0.11605097D+01  1  2  5  1  7  1        1 -.543918834966D-02 0.100000000000D+01
0.112712749456D-03 0.000000000000D+00 0.261395684504D-04 0.179267654139D-05 0.000000000000D+00  7 1 -2 -24 -11 11 23 21 2 0.63917983D-01 0.38114061D-01 0.35592830D+05 0.35592830D+05 0.35592830D+05 0.11605097D+01  1  2  6  1  7  1        1 0.622775876559D-02 0.100000000000D+01
0.444529278172D-06 0.000000000000D+00 0.000000000000D+00 0.179267654139D-05 0.000000000000D+00  7 21 -2 -24 -11 11 23 -1 2 0.68656438D-01 0.38114061D-01 0.42162856D+05 0.42162856D+05 0.42162856D+05 0.11538654D+01  1  2 12  3  7  1        1 0.765018651120D-04 0.100000000000D+01
-.154652967014D-05 0.000000000000D+00 -.382774450568D-06 0.179267654139D-05 0.000000000000D+00  7 21 -2 -24 -11 11 23 -1 2 0.69824687D-01 0.38114061D-01 0.35592830D+05 0.35592830D+05 0.35592830D+05 0.11605097D+01  1  2  5  3  7  1        1 -.261128095345D-03 0.100000000000D+01
  </mgrwgt>
  </event>
  <event>
  9     66 -.29493621E-05 0.64141031E+03 0.75467711E-02 0.91666212E-01
        1 -1    0    0  502    0 0.00000000E+00 0.00000000E+00 0.23328728E+04 0.23328728E+04 0.32000000E+00 0.0000E+00 0.9000E+01
       -2 -1    0    0    0  501 0.00000000E+00 0.00000000E+00 -.21466172E+03 0.21466196E+03 0.32000000E+00 0.0000E+00 0.9000E+01
       25  2    1    2    0    0 -.19097002E+03 0.59690248E+03 0.13843851E+04 0.15489627E+04 0.30000199E+03 0.0000E+00 0.0000E+00
       23  2    3    3    0    0 -.94971309E+02 0.34852897E+03 0.55018295E+03 0.66855731E+03 0.11736955E+03 0.0000E+00 0.0000E+00
      -24  1    1    2    0    0 0.21415087E+03 -.58477038E+03 0.62242085E+03 0.88413343E+03 0.80419002E+02 0.0000E+00 0.9000E+01
      -13  1    4    4    0    0 0.17876171E+02 0.22031941E+02 0.16480959E+02 0.32811539E+02 0.10565837E+00 0.0000E+00 0.9000E+01
       13  1    4    4    0    0 -.11284748E+03 0.32649703E+03 0.53370199E+03 0.63574578E+03 0.10565837E+00 0.0000E+00 0.9000E+01
       23  1    3    3    0    0 -.95998713E+02 0.24837351E+03 0.83420213E+03 0.88040536E+03 0.91188000E+02 0.0000E+00 0.9000E+01
       21  1    1    2  502  501 -.23180851E+02 -.12132103E+02 0.11140511E+03 0.11443863E+03 0.75000000E+00 0.0000E+00 0.9000E+01
#aMCatNLO 2  0  0  1  2 0.26163711D+02 0.00000000D+00  -5  7  0 0.00000000D+00 0.00000000D+00 0.00000000D+00 0.00000000D+00 0.00000000D+00
  <mgrwgt>
 -.2531764357D-03    3    2    0
 0.687750333226318D+03 0.000000000000000D+00 0.000000000000000D+00 0.687750333226318D+03
 0.687750333226318D+03 0.000000000000000D+00 0.000000000000000D+00 -.687750333226318D+03
 0.657385397473038D+03 0.203087227955143D+03 -.590560732848094D+03 -.188896647709355D+03
 0.334987216876650D+02 0.173076549123797D+02 0.217341031308622D+02 -.187146519400887D+02
 0.344928486847439D+03 -.118667721729318D+03 0.323451175776204D+03 0.165217961320117D+02
 0.339688060444494D+03 -.101727161138205D+03 0.245375453941027D+03 0.191089503517432D+03
 0.000000000000000D+00 -.000000000000000D+00 -.000000000000000D+00 0.000000000000000D+00
 0.722861085677241D+03 0.000000000000000D+00 0.000000000000000D+00 0.722861085677241D+03
 0.692766216510202D+03 0.000000000000000D+00 0.000000000000000D+00 -.692766216510202D+03
 0.655718044962433D+03 0.214150873287760D+03 -.584770380995176D+03 -.188896647709355D+03
 0.339881590292675D+02 0.178762703685024D+02 0.220316979525482D+02 -.187146519400887D+02
 0.345843896076386D+03 -.112847570472947D+03 0.326497253501802D+03 0.165217961320117D+02
 0.340199376839152D+03 -.959987217562654D+02 0.248373532656707D+03 0.191089503517432D+03
 0.398778252802037D+02 -.231808514270494D+02 -.121321031158812D+02 0.300948691670381D+02
-.108385237030D-02 0.000000000000D+00 0.000000000000D+00 0.538102761985D-07 0.000000000000D+00  7 1 -2 -24 -13 13 23 21 2 0.36010859D+00 0.32785622D-01 0.42861000D+06 0.42861000D+06 0.42861000D+06 0.10732714D+01  1  2 13  1  7  1        1 -.207810140440D-02 0.100000000000D+01
-.712115391973D-03 0.000000000000D+00 0.000000000000D+00 0.538102761985D-07 0.000000000000D+00  7 1 -2 -24 -13 13 23 21 2 0.34146916D+00 0.32785622D-01 0.41140719D+06 0.41140719D+06 0.41140719D+06 0.10745484D+01  1  2  8  1  7  1        1 -.165870858469D-02 0.100000000000D+01
0.181842571824D-02 0.000000000000D+00 0.000000000000D+00 0.538102761985D-07 0.483502511164D-09  7 1 -2 -24 -13 13 23 21 2 0.35890170D+00 0.33024733D-01 0.42861000D+06 0.42861000D+06 0.42861000D+06 0.10732714D+01  1  2  1  1  7  1        1 0.348363355339D-02 0.100000000000D+01
  </mgrwgt>
  </event>
  <event>
  8     66 0.29493621E-05 0.32916596E+03 0.75467711E-02 0.92720364E-01
        1 -1    0    0  501    0 0.00000000E+00 0.00000000E+00 0.18521977E+03 0.18522005E+03 0.32000000E+00 0.0000E+00 0.9000E+01
       -2 -1    0    0    0  501 0.00000000E+00 0.00000000E+00 -.73143194E+03 0.73143201E+03 0.32000000E+00 0.0000E+00 0.9000E+01
       25  2    1    2    0    0 0.18939299E+03 0.22806600E+03 -.37530768E+03 0.56514194E+03 0.30107432E+03 0.0000E+00 0.0000E+00
       23  2    3    3    0    0 0.15846376E+03 0.94029182E+02 -.63725039E+02 0.21254942E+03 0.84641168E+02 0.0000E+00 0.0000E+00
      -24  1    1    2    0    0 -.18939299E+03 -.22806600E+03 -.17090449E+03 0.35151012E+03 0.80419002E+02 0.0000E+00 0.9000E+01
      -11  1    4    4    0    0 0.44769187E+01 0.94128692E+01 -.32451037E+02 0.34083936E+02 0.51099893E-03 0.0000E+00 0.9000E+01
       11  1    4    4    0    0 0.15398684E+03 0.84616313E+02 -.31274002E+02 0.17846549E+03 0.51099893E-03 0.0000E+00 0.9000E+01
       23  1    3    3    0    0 0.30929234E+02 0.13403682E+03 -.31158264E+03 0.35259251E+03 0.91188000E+02 0.0000E+00 0.9000E+01
#aMCatNLO 1  0  0  2  1 0.40726976D+03 0.00000000D+00  -5  7  0 0.00000000D+00 0.00000000D+00 0.00000000D+00 0.00000000D+00 0.00000000D+00
  <mgrwgt>
 0.2336316766D-02    3    2    0
 0.368070396363077D+03 0.000000000000000D+00 0.000000000000000D+00 0.368070396363077D+03
 0.368070396363077D+03 0.000000000000000D+00 0.000000000000000D+00 -.368070396363077D+03
 0.310894830825665D+03 -.189392992806206D+03 -.228066000656736D+03 0.480059735876524D+02
 0.183632793397043D+02 0.447691874086724D+01 0.941286923849299D+01 -.151183702625221D+02
 0.199022413412617D+03 0.153986840133907D+03 0.846163126476159D+02 0.934775574139490D+02
 0.207860269148168D+03 0.309292339314324D+02 0.134036818770627D+03 -.126365160739079D+03
 0.000000000000000D+00 -.000000000000000D+00 0.000000000000000D+00 0.000000000000000D+00
 0.859357082078795D+03 0.000000000000000D+00 0.000000000000000D+00 0.859357082078795D+03
 0.515166328183094D+03 0.000000000000000D+00 0.000000000000000D+00 -.515166328183094D+03
 0.282064698356555D+03 -.403354224345253D+02 -.262986232152054D+03 0.480059735876524D+02
 0.222100106834203D+02 0.146761916004725D+02 0.702345038205236D+01 -.151183702625221D+02
 0.299720156840722D+03 0.279360246081895D+03 0.552446520996596D+02 0.934775574139490D+02
 0.237296951974017D+03 0.142832408681645D+03 0.107820875778974D+03 -.126365160739079D+03
 0.533231592407174D+03 -.396533423929487D+03 0.928972538913680D+02 0.344190753895701D+03
0.196597633919D-03 0.000000000000D+00 0.000000000000D+00 0.482440351729D-07 0.000000000000D+00  7 1 -2 -24 -11 11 23 21 0 0.28495376D-01 0.11252802D+00 0.10835023D+06 0.10835023D+06 0.10835023D+06 0.11188750D+01  1  2  2  2  7  2       -2 0.231063618173D-02 0.100000000000D+01
-.107563657169D-04 0.000000000000D+00 -.754986679595D-06 0.482440351729D-07 0.000000000000D+00  7 1 -2 -24 -11 11 23 21 2 0.28495376D-01 0.11252802D+00 0.10835023D+06 0.10835023D+06 0.10835023D+06 0.11188750D+01  1  2  3  2  7  2       -2 -.158263946806D-03 0.100000000000D+01
0.125017396126D-04 0.000000000000D+00 0.000000000000D+00 0.482440351729D-07 0.000000000000D+00  7 1 -2 -24 -11 11 23 21 2 0.28495376D-01 0.11252802D+00 0.10835023D+06 0.10835023D+06 0.10835023D+06 0.11188750D+01  1  2 15  2  7  2       -2 0.183944531554D-03 0.100000000000D+01
  </mgrwgt>
  </event>
  <event>
  8     66 0.29493621E-05 0.26234642E+03 0.75467711E-02 0.98264239E-01
        1 -1    0    0  501    0 0.00000000E+00 0.00000000E+00 0.23218955E+04 0.23218955E+04 0.32000000E+00 0.0000E+00 0.9000E+01
       -2 -1    0    0    0  501 0.00000000E+00 0.00000000E+00 -.15543914E+03 0.15543947E+03 0.32000000E+00 0.0000E+00 0.9000E+01
       25  2    1    2    0    0 -.16976625E+03 -.25374961E+03 0.17793808E+03 0.46390965E+03 0.30056740E+03 0.0000E+00 0.0000E+00
       23  2    3    3    0    0 0.87315293E+01 -.19702451E+03 0.11392650E+03 0.24598322E+03 0.92917172E+02 0.0000E+00 0.0000E+00
      -24  1    1    2    0    0 0.16976625E+03 0.25374961E+03 0.19885183E+04 0.20134253E+04 0.80419002E+02 0.0000E+00 0.9000E+01
      -13  1    4    4    0    0 -.96899615E+01 -.59695042E+02 -.85188058E+01 0.61073518E+02 0.10565837E+00 0.0000E+00 0.9000E+01
       13  1    4    4    0    0 0.18421491E+02 -.13732947E+03 0.12244531E+03 0.18490971E+03 0.10565837E+00 0.0000E+00 0.9000E+01
       23  1    3    3    0    0 -.17849778E+03 -.56725102E+02 0.64011573E+02 0.21792643E+03 0.91188000E+02 0.0000E+00 0.9000E+01
#aMCatNLO 1  0  0  1  2 0.11255747D+02 0.00000000D+00  -5  7  0 0.00000000D+00 0.00000000D+00 0.00000000D+00 0.00000000D+00 0.00000000D+00
  <mgrwgt>
 0.2212255062D-02    9    2    0
 0.600761083229531D+03 0.000000000000000D+00 0.000000000000000D+00 0.600761083229531D+03
 0.600761083229531D+03 0.000000000000000D+00 0.000000000000000D+00 -.600761083229531D+03
 0.565858046968698D+03 0.169766251997178D+03 0.253749611864230D+03 0.469594151929559D+03
 0.141283414128569D+03 -.968999780664393D+01 -.596949418175028D+02 -.127685633380333D+03
 0.160472188885908D+03 0.184215271399936D+02 -.137329567935698D+03 -.809478876454433D+02
 0.333908516475887D+03 -.178497781330528D+03 -.567251021110287D+02 -.260960630903782D+03
 0.000000000000000D+00 0.000000000000000D+00 -.000000000000000D+00 0.000000000000000D+00
 0.608470634846888D+03 0.000000000000000D+00 0.000000000000000D+00 0.608470634846888D+03
 0.604909813488959D+03 0.000000000000000D+00 0.000000000000000D+00 -.604909813488959D+03
 0.564781918129341D+03 0.164570347525823D+03 0.254773099600949D+03 0.469594151929559D+03
 0.141270599379849D+03 -.109884868991116D+02 -.594391658174378D+02 -.127685633380333D+03
 0.160061277727432D+03 0.169485018412188D+02 -.137039411844977D+03 -.809478876454433D+02
 0.335461091455612D+03 -.181573898084051D+03 -.561191695363822D+02 -.260960630903782D+03
 0.118055616436134D+02 0.110435356161208D+02 -.217535240215198D+01 0.356082135792846D+01
0.163144515868D-03 0.000000000000D+00 0.000000000000D+00 0.451253427509D-05 0.000000000000D+00  7 1 -2 -24 -13 13 23 21 0 0.35721472D+00 0.23913741D-01 0.13070587D+06 0.13070587D+06 0.13070587D+06 0.11123018D+01  1  2  2  1  7  1        1 0.518797066648D-03 0.100000000000D+01
-.622145588120D-05 0.000000000000D+00 -.626517897870D-06 0.451253427509D-05 0.000000000000D+00  7 1 -2 -24 -13 13 23 21 2 0.35721472D+00 0.23913741D-01 0.13070587D+06 0.13070587D+06 0.13070587D+06 0.11123018D+01  1  2  3  1  7  1        1 -.244772340210D-04 0.100000000000D+01
0.996142151044D-05 0.000000000000D+00 0.000000000000D+00 0.451253427509D-05 0.000000000000D+00  7 1 -2 -24 -13 13 23 21 2 0.35721472D+00 0.23913741D-01 0.13070587D+06 0.13070587D+06 0.13070587D+06 0.11123018D+01  1  2 15  1  7  1        1 0.391914770672D-04 0.100000000000D+01
0.892135856002D-04 0.000000000000D+00 0.000000000000D+00 0.451253427509D-05 0.000000000000D+00  7 1 -2 -24 -13 13 23 21 2 0.36302006D+00 0.23913741D-01 0.13482184D+06 0.13482184D+06 0.13482184D+06 0.11112267D+01  1  2 12  1  7  1        1 0.329844465149D-03 0.100000000000D+01
-.814501402149D-04 0.000000000000D+00 0.000000000000D+00 0.451253427509D-05 0.000000000000D+00  7 1 -2 -24 -13 13 23 21 2 0.35721472D+00 0.23913741D-01 0.13070587D+06 0.13070587D+06 0.13070587D+06 0.11123018D+01  1  2  4  1  7  1        1 -.320451383270D-03 0.100000000000D+01
-.756528146973D-02 0.000000000000D+00 -.941065903264D-03 0.451253427509D-05 0.000000000000D+00  7 1 -2 -24 -13 13 23 21 2 0.36282918D+00 0.23913741D-01 0.13070587D+06 0.13070587D+06 0.13070587D+06 0.11123018D+01  1  2  5  1  7  1        1 -.281247581813D-01 0.100000000000D+01
0.757915023345D-02 0.000000000000D+00 0.940951478026D-03 0.451253427509D-05 0.000000000000D+00  7 1 -2 -24 -13 13 23 21 2 0.35721472D+00 0.23913741D-01 0.13070587D+06 0.13070587D+06 0.13070587D+06 0.11123018D+01  1  2  6  1  7  1        1 0.298188458597D-01 0.100000000000D+01
0.478314150937D-05 0.000000000000D+00 0.000000000000D+00 0.451253427509D-05 0.000000000000D+00  7 21 -2 -24 -13 13 23 -1 2 0.36302006D+00 0.23913741D-01 0.13482184D+06 0.13482184D+06 0.13482184D+06 0.11112267D+01  1  2 12  3  7  1        1 0.699195266956D-05 0.100000000000D+01
-.215287749920D-04 0.000000000000D+00 -.268849217206D-05 0.451253427509D-05 0.000000000000D+00  7 21 -2 -24 -13 13 23 -1 2 0.36282918D+00 0.23913741D-01 0.13070587D+06 0.13070587D+06 0.13070587D+06 0.11123018D+01  1  2  5  3  7  1        1 -.317289607300D-04 0.100000000000D+01
  </mgrwgt>
  </event>
  <event>
  8     66 0.29493621E-05 0.79578665E+03 0.75467711E-02 0.89126823E-01
        1 -1    0    0  501    0 0.00000000E+00 0.00000000E+00 0.25436423E+04 0.25436424E+04 0.32000000E+00 0.0000E+00 0.9000E+01
       -2 -1    0    0    0  501 0.00000000E+00 0.00000000E+00 -.39696731E+03 0.39696744E+03 0.32000000E+00 0.0000E+00 0.9000E+01
       25  2    1    2    0    0 0.71382595E+03 -.42205746E+03 0.32526627E+03 0.93769267E+03 0.29289827E+03 0.0000E+00 0.0000E+00
       23  2    3    3    0    0 0.68969507E+02 -.64058787E+02 0.15433698E+02 0.13251296E+03 0.91984588E+02 0.0000E+00 0.0000E+00
      -24  1    1    2    0    0 -.71382595E+03 0.42205746E+03 0.18214088E+04 0.20029171E+04 0.80419002E+02 0.0000E+00 0.9000E+01
      -11  1    4    4    0    0 0.14199161E+02 -.14641922E+01 0.42669192E+02 0.44993555E+02 0.51099893E-03 0.0000E+00 0.9000E+01
       11  1    4    4    0    0 0.54770346E+02 -.62594595E+02 -.27235494E+02 0.87519405E+02 0.51099893E-03 0.0000E+00 0.9000E+01
       23  1    3    3    0    0 0.64485644E+03 -.35799867E+03 0.30983258E+03 0.80517971E+03 0.91188000E+02 0.0000E+00 0.9000E+01
#aMCatNLO 1  0  0  1  2 0.44772623D+00 0.00000000D+00  -5  7  0 0.00000000D+00 0.00000000D+00 0.00000000D+00 0.00000000D+00 0.00000000D+00
  <mgrwgt>
 0.2262372144D-02    9    2    0
 0.100485973427970D+04 0.000000000000000D+00 0.000000000000000D+00 0.100485973427970D+04
 0.100485973427970D+04 0.000000000000000D+00 0.000000000000000D+00 -.100485973427970D+04
 0.985125093525459D+03 -.713825951015103D+03 0.422057461477294D+03 0.525665525603400D+03
 0.202573544090758D+02 0.141991610488507D+02 -.146419218827984D+01 0.143735999109298D+02
 0.157149383385550D+03 0.547703459915434D+02 -.625945945983501D+02 -.133334371508226D+03
 0.847187637239322D+03 0.644856443974709D+03 -.357998674690664D+03 -.406704754006105D+03
 0.000000000000000D+00 -.000000000000000D+00 0.000000000000000D+00 0.000000000000000D+00
 0.100883826321528D+04 0.000000000000000D+00 0.000000000000000D+00 0.100883826321528D+04
 0.100487235558223D+04 0.000000000000000D+00 0.000000000000000D+00 -.100487235558223D+04
 0.984952627573719D+03 -.713689579985211D+03 0.421885530947241D+03 0.525665525603400D+03
 0.202595762389410D+02 0.142019656770648D+02 -.146772813881003D+01 0.143735999109298D+02
 0.157167895195268D+03 0.547921033925502D+02 -.626220253619857D+02 -.133334371508226D+03
 0.847339419423806D+03 0.644973741072900D+03 -.358146557655849D+03 -.406704754006105D+03
 0.399110036577299D+01 -.278230157303026D+00 0.350780209403965D+00 0.396590763305588D+01
0.146004462000D-02 0.000000000000D+00 0.000000000000D+00 0.204558004828D-06 0.000000000000D+00  7 1 -2 -24 -11 11 23 21 0 0.39132960D+00 0.61071906D-01 0.70038845D+06 0.70038845D+06 0.70038845D+06 0.10583171D+01  1  2  2  1  7  1        1 0.507035933843D-03 0.100000000000D+01
-.778141460353D-04 0.000000000000D+00 -.560695577937D-05 0.204558004828D-06 0.000000000000D+00  7 1 -2 -24 -11 11 23 21 2 0.39132960D+00 0.61071906D-01 0.70038845D+06 0.70038845D+06 0.70038845D+06 0.10583171D+01  1  2  3  1  7  1        1 -.302665383694D-04 0.100000000000D+01
0.923020058262D-04 0.000000000000D+00 0.000000000000D+00 0.204558004828D-06 0.000000000000D+00  7 1 -2 -24 -11 11 23 21 2 0.39132960D+00 0.61071906D-01 0.70038845D+06 0.70038845D+06 0.70038845D+06 0.10583171D+01  1  2 15  1  7  1        1 0.359017266558D-04 0.100000000000D+01
-.494739604941D+01 0.000000000000D+00 0.000000000000D+00 0.204558004828D-06 0.000000000000D+00  7 1 -2 -24 -11 11 23 21 2 0.39132960D+00 0.61071906D-01 0.70038845D+06 0.70038845D+06 0.70038845D+06 0.10583171D+01  1  2  4  1  7  1        1 -.192433586935D+01 0.100000000000D+01
-.524542812520D+01 0.000000000000D+00 -.312584546578D-01 0.204558004828D-06 0.000000000000D+00  7 1 -2 -24 -11 11 23 21 2 0.39288049D+00 0.61071906D-01 0.70038845D+06 0.70038845D+06 0.70038845D+06 0.10583171D+01  1  2  5  1  7  1        1 -.200718102322D+01 0.100000000000D+01
0.524551097460D+01 0.000000000000D+00 0.312582101517D-01 0.204558004828D-06 0.000000000000D+00  7 1 -2 -24 -11 11 23 21 2 0.39132960D+00 0.61071906D-01 0.70038845D+06 0.70038845D+06 0.70038845D+06 0.10583171D+01  1  2  6  1  7  1        1 0.204029045192D+01 0.100000000000D+01
0.494743756293D+01 0.000000000000D+00 0.000000000000D+00 0.204558004828D-06 0.609553836628D-05  7 1 -2 -24 -11 11 23 21 2 0.39287899D+00 0.61072673D-01 0.70076924D+06 0.70076924D+06 0.70076924D+06 0.10583009D+01  1  2 11  1  7  1        1 0.189300274952D+01 0.100000000000D+01
-.386692970372D-02 0.000000000000D+00 -.230448207129D-04 0.204558004828D-06 0.000000000000D+00  7 21 -2 -24 -11 11 23 -1 2 0.39288049D+00 0.61071906D-01 0.70038845D+06 0.70038845D+06 0.70038845D+06 0.10583171D+01  1  2  5  3  7  1        1 -.460970729375D-03 0.100000000000D+01
0.364407925537D-02 0.000000000000D+00 0.000000000000D+00 0.204558004828D-06 0.448891869596D-08  7 21 -2 -24 -11 11 23 -1 2 0.39287899D+00 0.61072673D-01 0.70076924D+06 0.70076924D+06 0.70076924D+06 0.10583009D+01  1  2 11  3  7  1        1 0.434362881206D-03 0.100000000000D+01
  </mgrwgt>
  </event>
  <event>
  8     66 0.29493621E-05 0.23786847E+03 0.75467711E-02 0.96926536E-01
        1 -1    0    0  501    0 0.00000000E+00 0.00000000E+00 0.24459221E+03 0.24459242E+03 0.32000000E+00 0.0000E+00 0.9000E+01
       -2 -1    0    0    0  501 0.00000000E+00 0.00000000E+00 -.60286653E+03 0.60286662E+03 0.32000000E+00 0.0000E+00 0.9000E+01
       25  2    1    2    0    0 0.26001324E+03 -.11456495E+03 -.43564855E+02 0.41590222E+03 0.30057403E+03 0.0000E+00 0.0000E+00
       23  2    3    3    0    0 0.16321816E+03 0.54893517E+02 0.11709024E+02 0.19351537E+03 0.87507885E+02 0.0000E+00 0.0000E+00
      -24  1    1    2    0    0 -.26001324E+03 0.11456495E+03 -.31470947E+03 0.43155681E+03 0.80419002E+02 0.0000E+00 0.9000E+01
      -13  1    4    4    0    0 0.13462593E+03 0.78957630E+01 0.24428778E+02 0.13705203E+03 0.10565837E+00 0.0000E+00 0.9000E+01
       13  1    4    4    0    0 0.28592231E+02 0.46997754E+02 -.12719754E+02 0.56463333E+02 0.10565837E+00 0.0000E+00 0.9000E+01
       23  1    3    3    0    0 0.96795079E+02 -.16945847E+03 -.55273879E+02 0.22238686E+03 0.91188000E+02 0.0000E+00 0.9000E+01
#aMCatNLO 1  0  0  1  2 0.11235515D+03 0.00000000D+00  -5  7  0 0.00000000D+00 0.00000000D+00 0.00000000D+00 0.00000000D+00 0.00000000D+00
  <mgrwgt>
 0.7816709298D-03    9    2    0
 0.384000754447062D+03 0.000000000000000D+00 0.000000000000000D+00 0.384000754447062D+03
 0.384000754447062D+03 0.000000000000000D+00 0.000000000000000D+00 -.384000754447062D+03
 0.329393092964016D+03 -.260013238893307D+03 0.114564953414772D+03 -.145947184924251D+03
 0.162627683976150D+03 0.134626082739857D+03 0.789570612470296D+01 0.908913596903467D+02
 0.563710880055674D+02 0.285920768104237D+02 0.469978111701742D+02 0.123044078204072D+02
 0.219609643948391D+03 0.967950793430262D+02 -.169458470709649D+03 0.427514174134972D+02
 0.000000000000000D+00 0.000000000000000D+00 0.000000000000000D+00 0.000000000000000D+00
 0.537570690232606D+03 0.000000000000000D+00 0.000000000000000D+00 0.537570690232606D+03
 0.409200575363145D+03 0.000000000000000D+00 0.000000000000000D+00 -.409200575363145D+03
 0.367519478328941D+03 -.309976956299377D+03 0.105910607461515D+03 -.145947184924251D+03
 0.144755415918010D+03 0.112588881846752D+03 0.407858501619235D+01 0.908913596903467D+02
 0.516761498711129D+02 0.208458516996306D+02 0.456560672923965D+02 0.123044078204072D+02
 0.212225480263998D+03 0.658355458220085D+02 -.174821052349938D+03 0.427514174134972D+02
 0.170594741213689D+03 0.110706676930986D+03 0.191757925798344D+02 0.128370114869462D+03
0.509831346251D-04 0.000000000000D+00 0.000000000000D+00 0.266646610605D-06 0.000000000000D+00  7 1 -2 -24 -13 13 23 21 0 0.37629593D-01 0.92748720D-01 0.12270051D+06 0.12270051D+06 0.12270051D+06 0.11145033D+01  1  2  2  1  7  1        1 0.663284472344D-03 0.100000000000D+01
-.280331557090D-05 0.000000000000D+00 -.195788661128D-06 0.266646610605D-06 0.000000000000D+00  7 1 -2 -24 -13 13 23 21 2 0.37629593D-01 0.92748720D-01 0.12270051D+06 0.12270051D+06 0.12270051D+06 0.11145033D+01  1  2  3  1  7  1        1 -.453010205476D-04 0.100000000000D+01
0.330056402126D-05 0.000000000000D+00 0.000000000000D+00 0.266646610605D-06 0.000000000000D+00  7 1 -2 -24 -13 13 23 21 2 0.37629593D-01 0.92748720D-01 0.12270051D+06 0.12270051D+06 0.12270051D+06 0.11145033D+01  1  2 15  1  7  1        1 0.533364563368D-04 0.100000000000D+01
0.689086476611D-04 0.000000000000D+00 0.000000000000D+00 0.266646610605D-06 0.000000000000D+00  7 1 -2 -24 -13 13 23 21 2 0.53533609D-01 0.92748720D-01 0.16825614D+06 0.16825614D+06 0.16825614D+06 0.11036371D+01  1  2 12  1  7  1        1 0.681194423485D-03 0.100000000000D+01
-.747570854972D-04 0.000000000000D+00 0.000000000000D+00 0.266646610605D-06 0.000000000000D+00  7 1 -2 -24 -13 13 23 21 2 0.37629593D-01 0.92748720D-01 0.12270051D+06 0.12270051D+06 0.12270051D+06 0.11145033D+01  1  2  4  1  7  1        1 -.120805959248D-02 0.100000000000D+01
-.949658747799D-04 0.000000000000D+00 -.229150361683D-04 0.266646610605D-06 0.000000000000D+00  7 1 -2 -24 -13 13 23 21 2 0.55305799D-01 0.92748720D-01 0.12270051D+06 0.12270051D+06 0.12270051D+06 0.11145033D+01  1  2  5  1  7  1        1 -.924728860796D-03 0.100000000000D+01
0.980313079079D-04 0.000000000000D+00 0.213149881038D-04 0.266646610605D-06 0.000000000000D+00  7 1 -2 -24 -13 13 23 21 2 0.37629593D-01 0.92748720D-01 0.12270051D+06 0.12270051D+06 0.12270051D+06 0.11145033D+01  1  2  6  1  7  1        1 0.158416638495D-02 0.100000000000D+01
0.299220990012D-05 0.000000000000D+00 0.000000000000D+00 0.266646610605D-06 0.000000000000D+00  7 21 -2 -24 -13 13 23 -1 2 0.53533609D-01 0.92748720D-01 0.16825614D+06 0.16825614D+06 0.16825614D+06 0.11036371D+01  1  2 12  3  7  1        1 0.122472607135D-03 0.100000000000D+01
-.365405458781D-05 0.000000000000D+00 -.106085858951D-05 0.266646610605D-06 0.000000000000D+00  7 21 -2 -24 -13 13 23 -1 2 0.55305799D-01 0.92748720D-01 0.12270051D+06 0.12270051D+06 0.12270051D+06 0.11145033D+01  1  2  5  3  7  1        1 -.144693940588D-03 0.100000000000D+01
  </mgrwgt>
  </event>
  <event>
  7     66 0.29493621E-05 0.19166578E+03 0.75467711E-02 0.10021863E+00
        1 -1    0    0  501    0 0.00000000E+00 0.00000000E+00 0.18593225E+04 0.18593225E+04 0.32000000E+00 0.0000E+00 0.9000E+01
       -2 -1    0    0    0  501 0.00000000E+00 0.00000000E+00 -.59534380E+02 0.59535240E+02 0.32000000E+00 0.0000E+00 0.9000E+01
       25  2    1    2    0    0 0.87818186E+02 -.18283627E+03 0.61094030E+03 0.71015289E+03 0.29987987E+03 0.0000E+00 0.0000E+00
      -24  1    1    2    0    0 -.87818186E+02 0.18283627E+03 0.11888478E+04 0.12087049E+04 0.80419002E+02 0.0000E+00 0.9000E+01
      -13  1    3    3    0    0 -.50087464E+02 0.39146613E+02 0.10730794E+03 0.12472456E+03 0.10565837E+00 0.0000E+00 0.9000E+01
       13  1    3    3    0    0 0.38229395E+02 -.12851472E+03 0.21855899E+03 0.25640897E+03 0.10565837E+00 0.0000E+00 0.9000E+01
       23  1    3    3    0    0 0.99676255E+02 -.93468167E+02 0.28507337E+03 0.32901935E+03 0.91188000E+02 0.0000E+00 0.9000E+01
#aMCatNLO 1  0  0  2  1 0.44601379D+02 0.00000000D+00  -5  7  0 0.00000000D+00 0.00000000D+00 0.00000000D+00 0.00000000D+00 0.00000000D+00
  <mgrwgt>
 0.1055706308D-02    9    2    0
 0.332707774729209D+03 0.000000000000000D+00 0.000000000000000D+00 0.332707774729209D+03
 0.332707774729209D+03 0.000000000000000D+00 0.000000000000000D+00 -.332707774729209D+03
 0.269994542973883D+03 -.878181862658922D+02 0.182836272380145D+03 0.159024214962400D+03
 0.694261414184371D+02 -.500887778671255D+02 0.391454475287336D+02 -.279058664406922D+02
 0.148250086085241D+03 0.382241591720290D+02 -.128509496379474D+03 -.632638207838152D+02
 0.177744778980858D+03 0.996828049609887D+02 -.934722235294047D+02 -.678545277378928D+02
 0.000000000000000D+00 0.000000000000000D+00 -.000000000000000D+00 -.000000000000000D+00
 0.336049717569290D+03 0.000000000000000D+00 0.000000000000000D+00 0.336049717569290D+03
 0.525070793716594D+03 0.000000000000000D+00 0.000000000000000D+00 -.525070793716594D+03
 0.284178998006043D+03 -.950088205467702D+02 0.199937765385262D+03 0.159024214962400D+03
 0.733019522645892D+02 -.519407347856509D+02 0.435499585983848D+02 -.279058664406922D+02
 0.139649310711564D+03 0.344885436671990D+02 -.119625078130650D+03 -.632638207838152D+02
 0.169778380803198D+03 0.951735461073027D+02 -.827478484976161D+02 -.678545277378928D+02
 0.194211869500490D+03 0.172874655579194D+02 -.411147973553808D+02 -.189021076147304D+03
0.314168046636D-04 0.000000000000D+00 0.000000000000D+00 0.111796639658D-08 0.000000000000D+00  7 1 -2 -24 -13 13 23 21 0 0.28604968D+00 0.91592037D-02 0.84135151D+05 0.84135151D+05 0.84135151D+05 0.11279310D+01  1  2  2  2  7  2       -2 0.956416046752D-03 0.100000000000D+01
-.170544622790D-05 0.000000000000D+00 -.120648802143D-06 0.111796639658D-08 0.000000000000D+00  7 1 -2 -24 -13 13 23 21 2 0.28604968D+00 0.91592037D-02 0.84135151D+05 0.84135151D+05 0.84135151D+05 0.11279310D+01  1  2  3  2  7  2       -2 -.660522985999D-04 0.100000000000D+01
0.202024840637D-05 0.000000000000D+00 0.000000000000D+00 0.111796639658D-08 0.000000000000D+00  7 1 -2 -24 -13 13 23 21 2 0.28604968D+00 0.91592037D-02 0.84135151D+05 0.84135151D+05 0.84135151D+05 0.11279310D+01  1  2 15  2  7  2       -2 0.782446545667D-04 0.100000000000D+01
0.295792315205D-03 0.000000000000D+00 0.000000000000D+00 0.111796639658D-08 0.000000000000D+00  7 1 -2 -24 -13 13 23 21 2 0.28604968D+00 0.14478617D-01 0.98605094D+05 0.98605094D+05 0.98605094D+05 0.11222230D+01  1  2 12  2  7  2       -2 0.552615793803D-02 0.100000000000D+01
-.271435971064D-03 0.000000000000D+00 0.000000000000D+00 0.111796639658D-08 0.000000000000D+00  7 1 -2 -24 -13 13 23 21 2 0.28604968D+00 0.91592037D-02 0.84135151D+05 0.84135151D+05 0.84135151D+05 0.11279310D+01  1  2  4  2  7  2       -2 -.105127734421D-01 0.100000000000D+01
-.301304121048D-03 0.000000000000D+00 -.122567050040D-04 0.111796639658D-08 0.000000000000D+00  7 1 -2 -24 -13 13 23 21 2 0.28604968D+00 0.14550182D-01 0.84135151D+05 0.84135151D+05 0.84135151D+05 0.11279310D+01  1  2  5  2  7  2       -2 -.567059198037D-02 0.100000000000D+01
0.277882308643D-03 0.000000000000D+00 0.110516518141D-04 0.111796639658D-08 0.000000000000D+00  7 1 -2 -24 -13 13 23 21 2 0.28604968D+00 0.91592037D-02 0.84135151D+05 0.84135151D+05 0.84135151D+05 0.11279310D+01  1  2  6  2  7  2       -2 0.107624414806D-01 0.100000000000D+01
0.155760849009D-04 0.000000000000D+00 0.000000000000D+00 0.111796639658D-08 0.000000000000D+00  7 1 21 -24 -13 13 23 2 2 0.28604968D+00 0.14478617D-01 0.98605094D+05 0.98605094D+05 0.98605094D+05 0.11222230D+01  1  2 12  4  7  2       -2 0.397020619086D-02 0.100000000000D+01
-.154918514751D-04 0.000000000000D+00 -.650731430108D-06 0.111796639658D-08 0.000000000000D+00  7 1 21 -24 -13 13 23 2 2 0.28604968D+00 0.14550182D-01 0.84135151D+05 0.84135151D+05 0.84135151D+05 0.11279310D+01  1  2  5  4  7  2       -2 -.398834228168D-02 0.100000000000D+01
  </mgrwgt>
  </event>
  <event>
  8     66 0.29493621E-05 0.46383740E+03 0.75467711E-02 0.94543234E-01
        1 -1    0    0  501    0 0.00000000E+00 0.00000000E+00 0.38051524E+03 0.38051538E+03 0.32000000E+00 0.0000E+00 0.9000E+01
       -2 -1    0    0    0  501 0.00000000E+00 0.00000000E+00 -.62105673E+03 0.62105681E+03 0.32000000E+00 0.0000E+00 0.9000E+01
       25  2    1    2    0    0 0.33045875E+03 0.28290729E+03 -.15634214E+03 0.55124312E+03 0.30031083E+03 0.0000E+00 0.0000E+00
       23  2    3    3    0    0 0.22176678E+03 0.92082671E+02 -.17715901E+03 0.31254546E+03 0.92949609E+02 0.0000E+00 0.0000E+00
      -24  1    1    2    0    0 -.33045875E+03 -.28290729E+03 -.84199349E+02 0.45032907E+03 0.80419002E+02 0.0000E+00 0.9000E+01
      -11  1    4    4    0    0 0.10845470E+03 0.77396892E+02 -.51870708E+02 0.14297996E+03 0.51099893E-03 0.0000E+00 0.9000E+01
       11  1    4    4    0    0 0.11331208E+03 0.14685779E+02 -.12528830E+03 0.16956549E+03 0.51099893E-03 0.0000E+00 0.9000E+01
       23  1    3    3    0    0 0.10869198E+03 0.19082462E+03 0.20816867E+02 0.23869766E+03 0.91188000E+02 0.0000E+00 0.9000E+01
#aMCatNLO 1  0  0  2  2 0.76440923D+02 0.00000000D+00  -5  7  0 0.00000000D+00 0.00000000D+00 0.00000000D+00 0.00000000D+00 0.00000000D+00
  <mgrwgt>
 0.8181878979D-03    4    2    0
 0.486129262019612D+03 0.000000000000000D+00 0.000000000000000D+00 0.486129262019612D+03
 0.486129262019612D+03 0.000000000000000D+00 0.000000000000000D+00 -.486129262019612D+03
 0.443075190247340D+03 -.330458753935251D+03 -.282907287271928D+03 0.246756360474415D+02
 0.134457755040527D+03 0.108454695752550D+03 0.773968918254681D+02 -.180606753892783D+02
 0.143680972008045D+03 0.113312079944094D+03 0.146857791945097D+02 -.871144198475190D+02
 0.251044606743313D+03 0.108691978238606D+03 0.190824616251951D+03 0.804994591893558D+02
 0.000000000000000D+00 0.000000000000000D+00 -.000000000000000D+00 0.000000000000000D+00
 0.589243292239476D+03 0.000000000000000D+00 0.000000000000000D+00 0.589243292239476D+03
 0.502005459733855D+03 0.000000000000000D+00 0.000000000000000D+00 -.502005459733855D+03
 0.433099762758346D+03 -.342894333725230D+03 -.250844129753420D+03 0.246756360474415D+02
 0.137462669217890D+03 0.104595320269617D+03 0.873476754738575D+02 -.180606753892783D+02
 0.141979412119665D+03 0.109257692760953D+03 0.251393693840765D+02 -.871144198475190D+02
 0.262717020109437D+03 0.101400142650475D+03 0.209625450391566D+03 0.804994591893558D+02
 0.115989887767994D+03 0.276411780441854D+02 -.712683654960799D+02 0.872378325056201D+02
0.151478894562D-03 0.000000000000D+00 0.000000000000D+00 0.260522601470D-05 0.000000000000D+00  7 1 -2 -24 -11 11 23 21 0 0.58540823D-01 0.95547206D-01 0.21514513D+06 0.21514513D+06 0.21514513D+06 0.10953989D+01  1  2  2  2  7  2       -2 0.100974093682D-02 0.100000000000D+01
-.839294881223D-05 0.000000000000D+00 -.581718840427D-06 0.260522601470D-05 0.000000000000D+00  7 1 -2 -24 -11 11 23 21 2 0.58540823D-01 0.95547206D-01 0.21514513D+06 0.21514513D+06 0.21514513D+06 0.10953989D+01  1  2  3  2  7  2       -2 -.671300554424D-04 0.100000000000D+01
0.967788236923D-05 0.000000000000D+00 0.000000000000D+00 0.260522601470D-05 0.000000000000D+00  7 1 -2 -24 -11 11 23 21 2 0.58540823D-01 0.95547206D-01 0.21514513D+06 0.21514513D+06 0.21514513D+06 0.10953989D+01  1  2 15  2  7  2       -2 0.774074517248D-04 0.100000000000D+01
-.252338911476D-04 0.000000000000D+00 0.000000000000D+00 0.260522601470D-05 0.000000000000D+00  7 1 -2 -24 -11 11 23 21 2 0.58540823D-01 0.95547206D-01 0.21514513D+06 0.21514513D+06 0.21514513D+06 0.10953989D+01  1  2  4  2  7  2       -2 -.201830435245D-03 0.100000000000D+01
  </mgrwgt>
  </event>
  <event>
  8     66 0.29493621E-05 0.17625633E+03 0.75467711E-02 0.10443091E+00
        1 -1    0    0  501    0 0.00000000E+00 0.00000000E+00 0.21817235E+04 0.21817235E+04 0.32000000E+00 0.0000E+00 0.9000E+01
       -2 -1    0    0    0  501 0.00000000E+00 0.00000000E+00 -.54078141E+02 0.54079088E+02 0.32000000E+00 0.0000E+00 0.9000E+01
       25  2    1    2    0    0 -.46577342E+02 0.19370710E+02 0.38834370E+03 0.49391222E+03 0.30098800E+03 0.0000E+00 0.0000E+00
       23  2    3    3    0    0 -.28885706E+02 -.78729429E+02 0.31872159E+03 0.34192827E+03 0.91097644E+02 0.0000E+00 0.0000E+00
      -24  1    1    2    0    0 0.46577342E+02 -.19370710E+02 0.17393017E+04 0.17418904E+04 0.80419002E+02 0.0000E+00 0.9000E+01
      -11  1    4    4    0    0 0.12707951E+02 0.15166128E+02 0.72425624E+02 0.75079787E+02 0.51099893E-03 0.0000E+00 0.9000E+01
       11  1    4    4    0    0 -.41593657E+02 -.93895558E+02 0.24629597E+03 0.26684848E+03 0.51099893E-03 0.0000E+00 0.9000E+01
       23  1    3    3    0    0 -.17691637E+02 0.98100139E+02 0.69622111E+02 0.15198395E+03 0.91188000E+02 0.0000E+00 0.9000E+01
#aMCatNLO 1  0  0  2  1 0.84527600D+02 0.00000000D+00  -5  7  0 0.00000000D+00 0.00000000D+00 0.00000000D+00 0.00000000D+00 0.00000000D+00
  <mgrwgt>
 0.7971357569D-03    4    2    0
 0.343488917914083D+03 0.000000000000000D+00 0.000000000000000D+00 0.343488917914083D+03
 0.343488917914083D+03 0.000000000000000D+00 0.000000000000000D+00 -.343488917914083D+03
 0.282259461671873D+03 0.465773424962428D+02 -.193707097741891D+02 0.265816693452005D+03
 0.200407369940221D+02 0.127079511681416D+02 0.151661284254448D+02 0.318239924500480D+01
 0.105665793624322D+03 -.415936570091272D+02 -.938955577360491D+02 -.248767336340856D+02
 0.279011843537948D+03 -.176916366552572D+02 0.981001390847934D+02 -.244122359062924D+03
 0.000000000000000D+00 -.000000000000000D+00 -.000000000000000D+00 0.000000000000000D+00
 0.396476390047028D+03 0.000000000000000D+00 0.000000000000000D+00 0.396476390047028D+03
 0.381522353521935D+03 0.000000000000000D+00 0.000000000000000D+00 -.381522353521935D+03
 0.284334241554375D+03 0.596337557814568D+02 0.128080294960585D+02 0.265816693452005D+03
 0.225089205076998D+02 0.136884525579796D+02 0.175826648729731D+02 0.318239924500480D+01
 0.938329847766867D+02 -.369964677254002D+02 -.825653591504578D+02 -.248767336340856D+02
 0.291482405863435D+03 -.454534036814845D+01 0.130500403334345D+03 -.244122359062924D+03
 0.858401908667665D+02 -.317804002458878D+02 -.783257385529192D+02 0.149540365250932D+02
0.715352888534D-04 0.000000000000D+00 0.000000000000D+00 0.211705205251D-05 0.000000000000D+00  7 1 -2 -24 -11 11 23 21 0 0.33564985D+00 0.83197886D-02 0.31066292D+05 0.31066292D+05 0.31066292D+05 0.11659312D+01  1  2  2  2  7  2       -2 0.159332299338D-02 0.100000000000D+01
-.182307774276D-05 0.000000000000D+00 -.274714344871D-06 0.211705205251D-05 0.000000000000D+00  7 1 -2 -24 -11 11 23 21 2 0.33564985D+00 0.83197886D-02 0.31066292D+05 0.31066292D+05 0.31066292D+05 0.11659312D+01  1  2  3  2  7  2       -2 -.551994216128D-04 0.100000000000D+01
0.443404191115D-05 0.000000000000D+00 0.000000000000D+00 0.211705205251D-05 0.000000000000D+00  7 1 -2 -24 -11 11 23 21 2 0.33564985D+00 0.83197886D-02 0.31066292D+05 0.31066292D+05 0.31066292D+05 0.11659312D+01  1  2 15  2  7  2       -2 0.134254586715D-03 0.100000000000D+01
-.289067329901D-04 0.000000000000D+00 0.000000000000D+00 0.211705205251D-05 0.000000000000D+00  7 1 -2 -24 -11 11 23 21 2 0.33564985D+00 0.83197886D-02 0.31066292D+05 0.31066292D+05 0.31066292D+05 0.11659312D+01  1  2  4  2  7  2       -2 -.875242401543D-03 0.100000000000D+01
  </mgrwgt>
  </event>
  <event>
  8     66 -.29493621E-05 0.13766925E+03 0.75467711E-02 0.10805134E+00
        3 -1    0    0  501    0 0.00000000E+00 0.00000000E+00 0.20595573E+03 0.20595634E+03 0.50000000E+00 0.0000E+00 0.9000E+01
       -4 -1    0    0    0  501 0.00000000E+00 0.00000000E+00 -.25637087E+03 0.25637555E+03 0.15500000E+01 0.0000E+00 0.9000E+01
       25  2    1    2    0    0 -.50563448E+02 -.63805198E+02 -.11420789E+03 0.33131855E+03 0.30016791E+03 0.0000E+00 0.0000E+00
       23  2    3    3    0    0 0.63847079E+02 -.68368062E+02 -.13384906E+03 0.18363099E+03 0.83988845E+02 0.0000E+00 0.0000E+00
      -24  1    1    2    0    0 0.50563448E+02 0.63805198E+02 0.63792749E+02 0.13101334E+03 0.80419002E+02 0.0000E+00 0.9000E+01
      -11  1    4    4    0    0 0.89458236E+01 -.12999389E+02 -.95394439E+02 0.96690800E+02 0.51099893E-03 0.0000E+00 0.9000E+01
       11  1    4    4    0    0 0.54901256E+02 -.55368673E+02 -.38454624E+02 0.86940186E+02 0.51099893E-03 0.0000E+00 0.9000E+01
       23  1    3    3    0    0 -.11441053E+03 0.45628644E+01 0.19641175E+02 0.14768756E+03 0.91188000E+02 0.0000E+00 0.9000E+01
#aMCatNLO 1  0  0  2  2 0.11078660D+01 0.00000000D+00  -5  7  0 0.00000000D+00 0.00000000D+00 0.00000000D+00 0.00000000D+00 0.00000000D+00
  <mgrwgt>
 -.2159308859D-03   10    2    0
 0.229787451457016D+03 0.000000000000000D+00 0.000000000000000D+00 0.229787451457016D+03
 0.229787451457016D+03 0.000000000000000D+00 0.000000000000000D+00 -.229787451457016D+03
 0.138797325652048D+03 0.505634480072121D+02 0.638051980040676D+02 0.785475402993224D+02
 0.868061255682492D+02 0.894582355985135D+01 -.129993891347861D+02 -.853597771736141D+02
 0.832432867003047D+02 0.549012557201590D+02 -.553686732586342D+02 -.291480174728476D+02
 0.150728164993431D+03 -.114410527287222D+03 0.456286438935272D+01 0.359602543471393D+02
 0.000000000000000D+00 0.000000000000000D+00 -.000000000000000D+00 -.000000000000000D+00
 0.230101488351273D+03 0.000000000000000D+00 0.000000000000000D+00 0.230101488351273D+03
 0.230767289137203D+03 0.000000000000000D+00 0.000000000000000D+00 -.230767289137203D+03
 0.138869279193177D+03 0.503949862921835D+02 0.640943836759420D+02 0.785475402993224D+02
 0.867684454387883D+02 0.884051500128884D+01 -.128186137802383D+02 -.853597771736141D+02
 0.830615792609403D+02 0.548003577279318D+02 -.551954691946245D+02 -.291480174728476D+02
 0.150876934347784D+03 -.114593512606342D+03 0.487698165002343D+01 0.359602543471393D+02
 0.129253924778711D+01 0.557653584937649D+00 -.957282351102534D+00 -.665800785929145D+00
0.551473168117D-05 0.000000000000D+00 0.000000000000D+00 0.339843161041D-07 0.000000000000D+00  7 3 -4 -24 -11 11 23 21 0 0.31685904D-01 0.39442079D-01 0.31428626D+05 0.31428626D+05 0.31428626D+05 0.11654660D+01  1  2  2  2  7  2       -4 0.106256313624D-03 0.100000000000D+01
-.281305265934D-06 0.000000000000D+00 -.211780217179D-07 0.339843161041D-07 0.000000000000D+00  7 3 -4 -24 -11 11 23 21 2 0.31685904D-01 0.39442079D-01 0.31428626D+05 0.31428626D+05 0.31428626D+05 0.11654660D+01  1  2  3  2  7  2       -4 -.736219673488D-05 0.100000000000D+01
0.353406640591D-06 0.000000000000D+00 0.000000000000D+00 0.339843161041D-07 0.000000000000D+00  7 3 -4 -24 -11 11 23 21 2 0.31685904D-01 0.39442079D-01 0.31428626D+05 0.31428626D+05 0.31428626D+05 0.11654660D+01  1  2 15  2  7  2       -4 0.924920195435D-05 0.100000000000D+01
-.296250577511D-03 0.000000000000D+00 0.000000000000D+00 0.339843161041D-07 0.000000000000D+00  7 3 -4 -24 -11 11 23 21 2 0.31685904D-01 0.39442079D-01 0.31428626D+05 0.31428626D+05 0.31428626D+05 0.11654660D+01  1  2  4  2  7  2       -4 -.775333880515D-02 0.100000000000D+01
-.145286208744D-02 0.000000000000D+00 -.128805655754D-03 0.339843161041D-07 0.000000000000D+00  7 3 -4 -24 -11 11 23 21 2 0.31685904D-01 0.39656613D-01 0.31428626D+05 0.31428626D+05 0.31428626D+05 0.11654660D+01  1  2  5  2  7  2       -4 -.375956237622D-01 0.100000000000D+01
0.145354129958D-02 0.000000000000D+00 0.128803760733D-03 0.339843161041D-07 0.000000000000D+00  7 3 -4 -24 -11 11 23 21 2 0.31685904D-01 0.39442079D-01 0.31428626D+05 0.31428626D+05 0.31428626D+05 0.11654660D+01  1  2  6  2  7  2       -4 0.380414386280D-01 0.100000000000D+01
0.296253552617D-03 0.000000000000D+00 0.000000000000D+00 0.339843161041D-07 0.200515159374D-06  7 3 -4 -24 -11 11 23 21 2 0.31729207D-01 0.39610264D-01 0.31596502D+05 0.31596502D+05 0.31596502D+05 0.11652524D+01  1  2 11  2  7  2       -4 0.766443916454D-02 0.100000000000D+01
0.604484969541D-11 0.000000000000D+00 0.000000000000D+00 0.339843161041D-07 0.000000000000D+00  7 3 21 -24 -11 11 23 4 2 0.31685904D-01 0.39637140D-01 0.31596502D+05 0.31596502D+05 0.31596502D+05 0.11652524D+01  1  2 12  4  7  2       -4 0.347046833799D-08 0.100000000000D+01
-.146432571632D-05 0.000000000000D+00 -.129947134174D-06 0.339843161041D-07 0.000000000000D+00  7 3 21 -24 -11 11 23 4 2 0.31685904D-01 0.39656613D-01 0.31428626D+05 0.31428626D+05 0.31428626D+05 0.11654660D+01  1  2  5  4  7  2       -4 -.840214057346D-03 0.100000000000D+01
0.277652349672D-06 0.000000000000D+00 0.000000000000D+00 0.339843161041D-07 0.159011240094D-09  7 3 21 -24 -11 11 23 4 2 0.31729207D-01 0.39610264D-01 0.31596502D+05 0.31596502D+05 0.31596502D+05 0.11652524D+01  1  2 11  4  7  2       -4 0.159221156960D-03 0.100000000000D+01
  </mgrwgt>
  </event>
  <event>
  8     66 0.29493621E-05 0.23296071E+03 0.75467711E-02 0.86628204E-01
        1 -1    0    0  501    0 0.00000000E+00 0.00000000E+00 0.66220830E+03 0.66220838E+03 0.32000000E+00 0.0000E+00 0.9000E+01
       -2 -1    0    0    0  501 0.00000000E+00 0.00000000E+00 -.13393050E+03 0.13393089E+03 0.32000000E+00 0.0000E+00 0.9000E+01
       25  2    1    2    0    0 0.91437684E+01 0.17269785E+03 0.16031947E+03 0.38168939E+03 0.30012714E+03 0.0000E+00 0.0000E+00
       23  2    3    3    0    0 -.36637878E+02 0.60667331E+02 -.39402125E+02 0.13098884E+03 0.10287220E+03 0.0000E+00 0.0000E+00
      -24  1    1    2    0    0 -.91437684E+01 -.17269785E+03 0.36795833E+03 0.41444988E+03 0.80419002E+02 0.0000E+00 0.9000E+01
      -11  1    4    4    0    0 0.23330368E+02 -.14529659E+02 -.16714813E+02 0.32168339E+02 0.51099893E-03 0.0000E+00 0.9000E+01
       11  1    4    4    0    0 -.59968246E+02 0.75196989E+02 -.22687311E+02 0.98820503E+02 0.51099893E-03 0.0000E+00 0.9000E+01
       23  1    3    3    0    0 0.45781646E+02 0.11203052E+03 0.19972159E+03 0.25070054E+03 0.91188000E+02 0.0000E+00 0.9000E+01
#aMCatNLO 1  0  0  1  1 0.10434680D+04 0.00000000D+00  -5  7  0 0.00000000D+00 0.00000000D+00 0.00000000D+00 0.00000000D+00 0.00000000D+00
  <mgrwgt>
 0.9627665372D-03    3    2    0
 0.297808788098576D+03 0.000000000000000D+00 0.000000000000000D+00 0.297808788098576D+03
 0.297808788098576D+03 0.000000000000000D+00 0.000000000000000D+00 -.297808788098576D+03
 0.227621904230903D+03 -.914376841657687D+01 -.172697847949064D+03 0.124243149284931D+03
 0.578232473638566D+02 0.233303675100767D+02 -.145296583773081D+02 -.508734794857323D+02
 0.152211903816436D+03 -.599682455980754D+02 0.751969886976057D+02 -.117973243043180D+03
 0.157960520785956D+03 0.457816465045755D+02 0.112030517628766D+03 0.446035732439805D+02
 0.000000000000000D+00 -.000000000000000D+00 0.000000000000000D+00 -.000000000000000D+00
 0.938303135083245D+03 0.000000000000000D+00 0.000000000000000D+00 0.938303135083245D+03
 0.140714893612603D+04 0.000000000000000D+00 0.000000000000000D+00 -.140714893612603D+04
 0.747021105029478D+03 0.138710852279294D+03 -.718954974056655D+03 0.124243149284931D+03
 0.151891568934887D+03 0.551443797417811D+02 -.132068297412402D+03 -.508734794857323D+02
 0.152434235979265D+03 -.137530272894392D+02 -.955477077947618D+02 -.117973243043180D+03
 0.150146269013875D+03 0.925218499501903D+02 -.606537656741141D+02 0.446035732439805D+02
 0.114395889225177D+04 -.272624054681826D+03 0.100722474493793D+04 -.468845801042786D+03
0.152715676427D-04 0.000000000000D+00 0.000000000000D+00 0.379016895106D-07 0.000000000000D+00  7 1 -2 -24 -11 11 23 21 0 0.10187824D+00 0.20604728D-01 0.54270694D+05 0.54270694D+05 0.54270694D+05 0.11441775D+01  1  2  2  1  7  1        1 0.946436784403D-03 0.100000000000D+01
-.786206877138D-06 0.000000000000D+00 -.586468408441D-07 0.379016895106D-07 0.000000000000D+00  7 1 -2 -24 -11 11 23 21 2 0.10187824D+00 0.20604728D-01 0.54270694D+05 0.54270694D+05 0.54270694D+05 0.11441775D+01  1  2  3  1  7  1        1 -.637869246330D-04 0.100000000000D+01
0.987479536830D-06 0.000000000000D+00 0.000000000000D+00 0.379016895106D-07 0.000000000000D+00  7 1 -2 -24 -11 11 23 21 2 0.10187824D+00 0.20604728D-01 0.54270694D+05 0.54270694D+05 0.54270694D+05 0.11441775D+01  1  2 15  1  7  1        1 0.801166774599D-04 0.100000000000D+01
  </mgrwgt>
  </event>
  <event>
  9     66 0.29493621E-05 0.42585405E+03 0.75467711E-02 0.96052917E-01
        1 -1    0    0  501    0 0.00000000E+00 0.00000000E+00 0.18331876E+04 0.18331876E+04 0.32000000E+00 0.0000E+00 0.9000E+01
       21 -1    0    0  502  501 0.00000000E+00 0.00000000E+00 -.33449936E+03 0.33450020E+03 0.75000000E+00 0.0000E+00 0.9000E+01
       25  2    1    2    0    0 0.18444048E+03 0.35067156E+03 -.11808844E+02 0.49654398E+03 0.29904454E+03 0.0000E+00 0.0000E+00
       23  2    3    3    0    0 -.40103345E+02 0.59591613E+02 0.13378494E+02 0.11694271E+03 0.91308136E+02 0.0000E+00 0.0000E+00
      -24  1    1    2    0    0 -.15917306E+03 -.33170031E+03 0.15641659E+04 0.16088639E+04 0.80419002E+02 0.0000E+00 0.9000E+01
      -11  1    4    4    0    0 -.52898008E+02 0.22972946E+02 0.39745275E+02 0.70040291E+02 0.51099893E-03 0.0000E+00 0.9000E+01
       11  1    4    4    0    0 0.12794663E+02 0.36618667E+02 -.26366781E+02 0.46902423E+02 0.51099893E-03 0.0000E+00 0.9000E+01
       23  1    3    3    0    0 0.22454382E+03 0.29107995E+03 -.25187338E+02 0.37960126E+03 0.91188000E+02 0.0000E+00 0.9000E+01
        2  1    1    2  502    0 -.25267415E+02 -.18971249E+02 -.53668757E+02 0.62279920E+02 0.32000000E+00 0.0000E+00 0.9000E+01
#aMCatNLO 2  0  0  2  1 0.31596685D+02 0.00000000D+00  -5  7  0 0.00000000D+00 0.00000000D+00 0.00000000D+00 0.00000000D+00 0.00000000D+00
  <mgrwgt>
 0.5137640455D-04    2    2    0
 0.710973257340274D+03 0.000000000000000D+00 0.000000000000000D+00 0.710973257340274D+03
 0.710973257340274D+03 0.000000000000000D+00 0.000000000000000D+00 -.710973257340274D+03
 0.681801828917534D+03 -.171220991179737D+03 -.340746123702163D+03 0.559430039703181D+03
 0.609483529067812D+02 -.539751419081161D+02 0.221642137153776D+02 -.176106049989019D+02
 0.975152017087755D+02 0.110559267381412D+02 0.353131906011609D+02 -.902217247553499D+02
 0.581681131147458D+03 0.214140206349712D+03 0.283268719385624D+03 -.451597709948930D+03
 0.000000000000000D+00 -.000000000000000D+00 -.000000000000000D+00 -.000000000000000D+00
 0.712822788227239D+03 0.000000000000000D+00 0.000000000000000D+00 0.712822788227239D+03
 0.860242891874024D+03 0.000000000000000D+00 0.000000000000000D+00 -.860242891874024D+03
 0.674381455697752D+03 -.159173063775358D+03 -.331700313959321D+03 0.559430039703181D+03
 0.602999908463896D+02 -.528980078215875D+02 0.229729461792473D+02 -.176106049989019D+02
 0.982068722823708D+02 0.127946632095531D+02 0.366186665378449D+02 -.902217247553499D+02
 0.589409203193461D+03 0.224543823244395D+03 0.291079949973925D+03 -.451597709948930D+03
 0.150768158081290D+03 -.252674148570024D+02 -.189712487316966D+02 -.147420103646786D+03
-.371691085256D-03 0.000000000000D+00 0.000000000000D+00 0.114137680559D-04 0.000000000000D+00  7 1 21 -24 -11 11 23 2 2 0.28129710D+00 0.51509308D-01 0.19510912D+06 0.19510912D+06 0.19510912D+06 0.10986522D+01  1  2 13  4  7  2       -2 -.767354261664D-02 0.100000000000D+01
0.376133566674D-03 0.000000000000D+00 0.000000000000D+00 0.114137680559D-04 0.208259410803D-08  7 1 21 -24 -11 11 23 2 2 0.28202886D+00 0.51461495D-01 0.19510912D+06 0.19510912D+06 0.19510912D+06 0.10986522D+01  1  2  1  4  7  2       -2 0.772491902119D-02 0.100000000000D+01
  </mgrwgt>
  </event>
  <event>
  8     66 0.29493621E-05 0.22202155E+03 0.75467711E-02 0.96959806E-01
        1 -1    0    0  501    0 0.00000000E+00 0.00000000E+00 0.54487836E+03 0.54487845E+03 0.32000000E+00 0.0000E+00 0.9000E+01
       -2 -1    0    0    0  501 0.00000000E+00 0.00000000E+00 -.20927434E+03 0.20927459E+03 0.32000000E+00 0.0000E+00 0.9000E+01
       25  2    1    2    0    0 -.10391566E+03 0.22371164E+03 0.94813730E+02 0.40018618E+03 0.30052283E+03 0.0000E+00 0.0000E+00
       23  2    3    3    0    0 0.38145463E+02 0.18816219E+03 0.72203747E+02 0.22619886E+03 0.95354359E+02 0.0000E+00 0.0000E+00
      -24  1    1    2    0    0 0.10391566E+03 -.22371164E+03 0.24079028E+03 0.35396686E+03 0.80419002E+02 0.0000E+00 0.9000E+01
      -11  1    4    4    0    0 -.30421658E+02 0.49002407E+02 0.77052473E+01 0.58190068E+02 0.51099893E-03 0.0000E+00 0.9000E+01
       11  1    4    4    0    0 0.68567121E+02 0.13915979E+03 0.64498500E+02 0.16800879E+03 0.51099893E-03 0.0000E+00 0.9000E+01
       23  1    3    3    0    0 -.14206112E+03 0.35549448E+02 0.22609982E+02 0.17398732E+03 0.91188000E+02 0.0000E+00 0.9000E+01
#aMCatNLO 1  0  0  2  1 0.15675186D+03 0.00000000D+00  -5  7  0 0.00000000D+00 0.00000000D+00 0.00000000D+00 0.00000000D+00 0.00000000D+00
  <mgrwgt>
 0.1209268058D-02    9    2    0
 0.337682080481475D+03 0.000000000000000D+00 0.000000000000000D+00 0.337682080481475D+03
 0.337682080481475D+03 0.000000000000000D+00 0.000000000000000D+00 -.337682080481475D+03
 0.275606863154156D+03 0.103915657780113D+03 -.223711641077070D+03 0.929869064870629D+02
 0.611496836281178D+02 -.304216581063906D+02 0.490024073372755D+02 -.203118340143995D+02
 0.155558123367750D+03 0.685671209638594D+02 0.139159785497032D+03 -.114644567618136D+02
 0.183049490812927D+03 -.142061120637582D+03 0.355494482427628D+02 -.612106157108499D+02
 0.000000000000000D+00 -.000000000000000D+00 -.000000000000000D+00 -.000000000000000D+00
 0.403106854875583D+03 0.000000000000000D+00 0.000000000000000D+00 0.403106854875583D+03
 0.455479250717524D+03 0.000000000000000D+00 0.000000000000000D+00 -.455479250717524D+03
 0.258545557969225D+03 0.143134203456376D+03 -.176761490755545D+03 0.929869064870629D+02
 0.669773190054383D+02 -.210143157328811D+02 0.602643277105662D+02 -.203118340143995D+02
 0.194684108136841D+03 0.942826104212141D+02 0.169944866248896D+03 -.114644567618136D+02
 0.173109605402199D+03 -.115911203066203D+03 0.668546009377769D+02 -.612106157108499D+02
 0.165269515079403D+03 -.100491295078506D+03 -.120302304141695D+03 -.523723958419406D+02
0.253429081130D-04 0.000000000000D+00 0.000000000000D+00 0.236635413487D-06 0.000000000000D+00  7 1 -2 -24 -11 11 23 21 0 0.83827465D-01 0.32196079D-01 0.10393254D+06 0.10393254D+06 0.10393254D+06 0.11203500D+01  1  2  2  2  7  2       -2 0.962552834755D-03 0.100000000000D+01
-.140426074926D-05 0.000000000000D+00 -.973234400950D-07 0.236635413487D-06 0.000000000000D+00  7 1 -2 -24 -11 11 23 21 2 0.83827465D-01 0.32196079D-01 0.10393254D+06 0.10393254D+06 0.10393254D+06 0.11203500D+01  1  2  3  2  7  2       -2 -.669457949060D-04 0.100000000000D+01
0.163027552130D-05 0.000000000000D+00 0.000000000000D+00 0.236635413487D-06 0.000000000000D+00  7 1 -2 -24 -11 11 23 21 2 0.83827465D-01 0.32196079D-01 0.10393254D+06 0.10393254D+06 0.10393254D+06 0.11203500D+01  1  2 15  2  7  2       -2 0.777206731347D-04 0.100000000000D+01
0.891372619955D-05 0.000000000000D+00 0.000000000000D+00 0.236635413487D-06 0.000000000000D+00  7 1 -2 -24 -11 11 23 21 2 0.83827465D-01 0.45665377D-01 0.16731901D+06 0.16731901D+06 0.16731901D+06 0.11038265D+01  1  2 12  2  7  2       -2 0.214395665943D-03 0.100000000000D+01
-.129778729193D-04 0.000000000000D+00 0.000000000000D+00 0.236635413487D-06 0.000000000000D+00  7 1 -2 -24 -11 11 23 21 2 0.83827465D-01 0.32196079D-01 0.10393254D+06 0.10393254D+06 0.10393254D+06 0.11203500D+01  1  2  4  2  7  2       -2 -.618698499711D-03 0.100000000000D+01
-.194877712792D-04 0.000000000000D+00 -.970103211560D-05 0.236635413487D-06 0.000000000000D+00  7 1 -2 -24 -11 11 23 21 2 0.83827465D-01 0.50965111D-01 0.10393254D+06 0.10393254D+06 0.10393254D+06 0.11203500D+01  1  2  5  2  7  2       -2 -.393822425297D-03 0.100000000000D+01
0.224716291356D-04 0.000000000000D+00 0.876063090163D-05 0.236635413487D-06 0.000000000000D+00  7 1 -2 -24 -11 11 23 21 2 0.83827465D-01 0.32196079D-01 0.10393254D+06 0.10393254D+06 0.10393254D+06 0.11203500D+01  1  2  6  2  7  2       -2 0.107129753225D-02 0.100000000000D+01
0.384661036676D-06 0.000000000000D+00 0.000000000000D+00 0.236635413487D-06 0.000000000000D+00  7 1 21 -24 -11 11 23 2 2 0.83827465D-01 0.45665377D-01 0.16731901D+06 0.16731901D+06 0.16731901D+06 0.11038265D+01  1  2 12  4  7  2       -2 0.998250011706D-04 0.100000000000D+01
-.632645724156D-06 0.000000000000D+00 -.512022846306D-06 0.236635413487D-06 0.000000000000D+00  7 1 21 -24 -11 11 23 2 2 0.83827465D-01 0.50965111D-01 0.10393254D+06 0.10393254D+06 0.10393254D+06 0.11203500D+01  1  2  5  4  7  2       -2 -.137056928919D-03 0.100000000000D+01
  </mgrwgt>
  </event>
  <event>
  8     66 0.29493621E-05 0.78092469E+02 0.75467711E-02 0.97788830E-01
        1 -1    0    0  501    0 0.00000000E+00 0.00000000E+00 0.10250440E+03 0.10250490E+03 0.32000000E+00 0.0000E+00 0.9000E+01
       -2 -1    0    0    0  501 0.00000000E+00 0.00000000E+00 -.12809814E+04 0.12809814E+04 0.32000000E+00 0.0000E+00 0.9000E+01
       25  2    1    2    0    0 -.28416420E+03 0.43281919E+02 -.56221246E+03 0.69874419E+03 0.29922898E+03 0.0000E+00 0.0000E+00
       23  2    3    3    0    0 -.19295124E+03 0.13129446E+03 -.41379960E+03 0.48331987E+03 0.88879526E+02 0.0000E+00 0.0000E+00
      -24  1    1    2    0    0 0.28416420E+03 -.43281919E+02 -.61626454E+03 0.68474215E+03 0.80419002E+02 0.0000E+00 0.9000E+01
      -11  1    4    4    0    0 -.14685149E+03 0.11618680E+03 -.24915893E+03 0.31168078E+03 0.51099893E-03 0.0000E+00 0.9000E+01
       11  1    4    4    0    0 -.46099747E+02 0.15107659E+02 -.16464067E+03 0.17163910E+03 0.51099893E-03 0.0000E+00 0.9000E+01
       23  1    3    3    0    0 -.91212961E+02 -.88012540E+02 -.14841286E+03 0.21542432E+03 0.91188000E+02 0.0000E+00 0.9000E+01
#aMCatNLO 1  0  0  1  2 0.69478378D+02 0.00000000D+00  -5  7  0 0.00000000D+00 0.00000000D+00 0.00000000D+00 0.00000000D+00 0.00000000D+00
  <mgrwgt>
 0.8538109579D-03    9    2    0
 0.362362534355479D+03 0.000000000000000D+00 0.000000000000000D+00 0.362362534355479D+03
 0.362362534355479D+03 0.000000000000000D+00 0.000000000000000D+00 -.362362534355479D+03
 0.305050618200814D+03 0.284164196939961D+03 -.432819193520991D+02 -.629765698096823D+02
 0.189834782016219D+03 -.146851488690680D+03 0.116186799844283D+03 0.311851290589159D+02
 0.599332087721389D+02 -.460997472562781D+02 0.151076590540233D+02 -.351932018227876D+02
 0.169906459721785D+03 -.912129609930033D+02 -.880125395462069D+02 0.669846425735540D+02
 0.000000000000000D+00 -.000000000000000D+00 0.000000000000000D+00 0.000000000000000D+00
 0.407418457494397D+03 0.000000000000000D+00 0.000000000000000D+00 0.407418457494397D+03
 0.391834138099664D+03 0.000000000000000D+00 0.000000000000000D+00 -.391834138099664D+03
 0.311877884727284D+03 0.285554677556093D+03 -.727535346800179D+02 -.629765698096823D+02
 0.178915375421455D+03 -.146020371399650D+03 0.985710425230827D+02 0.311851290589159D+02
 0.585529721040539D+02 -.458326940450779D+02 0.944739351614725D+01 -.351932018227876D+02
 0.178701616566477D+03 -.904272414640702D+02 -.104666078936607D+03 0.669846425735540D+02
 0.712047467747901D+02 -.327437064729566D+01 0.694011775773946D+02 0.155843193947330D+02
0.107314261258D-03 0.000000000000D+00 0.000000000000D+00 0.354446072341D-06 0.000000000000D+00  7 1 -2 -24 -11 11 23 21 0 0.15769950D-01 0.19707410D+00 0.11916033D+06 0.11916033D+06 0.11916033D+06 0.11155276D+01  1  2  2  1  7  1        1 0.585972036084D-03 0.100000000000D+01
-.594482946213D-05 0.000000000000D+00 -.412115019726D-06 0.354446072341D-06 0.000000000000D+00  7 1 -2 -24 -11 11 23 21 2 0.15769950D-01 0.19707410D+00 0.11916033D+06 0.11916033D+06 0.11916033D+06 0.11155276D+01  1  2  3  1  7  1        1 -.403942437687D-04 0.100000000000D+01
0.695972816051D-05 0.000000000000D+00 0.000000000000D+00 0.354446072341D-06 0.000000000000D+00  7 1 -2 -24 -11 11 23 21 2 0.15769950D-01 0.19707410D+00 0.11916033D+06 0.11916033D+06 0.11916033D+06 0.11155276D+01  1  2 15  1  7  1        1 0.472903314839D-04 0.100000000000D+01
0.121278880665D-03 0.000000000000D+00 0.000000000000D+00 0.354446072341D-06 0.000000000000D+00  7 1 -2 -24 -11 11 23 21 2 0.18305861D-01 0.19707410D+00 0.14576245D+06 0.14576245D+06 0.14576245D+06 0.11085354D+01  1  2 12  1  7  1        1 0.664894425435D-03 0.100000000000D+01
-.110295162600D-03 0.000000000000D+00 0.000000000000D+00 0.354446072341D-06 0.000000000000D+00  7 1 -2 -24 -11 11 23 21 2 0.15769950D-01 0.19707410D+00 0.11916033D+06 0.11916033D+06 0.11916033D+06 0.11155276D+01  1  2  4  1  7  1        1 -.749439443632D-03 0.100000000000D+01
-.306596261222D-03 0.000000000000D+00 -.833353031157D-04 0.354446072341D-06 0.000000000000D+00  7 1 -2 -24 -11 11 23 21 2 0.19218307D-01 0.19707410D+00 0.11916033D+06 0.11916033D+06 0.11916033D+06 0.11155276D+01  1  2  5  1  7  1        1 -.160630967450D-02 0.100000000000D+01
0.318432869896D-03 0.000000000000D+00 0.817319075245D-04 0.354446072341D-06 0.000000000000D+00  7 1 -2 -24 -11 11 23 21 2 0.15769950D-01 0.19707410D+00 0.11916033D+06 0.11916033D+06 0.11916033D+06 0.11155276D+01  1  2  6  1  7  1        1 0.216370461970D-02 0.100000000000D+01
0.275326213103D-05 0.000000000000D+00 0.000000000000D+00 0.354446072341D-06 0.000000000000D+00  7 21 -2 -24 -11 11 23 -1 2 0.18305861D-01 0.19707410D+00 0.14576245D+06 0.14576245D+06 0.14576245D+06 0.11085354D+01  1  2 12  3  7  1        1 0.129510832199D-03 0.100000000000D+01
-.775688073761D-05 0.000000000000D+00 -.236423044257D-05 0.354446072341D-06 0.000000000000D+00  7 21 -2 -24 -11 11 23 -1 2 0.19218307D-01 0.19707410D+00 0.11916033D+06 0.11916033D+06 0.11916033D+06 0.11155276D+01  1  2  5  3  7  1        1 -.341417925129D-03 0.100000000000D+01
  </mgrwgt>
  </event>
  <event>
  8     66 0.29493621E-05 0.20364651E+03 0.75467711E-02 0.98906757E-01
        1 -1    0    0  501    0 0.00000000E+00 0.00000000E+00 0.11136270E+03 0.11136316E+03 0.32000000E+00 0.0000E+00 0.9000E+01
       -2 -1    0    0    0  501 0.00000000E+00 0.00000000E+00 -.43881031E+03 0.43881043E+03 0.32000000E+00 0.0000E+00 0.9000E+01
       25  2    1    2    0    0 0.73922985E+02 -.19925505E+02 -.15910703E+03 0.34851198E+03 0.30047283E+03 0.0000E+00 0.0000E+00
       23  2    3    3    0    0 -.66716039E+02 -.69411836E+02 -.91562761E+02 0.16114680E+03 0.91189466E+02 0.0000E+00 0.0000E+00
      -24  1    1    2    0    0 -.73922985E+02 0.19925505E+02 -.16834059E+03 0.20166160E+03 0.80419002E+02 0.0000E+00 0.9000E+01
      -11  1    4    4    0    0 0.96539438E+01 -.37497986E+02 -.62307324E+02 0.73358709E+02 0.51099893E-03 0.0000E+00 0.9000E+01
       11  1    4    4    0    0 -.76369983E+02 -.31913850E+02 -.29255437E+02 0.87788090E+02 0.51099893E-03 0.0000E+00 0.9000E+01
       23  1    3    3    0    0 0.14063902E+03 0.49486331E+02 -.67544270E+02 0.18736518E+03 0.91188000E+02 0.0000E+00 0.9000E+01
#aMCatNLO 1  0  0  2  2 0.23112447D+03 0.00000000D+00  -5  7  0 0.00000000D+00 0.00000000D+00 0.00000000D+00 0.00000000D+00 0.00000000D+00
  <mgrwgt>
 0.9063035443D-03    3    2    0
 0.221059399145564D+03 0.000000000000000D+00 0.000000000000000D+00 0.221059399145564D+03
 0.221059399145564D+03 0.000000000000000D+00 0.000000000000000D+00 -.221059399145564D+03
 0.126269599395899D+03 -.739229850197405D+02 0.199255053270376D+02 -.601262197420032D+02
 0.451408974889532D+02 0.965394384920446D+01 -.374979862312121D+02 -.232035131578911D+02
 0.875761560198202D+02 -.763699826338257D+02 -.319138502234445D+02 0.286131965993422D+02
 0.183132145386455D+03 0.140639023804362D+03 0.494863311276189D+02 0.547165363005521D+02
 0.000000000000000D+00 0.000000000000000D+00 -.000000000000000D+00 0.000000000000000D+00
 0.550663749589492D+03 0.000000000000000D+00 0.000000000000000D+00 0.550663749589492D+03
 0.293778203375596D+03 0.000000000000000D+00 0.000000000000000D+00 -.293778203375596D+03
 0.172347037598825D+03 -.114056781534766D+03 0.813152734742208D+02 -.601262197420032D+02
 0.317678565307367D+02 -.682520706535898D+00 -.216870433940220D+02 -.232035131578911D+02
 0.106702687399380D+03 -.102480877349643D+03 0.802609844598732D+01 0.286131965993422D+02
 0.188068728487861D+03 0.907499737895947D+02 0.125798005562485D+03 0.547165363005521D+02
 0.345555642948284D+03 0.126470205801349D+03 -.193452334088672D+03 0.256885546213896D+03
0.121479345952D-04 0.000000000000D+00 0.000000000000D+00 0.732315412893D-06 0.000000000000D+00  7 1 -2 -24 -11 11 23 21 0 0.17132767D-01 0.67509323D-01 0.41471903D+05 0.41471903D+05 0.41471903D+05 0.11545084D+01  1  2  2  2  7  2       -2 0.894145298514D-03 0.100000000000D+01
-.669361640944D-06 0.000000000000D+00 -.466512674701D-07 0.732315412893D-06 0.000000000000D+00  7 1 -2 -24 -11 11 23 21 2 0.17132767D-01 0.67509323D-01 0.41471903D+05 0.41471903D+05 0.41471903D+05 0.11545084D+01  1  2  3  2  7  2       -2 -.656690370089D-04 0.100000000000D+01
0.793290111553D-06 0.000000000000D+00 0.000000000000D+00 0.732315412893D-06 0.000000000000D+00  7 1 -2 -24 -11 11 23 21 2 0.17132767D-01 0.67509323D-01 0.41471903D+05 0.41471903D+05 0.41471903D+05 0.11545084D+01  1  2 15  2  7  2       -2 0.778272827539D-04 0.100000000000D+01
  </mgrwgt>
  </event>
  <event>
  8     66 0.29493621E-05 0.18977231E+03 0.75467711E-02 0.97008685E-01
        1 -1    0    0  501    0 0.00000000E+00 0.00000000E+00 0.24123402E+03 0.24123423E+03 0.32000000E+00 0.0000E+00 0.9000E+01
       -2 -1    0    0    0  501 0.00000000E+00 0.00000000E+00 -.27828943E+03 0.27828962E+03 0.32000000E+00 0.0000E+00 0.9000E+01
       25  2    1    2    0    0 0.22757361E+02 -.15622750E+03 -.46659366E+01 0.33940937E+03 0.30041974E+03 0.0000E+00 0.0000E+00
       23  2    3    3    0    0 -.41940965E+02 0.39944921E+02 0.26439314E+02 0.11147894E+03 0.91508880E+02 0.0000E+00 0.0000E+00
      -24  1    1    2    0    0 -.22757361E+02 0.15622750E+03 -.32389478E+02 0.18011448E+03 0.80419002E+02 0.0000E+00 0.9000E+01
      -11  1    4    4    0    0 -.61886937E+02 -.92352824E-01 0.56231148E+01 0.62141942E+02 0.51099893E-03 0.0000E+00 0.9000E+01
       11  1    4    4    0    0 0.19945972E+02 0.40037274E+02 0.20816199E+02 0.49336996E+02 0.51099893E-03 0.0000E+00 0.9000E+01
       23  1    3    3    0    0 0.64698326E+02 -.19617242E+03 -.31105250E+02 0.22793043E+03 0.91188000E+02 0.0000E+00 0.9000E+01
#aMCatNLO 1  0  0  2  1 0.25087094D+03 0.00000000D+00  -5  7  0 0.00000000D+00 0.00000000D+00 0.00000000D+00 0.00000000D+00 0.00000000D+00
  <mgrwgt>
 0.7810340567D-03    7    2    0
 0.259100328714553D+03 0.000000000000000D+00 0.000000000000000D+00 0.259100328714553D+03
 0.259100328714553D+03 0.000000000000000D+00 0.000000000000000D+00 -.259100328714553D+03
 0.178258283087867D+03 -.227573608987799D+02 0.156227503138185D+03 -.195925833721556D+02
 0.627027133434148D+02 -.618869369202846D+02 -.923528270070371D-01 0.100811095721906D+02
 0.509514962627225D+02 0.199459717196471D+02 0.400372736526012D+02 0.243973339124582D+02
 0.226288164735100D+03 0.646983260994174D+02 -.196172423963779D+03 -.148858601124931D+02
 0.000000000000000D+00 0.000000000000000D+00 0.000000000000000D+00 -.000000000000000D+00
 0.335579622492478D+03 0.000000000000000D+00 0.000000000000000D+00 0.335579622492478D+03
 0.617629057345542D+03 0.000000000000000D+00 0.000000000000000D+00 -.617629057345542D+03
 0.122990552551532D+03 -.258753084902585D+02 0.872127235551077D+02 -.195925833721556D+02
 0.710609861517254D+02 -.632714010420559D+02 -.307370264148066D+02 0.100811095721906D+02
 0.368093995058626D+02 0.190376399977771D+02 0.199316395025911D+02 0.243973339124582D+02
 0.344871767647105D+03 0.587867788174491D+02 -.327022645364229D+03 -.148858601124931D+02
 0.377475973981796D+03 0.113222907170882D+02 0.250615308721337D+03 -.282049434853064D+03
0.123890757746D-04 0.000000000000D+00 0.000000000000D+00 0.977145621278D-06 0.000000000000D+00  7 1 -2 -24 -11 11 23 21 0 0.37112956D-01 0.42813789D-01 0.64921485D+05 0.64921485D+05 0.64921485D+05 0.11374508D+01  1  2  2  2  7  2       -2 0.830344391627D-03 0.100000000000D+01
-.688047243128D-06 0.000000000000D+00 -.475773130930D-07 0.977145621278D-06 0.000000000000D+00  7 1 -2 -24 -11 11 23 21 2 0.37112956D-01 0.42813789D-01 0.64921485D+05 0.64921485D+05 0.64921485D+05 0.11374508D+01  1  2  3  2  7  2       -2 -.596626919954D-04 0.100000000000D+01
0.806823574914D-06 0.000000000000D+00 0.000000000000D+00 0.977145621278D-06 0.000000000000D+00  7 1 -2 -24 -11 11 23 21 2 0.37112956D-01 0.42813789D-01 0.64921485D+05 0.64921485D+05 0.64921485D+05 0.11374508D+01  1  2 15  2  7  2       -2 0.699621529270D-04 0.100000000000D+01
0.237575518019D-08 0.000000000000D+00 0.000000000000D+00 0.977145621278D-06 0.000000000000D+00  7 1 -2 -24 -11 11 23 21 2 0.37112956D-01 0.10045179D+00 0.16595285D+06 0.16595285D+06 0.16595285D+06 0.11041047D+01  1  2 12  2  7  2       -2 0.315450358747D-07 0.100000000000D+01
-.414158632785D-05 0.000000000000D+00 -.385247710924D-05 0.977145621278D-06 0.000000000000D+00  7 1 -2 -24 -11 11 23 21 2 0.37112956D-01 0.12286377D+00 0.64921485D+05 0.64921485D+05 0.64921485D+05 0.11374508D+01  1  2  5  2  7  2       -2 -.362986259569D-04 0.100000000000D+01
0.221013877234D-09 0.000000000000D+00 0.000000000000D+00 0.977145621278D-06 0.000000000000D+00  7 1 21 -24 -11 11 23 2 2 0.37112956D-01 0.10045179D+00 0.16595285D+06 0.16595285D+06 0.16595285D+06 0.11041047D+01  1  2 12  4  7  2       -2 0.275294508566D-07 0.100000000000D+01
-.284930592604D-06 0.000000000000D+00 -.458216311714D-06 0.977145621278D-06 0.000000000000D+00  7 1 21 -24 -11 11 23 2 2 0.37112956D-01 0.12286377D+00 0.64921485D+05 0.64921485D+05 0.64921485D+05 0.11374508D+01  1  2  5  4  7  2       -2 -.233702443403D-04 0.100000000000D+01
  </mgrwgt>
  </event>
  <event>
  8     66 0.29493621E-05 0.15826479E+03 0.75467711E-02 0.10119893E+00
        1 -1    0    0  501    0 0.00000000E+00 0.00000000E+00 0.49807992E+04 0.49807992E+04 0.32000000E+00 0.0000E+00 0.9000E+01
       -2 -1    0    0    0  501 0.00000000E+00 0.00000000E+00 -.20352161E+02 0.20354677E+02 0.32000000E+00 0.0000E+00 0.9000E+01
       25  2    1    2    0    0 -.17102496E+03 0.10400364E+03 0.40275999E+04 0.40436898E+04 0.29966769E+03 0.0000E+00 0.0000E+00
       23  2    3    3    0    0 -.18298673E+03 0.14660639E+03 0.31794932E+04 0.31895481E+04 0.95195236E+02 0.0000E+00 0.0000E+00
      -24  1    1    2    0    0 0.17102496E+03 -.10400364E+03 0.93284719E+03 0.95746404E+03 0.80419002E+02 0.0000E+00 0.9000E+01
      -11  1    4    4    0    0 -.12904202E+03 0.80336130E+02 0.14501310E+04 0.14580760E+04 0.51099893E-03 0.0000E+00 0.9000E+01
       11  1    4    4    0    0 -.53944714E+02 0.66270265E+02 0.17293623E+04 0.17314721E+04 0.51099893E-03 0.0000E+00 0.9000E+01
       23  1    3    3    0    0 0.11961768E+02 -.42602752E+02 0.84810664E+03 0.85414179E+03 0.91188000E+02 0.0000E+00 0.9000E+01
#aMCatNLO 1  0  0  1  2 0.26571202D+02 0.00000000D+00  -5  7  0 0.00000000D+00 0.00000000D+00 0.00000000D+00 0.00000000D+00 0.00000000D+00
  <mgrwgt>
 0.1454794296D-03    9    2    0
 0.318396519087382D+03 0.000000000000000D+00 0.000000000000000D+00 0.318396519087382D+03
 0.318396519087382D+03 0.000000000000000D+00 0.000000000000000D+00 -.318396519087382D+03
 0.252964342473567D+03 0.171024961998312D+03 -.104003642215004D+03 -.132126633909303D+03
 0.155096673982278D+03 -.129042015885447D+03 0.803361295621809D+02 0.308097825950390D+02
 0.127118981184797D+03 -.539447137146800D+02 0.662702648534492D+02 0.941140544018570D+02
 0.101613040534122D+03 0.119617676018150D+02 -.426027522006259D+02 0.720279691240668D+01
 0.000000000000000D+00 0.000000000000000D+00 -.000000000000000D+00 0.000000000000000D+00
 0.349829884169972D+03 0.000000000000000D+00 0.000000000000000D+00 0.349829884169972D+03
 0.324338796004887D+03 0.000000000000000D+00 0.000000000000000D+00 -.324338796004887D+03
 0.244890507499980D+03 0.162852099206765D+03 -.976006716420245D+02 -.132126633909303D+03
 0.161537550507511D+03 -.134239932651750D+03 0.844084000681609D+02 0.308097825950390D+02
 0.130706858474905D+03 -.581772228722507D+02 0.695861937117953D+02 0.941140544018570D+02
 0.100212243428553D+03 0.864857229242007D+01 -.400070531647223D+02 0.720279691240668D+01
 0.368215202639109D+02 0.209164840248152D+02 -.163868689732094D+02 0.254910881650846D+02
0.178533052339D-03 0.000000000000D+00 0.000000000000D+00 0.243095537737D-06 0.000000000000D+00  7 1 -2 -24 -11 11 23 21 0 0.76627699D+00 0.31312960D-02 0.76875845D+05 0.76875845D+05 0.76875845D+05 0.11312166D+01  1  2  2  1  7  1        1 0.571452850156D-04 0.100000000000D+01
-.968776293240D-05 0.000000000000D+00 -.685613929813D-06 0.243095537737D-06 0.000000000000D+00  7 1 -2 -24 -11 11 23 21 2 0.76627699D+00 0.31312960D-02 0.76875845D+05 0.76875845D+05 0.76875845D+05 0.11312166D+01  1  2  3  1  7  1        1 -.396804677090D-05 0.100000000000D+01
0.115026684110D-04 0.000000000000D+00 0.000000000000D+00 0.243095537737D-06 0.000000000000D+00  7 1 -2 -24 -11 11 23 21 2 0.76627699D+00 0.31312960D-02 0.76875845D+05 0.76875845D+05 0.76875845D+05 0.11312166D+01  1  2 15  1  7  1        1 0.471142064102D-05 0.100000000000D+01
0.210182793816D-03 0.000000000000D+00 0.000000000000D+00 0.243095537737D-06 0.000000000000D+00  7 1 -2 -24 -11 11 23 21 2 0.84861956D+00 0.31312960D-02 0.84677312D+05 0.84677312D+05 0.84677312D+05 0.11276982D+01  1  2 12  1  7  1        1 0.110302543991D-04 0.100000000000D+01
-.263599513234D-03 0.000000000000D+00 0.000000000000D+00 0.243095537737D-06 0.000000000000D+00  7 1 -2 -24 -11 11 23 21 2 0.76627699D+00 0.31312960D-02 0.76875845D+05 0.76875845D+05 0.76875845D+05 0.11312166D+01  1  2  4  1  7  1        1 -.107968702847D-03 0.100000000000D+01
-.432242516625D-03 0.000000000000D+00 -.638481724151D-04 0.243095537737D-06 0.000000000000D+00  7 1 -2 -24 -11 11 23 21 2 0.84313406D+00 0.31312960D-02 0.76875845D+05 0.76875845D+05 0.76875845D+05 0.11312166D+01  1  2  5  1  7  1        1 -.269429662724D-04 0.100000000000D+01
0.516311768343D-03 0.000000000000D+00 0.824087002711D-04 0.243095537737D-06 0.000000000000D+00  7 1 -2 -24 -11 11 23 21 2 0.76627699D+00 0.31312960D-02 0.76875845D+05 0.76875845D+05 0.76875845D+05 0.11312166D+01  1  2  6  1  7  1        1 0.211478053236D-03 0.100000000000D+01
0.347464491250D-05 0.000000000000D+00 0.000000000000D+00 0.243095537737D-06 0.000000000000D+00  7 21 -2 -24 -11 11 23 -1 2 0.84861956D+00 0.31312960D-02 0.84677312D+05 0.84677312D+05 0.84677312D+05 0.11276982D+01  1  2 12  3  7  1        1 0.439407224380D-08 0.100000000000D+01
-.655753955826D-05 0.000000000000D+00 -.997223174167D-06 0.243095537737D-06 0.000000000000D+00  7 21 -2 -24 -11 11 23 -1 2 0.84313406D+00 0.31312960D-02 0.76875845D+05 0.76875845D+05 0.76875845D+05 0.11312166D+01  1  2  5  3  7  1        1 -.102619125813D-07 0.100000000000D+01
  </mgrwgt>
  </event>
  <event>
  8     66 0.29493621E-05 0.33078215E+03 0.75467711E-02 0.93409506E-01
        1 -1    0    0  501    0 0.00000000E+00 0.00000000E+00 0.82434695E+03 0.82434701E+03 0.32000000E+00 0.0000E+00 0.9000E+01
       -2 -1    0    0    0  501 0.00000000E+00 0.00000000E+00 -.16458403E+03 0.16458434E+03 0.32000000E+00 0.0000E+00 0.9000E+01
       25  2    1    2    0    0 0.23663815E+03 0.11448732E+03 0.58245368E+03 0.70336367E+03 0.29387618E+03 0.0000E+00 0.0000E+00
       23  2    3    3    0    0 0.26036323E+03 0.68323170E+02 0.47357667E+03 0.55215698E+03 0.90251912E+02 0.0000E+00 0.0000E+00
      -24  1    1    2    0    0 -.23663815E+03 -.11448732E+03 0.77309246E+02 0.28556768E+03 0.80419002E+02 0.0000E+00 0.9000E+01
      -13  1    4    4    0    0 0.24279026E+03 0.36687574E+02 0.43307926E+03 0.49784611E+03 0.10565837E+00 0.0000E+00 0.9000E+01
       13  1    4    4    0    0 0.17572968E+02 0.31635596E+02 0.40497403E+02 0.54310873E+02 0.10565837E+00 0.0000E+00 0.9000E+01
       23  1    3    3    0    0 -.23725078E+02 0.46164153E+02 0.10887701E+03 0.15120669E+03 0.91188000E+02 0.0000E+00 0.9000E+01
#aMCatNLO 1  0  0  1  2 0.36427538D+03 0.00000000D+00  -5  7  0 0.00000000D+00 0.00000000D+00 0.00000000D+00 0.00000000D+00 0.00000000D+00
  <mgrwgt>
 0.3777320008D-02    3    2    0
 0.368340230183875D+03 0.000000000000000D+00 0.000000000000000D+00 0.368340230183875D+03
 0.368340230183875D+03 0.000000000000000D+00 0.000000000000000D+00 -.368340230183875D+03
 0.314113196996752D+03 -.236638153101562D+03 -.114487323891605D+03 -.151970134361888D+03
 0.280455695178859D+03 0.242790570861177D+03 0.366875815466289D+02 0.135507036789314D+03
 0.366384008049440D+02 0.175726593285516D+02 0.316355888937689D+02 0.572394732774863D+01
 0.105473167387194D+03 -.237250770881661D+02 0.461641534512073D+02 0.107391502448253D+02
 0.000000000000000D+00 0.000000000000000D+00 -.000000000000000D+00 -.000000000000000D+00
 0.548395425074635D+03 0.000000000000000D+00 0.000000000000000D+00 0.548395425074635D+03
 0.652207516854792D+03 0.000000000000000D+00 0.000000000000000D+00 -.652207516854792D+03
 0.306750784520832D+03 -.252283231020094D+03 0.297838455856068D+02 -.151970134361888D+03
 0.317962409863337D+03 0.227711103924859D+03 0.175742966334367D+03 0.135507036789314D+03
 0.554882248875860D+02 0.152511714016664D+02 0.530432021944516D+02 0.572394732774863D+01
 0.141622559972441D+03 -.299516130492767D+02 0.103582188029184D+03 0.107391502448253D+02
 0.378778962685230D+03 0.392725687428445D+02 -.362152202143609D+03 -.103812091780157D+03
0.119792531074D-03 0.000000000000D+00 0.000000000000D+00 0.360287183185D-07 0.000000000000D+00  7 1 -2 -24 -13 13 23 21 0 0.12682264D+00 0.25320648D-01 0.10941683D+06 0.10941683D+06 0.10941683D+06 0.11185288D+01  1  2  2  1  7  1        1 0.373289203724D-02 0.100000000000D+01
-.656154926325D-05 0.000000000000D+00 -.460034861423D-06 0.360287183185D-07 0.000000000000D+00  7 1 -2 -24 -13 13 23 21 2 0.12682264D+00 0.25320648D-01 0.10941683D+06 0.10941683D+06 0.10941683D+06 0.11185288D+01  1  2  3  1  7  1        1 -.255809347138D-03 0.100000000000D+01
0.770113356226D-05 0.000000000000D+00 0.000000000000D+00 0.360287183185D-07 0.000000000000D+00  7 1 -2 -24 -13 13 23 21 2 0.12682264D+00 0.25320648D-01 0.10941683D+06 0.10941683D+06 0.10941683D+06 0.11185288D+01  1  2 15  1  7  1        1 0.300237317400D-03 0.100000000000D+01
  </mgrwgt>
  </event>
  <event>
  8     66 0.29493621E-05 0.23284218E+03 0.75467711E-02 0.89677857E-01
        3 -1    0    0  501    0 0.00000000E+00 0.00000000E+00 0.22475212E+03 0.22475267E+03 0.50000000E+00 0.0000E+00 0.9000E+01
       -4 -1    0    0    0  501 0.00000000E+00 0.00000000E+00 -.35733421E+03 0.35733757E+03 0.15500000E+01 0.0000E+00 0.9000E+01
       25  2    1    2    0    0 -.15024145E+03 -.45700717E+02 -.20171798E+03 0.39259609E+03 0.29796056E+03 0.0000E+00 0.0000E+00
       23  2    3    3    0    0 -.16152879E+03 0.36724458E+02 -.18620871E+03 0.26818909E+03 0.99052836E+02 0.0000E+00 0.0000E+00
      -24  1    1    2    0    0 0.15024145E+03 0.45700717E+02 0.69135884E+02 0.18949416E+03 0.80419002E+02 0.0000E+00 0.9000E+01
      -11  1    4    4    0    0 -.45682262E+00 0.57994089E+00 -.60985595E+02 0.60990063E+02 0.51099893E-03 0.0000E+00 0.9000E+01
       11  1    4    4    0    0 -.16107197E+03 0.36144517E+02 -.12522312E+03 0.20719902E+03 0.51099893E-03 0.0000E+00 0.9000E+01
       23  1    3    3    0    0 0.11287343E+02 -.82425175E+02 -.15509264E+02 0.12440700E+03 0.91188000E+02 0.0000E+00 0.9000E+01
#aMCatNLO 1  0  0  2  2 0.72656456D+03 0.00000000D+00  -5  7  0 0.00000000D+00 0.00000000D+00 0.00000000D+00 0.00000000D+00 0.00000000D+00
  <mgrwgt>
 0.2124084013D-03    5    2    0
 0.283395060750554D+03 0.000000000000000D+00 0.000000000000000D+00 0.283395060750554D+03
 0.283395060750554D+03 0.000000000000000D+00 0.000000000000000D+00 -.283395060750554D+03
 0.210781514542355D+03 0.150241450662634D+03 0.457007168649460D+02 0.115328148772171D+03
 0.483708552203307D+02 -.456822761046929D+00 0.579940946892552D+00 -.483652211429794D+02
 0.183500352543948D+03 -.161071971037625D+03 0.361445168401955D+02 -.801359684049347D+02
 0.124137399194475D+03 0.112873431360379D+02 -.824251746520341D+02 0.131730407757433D+02
 0.000000000000000D+00 -.000000000000000D+00 -.000000000000000D+00 -.000000000000000D+00
 0.800154183837793D+03 0.000000000000000D+00 0.000000000000000D+00 0.800154183837793D+03
 0.849581457860484D+03 0.000000000000000D+00 0.000000000000000D+00 -.849581457860484D+03
 0.543990662570286D+03 0.503584451064220D+03 0.150202342712825D+03 0.115328148772171D+03
 0.782909989079709D+02 0.588393210705014D+02 0.181168482292326D+02 -.483652211429794D+02
 0.113477582738386D+03 -.220431648789852D+02 0.772624568213328D+02 -.801359684049347D+02
 0.185732538179977D+03 0.156351478680875D+03 -.395222786008223D+02 0.131730407757433D+02
 0.728243859301657D+03 -.696732085936612D+03 -.206059369162568D+03 -.494272740226912D+02
0.252428761680D-04 0.000000000000D+00 0.000000000000D+00 0.545126514314D-08 0.000000000000D+00  7 3 -4 -24 -11 11 23 21 0 0.34577550D-01 0.54974795D-01 0.54215479D+05 0.54215479D+05 0.54215479D+05 0.11442161D+01  1  2  2  2  7  2       -4 0.204290755333D-03 0.100000000000D+01
-.133655727776D-05 0.000000000000D+00 -.969392910869D-07 0.545126514314D-08 0.000000000000D+00  7 3 -4 -24 -11 11 23 21 2 0.34577550D-01 0.54974795D-01 0.54215479D+05 0.54215479D+05 0.54215479D+05 0.11442161D+01  1  2  3  2  7  2       -4 -.141616403473D-04 0.100000000000D+01
0.159382363810D-05 0.000000000000D+00 0.000000000000D+00 0.545126514314D-08 0.000000000000D+00  7 3 -4 -24 -11 11 23 21 2 0.34577550D-01 0.54974795D-01 0.54215479D+05 0.54215479D+05 0.54215479D+05 0.11442161D+01  1  2 15  2  7  2       -4 0.168875345002D-04 0.100000000000D+01
0.256055077091D-04 0.000000000000D+00 -.117569209509D-04 0.545126514314D-08 0.000000000000D+00  7 3 -4 -24 -11 11 23 21 2 0.34577550D-01 0.33542233D+00 0.54215479D+05 0.54215479D+05 0.54215479D+05 0.11442161D+01  1  2  5  2  7  2       -4 0.594258971738D-06 0.100000000000D+01
0.488531300766D-05 0.000000000000D+00 -.260595629768D-05 0.545126514314D-08 0.000000000000D+00  7 3 21 -24 -11 11 23 4 2 0.34577550D-01 0.33542233D+00 0.54215479D+05 0.54215479D+05 0.54215479D+05 0.11442161D+01  1  2  5  4  7  2       -4 0.479749282120D-05 0.100000000000D+01
  </mgrwgt>
  </event>
  <event>
  8     66 0.29493621E-05 0.34378659E+03 0.75467711E-02 0.95852823E-01
        3 -1    0    0  501    0 0.00000000E+00 0.00000000E+00 0.81263963E+02 0.81265501E+02 0.50000000E+00 0.0000E+00 0.9000E+01
       -4 -1    0    0    0  501 0.00000000E+00 0.00000000E+00 -.14824151E+04 0.14824159E+04 0.15500000E+01 0.0000E+00 0.9000E+01
       25  2    1    2    0    0 -.19276864E+03 0.19393816E+03 -.89677511E+03 0.98434200E+03 0.29991971E+03 0.0000E+00 0.0000E+00
       23  2    3    3    0    0 -.14508240E+03 0.23554933E+03 -.70071671E+03 0.75904306E+03 0.92790465E+02 0.0000E+00 0.0000E+00
      -24  1    1    2    0    0 0.19276864E+03 -.19393816E+03 -.50437605E+03 0.57933943E+03 0.80419002E+02 0.0000E+00 0.9000E+01
      -13  1    4    4    0    0 -.17081709E+02 0.11319670E+03 -.26017419E+03 0.28424619E+03 0.10565837E+00 0.0000E+00 0.9000E+01
       13  1    4    4    0    0 -.12800069E+03 0.12235264E+03 -.44054252E+03 0.47479687E+03 0.10565837E+00 0.0000E+00 0.9000E+01
       23  1    3    3    0    0 -.47686233E+02 -.41611174E+02 -.19605840E+03 0.22529894E+03 0.91188000E+02 0.0000E+00 0.9000E+01
#aMCatNLO 1  0  0  2  2 0.18663570D+03 0.00000000D+00  -5  7  0 0.00000000D+00 0.00000000D+00 0.00000000D+00 0.00000000D+00 0.00000000D+00
  <mgrwgt>
 0.2549616519D-03    3    2    0
 0.347086103748212D+03 0.000000000000000D+00 0.000000000000000D+00 0.347086103748212D+03
 0.347086103748212D+03 0.000000000000000D+00 0.000000000000000D+00 -.347086103748212D+03
 0.286953607636918D+03 0.192768635481235D+03 -.193938159817130D+03 0.332174701462946D+02
 0.115140112954292D+03 -.170815659662840D+02 0.113196686622764D+03 -.123278486725926D+02
 0.180307487074749D+03 -.128000836259936D+03 0.122352647747783D+03 -.340059612579128D+02
 0.111770999830464D+03 -.476862332550147D+02 -.416111745534175D+02 0.131163397842108D+02
 0.000000000000000D+00 -.000000000000000D+00 -.000000000000000D+00 0.000000000000000D+00
 0.110724119177205D+04 0.000000000000000D+00 0.000000000000000D+00 0.110724119177205D+04
 0.371056665098973D+03 0.000000000000000D+00 0.000000000000000D+00 -.371056665098973D+03
 0.334303039930103D+03 0.272225667525704D+03 -.173439015706970D+03 0.332174701462946D+02
 0.122384846544037D+03 0.132972290005481D+02 0.121034121270079D+03 -.123278486725926D+02
 0.161605095927248D+03 -.842711487461038D+02 0.133634483265332D+03 -.340059612579128D+02
 0.100531015109986D+03 -.205333841542590D+02 -.346060026712572D+02 0.131163397842108D+02
 0.759473859359644D+03 -.180718363625889D+03 -.466235861571841D+02 0.736184526673073D+03
0.348025554473D-03 0.000000000000D+00 0.000000000000D+00 0.143184511948D-05 0.000000000000D+00  7 3 -4 -24 -13 13 23 21 0 0.12502329D-01 0.22806405D+00 0.11818922D+06 0.11818922D+06 0.11818922D+06 0.11158144D+01  1  2  2  2  7  2       -4 0.251672006731D-03 0.100000000000D+01
-.193326082113D-04 0.000000000000D+00 -.133650976641D-05 0.143184511948D-05 0.000000000000D+00  7 3 -4 -24 -13 13 23 21 2 0.12502329D-01 0.22806405D+00 0.11818922D+06 0.11818922D+06 0.11818922D+06 0.11158144D+01  1  2  3  2  7  2       -4 -.174059670146D-04 0.100000000000D+01
0.229863793867D-04 0.000000000000D+00 0.000000000000D+00 0.143184511948D-05 0.000000000000D+00  7 3 -4 -24 -13 13 23 21 2 0.12502329D-01 0.22806405D+00 0.11818922D+06 0.11818922D+06 0.11818922D+06 0.11158144D+01  1  2 15  2  7  2       -4 0.206956121500D-04 0.100000000000D+01
  </mgrwgt>
  </event>
  <event>
  8     66 0.29493621E-05 0.15795248E+03 0.75467711E-02 0.98155266E-01
        1 -1    0    0  501    0 0.00000000E+00 0.00000000E+00 0.11946093E+04 0.11946093E+04 0.32000000E+00 0.0000E+00 0.9000E+01
       -2 -1    0    0    0  501 0.00000000E+00 0.00000000E+00 -.58359339E+02 0.58360216E+02 0.32000000E+00 0.0000E+00 0.9000E+01
       25  2    1    2    0    0 0.32530866E+02 0.16051987E+03 0.69255190E+03 0.77321955E+03 0.30234988E+03 0.0000E+00 0.0000E+00
       23  2    3    3    0    0 0.11126850E+03 0.10182325E+03 0.22346431E+03 0.28536370E+03 0.93528026E+02 0.0000E+00 0.0000E+00
      -24  1    1    2    0    0 -.32530866E+02 -.16051987E+03 0.44369802E+03 0.47974997E+03 0.80419002E+02 0.0000E+00 0.9000E+01
      -13  1    4    4    0    0 0.12433065E+03 0.87658439E+02 0.16796658E+03 0.22661618E+03 0.10565837E+00 0.0000E+00 0.9000E+01
       13  1    4    4    0    0 -.13062148E+02 0.14164809E+02 0.55497732E+02 0.58747519E+02 0.10565837E+00 0.0000E+00 0.9000E+01
       23  1    3    3    0    0 -.78737634E+02 0.58696621E+02 0.46908759E+03 0.48785585E+03 0.91188000E+02 0.0000E+00 0.9000E+01
#aMCatNLO 1  0  0  2  1 0.20590136D+03 0.00000000D+00  -5  7  0 0.00000000D+00 0.00000000D+00 0.00000000D+00 0.00000000D+00 0.00000000D+00
  <mgrwgt>
 0.1061078151D-02    7    2    0
 0.264040117223206D+03 0.000000000000000D+00 0.000000000000000D+00 0.264040117223206D+03
 0.264040117223206D+03 0.000000000000000D+00 0.000000000000000D+00 -.264040117223206D+03
 0.183608964974339D+03 -.325308719933187D+02 -.160519899658086D+03 0.204973228908056D+02
 0.176282407817464D+03 0.124330803393143D+03 0.876585409380952D+02 -.890691800464254D+02
 0.199769879975805D+02 -.130623219074974D+02 0.141647200503849D+02 0.527413516461352D+01
 0.148211873657029D+03 -.787376094923268D+02 0.586966386696056D+02 0.632977219910063D+02
 0.000000000000000D+00 -.000000000000000D+00 -.000000000000000D+00 -.000000000000000D+00
 0.336704749827747D+03 0.000000000000000D+00 0.000000000000000D+00 0.336704749827747D+03
 0.482238747309792D+03 0.000000000000000D+00 0.000000000000000D+00 -.482238747309792D+03
 0.136105908454147D+03 -.359231076695976D+01 -.107817240826418D+03 0.204973228908056D+02
 0.242500006042598D+03 0.162236329632987D+03 0.156691759335756D+03 -.890691800464254D+02
 0.238315785165775D+02 -.909704850399850D+01 0.213862418711911D+02 0.527413516461352D+01
 0.164364151018672D+03 -.504452115473404D+02 0.110222510490290D+03 0.632977219910063D+02
 0.252141853105545D+03 -.991017588146880D+02 -.180483270870819D+03 -.145533997482046D+03
0.135984754594D-04 0.000000000000D+00 0.000000000000D+00 0.315770414225D-07 0.000000000000D+00  7 1 -2 -24 -13 13 23 21 0 0.18378611D+00 0.89784306D-02 0.59504401D+05 0.59504401D+05 0.59504401D+05 0.11407062D+01  1  2  2  2  7  2       -2 0.118196732497D-02 0.100000000000D+01
-.749709423787D-06 0.000000000000D+00 -.522217263248D-07 0.315770414225D-07 0.000000000000D+00  7 1 -2 -24 -13 13 23 21 2 0.18378611D+00 0.89784306D-02 0.59504401D+05 0.59504401D+05 0.59504401D+05 0.11407062D+01  1  2  3  2  7  2       -2 -.847921896398D-04 0.100000000000D+01
0.870823250693D-06 0.000000000000D+00 0.000000000000D+00 0.315770414225D-07 0.000000000000D+00  7 1 -2 -24 -13 13 23 21 2 0.18378611D+00 0.89784306D-02 0.59504401D+05 0.59504401D+05 0.59504401D+05 0.11407062D+01  1  2 15  2  7  2       -2 0.984901721557D-04 0.100000000000D+01
0.288858131721D-06 0.000000000000D+00 0.000000000000D+00 0.315770414225D-07 0.000000000000D+00  7 1 -2 -24 -13 13 23 21 2 0.18378611D+00 0.16784450D-01 0.13724543D+06 0.13724543D+06 0.13724543D+06 0.11106104D+01  1  2 12  2  7  2       -2 0.114813765703D-04 0.100000000000D+01
-.400313002137D-05 0.000000000000D+00 -.428302731075D-05 0.315770414225D-07 0.000000000000D+00  7 1 -2 -24 -13 13 23 21 2 0.18378611D+00 0.21034762D-01 0.59504401D+05 0.59504401D+05 0.59504401D+05 0.11407062D+01  1  2  5  2  7  2       -2 -.117975669357D-03 0.100000000000D+01
0.196803213897D-07 0.000000000000D+00 0.000000000000D+00 0.315770414225D-07 0.000000000000D+00  7 1 21 -24 -13 13 23 2 2 0.18378611D+00 0.16784450D-01 0.13724543D+06 0.13724543D+06 0.13724543D+06 0.11106104D+01  1  2 12  4  7  2       -2 0.103034668022D-04 0.100000000000D+01
-.101195884507D-06 0.000000000000D+00 -.397688186911D-06 0.315770414225D-07 0.000000000000D+00  7 1 21 -24 -13 13 23 2 2 0.18378611D+00 0.21034762D-01 0.59504401D+05 0.59504401D+05 0.59504401D+05 0.11407062D+01  1  2  5  4  7  2       -2 -.383963307705D-04 0.100000000000D+01
  </mgrwgt>
  </event>
  <event>
  8     66 0.29493621E-05 0.50914340E+03 0.75467711E-02 0.91438149E-01
        1 -1    0    0  501    0 0.00000000E+00 0.00000000E+00 0.17173970E+04 0.17173970E+04 0.32000000E+00 0.0000E+00 0.9000E+01
       -2 -1    0    0    0  501 0.00000000E+00 0.00000000E+00 -.23825606E+03 0.23825627E+03 0.32000000E+00 0.0000E+00 0.9000E+01
       25  2    1    2    0    0 -.48907593E+03 0.57642546E+01 0.13134206E+04 0.14330072E+04 0.29867613E+03 0.0000E+00 0.0000E+00
       23  2    3    3    0    0 -.30047458E+03 -.13753033E+01 0.47991904E+03 0.57355297E+03 0.91399451E+02 0.0000E+00 0.0000E+00
      -24  1    1    2    0    0 0.48907593E+03 -.57642546E+01 0.16572029E+03 0.52264608E+03 0.80419002E+02 0.0000E+00 0.9000E+01
      -11  1    4    4    0    0 -.12861075E+03 0.42805621E+02 0.18458771E+03 0.22901020E+03 0.51099893E-03 0.0000E+00 0.9000E+01
       11  1    4    4    0    0 -.17186383E+03 -.44180924E+02 0.29533132E+03 0.34454277E+03 0.51099893E-03 0.0000E+00 0.9000E+01
       23  1    3    3    0    0 -.18860135E+03 0.71395579E+01 0.83350159E+03 0.85945424E+03 0.91188000E+02 0.0000E+00 0.9000E+01
#aMCatNLO 1  0  0  1  1 0.28014993D+03 0.00000000D+00  -5  7  0 0.00000000D+00 0.00000000D+00 0.00000000D+00 0.00000000D+00 0.00000000D+00
  <mgrwgt>
 0.1002507464D-02    4    2    0
 0.639672162506090D+03 0.000000000000000D+00 0.000000000000000D+00 0.639672162506090D+03
 0.639672162506090D+03 0.000000000000000D+00 0.000000000000000D+00 -.639672162506090D+03
 0.607335202785388D+03 0.489075926665571D+03 -.576425458659164D+01 -.350942080567822D+03
 0.136658522178811D+03 -.128610752220068D+03 0.428056206566322D+02 0.173926690788178D+02
 0.185227345152925D+03 -.171863827681303D+03 -.441809239345072D+02 0.531040496330101D+02
 0.350123254895057D+03 -.188601346764199D+03 0.713955786446665D+01 0.280445361855994D+03
 0.000000000000000D+00 0.000000000000000D+00 -.000000000000000D+00 -.000000000000000D+00
 0.726776497774233D+03 0.000000000000000D+00 0.000000000000000D+00 0.726776497774233D+03
 0.927543341083188D+03 0.000000000000000D+00 0.000000000000000D+00 -.927543341083188D+03
 0.616219369787780D+03 0.483827451101083D+03 0.126529638405538D+03 -.350942080567822D+03
 0.150379286873437D+03 -.129842009869432D+03 0.738408928436296D+02 0.173926690788178D+02
 0.181441146495902D+03 -.173436663631431D+03 -.453577586746028D+01 0.531040496330101D+02
 0.361618886784800D+03 -.191654386916685D+03 0.840949637286818D+02 0.280445361855994D+03
 0.344661148915502D+03 0.111056093164651D+02 -.279929719110390D+03 -.200766843308955D+03
0.329006836462D-03 0.000000000000D+00 0.000000000000D+00 0.287591295607D-05 0.000000000000D+00  7 1 -2 -24 -11 11 23 21 0 0.26421494D+00 0.36654797D-01 0.25922701D+06 0.25922701D+06 0.25922701D+06 0.10892769D+01  1  2  2  1  7  1        1 0.119881972328D-02 0.100000000000D+01
-.171205949893D-04 0.000000000000D+00 -.126347288150D-05 0.287591295607D-05 0.000000000000D+00  7 1 -2 -24 -11 11 23 21 2 0.26421494D+00 0.36654797D-01 0.25922701D+06 0.25922701D+06 0.25922701D+06 0.10892769D+01  1  2  3  1  7  1        1 -.740192084677D-04 0.100000000000D+01
0.208579417609D-04 0.000000000000D+00 0.000000000000D+00 0.287591295607D-05 0.000000000000D+00  7 1 -2 -24 -11 11 23 21 2 0.26421494D+00 0.36654797D-01 0.25922701D+06 0.25922701D+06 0.25922701D+06 0.10892769D+01  1  2 15  1  7  1        1 0.901772596322D-04 0.100000000000D+01
-.491442452359D-04 0.000000000000D+00 0.000000000000D+00 0.287591295607D-05 0.000000000000D+00  7 1 -2 -24 -11 11 23 21 2 0.26421494D+00 0.36654797D-01 0.25922701D+06 0.25922701D+06 0.25922701D+06 0.10892769D+01  1  2  4  1  7  1        1 -.212470310487D-03 0.100000000000D+01
  </mgrwgt>
  </event>
  <event>
  8     66 0.29493621E-05 0.31014624E+03 0.75467711E-02 0.97063047E-01
        1 -1    0    0  501    0 0.00000000E+00 0.00000000E+00 0.11464900E+04 0.11464901E+04 0.32000000E+00 0.0000E+00 0.9000E+01
       -2 -1    0    0    0  501 0.00000000E+00 0.00000000E+00 -.87349153E+03 0.87349159E+03 0.32000000E+00 0.0000E+00 0.9000E+01
       25  2    1    2    0    0 0.24794378E+03 -.11881003E+03 -.80664624E+03 0.90298035E+03 0.29850193E+03 0.0000E+00 0.0000E+00
       23  2    3    3    0    0 0.13896685E+03 -.50855376E+01 -.62107284E+03 0.64305349E+03 0.91916638E+02 0.0000E+00 0.0000E+00
      -24  1    1    2    0    0 -.24794378E+03 0.11881003E+03 0.10796447E+04 0.11170013E+04 0.80419002E+02 0.0000E+00 0.9000E+01
      -11  1    4    4    0    0 0.74865606E+02 -.33124236E+02 -.46309890E+03 0.47027935E+03 0.51099893E-03 0.0000E+00 0.9000E+01
       11  1    4    4    0    0 0.64101239E+02 0.28038699E+02 -.15797394E+03 0.17277414E+03 0.51099893E-03 0.0000E+00 0.9000E+01
       23  1    3    3    0    0 0.10897693E+03 -.11372450E+03 -.18557340E+03 0.25992686E+03 0.91188000E+02 0.0000E+00 0.9000E+01
#aMCatNLO 1  0  0  1  2 0.18029186D+03 0.00000000D+00  -5  7  0 0.00000000D+00 0.00000000D+00 0.00000000D+00 0.00000000D+00 0.00000000D+00
  <mgrwgt>
 0.1694993550D-02    4    2    0
 0.100072445129479D+04 0.000000000000000D+00 0.000000000000000D+00 0.100072445129479D+04
 0.100072445129479D+04 0.000000000000000D+00 0.000000000000000D+00 -.100072445129479D+04
 0.980080360036034D+03 -.247943778913444D+03 0.118810033877666D+03 0.937282430498994D+03
 0.537800870004290D+03 0.748656061394757D+02 -.331242361727734D+02 -.531533349633596D+03
 0.195921682802061D+03 0.641012394196058D+02 0.280386985952594D+02 -.183003191988407D+03
 0.287645989747198D+03 0.108976933354362D+03 -.113724496300152D+03 -.222745888876991D+03
 0.000000000000000D+00 0.000000000000000D+00 -.000000000000000D+00 -.000000000000000D+00
 0.101595828451466D+04 0.000000000000000D+00 0.000000000000000D+00 0.101595828451466D+04
 0.173151667364694D+04 0.000000000000000D+00 0.000000000000000D+00 -.173151667364694D+04
 0.100688384266312D+04 -.337148049553163D+03 0.123209962349145D+03 0.937282430498994D+03
 0.533095708525210D+03 0.267879668500884D+02 -.307528455158702D+02 -.531533349633596D+03
 0.191072140389743D+03 0.467272466254698D+02 0.288956567320166D+02 -.183003191988407D+03
 0.278501209776353D+03 0.835598936615416D+02 -.112470821382985D+03 -.222745888876991D+03
 0.737922056807178D+03 0.180072942416063D+03 -.888195218230668D+01 -.715558389132284D+03
0.282019352766D-02 0.000000000000D+00 0.000000000000D+00 0.708614042132D-05 0.000000000000D+00  7 1 -2 -24 -11 11 23 21 0 0.17638309D+00 0.13438332D+00 0.96190691D+05 0.96190691D+05 0.96190691D+05 0.11231088D+01  1  2  2  1  7  1        1 0.154967453993D-02 0.100000000000D+01
0.104734086028D-03 0.000000000000D+00 -.108302857202D-04 0.708614042132D-05 0.000000000000D+00  7 1 -2 -24 -11 11 23 21 2 0.17638309D+00 0.13438332D+00 0.96190691D+05 0.96190691D+05 0.96190691D+05 0.11231088D+01  1  2  3  1  7  1        1 0.725927582411D-04 0.100000000000D+01
0.172692106772D-03 0.000000000000D+00 0.000000000000D+00 0.708614042132D-05 0.000000000000D+00  7 1 -2 -24 -11 11 23 21 2 0.17638309D+00 0.13438332D+00 0.96190691D+05 0.96190691D+05 0.96190691D+05 0.11231088D+01  1  2 15  1  7  1        1 0.119695476731D-03 0.100000000000D+01
-.677654207618D-04 0.000000000000D+00 0.000000000000D+00 0.708614042132D-05 0.000000000000D+00  7 1 -2 -24 -11 11 23 21 2 0.17638309D+00 0.13438332D+00 0.96190691D+05 0.96190691D+05 0.96190691D+05 0.11231088D+01  1  2  4  1  7  1        1 -.469692245672D-04 0.100000000000D+01
  </mgrwgt>
  </event>
  <event>
  9     66 0.29493621E-05 0.18019145E+03 0.75467711E-02 0.10156860E+00
       21 -1    0    0  501  502 0.00000000E+00 0.00000000E+00 0.22698578E+04 0.22698580E+04 0.75000000E+00 0.0000E+00 0.9000E+01
       -2 -1    0    0    0  501 0.00000000E+00 0.00000000E+00 -.49204377E+02 0.49205417E+02 0.32000000E+00 0.0000E+00 0.9000E+01
       25  2    1    2    0    0 -.49391811E+02 -.17460986E+02 0.12134789E+04 0.12512130E+04 0.30043040E+03 0.0000E+00 0.0000E+00
       23  2    3    3    0    0 -.12896463E+03 -.39209338E+02 0.46894288E+03 0.49659124E+03 0.92337340E+02 0.0000E+00 0.0000E+00
      -24  1    1    2    0    0 -.10876390E+03 0.47696960E+02 0.75606508E+03 0.76954935E+03 0.80419002E+02 0.0000E+00 0.9000E+01
      -13  1    4    4    0    0 -.51051152E+02 -.31597396E+02 0.34362945E+03 0.34883495E+03 0.10565837E+00 0.0000E+00 0.9000E+01
       13  1    4    4    0    0 -.77913483E+02 -.76119413E+01 0.12531343E+03 0.14775628E+03 0.10565837E+00 0.0000E+00 0.9000E+01
       23  1    3    3    0    0 0.79572823E+02 0.21748352E+02 0.74453602E+03 0.75462174E+03 0.91188000E+02 0.0000E+00 0.9000E+01
       -1  1    1    2    0  502 0.15815571E+03 -.30235974E+02 0.25110947E+03 0.29830104E+03 0.32000000E+00 0.0000E+00 0.9000E+01
#aMCatNLO 2  0  0  1  2 0.16102001D+03 0.00000000D+00  -5  7  0 0.00000000D+00 0.00000000D+00 0.00000000D+00 0.00000000D+00 0.00000000D+00
  <mgrwgt>
 0.8205180700D-05    1    2    0
 0.211216384995876D+03 0.000000000000000D+00 0.000000000000000D+00 0.211216384995876D+03
 0.211216384995876D+03 0.000000000000000D+00 0.000000000000000D+00 -.211216384995876D+03
 0.112039437818948D+03 -.621098601025088D+02 0.387777234725617D+02 0.269123226932879D+02
 0.497133250076397D+02 -.308116710671896D+02 -.354667709650706D+02 0.162531155989784D+02
 0.939267353211452D+02 -.402168030006413D+02 -.148187130522406D+02 -.835777847754499D+02
 0.166753271844019D+03 0.133138334170340D+03 0.115077605447495D+02 0.404123464831836D+02
 0.000000000000000D+00 0.000000000000000D+00 -.000000000000000D+00 -.000000000000000D+00
 0.257162867135478D+03 0.000000000000000D+00 0.000000000000000D+00 0.257162867135478D+03
 0.434309220403919D+03 0.000000000000000D+00 0.000000000000000D+00 -.434309220403919D+03
 0.145931789566341D+03 -.108763946345961D+03 0.476969822333627D+02 0.269123226932879D+02
 0.621994839801011D+02 -.510510981350113D+02 -.315974274257660D+02 0.162531155989784D+02
 0.114515064278091D+03 -.779134941929461D+02 -.761191574373336D+01 -.835777847754499D+02
 0.129434283938139D+03 0.795728264516831D+02 0.217483345751420D+02 0.404123464831836D+02
 0.239391465776724D+03 0.158155712222235D+03 -.302359736390054D+02 -.177146353268441D+03
0.673156372612D-06 0.000000000000D+00 0.000000000000D+00 0.302901543219D-06 0.583517693605D-11  7 21 -2 -24 -13 13 23 -1 2 0.34920885D+00 0.75699908D-02 0.80014127D+05 0.80014127D+05 0.80014127D+05 0.11297560D+01  1  2  1  3  7  1        1 0.820518069998D-05 0.100000000000D+01
  </mgrwgt>
  </event>
  <event>
  8     66 0.29493621E-05 0.17959230E+03 0.75467711E-02 0.96718811E-01
        1 -1    0    0  501    0 0.00000000E+00 0.00000000E+00 0.70871395E+03 0.70871402E+03 0.32000000E+00 0.0000E+00 0.9000E+01
       -2 -1    0    0    0  501 0.00000000E+00 0.00000000E+00 -.15199072E+03 0.15199106E+03 0.32000000E+00 0.0000E+00 0.9000E+01
       25  2    1    2    0    0 0.68247594E+02 0.24066177E+03 0.28534291E+03 0.48296137E+03 0.29875624E+03 0.0000E+00 0.0000E+00
       23  2    3    3    0    0 0.75031647E+02 0.16658242E+03 0.30037424E+03 0.36432341E+03 0.95537487E+02 0.0000E+00 0.0000E+00
      -24  1    1    2    0    0 -.68247594E+02 -.24066177E+03 0.27138032E+03 0.37774371E+03 0.80419002E+02 0.0000E+00 0.9000E+01
      -11  1    4    4    0    0 0.89042892E+02 0.15411085E+03 0.22627829E+03 0.28789000E+03 0.51099893E-03 0.0000E+00 0.9000E+01
       11  1    4    4    0    0 -.14011245E+02 0.12471566E+02 0.74095955E+02 0.76433406E+02 0.51099893E-03 0.0000E+00 0.9000E+01
       23  1    3    3    0    0 -.67840529E+01 0.74079350E+02 -.15031335E+02 0.11863796E+03 0.91188000E+02 0.0000E+00 0.9000E+01
#aMCatNLO 1  0  0  1  2 0.22098224D+03 0.00000000D+00  -5  7  0 0.00000000D+00 0.00000000D+00 0.00000000D+00 0.00000000D+00 0.00000000D+00
  <mgrwgt>
 0.7687505541D-03    7    2    0
 0.328204390859163D+03 0.000000000000000D+00 0.000000000000000D+00 0.328204390859163D+03
 0.328204390859163D+03 0.000000000000000D+00 0.000000000000000D+00 -.328204390859163D+03
 0.265143020485795D+03 -.682475943189233D+02 -.240661765106440D+03 0.354652794080695D+02
 0.185576448598593D+03 0.890428923689994D+02 0.154110848694548D+03 0.525340642600121D+02
 0.373786614681716D+02 -.140112451456690D+02 0.124715663213840D+02 0.323312445803044D+02
 0.168310651165767D+03 -.678405290440712D+01 0.740793500905075D+02 -.120330588248386D+03
 0.000000000000000D+00 0.000000000000000D+00 0.000000000000000D+00 0.000000000000000D+00
 0.595239282850636D+03 0.000000000000000D+00 0.000000000000000D+00 0.595239282850636D+03
 0.395345923654484D+03 0.000000000000000D+00 0.000000000000000D+00 -.395345923654484D+03
 0.341202458452997D+03 -.153372474726747D+03 -.291840709382189D+03 0.354652794080695D+02
 0.143386629080447D+03 0.428597449411867D+02 0.126344527997674D+03 0.525340642600121D+02
 0.413191523571503D+02 -.250596362410596D+02 0.582903138331775D+01 0.323312445803044D+02
 0.166699612519281D+03 -.538161651607632D+02 0.458026131270380D+02 -.120330588248386D+03
 0.297977354095246D+03 0.189388531187383D+03 0.113864536874160D+03 0.199893359196152D+03
0.202302062296D-04 0.000000000000D+00 0.000000000000D+00 0.452273953816D-07 0.000000000000D+00  7 1 -2 -24 -11 11 23 21 0 0.10903295D+00 0.23383220D-01 0.83285763D+05 0.83285763D+05 0.83285763D+05 0.11282990D+01  1  2  2  1  7  1        1 0.914973901050D-03 0.100000000000D+01
-.110129417342D-05 0.000000000000D+00 -.776893186573D-07 0.452273953816D-07 0.000000000000D+00  7 1 -2 -24 -11 11 23 21 2 0.10903295D+00 0.23383220D-01 0.83285763D+05 0.83285763D+05 0.83285763D+05 0.11282990D+01  1  2  3  1  7  1        1 -.634103488090D-04 0.100000000000D+01
0.130014913035D-05 0.000000000000D+00 0.000000000000D+00 0.452273953816D-07 0.000000000000D+00  7 1 -2 -24 -11 11 23 21 2 0.10903295D+00 0.23383220D-01 0.83285763D+05 0.83285763D+05 0.83285763D+05 0.11282990D+01  1  2 15  1  7  1        1 0.748600254586D-04 0.100000000000D+01
0.148165571945D-05 0.000000000000D+00 0.000000000000D+00 0.452273953816D-07 0.000000000000D+00  7 1 -2 -24 -11 11 23 21 2 0.20117289D+00 0.23383220D-01 0.17424255D+06 0.17424255D+06 0.17424255D+06 0.11024538D+01  1  2 12  1  7  1        1 0.277695301878D-04 0.100000000000D+01
-.107497397486D-04 0.000000000000D+00 -.625043707966D-05 0.452273953816D-07 0.000000000000D+00  7 1 -2 -24 -11 11 23 21 2 0.21860604D+00 0.23383220D-01 0.83285763D+05 0.83285763D+05 0.83285763D+05 0.11282990D+01  1  2  5  1  7  1        1 -.180777091771D-03 0.100000000000D+01
0.990441045459D-07 0.000000000000D+00 0.000000000000D+00 0.452273953816D-07 0.000000000000D+00  7 21 -2 -24 -11 11 23 -1 2 0.20117289D+00 0.23383220D-01 0.17424255D+06 0.17424255D+06 0.17424255D+06 0.11024538D+01  1  2 12  3  7  1        1 0.177762034948D-05 0.100000000000D+01
-.433264146439D-06 0.000000000000D+00 -.470408307545D-06 0.452273953816D-07 0.000000000000D+00  7 21 -2 -24 -11 11 23 -1 2 0.21860604D+00 0.23383220D-01 0.83285763D+05 0.83285763D+05 0.83285763D+05 0.11282990D+01  1  2  5  3  7  1        1 -.644308236867D-05 0.100000000000D+01
  </mgrwgt>
  </event>
  <event>
  9     66 0.29493621E-05 0.23123808E+03 0.75467711E-02 0.97022592E-01
        1 -1    0    0  501    0 0.00000000E+00 0.00000000E+00 0.18807276E+04 0.18807276E+04 0.32000000E+00 0.0000E+00 0.9000E+01
       -2 -1    0    0    0  502 0.00000000E+00 0.00000000E+00 -.56388085E+03 0.56388094E+03 0.32000000E+00 0.0000E+00 0.9000E+01
       25  2    1    2    0    0 -.21031420E+01 0.14740615E+03 -.23117058E+03 0.40720225E+03 0.30106618E+03 0.0000E+00 0.0000E+00
       23  2    3    3    0    0 -.11638572E+03 0.43744082E+02 -.13622430E+03 0.20438120E+03 0.88064950E+02 0.0000E+00 0.0000E+00
      -24  1    1    2    0    0 -.22317587E+03 -.40896659E+02 0.17186296E+04 0.17354063E+04 0.80419002E+02 0.0000E+00 0.9000E+01
      -11  1    4    4    0    0 -.32377733E+02 -.21006698E+02 -.10712048E+02 0.40054300E+02 0.51099893E-03 0.0000E+00 0.9000E+01
       11  1    4    4    0    0 -.84007986E+02 0.64750780E+02 -.12551225E+03 0.16432690E+03 0.51099893E-03 0.0000E+00 0.9000E+01
       23  1    3    3    0    0 0.11428258E+03 0.10366207E+03 -.94946273E+02 0.20282105E+03 0.91188000E+02 0.0000E+00 0.9000E+01
       21  1    1    2  501  502 0.22527901E+03 -.10650949E+03 -.17061229E+03 0.30200003E+03 0.75000000E+00 0.0000E+00 0.9000E+01
#aMCatNLO 2  0  0  2  1 0.24918849D+03 0.00000000D+00  -5  7  0 0.00000000D+00 0.00000000D+00 0.00000000D+00 0.00000000D+00 0.00000000D+00
  <mgrwgt>
 0.6813538878D-03    1    2    0
 0.760943823973698D+03 0.000000000000000D+00 0.000000000000000D+00 0.760943823973698D+03
 0.760943823973698D+03 0.000000000000000D+00 0.000000000000000D+00 -.760943823973698D+03
 0.733289473891656D+03 -.113867024998292D+03 -.925767024687855D+02 0.713939837342038D+03
 0.635380708356692D+02 -.228549622767800D+02 -.255089616948365D+02 -.535166330975412D+02
 0.337055595801043D+03 -.335395546815165D+02 0.408898487001342D+02 -.332880749226869D+03
 0.388004507419028D+03 0.170261541956589D+03 0.771958154634878D+02 -.327542455017627D+03
 0.000000000000000D+00 0.000000000000000D+00 -.000000000000000D+00 -.000000000000000D+00
 0.798985013071116D+03 0.000000000000000D+00 0.000000000000000D+00 0.798985013071116D+03
 0.132731625085268D+04 0.000000000000000D+00 0.000000000000000D+00 -.132731625085268D+04
 0.753430362739536D+03 -.223175866710120D+03 -.408966590037616D+02 0.713939837342038D+03
 0.659820354542516D+02 -.323777334459766D+02 -.210066980149324D+02 -.535166330975412D+02
 0.349370288431178D+03 -.840079862432154D+02 0.647507797636636D+02 -.332880749226869D+03
 0.373370650814339D+03 0.114282577659434D+03 0.103662067074047D+03 -.327542455017627D+03
 0.584147926484490D+03 0.225279008739878D+03 -.106509489819016D+03 -.528331237781564D+03
0.111737973595D-02 0.000000000000D+00 0.000000000000D+00 0.126471637054D-05 0.152943561298D-09  7 1 -2 -24 -11 11 23 21 2 0.28934263D+00 0.86750884D-01 0.16556643D+06 0.16556643D+06 0.16556643D+06 0.11041838D+01  1  2  1  2  7  2       -2 0.681353887760D-03 0.100000000000D+01
  </mgrwgt>
  </event>
  <event>
  8     66 0.29493621E-05 0.17405000E+03 0.75467711E-02 0.88399966E-01
        1 -1    0    0  501    0 0.00000000E+00 0.00000000E+00 0.14059313E+04 0.14059313E+04 0.32000000E+00 0.0000E+00 0.9000E+01
       -2 -1    0    0    0  501 0.00000000E+00 0.00000000E+00 -.79008401E+02 0.79009049E+02 0.32000000E+00 0.0000E+00 0.9000E+01
       25  2    1    2    0    0 -.86650583E+02 -.74430405E+02 0.13045323E+04 0.13434597E+04 0.30005230E+03 0.0000E+00 0.0000E+00
       23  2    3    3    0    0 -.44651627E+02 -.29598088E+02 0.15208682E+03 0.18578118E+03 0.92273678E+02 0.0000E+00 0.0000E+00
      -24  1    1    2    0    0 0.86650583E+02 0.74430405E+02 0.22390579E+02 0.14148061E+03 0.80419002E+02 0.0000E+00 0.9000E+01
      -13  1    4    4    0    0 -.58387031E+02 0.75242225E+01 0.12394329E+03 0.13721373E+03 0.10565837E+00 0.0000E+00 0.9000E+01
       13  1    4    4    0    0 0.13735404E+02 -.37122310E+02 0.28143535E+02 0.48567448E+02 0.10565837E+00 0.0000E+00 0.9000E+01
       23  1    3    3    0    0 -.41998956E+02 -.44832317E+02 0.11524455E+04 0.11576786E+04 0.91188000E+02 0.0000E+00 0.9000E+01
#aMCatNLO 1  0  0  2  1 0.87451185D+03 0.00000000D+00  -5  7  0 0.00000000D+00 0.00000000D+00 0.00000000D+00 0.00000000D+00 0.00000000D+00
  <mgrwgt>
 0.1417254148D-02    3    2    0
 0.333287996929499D+03 0.000000000000000D+00 0.000000000000000D+00 0.333287996929499D+03
 0.333287996929499D+03 0.000000000000000D+00 0.000000000000000D+00 -.333287996929499D+03
 0.270606345005263D+03 0.866505831139477D+02 0.744304053691180D+02 -.231759291518891D+03
 0.589445694781258D+02 -.583871254520676D+02 0.752428081272833D+01 0.296497059974023D+01
 0.521702810867499D+02 0.137354985154964D+02 -.371223686677404D+02 -.339853505748823D+02
 0.284854798288860D+03 -.419989561773765D+02 -.448323175141059D+02 0.262779671494033D+03
 0.000000000000000D+00 0.000000000000000D+00 0.000000000000000D+00 0.000000000000000D+00
 0.133729705150132D+04 0.000000000000000D+00 0.000000000000000D+00 0.133729705150132D+04
 0.792577717375143D+03 0.000000000000000D+00 0.000000000000000D+00 -.792577717375143D+03
 0.317274600526252D+03 -.731983407472069D+01 -.201072143790487D+03 -.231759291518891D+03
 0.112621090398649D+03 -.858112097950180D+02 -.728776730243130D+02 0.296497059974023D+01
 0.126338022779523D+03 -.147983396935123D+02 -.120777899834602D+03 -.339853505748823D+02
 0.543354628803073D+03 -.174384919653454D+03 -.432961598002261D+03 0.262779671494033D+03
 0.103028642636897D+04 0.282314303216705D+03 0.827689314651662D+03 0.544719334126177D+03
0.341611895945D-04 0.000000000000D+00 0.000000000000D+00 0.342237452918D-05 0.000000000000D+00  7 1 -2 -24 -13 13 23 21 0 0.21629717D+00 0.12155191D-01 0.30293404D+05 0.30293404D+05 0.30293404D+05 0.11669439D+01  1  2  2  2  7  2       -2 0.135409788879D-02 0.100000000000D+01
-.923931166731D-06 0.000000000000D+00 -.131187962891D-06 0.342237452918D-05 0.000000000000D+00  7 1 -2 -24 -13 13 23 21 2 0.21629717D+00 0.12155191D-01 0.30293404D+05 0.30293404D+05 0.30293404D+05 0.11669439D+01  1  2  3  2  7  2       -2 -.498719886382D-04 0.100000000000D+01
0.209396744830D-05 0.000000000000D+00 0.000000000000D+00 0.342237452918D-05 0.000000000000D+00  7 1 -2 -24 -13 13 23 21 2 0.21629717D+00 0.12155191D-01 0.30293404D+05 0.30293404D+05 0.30293404D+05 0.11669439D+01  1  2 15  2  7  2       -2 0.113028247721D-03 0.100000000000D+01
  </mgrwgt>
  </event>
  <event>
  8     66 0.29493621E-05 0.23239001E+03 0.75467711E-02 0.96258806E-01
        3 -1    0    0  501    0 0.00000000E+00 0.00000000E+00 0.72367745E+02 0.72369472E+02 0.50000000E+00 0.0000E+00 0.9000E+01
       -4 -1    0    0    0  501 0.00000000E+00 0.00000000E+00 -.98667645E+03 0.98667767E+03 0.15500000E+01 0.0000E+00 0.9000E+01
       25  2    1    2    0    0 0.11876597E+03 -.11703537E+03 -.66839697E+03 0.75124455E+03 0.29968523E+03 0.0000E+00 0.0000E+00
       23  2    3    3    0    0 0.17269910E+02 0.41591107E+02 -.91085740E+02 0.13718648E+03 0.92170760E+02 0.0000E+00 0.0000E+00
      -24  1    1    2    0    0 -.11876597E+03 0.11703537E+03 -.24591174E+03 0.30780259E+03 0.80419002E+02 0.0000E+00 0.9000E+01
      -13  1    4    4    0    0 -.22951345E+00 0.50696935E+02 -.74334535E+01 0.51239626E+02 0.10565837E+00 0.0000E+00 0.9000E+01
       13  1    4    4    0    0 0.17499424E+02 -.91058276E+01 -.83652287E+02 0.85946857E+02 0.10565837E+00 0.0000E+00 0.9000E+01
       23  1    3    3    0    0 0.10149606E+03 -.15862648E+03 -.57731123E+03 0.61405807E+03 0.91188000E+02 0.0000E+00 0.9000E+01
#aMCatNLO 1  0  0  2  1 0.30784096D+03 0.00000000D+00  -5  7  0 0.00000000D+00 0.00000000D+00 0.00000000D+00 0.00000000D+00 0.00000000D+00
  <mgrwgt>
 0.2279661928D-03    5    2    0
 0.267217344401113D+03 0.000000000000000D+00 0.000000000000000D+00 0.267217344401113D+03
 0.267217344401113D+03 0.000000000000000D+00 0.000000000000000D+00 -.267217344401113D+03
 0.189243342953477D+03 -.118765974126668D+03 0.117035368479364D+03 0.392834928752478D+02
 0.888204909025474D+02 -.229536574457056D+00 0.506970135613367D+02 0.729303759286357D+02
 0.272020416047842D+02 0.174994463064373D+02 -.910590534207938D+01 -.187297339633433D+02
 0.229168813341417D+03 0.101496064394688D+03 -.158626476698622D+03 -.934841348405402D+02
 0.000000000000000D+00 -.000000000000000D+00 -.000000000000000D+00 -.000000000000000D+00
 0.355550302722612D+03 0.000000000000000D+00 0.000000000000000D+00 0.355550302722612D+03
 0.810604656923060D+03 0.000000000000000D+00 0.000000000000000D+00 -.810604656923060D+03
 0.266621811977961D+03 -.883731404176840D+02 0.235089280717512D+03 0.392834928752478D+02
 0.130748681570244D+03 0.144092864950281D+02 0.107558125969027D+03 0.729303759286357D+02
 0.288256586625350D+02 0.212348504251784D+02 0.540340544579635D+01 -.187297339633433D+02
 0.190558657828233D+03 0.129479574641857D+03 -.499310225508837D+02 -.934841348405402D+02
 0.549400149606700D+03 -.767505711443799D+02 -.298119789581452D+03 -.455054354200448D+03
0.592437947758D-04 0.000000000000D+00 0.000000000000D+00 0.138730680280D-05 0.000000000000D+00  7 3 -4 -24 -13 13 23 21 0 0.11133726D-01 0.15179660D+00 0.54005115D+05 0.54005115D+05 0.54005115D+05 0.11443634D+01  1  2  2  2  7  2       -4 0.225428786937D-03 0.100000000000D+01
-.321328419160D-05 0.000000000000D+00 -.227511771189D-06 0.138730680280D-05 0.000000000000D+00  7 3 -4 -24 -13 13 23 21 2 0.11133726D-01 0.15179660D+00 0.54005115D+05 0.54005115D+05 0.54005115D+05 0.11443634D+01  1  2  3  2  7  2       -4 -.160119259466D-04 0.100000000000D+01
0.391628440874D-05 0.000000000000D+00 0.000000000000D+00 0.138730680280D-05 0.000000000000D+00  7 3 -4 -24 -13 13 23 21 2 0.11133726D-01 0.15179660D+00 0.54005115D+05 0.54005115D+05 0.54005115D+05 0.11443634D+01  1  2 15  2  7  2       -4 0.195150046492D-04 0.100000000000D+01
-.165548185650D-04 0.000000000000D+00 -.170062357127D-04 0.138730680280D-05 0.000000000000D+00  7 3 -4 -24 -13 13 23 21 2 0.11133726D-01 0.49501417D+00 0.54005115D+05 0.54005115D+05 0.54005115D+05 0.11443634D+01  1  2  5  2  7  2       -4 -.104363700468D-06 0.100000000000D+01
-.156347210473D-05 0.000000000000D+00 -.232301756709D-05 0.138730680280D-05 0.000000000000D+00  7 3 21 -24 -13 13 23 4 2 0.11133726D-01 0.49501417D+00 0.54005115D+05 0.54005115D+05 0.54005115D+05 0.11443634D+01  1  2  5  4  7  2       -4 -.861309166840D-06 0.100000000000D+01
  </mgrwgt>
  </event>
  <event>
  8     66 0.29493621E-05 0.43759434E+03 0.75467711E-02 0.88496155E-01
        1 -1    0    0  501    0 0.00000000E+00 0.00000000E+00 0.11416135E+04 0.11416136E+04 0.32000000E+00 0.0000E+00 0.9000E+01
       -2 -1    0    0    0  501 0.00000000E+00 0.00000000E+00 -.39551819E+03 0.39551831E+03 0.32000000E+00 0.0000E+00 0.9000E+01
       25  2    1    2    0    0 -.24586269E+03 0.49146852E+03 0.24100191E+02 0.62623454E+03 0.29933111E+03 0.0000E+00 0.0000E+00
       23  2    3    3    0    0 -.18862355E+03 0.20278497E+03 0.10239230E+03 0.30833610E+03 0.88805305E+02 0.0000E+00 0.0000E+00
      -24  1    1    2    0    0 0.24586269E+03 -.49146852E+03 0.72199517E+03 0.91089736E+03 0.80419002E+02 0.0000E+00 0.9000E+01
      -13  1    4    4    0    0 -.26888808E+02 0.36912979E+02 -.15714075E+02 0.48296163E+02 0.10565837E+00 0.0000E+00 0.9000E+01
       13  1    4    4    0    0 -.16173474E+03 0.16587199E+03 0.11810637E+03 0.26003994E+03 0.10565837E+00 0.0000E+00 0.9000E+01
       23  1    3    3    0    0 -.57239136E+02 0.28868355E+03 -.78292107E+02 0.31789844E+03 0.91188000E+02 0.0000E+00 0.9000E+01
#aMCatNLO 1  0  0  1  2 0.55572062D+03 0.00000000D+00  -5  7  0 0.00000000D+00 0.00000000D+00 0.00000000D+00 0.00000000D+00 0.00000000D+00
  <mgrwgt>
 0.1128804803D-02    7    2    0
 0.671959113410599D+03 0.000000000000000D+00 0.000000000000000D+00 0.671959113410599D+03
 0.671959113410599D+03 0.000000000000000D+00 0.000000000000000D+00 -.671959113410599D+03
 0.641030186230148D+03 0.245862688149297D+03 -.491468518816248D+03 0.320097980769096D+03
 0.639633051644883D+02 -.268886171401980D+02 0.369127965203963D+02 -.447856241320485D+02
 0.231857403829869D+03 -.161734934550997D+03 0.165872171840876D+03 -.927843010982449D+01
 0.407067331596692D+03 -.572391364581028D+02 0.288683550454976D+03 -.266033926527223D+03
 0.000000000000000D+00 -.000000000000000D+00 0.000000000000000D+00 0.000000000000000D+00
 0.157296634877914D+04 0.000000000000000D+00 0.000000000000000D+00 0.157296634877914D+04
 0.818421347562232D+03 0.000000000000000D+00 0.000000000000000D+00 -.818421347562232D+03
 0.919117970619672D+03 0.348657160319203D+03 -.783764055840372D+03 0.320097980769096D+03
 0.511281353676355D+02 -.193055143247180D+02 0.153502838388167D+02 -.447856241320485D+02
 0.164005537772861D+03 -.135652461578786D+03 0.917067981257576D+02 -.927843010982449D+01
 0.320032236343227D+03 -.933226557972029D+01 0.152460616916321D+03 -.266033926527223D+03
 0.937103816237979D+03 -.184366918835979D+03 0.524246356959477D+03 0.754545001216910D+03
0.350985164176D-03 0.000000000000D+00 0.000000000000D+00 0.274041925273D-05 0.000000000000D+00  7 1 -2 -24 -13 13 23 21 0 0.17563287D+00 0.60848965D-01 0.32537630D+06 0.32537630D+06 0.32537630D+06 0.10819524D+01  1  2  2  1  7  1        1 0.116174506497D-02 0.100000000000D+01
-.188628527684D-04 0.000000000000D+00 -.134787544695D-05 0.274041925273D-05 0.000000000000D+00  7 1 -2 -24 -13 13 23 21 2 0.17563287D+00 0.60848965D-01 0.32537630D+06 0.32537630D+06 0.32537630D+06 0.10819524D+01  1  2  3  1  7  1        1 -.730879514057D-04 0.100000000000D+01
0.222560763216D-04 0.000000000000D+00 0.000000000000D+00 0.274041925273D-05 0.000000000000D+00  7 1 -2 -24 -13 13 23 21 2 0.17563287D+00 0.60848965D-01 0.32537630D+06 0.32537630D+06 0.32537630D+06 0.10819524D+01  1  2 15  1  7  1        1 0.862356847425D-04 0.100000000000D+01
0.235033054566D-06 0.000000000000D+00 0.000000000000D+00 0.274041925273D-05 0.000000000000D+00  7 1 -2 -24 -13 13 23 21 2 0.40605967D+00 0.60848965D-01 0.79530715D+06 0.79530715D+06 0.79530715D+06 0.10545499D+01  1  2 12  1  7  1        1 0.775310347270D-07 0.100000000000D+01
-.166297032100D-03 0.000000000000D+00 -.970383353967D-04 0.274041925273D-05 0.000000000000D+00  7 1 -2 -24 -13 13 23 21 2 0.43464947D+00 0.60848965D-01 0.32537630D+06 0.32537630D+06 0.32537630D+06 0.10819524D+01  1  2  5  1  7  1        1 -.454256151996D-04 0.100000000000D+01
0.214501126975D-07 0.000000000000D+00 0.000000000000D+00 0.274041925273D-05 0.000000000000D+00  7 21 -2 -24 -13 13 23 -1 2 0.40605967D+00 0.60848965D-01 0.79530715D+06 0.79530715D+06 0.79530715D+06 0.10545499D+01  1  2 12  3  7  1        1 0.204298587476D-08 0.100000000000D+01
-.105334188037D-04 0.000000000000D+00 -.966373580605D-05 0.274041925273D-05 0.000000000000D+00  7 21 -2 -24 -13 13 23 -1 2 0.43464947D+00 0.60848965D-01 0.32537630D+06 0.32537630D+06 0.32537630D+06 0.10819524D+01  1  2  5  3  7  1        1 -.741953664416D-06 0.100000000000D+01
  </mgrwgt>
  </event>
  <event>
  8     66 0.29493621E-05 0.18885287E+03 0.75467711E-02 0.10029484E+00
        1 -1    0    0  501    0 0.00000000E+00 0.00000000E+00 0.51820797E+03 0.51820807E+03 0.32000000E+00 0.0000E+00 0.9000E+01
       -2 -1    0    0    0  501 0.00000000E+00 0.00000000E+00 -.14795268E+03 0.14795303E+03 0.32000000E+00 0.0000E+00 0.9000E+01
       25  2    1    2    0    0 -.10409444E+03 0.55300012E+01 0.40544967E+02 0.31113667E+03 0.29033757E+03 0.0000E+00 0.0000E+00
       23  2    3    3    0    0 -.12968874E+03 -.11131726E+02 0.10995903E+03 0.19253547E+03 0.89642810E+02 0.0000E+00 0.0000E+00
      -24  1    1    2    0    0 0.10409444E+03 -.55300012E+01 0.32971031E+03 0.35502442E+03 0.80419002E+02 0.0000E+00 0.9000E+01
      -13  1    4    4    0    0 -.96743661E+02 -.41320043E+02 0.46729700E+02 0.11511020E+03 0.10565837E+00 0.0000E+00 0.9000E+01
       13  1    4    4    0    0 -.32945078E+02 0.30188317E+02 0.63229335E+02 0.77425271E+02 0.10565837E+00 0.0000E+00 0.9000E+01
       23  1    3    3    0    0 0.25594301E+02 0.16661727E+02 -.69414068E+02 0.11860120E+03 0.91188000E+02 0.0000E+00 0.9000E+01
#aMCatNLO 1  0  0  2  2 0.19478689D+03 0.00000000D+00  -5  7  0 0.00000000D+00 0.00000000D+00 0.00000000D+00 0.00000000D+00 0.00000000D+00
  <mgrwgt>
 0.1159713702D-02    5    2    0
 0.276894218202289D+03 0.000000000000000D+00 0.000000000000000D+00 0.276894218202289D+03
 0.276894218202289D+03 0.000000000000000D+00 0.000000000000000D+00 -.276894218202289D+03
 0.206624891829557D+03 0.104094440988532D+03 -.553000136238691D+01 0.159249478521666D+03
 0.107225172971055D+03 -.967437481502459D+02 -.413201412064246D+02 -.207492371714153D+02
 0.508617764028607D+02 -.329449883045321D+02 0.301884157726104D+02 0.242941885562956D+02
 0.189076595201104D+03 0.255942954662460D+02 0.166617267962011D+02 -.162794429906547D+03
 0.000000000000000D+00 0.000000000000000D+00 -.000000000000000D+00 -.000000000000000D+00
 0.309058597257881D+03 0.000000000000000D+00 0.000000000000000D+00 0.309058597257881D+03
 0.904097080635504D+03 0.000000000000000D+00 0.000000000000000D+00 -.904097080635504D+03
 0.214631348959095D+03 0.992583516262667D+02 0.662327956879671D+02 0.159249478521666D+03
 0.101451742556741D+03 -.991393926858497D+02 -.577113875110354D+01 -.207492371714153D+02
 0.652897467779983D+02 -.342784264623010D+02 0.499753230704406D+02 0.242941885562956D+02
 0.205673639068991D+03 0.210624993197217D+02 0.839091126022126D+02 -.162794429906547D+03
 0.626109200530560D+03 0.130969682021623D+02 -.194346092609517D+03 -.595038483377623D+03
0.297198227396D-04 0.000000000000D+00 0.000000000000D+00 0.342177120927D-08 0.000000000000D+00  7 1 -2 -24 -13 13 23 21 0 0.79724337D-01 0.22761986D-01 0.35665406D+05 0.35665406D+05 0.35665406D+05 0.11604291D+01  1  2  2  2  7  2       -2 0.221174553065D-02 0.100000000000D+01
-.135713470070D-05 0.000000000000D+00 -.114131944729D-06 0.342177120927D-08 0.000000000000D+00  7 1 -2 -24 -13 13 23 21 2 0.79724337D-01 0.22761986D-01 0.35665406D+05 0.35665406D+05 0.35665406D+05 0.11604291D+01  1  2  3  2  7  2       -2 -.136003204895D-03 0.100000000000D+01
0.184925068599D-05 0.000000000000D+00 0.000000000000D+00 0.342177120927D-08 0.000000000000D+00  7 1 -2 -24 -13 13 23 21 2 0.79724337D-01 0.22761986D-01 0.35665406D+05 0.35665406D+05 0.35665406D+05 0.11604291D+01  1  2 15  2  7  2       -2 0.185319865316D-03 0.100000000000D+01
-.476626594778D-04 0.000000000000D+00 -.101142140965D-04 0.342177120927D-08 0.000000000000D+00  7 1 -2 -24 -13 13 23 21 2 0.79724337D-01 0.79494908D-01 0.35665406D+05 0.35665406D+05 0.35665406D+05 0.11604291D+01  1  2  5  2  7  2       -2 -.452442969803D-03 0.100000000000D+01
-.664493811697D-05 0.000000000000D+00 -.147928157010D-05 0.342177120927D-08 0.000000000000D+00  7 1 21 -24 -13 13 23 2 2 0.79724337D-01 0.79494908D-01 0.35665406D+05 0.35665406D+05 0.35665406D+05 0.11604291D+01  1  2  5  4  7  2       -2 -.648905519554D-03 0.100000000000D+01
  </mgrwgt>
  </event>
  <event>
  8     66 0.29493621E-05 0.20543310E+03 0.75467711E-02 0.95315086E-01
        1 -1    0    0  501    0 0.00000000E+00 0.00000000E+00 0.88836246E+03 0.88836251E+03 0.32000000E+00 0.0000E+00 0.9000E+01
       -2 -1    0    0    0  501 0.00000000E+00 0.00000000E+00 -.25973799E+03 0.25973819E+03 0.32000000E+00 0.0000E+00 0.9000E+01
       25  2    1    2    0    0 -.16101631E+03 -.10988798E+02 -.13267441E+03 0.36573876E+03 0.30019217E+03 0.0000E+00 0.0000E+00
       23  2    3    3    0    0 -.14570692E+02 0.15463818E+02 -.16266362E+03 0.18864934E+03 0.93154082E+02 0.0000E+00 0.0000E+00
      -24  1    1    2    0    0 0.16101631E+03 0.10988798E+02 0.76129888E+03 0.78236194E+03 0.80419002E+02 0.0000E+00 0.9000E+01
      -13  1    4    4    0    0 -.28045138E+02 -.78206936E+01 -.15882834E+03 0.16147490E+03 0.10565837E+00 0.0000E+00 0.9000E+01
       13  1    4    4    0    0 0.13474447E+02 0.23284512E+02 -.38352875E+01 0.27174433E+02 0.10565837E+00 0.0000E+00 0.9000E+01
       23  1    3    3    0    0 -.14644562E+03 -.26452616E+02 0.29989214E+02 0.17708943E+03 0.91188000E+02 0.0000E+00 0.9000E+01
#aMCatNLO 1  0  0  1  2 0.39783252D+03 0.00000000D+00  -5  7  0 0.00000000D+00 0.00000000D+00 0.00000000D+00 0.00000000D+00 0.00000000D+00
  <mgrwgt>
 0.1497495041D-02    3    2    0
 0.480355726880905D+03 0.000000000000000D+00 0.000000000000000D+00 0.480355726880905D+03
 0.480355726880905D+03 0.000000000000000D+00 0.000000000000000D+00 -.480355726880905D+03
 0.436821260585212D+03 0.161016311197356D+03 0.109887975078658D+02 0.397867555353048D+03
 0.296897836053743D+03 -.280451914208796D+02 -.782073344611455D+01 -.295466797491573D+03
 0.349840912803072D+02 0.134744998837251D+02 0.232845518230506D+02 -.223641262291203D+02
 0.192008265842548D+03 -.146445619660201D+03 -.264526158848019D+02 -.800366316323546D+02
 0.000000000000000D+00 0.000000000000000D+00 -.000000000000000D+00 -.000000000000000D+00
 0.662330441398138D+03 0.000000000000000D+00 0.000000000000000D+00 0.662330441398138D+03
 0.797741235203887D+03 0.000000000000000D+00 0.000000000000000D+00 -.797741235203887D+03
 0.416681171065358D+03 0.125647804600309D+02 0.932712016402046D+02 0.397867555353048D+03
 0.329934832238095D+03 -.137071558157914D+03 0.526094387749500D+02 -.295466797491573D+03
 0.376590942875530D+02 0.839512922610703D+00 0.302877608716715D+02 -.223641262291203D+02
 0.255550468436026D+03 -.224290481882826D+03 0.166945472412015D+02 -.800366316323546D+02
 0.420246110574993D+03 0.347957746658098D+03 -.192862948528028D+03 -.135410793805750D+03
0.111049804167D-03 0.000000000000D+00 0.000000000000D+00 0.484699792856D-05 0.000000000000D+00  7 1 -2 -24 -13 13 23 21 0 0.13667117D+00 0.39959710D-01 0.42202759D+05 0.42202759D+05 0.42202759D+05 0.11538286D+01  1  2  2  1  7  1        1 0.139789115390D-02 0.100000000000D+01
-.757431725390D-06 0.000000000000D+00 -.426460488085D-06 0.484699792856D-05 0.000000000000D+00  7 1 -2 -24 -13 13 23 21 2 0.13667117D+00 0.39959710D-01 0.42202759D+05 0.42202759D+05 0.42202759D+05 0.11538286D+01  1  2  3  1  7  1        1 -.126935085880D-04 0.100000000000D+01
0.670087464154D-05 0.000000000000D+00 0.000000000000D+00 0.484699792856D-05 0.000000000000D+00  7 1 -2 -24 -13 13 23 21 2 0.13667117D+00 0.39959710D-01 0.42202759D+05 0.42202759D+05 0.42202759D+05 0.11538286D+01  1  2 15  1  7  1        1 0.112297395208D-03 0.100000000000D+01
  </mgrwgt>
  </event>
  <event>
  9     66 0.29493621E-05 0.16389609E+03 0.75467711E-02 0.10137489E+00
        1 -1    0    0  502    0 0.00000000E+00 0.00000000E+00 0.10585248E+04 0.10585248E+04 0.32000000E+00 0.0000E+00 0.9000E+01
       -2 -1    0    0    0  501 0.00000000E+00 0.00000000E+00 -.12080633E+03 0.12080675E+03 0.32000000E+00 0.0000E+00 0.9000E+01
       25  2    1    2    0    0 -.15796407E+03 0.15388047E+03 0.60805686E+03 0.71284827E+03 0.29964589E+03 0.0000E+00 0.0000E+00
       23  2    3    3    0    0 -.15609817E+03 0.13201723E+03 0.56805350E+03 0.61088257E+03 0.93260691E+02 0.0000E+00 0.0000E+00
      -24  1    1    2    0    0 0.15302424E+02 -.31473630E+02 0.82334329E+00 0.87707739E+02 0.80419002E+02 0.0000E+00 0.9000E+01
      -13  1    4    4    0    0 -.11849264E+03 0.10591998E+03 0.52315748E+03 0.54676623E+03 0.10565837E+00 0.0000E+00 0.9000E+01
       13  1    4    4    0    0 -.37605526E+02 0.26097252E+02 0.44896011E+02 0.64116340E+02 0.10565837E+00 0.0000E+00 0.9000E+01
       23  1    3    3    0    0 -.18659054E+01 0.21863239E+02 0.40003367E+02 0.10196570E+03 0.91188000E+02 0.0000E+00 0.9000E+01
       21  1    1    2  502  501 0.14266165E+03 -.12240684E+03 0.32883826E+03 0.37877559E+03 0.75000000E+00 0.0000E+00 0.9000E+01
#aMCatNLO 2  0  0  1  2 0.18797814D+03 0.00000000D+00  -5  7  0 0.00000000D+00 0.00000000D+00 0.00000000D+00 0.00000000D+00 0.00000000D+00
  <mgrwgt>
 0.1282998954D-03    1    2    0
 0.242290651282690D+03 0.000000000000000D+00 0.000000000000000D+00 0.242290651282690D+03
 0.242290651282690D+03 0.000000000000000D+00 0.000000000000000D+00 -.242290651282690D+03
 0.156319067414572D+03 0.565584492287920D+02 -.668722101511428D+02 -.101477505947507D+03
 0.184297588875118D+03 -.597449097970442D+02 0.555131437092812D+02 0.165270801698418D+03
 0.318480805919418D+02 -.265248115081061D+02 0.165897415733269D+02 -.595945353035742D+01
 0.112116565683748D+03 0.297112720763582D+02 -.523067513146523D+01 -.578338422205536D+02
 0.000000000000000D+00 0.000000000000000D+00 -.000000000000000D+00 0.000000000000000D+00
 0.390356291577695D+03 0.000000000000000D+00 0.000000000000000D+00 0.390356291577695D+03
 0.327588553190117D+03 0.000000000000000D+00 0.000000000000000D+00 -.327588553190117D+03
 0.134125515070731D+03 0.153024244292066D+02 -.314736307387682D+02 -.101477505947507D+03
 0.229290282902227D+03 -.118492748537391D+03 0.105920085363448D+03 0.165270801698418D+03
 0.461599799003128D+02 -.376054192119832D+02 0.260971474285562D+02 -.595945353035742D+01
 0.110188418068350D+03 -.186590469268025D+01 0.218632391491136D+02 -.578338422205536D+02
 0.198180648826191D+03 0.142661648012848D+03 -.122406841202349D+03 0.627677383875777D+02
0.292109137443D-05 0.000000000000D+00 0.000000000000D+00 0.465471712027D-06 0.100872268036D-09  7 1 -2 -24 -13 13 23 21 2 0.16284967D+00 0.18585588D-01 0.82420457D+05 0.82420457D+05 0.82420457D+05 0.11286782D+01  1  2  1  1  7  1        1 0.128299895428D-03 0.100000000000D+01
  </mgrwgt>
  </event>
  <event>
  8     66 0.29493621E-05 0.10901420E+03 0.75467711E-02 0.99142073E-01
        1 -1    0    0  501    0 0.00000000E+00 0.00000000E+00 0.15099141E+04 0.15099141E+04 0.32000000E+00 0.0000E+00 0.9000E+01
       -2 -1    0    0    0  501 0.00000000E+00 0.00000000E+00 -.67304215E+02 0.67304976E+02 0.32000000E+00 0.0000E+00 0.9000E+01
       25  2    1    2    0    0 0.54009899E+02 0.23423824E+03 0.87219394E+03 0.95301867E+03 0.29956249E+03 0.0000E+00 0.0000E+00
       23  2    3    3    0    0 -.54726575E+02 0.20334834E+03 0.42813999E+03 0.48581746E+03 0.91483377E+02 0.0000E+00 0.0000E+00
      -24  1    1    2    0    0 -.54009899E+02 -.23423824E+03 0.57041593E+03 0.62420043E+03 0.80419002E+02 0.0000E+00 0.9000E+01
      -13  1    4    4    0    0 -.70963248E+02 0.18897864E+03 0.41197494E+03 0.45877235E+03 0.10565837E+00 0.0000E+00 0.9000E+01
       13  1    4    4    0    0 0.16236673E+02 0.14369697E+02 0.16165047E+02 0.27045104E+02 0.10565837E+00 0.0000E+00 0.9000E+01
       23  1    3    3    0    0 0.10873647E+03 0.30889908E+02 0.44405396E+03 0.46720121E+03 0.91188000E+02 0.0000E+00 0.9000E+01
#aMCatNLO 1  0  0  1  2 0.58299111D+02 0.00000000D+00  -5  7  0 0.00000000D+00 0.00000000D+00 0.00000000D+00 0.00000000D+00 0.00000000D+00
  <mgrwgt>
 0.1917047470D-02    9    2    0
 0.318785522205669D+03 0.000000000000000D+00 0.000000000000000D+00 0.318785522205669D+03
 0.318785522205669D+03 0.000000000000000D+00 0.000000000000000D+00 -.318785522205669D+03
 0.253482626571016D+03 -.540098992282371D+02 -.234238245159594D+03 -.126542833864598D+01
 0.202746889976398D+03 -.709633640616578D+02 0.188978872898992D+03 -.189073518500255D+02
 0.303276809400312D+02 0.162367892066102D+02 0.143694640773797D+02 -.212050326476837D+02
 0.151013846923894D+03 0.108736474083285D+03 0.308899081832225D+02 0.413778128363551D+02
 0.000000000000000D+00 -.000000000000000D+00 0.000000000000000D+00 0.000000000000000D+00
 0.384426395876042D+03 0.000000000000000D+00 0.000000000000000D+00 0.384426395876042D+03
 0.333327774903123D+03 0.000000000000000D+00 0.000000000000000D+00 -.333327774903123D+03
 0.254676785160349D+03 -.314509653733162D+02 -.239587738445535D+03 -.126542833864598D+01
 0.193291835505605D+03 -.533818508477323D+02 0.184809695955638D+03 -.189073518500255D+02
 0.315956532780990D+02 0.189857777492871D+02 0.137175850547826D+02 -.212050326476837D+02
 0.160666639851702D+03 0.122573036631805D+03 0.276087868798031D+02 0.413778128363551D+02
 0.775232569834108D+02 -.567259981600434D+02 0.134516705553112D+02 0.510986209729194D+02
0.264710805752D-04 0.000000000000D+00 0.000000000000D+00 0.254471227867D-05 0.000000000000D+00  7 1 -2 -24 -13 13 23 21 0 0.23229454D+00 0.10354556D-01 0.96801705D+05 0.96801705D+05 0.96801705D+05 0.11228824D+01  1  2  2  1  7  1        1 0.112662248446D-02 0.100000000000D+01
-.146955901294D-05 0.000000000000D+00 -.101655919404D-06 0.254471227867D-05 0.000000000000D+00  7 1 -2 -24 -13 13 23 21 2 0.23229454D+00 0.10354556D-01 0.96801705D+05 0.96801705D+05 0.96801705D+05 0.11228824D+01  1  2  3  1  7  1        1 -.788610011312D-04 0.100000000000D+01
0.170234628325D-05 0.000000000000D+00 0.000000000000D+00 0.254471227867D-05 0.000000000000D+00  7 1 -2 -24 -13 13 23 21 2 0.23229454D+00 0.10354556D-01 0.96801705D+05 0.96801705D+05 0.96801705D+05 0.11228824D+01  1  2 15  1  7  1        1 0.913530732599D-04 0.100000000000D+01
0.431939519011D-04 0.000000000000D+00 0.000000000000D+00 0.254471227867D-05 0.000000000000D+00  7 1 -2 -24 -13 13 23 21 2 0.28465133D+00 0.10354556D-01 0.11696659D+06 0.11696659D+06 0.11696659D+06 0.11161792D+01  1  2 12  1  7  1        1 0.136386087560D-02 0.100000000000D+01
-.439188269256D-04 0.000000000000D+00 0.000000000000D+00 0.254471227867D-05 0.000000000000D+00  7 1 -2 -24 -13 13 23 21 2 0.23229454D+00 0.10354556D-01 0.96801705D+05 0.96801705D+05 0.96801705D+05 0.11228824D+01  1  2  4  1  7  1        1 -.235681767752D-02 0.100000000000D+01
-.775629707825D-04 0.000000000000D+00 -.154937122626D-04 0.254471227867D-05 0.000000000000D+00  7 1 -2 -24 -13 13 23 21 2 0.28536860D+00 0.10354556D-01 0.96801705D+05 0.96801705D+05 0.96801705D+05 0.11228824D+01  1  2  5  1  7  1        1 -.247302230003D-02 0.100000000000D+01
0.793868375308D-04 0.000000000000D+00 0.151713721856D-04 0.254471227867D-05 0.000000000000D+00  7 1 -2 -24 -13 13 23 21 2 0.23229454D+00 0.10354556D-01 0.96801705D+05 0.96801705D+05 0.96801705D+05 0.11228824D+01  1  2  6  1  7  1        1 0.426013887784D-02 0.100000000000D+01
0.125146849986D-05 0.000000000000D+00 0.000000000000D+00 0.254471227867D-05 0.000000000000D+00  7 21 -2 -24 -13 13 23 -1 2 0.28465133D+00 0.10354556D-01 0.11696659D+06 0.11696659D+06 0.11696659D+06 0.11161792D+01  1  2 12  3  7  1        1 0.235647855358D-04 0.100000000000D+01
-.208110543790D-05 0.000000000000D+00 -.453141853325D-06 0.254471227867D-05 0.000000000000D+00  7 21 -2 -24 -13 13 23 -1 2 0.28536860D+00 0.10354556D-01 0.96801705D+05 0.96801705D+05 0.96801705D+05 0.11228824D+01  1  2  5  3  7  1        1 -.397916483190D-04 0.100000000000D+01
  </mgrwgt>
  </event>
  <event>
  9     66 -.29493621E-05 0.62594028E+03 0.75467711E-02 0.91986885E-01
        1 -1    0    0  501    0 0.00000000E+00 0.00000000E+00 0.20355459E+04 0.20355459E+04 0.32000000E+00 0.0000E+00 0.9000E+01
       -2 -1    0    0    0  502 0.00000000E+00 0.00000000E+00 -.24983819E+03 0.24983840E+03 0.32000000E+00 0.0000E+00 0.9000E+01
       25  2    1    2    0    0 0.55547977E+03 -.22101741E+03 0.13555063E+04 0.15114463E+04 0.29944310E+03 0.0000E+00 0.0000E+00
       23  2    3    3    0    0 0.41473957E+03 -.15610723E+03 0.71473242E+03 0.84591830E+03 0.91416346E+02 0.0000E+00 0.0000E+00
      -24  1    1    2    0    0 -.56791209E+03 0.23518440E+03 0.39821205E+03 0.73680113E+03 0.80419002E+02 0.0000E+00 0.9000E+01
      -11  1    4    4    0    0 0.16995240E+03 -.11127625E+03 0.30197087E+03 0.36394042E+03 0.51099893E-03 0.0000E+00 0.9000E+01
       11  1    4    4    0    0 0.24478717E+03 -.44830987E+02 0.41276155E+03 0.48197788E+03 0.51099893E-03 0.0000E+00 0.9000E+01
       23  1    3    3    0    0 0.14074020E+03 -.64910181E+02 0.64077384E+03 0.66552799E+03 0.91188000E+02 0.0000E+00 0.9000E+01
       21  1    1    2  501  502 0.12432325E+02 -.14166987E+02 0.31989344E+02 0.37136866E+02 0.75000000E+00 0.0000E+00 0.9000E+01
#aMCatNLO 2  0  0  2  1 0.18848507D+02 0.00000000D+00  -5  7  0 0.00000000D+00 0.00000000D+00 0.00000000D+00 0.00000000D+00 0.00000000D+00
  <mgrwgt>
 -.3661792593D-03    3    2    0
 0.703337262683875D+03 0.000000000000000D+00 0.000000000000000D+00 0.703337262683875D+03
 0.703337262683875D+03 0.000000000000000D+00 0.000000000000000D+00 -.703337262683875D+03
 0.673764340978627D+03 -.561925190136457D+03 0.228362154913268D+03 -.282102779343751D+03
 0.207827470192601D+03 0.171777445931700D+03 -.113355937079759D+03 0.288997917744739D+02
 0.258351460265356D+03 0.247058747701126D+03 -.474195126139300D+02 0.588119208073554D+02
 0.266731253931165D+03 0.143088996503630D+03 -.675867052195787D+02 0.194391066761921D+03
 0.000000000000000D+00 0.000000000000000D+00 -.000000000000000D+00 0.000000000000000D+00
 0.715543024096090D+03 0.000000000000000D+00 0.000000000000000D+00 0.715543024096090D+03
 0.710714843412404D+03 0.000000000000000D+00 0.000000000000000D+00 -.710714843412404D+03
 0.681091066592216D+03 -.567912092544038D+03 0.235184400133461D+03 -.282102779343751D+03
 0.205186303428367D+03 0.169952400143169D+03 -.111276245603300D+03 0.288997917744739D+02
 0.255713548477163D+03 0.244787171692870D+03 -.448309872781895D+02 0.588119208073554D+02
 0.264809879954588D+03 0.140740196125076D+03 -.649101805220172D+02 0.194391066761921D+03
 0.194570690561591D+02 0.124323245829222D+02 -.141669867299539D+02 0.482818068368645D+01
-.202932741756D-03 0.000000000000D+00 0.000000000000D+00 0.107523463562D-04 0.000000000000D+00  7 1 -2 -24 -11 11 23 21 2 0.30781589D+00 0.38761795D-01 0.40360162D+06 0.40360162D+06 0.40360162D+06 0.10751471D+01  1  2 13  2  7  2       -2 -.488241986996D-03 0.100000000000D+01
-.855953395619D-03 0.000000000000D+00 0.000000000000D+00 0.107523463562D-04 0.000000000000D+00  7 1 -2 -24 -11 11 23 21 2 0.30781589D+00 0.38037285D-01 0.39180123D+06 0.39180123D+06 0.39180123D+06 0.10760766D+01  1  2  8  2  7  2       -2 -.214037948778D-02 0.100000000000D+01
0.976503292317D-03 0.000000000000D+00 0.000000000000D+00 0.107523463562D-04 0.186648831834D-06  7 1 -2 -24 -11 11 23 21 2 0.31315774D+00 0.38436273D-01 0.40360162D+06 0.40360162D+06 0.40360162D+06 0.10751471D+01  1  2  1  2  7  2       -2 0.226244221551D-02 0.100000000000D+01
  </mgrwgt>
  </event>
  <event>
  8     66 0.29493621E-05 0.37980366E+03 0.75467711E-02 0.92001700E-01
        1 -1    0    0  501    0 0.00000000E+00 0.00000000E+00 0.30198953E+04 0.30198953E+04 0.32000000E+00 0.0000E+00 0.9000E+01
       -2 -1    0    0    0  501 0.00000000E+00 0.00000000E+00 -.31786892E+03 0.31786909E+03 0.32000000E+00 0.0000E+00 0.9000E+01
       25  2    1    2    0    0 -.30887910E+00 -.57143858E+03 0.77670081E+02 0.65071112E+03 0.30141364E+03 0.0000E+00 0.0000E+00
       23  2    3    3    0    0 -.74294924E+02 -.44849865E+03 -.32288311E+00 0.46366483E+03 0.91182247E+02 0.0000E+00 0.0000E+00
      -24  1    1    2    0    0 0.30887910E+00 0.57143858E+03 0.26243563E+04 0.26870533E+04 0.80419002E+02 0.0000E+00 0.9000E+01
      -13  1    4    4    0    0 -.19433363E+02 -.11343453E+02 -.50217056E+01 0.23055546E+02 0.10565837E+00 0.0000E+00 0.9000E+01
       13  1    4    4    0    0 -.54861561E+02 -.43715519E+03 0.46988225E+01 0.44060929E+03 0.10565837E+00 0.0000E+00 0.9000E+01
       23  1    3    3    0    0 0.73986045E+02 -.12293993E+03 0.77992964E+02 0.18704629E+03 0.91188000E+02 0.0000E+00 0.9000E+01
#aMCatNLO 1  0  0  1  2 0.57096775D+02 0.00000000D+00  -5  7  0 0.00000000D+00 0.00000000D+00 0.00000000D+00 0.00000000D+00 0.00000000D+00
  <mgrwgt>
 0.2000036237D-02    9    2    0
 0.979760768040445D+03 0.000000000000000D+00 0.000000000000000D+00 0.979760768040445D+03
 0.979760768040445D+03 0.000000000000000D+00 0.000000000000000D+00 -.979760768040445D+03
 0.958229244626369D+03 0.308879097583839D+00 0.571438576744158D+03 0.764979690518099D+03
 0.461954220872382D+02 -.194333151550870D+02 -.113428808773345D+02 -.403447931870242D+02
 0.744036464853625D+03 -.548616090034760D+02 -.437155764306606D+03 -.599562592748194D+03
 0.211060404513658D+03 0.739860450609792D+02 -.122939931560217D+03 -.125072304582880D+03
 0.000000000000000D+00 -.000000000000000D+00 -.000000000000000D+00 0.000000000000000D+00
 0.101860985214120D+04 0.000000000000000D+00 0.000000000000000D+00 0.101860985214120D+04
 0.100138247140964D+04 0.000000000000000D+00 0.000000000000000D+00 -.100138247140964D+04
 0.975286296487196D+03 0.491226927834724D+00 0.599601514301189D+03 0.764979690518099D+03
 0.458808590251025D+02 -.194246315372306D+02 -.100017287115975D+02 -.403447931870242D+02
 0.731604272030408D+03 -.547224428675547D+02 -.415662077265672D+03 -.599562592748194D+03
 0.207581778404251D+03 0.740255267677890D+02 -.116842130220867D+03 -.125072304582880D+03
 0.596391176038847D+02 -.369679290838469D+00 -.570955781030527D+02 0.172273807315601D+02
0.237479153936D-02 0.000000000000D+00 0.000000000000D+00 0.114033105743D-04 0.000000000000D+00  7 1 -2 -24 -13 13 23 21 0 0.46459929D+00 0.48902925D-01 0.36612537D+06 0.36612537D+06 0.36612537D+06 0.10782090D+01  1  2  2  1  7  1        1 0.615031510474D-03 0.100000000000D+01
-.946743419943D-04 0.000000000000D+00 -.911982480812D-05 0.114033105743D-04 0.000000000000D+00  7 1 -2 -24 -13 13 23 21 2 0.46459929D+00 0.48902925D-01 0.36612537D+06 0.36612537D+06 0.36612537D+06 0.10782090D+01  1  2  3  1  7  1        1 -.285042811133D-04 0.100000000000D+01
0.144033677651D-03 0.000000000000D+00 0.000000000000D+00 0.114033105743D-04 0.000000000000D+00  7 1 -2 -24 -13 13 23 21 2 0.46459929D+00 0.48902925D-01 0.36612537D+06 0.36612537D+06 0.36612537D+06 0.10782090D+01  1  2 15  1  7  1        1 0.433652492435D-04 0.100000000000D+01
0.445403948607D-02 0.000000000000D+00 0.000000000000D+00 0.114033105743D-04 0.000000000000D+00  7 1 -2 -24 -13 13 23 21 2 0.48798831D+00 0.48902925D-01 0.40248632D+06 0.40248632D+06 0.40248632D+06 0.10752337D+01  1  2 12  1  7  1        1 0.101467581318D-02 0.100000000000D+01
-.406356934580D-02 0.000000000000D+00 0.000000000000D+00 0.114033105743D-04 0.000000000000D+00  7 1 -2 -24 -13 13 23 21 2 0.46459929D+00 0.48902925D-01 0.36612537D+06 0.36612537D+06 0.36612537D+06 0.10782090D+01  1  2  4  1  7  1        1 -.122344787950D-02 0.100000000000D+01
-.233539965523D-01 0.000000000000D+00 -.395576796497D-02 0.114033105743D-04 0.000000000000D+00  7 1 -2 -24 -13 13 23 21 2 0.48632575D+00 0.48902925D-01 0.36612537D+06 0.36612537D+06 0.36612537D+06 0.10782090D+01  1  2  5  1  7  1        1 -.549498235643D-02 0.100000000000D+01
0.235143536690D-01 0.000000000000D+00 0.395164015597D-02 0.114033105743D-04 0.000000000000D+00  7 1 -2 -24 -13 13 23 21 2 0.46459929D+00 0.48902925D-01 0.36612537D+06 0.36612537D+06 0.36612537D+06 0.10782090D+01  1  2  6  1  7  1        1 0.707963459855D-02 0.100000000000D+01
0.567281718013D-04 0.000000000000D+00 0.000000000000D+00 0.114033105743D-04 0.000000000000D+00  7 21 -2 -24 -13 13 23 -1 2 0.48798831D+00 0.48902925D-01 0.40248632D+06 0.40248632D+06 0.40248632D+06 0.10752337D+01  1  2 12  3  7  1        1 0.238514080113D-05 0.100000000000D+01
-.184174224258D-03 0.000000000000D+00 -.316913236433D-04 0.114033105743D-04 0.000000000000D+00  7 21 -2 -24 -13 13 23 -1 2 0.48632575D+00 0.48902925D-01 0.36612537D+06 0.36612537D+06 0.36612537D+06 0.10782090D+01  1  2  5  3  7  1        1 -.812155839257D-05 0.100000000000D+01
  </mgrwgt>
  </event>
  <event>
  8     66 0.29493621E-05 0.32904950E+03 0.75467711E-02 0.98412449E-01
        1 -1    0    0  501    0 0.00000000E+00 0.00000000E+00 0.56828040E+03 0.56828049E+03 0.32000000E+00 0.0000E+00 0.9000E+01
       -2 -1    0    0    0  501 0.00000000E+00 0.00000000E+00 -.43408658E+03 0.43408670E+03 0.32000000E+00 0.0000E+00 0.9000E+01
       25  2    1    2    0    0 0.26994051E+03 0.79178968E+02 -.27814695E+03 0.49676922E+03 0.30046089E+03 0.0000E+00 0.0000E+00
       23  2    3    3    0    0 0.90408574E+02 0.10578804E+03 -.23693266E+03 0.28951665E+03 0.91202998E+02 0.0000E+00 0.0000E+00
      -24  1    1    2    0    0 -.26994051E+03 -.79178968E+02 0.41234076E+03 0.50559797E+03 0.80419002E+02 0.0000E+00 0.9000E+01
      -13  1    4    4    0    0 0.10654107E+03 0.96729708E+02 -.18493818E+03 0.23432836E+03 0.10565837E+00 0.0000E+00 0.9000E+01
       13  1    4    4    0    0 -.16132500E+02 0.90583289E+01 -.51994477E+02 0.55188293E+02 0.10565837E+00 0.0000E+00 0.9000E+01
       23  1    3    3    0    0 0.17953193E+03 -.26609069E+02 -.41214286E+02 0.20725257E+03 0.91188000E+02 0.0000E+00 0.9000E+01
#aMCatNLO 1  0  0  2  2 0.68317194D+02 0.00000000D+00  -5  7  0 0.00000000D+00 0.00000000D+00 0.00000000D+00 0.00000000D+00 0.00000000D+00
  <mgrwgt>
 0.1437939102D-02    3    2    0
 0.496671923446504D+03 0.000000000000000D+00 0.000000000000000D+00 0.496671923446504D+03
 0.496671923446504D+03 0.000000000000000D+00 0.000000000000000D+00 -.496671923446504D+03
 0.454486365044502D+03 -.269940506920103D+03 -.791789681449498D+02 0.347783630701924D+03
 0.261441075597097D+03 0.106541237995148D+03 0.967298256804084D+02 -.218274463553724D+03
 0.627134362231803D+02 -.161326641463737D+02 0.905821120818370D+01 -.599221247968323D+02
 0.214702970028229D+03 0.179531933071328D+03 -.266090687436423D+02 -.695870423513683D+02
 0.000000000000000D+00 -.000000000000000D+00 -.000000000000000D+00 0.000000000000000D+00
 0.142041381506744D+04 0.000000000000000D+00 0.000000000000000D+00 0.142041381506744D+04
 0.499109906280853D+03 0.000000000000000D+00 0.000000000000000D+00 -.499109906280853D+03
 0.437116428429461D+03 -.244531128576142D+03 -.620856619649297D+02 0.347783630701924D+03
 0.271851645735537D+03 0.121739302226894D+03 0.106953813128672D+03 -.218274463553724D+03
 0.622887056706240D+02 -.125702855396294D+02 0.114546818116728D+02 -.599221247968323D+02
 0.224433552125629D+03 0.192046683044893D+03 -.181901908722998D+02 -.695870423513683D+02
 0.923833389387039D+03 -.566845711560154D+02 -.381326421031157D+02 0.921303908786584D+03
0.161202060989D-03 0.000000000000D+00 0.000000000000D+00 0.896384019361D-05 0.000000000000D+00  7 1 -2 -24 -13 13 23 21 0 0.87427769D-01 0.66782567D-01 0.10827358D+06 0.10827358D+06 0.10827358D+06 0.11189000D+01  1  2  2  2  7  2       -2 0.140757611888D-02 0.100000000000D+01
-.710986147871D-05 0.000000000000D+00 -.619058359674D-06 0.896384019361D-05 0.000000000000D+00  7 1 -2 -24 -13 13 23 21 2 0.87427769D-01 0.66782567D-01 0.10827358D+06 0.10827358D+06 0.10827358D+06 0.11189000D+01  1  2  3  2  7  2       -2 -.777221876908D-04 0.100000000000D+01
0.988740304836D-05 0.000000000000D+00 0.000000000000D+00 0.896384019361D-05 0.000000000000D+00  7 1 -2 -24 -13 13 23 21 2 0.87427769D-01 0.66782567D-01 0.10827358D+06 0.10827358D+06 0.10827358D+06 0.11189000D+01  1  2 15  2  7  2       -2 0.108085171251D-03 0.100000000000D+01
  </mgrwgt>
  </event>
  <event>
  8     66 0.29493621E-05 0.23185858E+03 0.75467711E-02 0.10355090E+00
        3 -1    0    0  501    0 0.00000000E+00 0.00000000E+00 0.15095480E+04 0.15095481E+04 0.50000000E+00 0.0000E+00 0.9000E+01
       -4 -1    0    0    0  501 0.00000000E+00 0.00000000E+00 -.59770093E+02 0.59790187E+02 0.15500000E+01 0.0000E+00 0.9000E+01
       25  2    1    2    0    0 0.75516402E+02 0.11356162E+03 0.46028884E+03 0.56726302E+03 0.30219622E+03 0.0000E+00 0.0000E+00
       23  2    3    3    0    0 -.27473707E+02 0.14232759E+03 0.34722883E+03 0.38689600E+03 0.90048395E+02 0.0000E+00 0.0000E+00
      -24  1    1    2    0    0 -.75516402E+02 -.11356162E+03 0.98948907E+03 0.10020753E+04 0.80419002E+02 0.0000E+00 0.9000E+01
      -11  1    4    4    0    0 -.44698747E+02 0.14061741E+03 0.26934989E+03 0.30711659E+03 0.51099893E-03 0.0000E+00 0.9000E+01
       11  1    4    4    0    0 0.17225040E+02 0.17101756E+01 0.77878937E+02 0.79779418E+02 0.51099893E-03 0.0000E+00 0.9000E+01
       23  1    3    3    0    0 0.10299011E+03 -.28765966E+02 0.11306001E+03 0.18036702E+03 0.91188000E+02 0.0000E+00 0.9000E+01
#aMCatNLO 1  0  0  1  2 0.24056355D+02 0.00000000D+00  -5  7  0 0.00000000D+00 0.00000000D+00 0.00000000D+00 0.00000000D+00 0.00000000D+00
  <mgrwgt>
 0.4444125297D-04    4    2    0
 0.300402491359139D+03 0.000000000000000D+00 0.000000000000000D+00 0.300402491359139D+03
 0.300402491359139D+03 0.000000000000000D+00 0.000000000000000D+00 -.300402491359139D+03
 0.229784454777246D+03 -.755164017139360D+02 -.113561623215187D+03 0.166537414738602D+03
 0.152249559859326D+03 -.446987473528781D+02 0.140617413242729D+03 -.375325665971009D+02
 0.204620998873413D+02 0.172250402081215D+02 0.171017559145744D+01 0.109119577104437D+02
 0.198308868194364D+03 0.102990108858693D+03 -.287659656189990D+02 -.139916805851945D+03
 0.000000000000000D+00 0.000000000000000D+00 -.000000000000000D+00 -.000000000000000D+00
 0.303721840069260D+03 0.000000000000000D+00 0.000000000000000D+00 0.303721840069260D+03
 0.347637022487033D+03 0.000000000000000D+00 0.000000000000000D+00 -.347637022487033D+03
 0.232621577603096D+03 -.847408777063124D+02 -.112826661520801D+03 0.166537414738602D+03
 0.154602830709087D+03 -.508201045839477D+02 0.141105133421762D+03 -.375325665971009D+02
 0.197964191289647D+02 0.164219284056157D+02 0.177416366098454D+01 0.109119577104437D+02
 0.194265573091443D+03 0.951586939218673D+02 -.281419963012657D+02 -.139916805851945D+03
 0.500724620237027D+02 0.239803599627772D+02 -.191063926068008D+01 -.439151824177736D+02
0.264076909351D-04 0.000000000000D+00 0.000000000000D+00 0.163943573959D-06 0.000000000000D+00  7 3 -4 -24 -11 11 23 21 0 0.23223971D+00 0.91969510D-02 0.53758402D+05 0.53758402D+05 0.53758402D+05 0.11445370D+01  1  2  2  1  7  1        3 0.541219464154D-04 0.100000000000D+01
-.134744078496D-05 0.000000000000D+00 -.101412486495D-06 0.163943573959D-06 0.000000000000D+00  7 3 -4 -24 -11 11 23 21 2 0.23223971D+00 0.91969510D-02 0.53758402D+05 0.53758402D+05 0.53758402D+05 0.11445370D+01  1  2  3  1  7  1        3 -.361753162224D-05 0.100000000000D+01
0.163673022396D-05 0.000000000000D+00 0.000000000000D+00 0.163943573959D-06 0.000000000000D+00  7 3 -4 -24 -11 11 23 21 2 0.23223971D+00 0.91969510D-02 0.53758402D+05 0.53758402D+05 0.53758402D+05 0.11445370D+01  1  2 15  1  7  1        3 0.439419929124D-05 0.100000000000D+01
-.389510758669D-05 0.000000000000D+00 0.000000000000D+00 0.163943573959D-06 0.000000000000D+00  7 3 -4 -24 -11 11 23 21 2 0.23223971D+00 0.91969510D-02 0.53758402D+05 0.53758402D+05 0.53758402D+05 0.11445370D+01  1  2  4  1  7  1        3 -.104573611131D-04 0.100000000000D+01
  </mgrwgt>
  </event>
  <event>
  8     66 0.29493621E-05 0.25005491E+03 0.75467711E-02 0.91690722E-01
        1 -1    0    0  501    0 0.00000000E+00 0.00000000E+00 0.80772773E+03 0.80772780E+03 0.32000000E+00 0.0000E+00 0.9000E+01
       -2 -1    0    0    0  501 0.00000000E+00 0.00000000E+00 -.53484528E+03 0.53484537E+03 0.32000000E+00 0.0000E+00 0.9000E+01
       25  2    1    2    0    0 0.14077057E+03 -.11018750E+03 0.74954214E+03 0.82718079E+03 0.30076070E+03 0.0000E+00 0.0000E+00
       23  2    3    3    0    0 -.17982239E+02 -.80576627E+02 0.50736656E+03 0.52215043E+03 0.91674903E+02 0.0000E+00 0.0000E+00
      -24  1    1    2    0    0 -.14077057E+03 0.11018750E+03 -.47665968E+03 0.51539238E+03 0.80419002E+02 0.0000E+00 0.9000E+01
      -11  1    4    4    0    0 0.54768907E+01 -.92259827E+02 0.32412828E+03 0.33704749E+03 0.51099893E-03 0.0000E+00 0.9000E+01
       11  1    4    4    0    0 -.23459130E+02 0.11683200E+02 0.18323829E+03 0.18510294E+03 0.51099893E-03 0.0000E+00 0.9000E+01
       23  1    3    3    0    0 0.15875281E+03 -.29610878E+02 0.24217558E+03 0.30503036E+03 0.91188000E+02 0.0000E+00 0.9000E+01
#aMCatNLO 1  0  0  1  2 0.56049815D+03 0.00000000D+00  -5  7  0 0.00000000D+00 0.00000000D+00 0.00000000D+00 0.00000000D+00 0.00000000D+00
  <mgrwgt>
 0.1333990705D-02    5    2    0
 0.657274274705081D+03 0.000000000000000D+00 0.000000000000000D+00 0.657274274705081D+03
 0.657274274705081D+03 0.000000000000000D+00 0.000000000000000D+00 -.657274274705081D+03
 0.625328028596375D+03 -.140770572086885D+03 0.110187504846145D+03 -.593809975668960D+03
 0.276948309928123D+03 0.547689071423127D+01 -.922598268354004D+02 0.261071818457010D+03
 0.151011330487506D+03 -.234591298941869D+02 0.116831997312074D+02 0.148719850740428D+03
 0.261260880398159D+03 0.158752811266841D+03 -.296108777419517D+02 0.184018306471522D+03
 0.000000000000000D+00 0.000000000000000D+00 -.000000000000000D+00 0.000000000000000D+00
 0.103506866653986D+04 0.000000000000000D+00 0.000000000000000D+00 0.103506866653986D+04
 0.959548548908836D+03 0.000000000000000D+00 0.000000000000000D+00 -.959548548908836D+03
 0.748195748072273D+03 -.262713368711535D+03 0.362906406908618D+03 -.593809975668960D+03
 0.264628470345662D+03 -.426048304000081D+02 0.738656561750477D+01 0.261071818457010D+03
 0.172998768047406D+03 -.522250662551904D+02 0.712988232462932D+02 0.148719850740428D+03
 0.243231268305854D+03 0.113963500347626D+03 0.632121982653985D+02 0.184018306471522D+03
 0.565562960677498D+03 0.243579765019107D+03 -.504803994037815D+03 0.755201176310216D+02
0.328538351136D-03 0.000000000000D+00 0.000000000000D+00 0.946832890306D-05 0.000000000000D+00  7 1 -2 -24 -11 11 23 21 0 0.12426582D+00 0.82283901D-01 0.62527456D+05 0.62527456D+05 0.62527456D+05 0.11388511D+01  1  2  2  1  7  1        1 0.110197336264D-02 0.100000000000D+01
0.247445079782D-05 0.000000000000D+00 -.126167377450D-05 0.946832890306D-05 0.000000000000D+00  7 1 -2 -24 -11 11 23 21 2 0.12426582D+00 0.82283901D-01 0.62527456D+05 0.62527456D+05 0.62527456D+05 0.11388511D+01  1  2  3  1  7  1        1 0.107645969227D-04 0.100000000000D+01
0.206172518093D-04 0.000000000000D+00 0.000000000000D+00 0.946832890306D-05 0.000000000000D+00  7 1 -2 -24 -11 11 23 21 2 0.12426582D+00 0.82283901D-01 0.62527456D+05 0.62527456D+05 0.62527456D+05 0.11388511D+01  1  2 15  1  7  1        1 0.896911773623D-04 0.100000000000D+01
0.105080988195D-03 0.000000000000D+00 -.995429000152D-04 0.946832890306D-05 0.000000000000D+00  7 1 -2 -24 -11 11 23 21 2 0.25063377D+00 0.82283901D-01 0.62527456D+05 0.62527456D+05 0.62527456D+05 0.11388511D+01  1  2  5  1  7  1        1 0.119746995417D-03 0.100000000000D+01
0.139859938192D-04 0.000000000000D+00 -.755410106108D-05 0.946832890306D-05 0.000000000000D+00  7 21 -2 -24 -11 11 23 -1 2 0.25063377D+00 0.82283901D-01 0.62527456D+05 0.62527456D+05 0.62527456D+05 0.11388511D+01  1  2  5  3  7  1        1 0.118145723624D-04 0.100000000000D+01
  </mgrwgt>
  </event>
  <event>
  8     66 0.29493621E-05 0.27385160E+03 0.75467711E-02 0.92746813E-01
        1 -1    0    0  501    0 0.00000000E+00 0.00000000E+00 0.98563031E+03 0.98563036E+03 0.32000000E+00 0.0000E+00 0.9000E+01
       -2 -1    0    0    0  501 0.00000000E+00 0.00000000E+00 -.10335662E+03 0.10335712E+03 0.32000000E+00 0.0000E+00 0.9000E+01
       25  2    1    2    0    0 0.24110585E+02 0.23534890E+03 0.45427780E+03 0.59338873E+03 0.29961883E+03 0.0000E+00 0.0000E+00
       23  2    3    3    0    0 0.29058900E+02 0.16081697E+03 0.95849520E+02 0.21607510E+03 0.10389803E+03 0.0000E+00 0.0000E+00
      -24  1    1    2    0    0 -.24110585E+02 -.23534890E+03 0.42799588E+03 0.49559874E+03 0.80419002E+02 0.0000E+00 0.9000E+01
      -11  1    4    4    0    0 -.25073808E+02 0.35689085E+02 0.61644129E+02 0.75514272E+02 0.51099893E-03 0.0000E+00 0.9000E+01
       11  1    4    4    0    0 0.54132708E+02 0.12512788E+03 0.34205391E+02 0.14056082E+03 0.51099893E-03 0.0000E+00 0.9000E+01
       23  1    3    3    0    0 -.49483149E+01 0.74531932E+02 0.35842828E+03 0.37731363E+03 0.91188000E+02 0.0000E+00 0.9000E+01
#aMCatNLO 1  0  0  2  1 0.45588185D+03 0.00000000D+00  -5  7  0 0.00000000D+00 0.00000000D+00 0.00000000D+00 0.00000000D+00 0.00000000D+00
  <mgrwgt>
 0.1432081067D-02    3    2    0
 0.319173490261382D+03 0.000000000000000D+00 0.000000000000000D+00 0.319173490261382D+03
 0.319173490261382D+03 0.000000000000000D+00 0.000000000000000D+00 -.319173490261382D+03
 0.253923533675564D+03 -.241105852665080D+02 -.235348897106997D+03 0.451610596481224D+02
 0.436237723647102D+02 -.250738080858393D+02 0.356890844659543D+02 0.791778620912439D+00
 0.192513577787720D+03 0.541327082944028D+02 0.125127880677674D+03 -.135919612280404D+03
 0.148286096694770D+03 -.494831494205548D+01 0.745319319633684D+02 0.899667740113695D+02
 0.000000000000000D+00 0.000000000000000D+00 -.000000000000000D+00 0.000000000000000D+00
 0.777875003256034D+03 0.000000000000000D+00 0.000000000000000D+00 0.777875003256034D+03
 0.526930885839469D+03 0.000000000000000D+00 0.000000000000000D+00 -.526930885839469D+03
 0.157909449588073D+03 -.656357455577050D+02 -.110093623391096D+03 0.451610596481224D+02
 0.834340074703942D+02 -.378850565489543D+02 0.743325580043348D+02 0.791778620912439D+00
 0.309222658510388D+03 0.354259413921027D+01 0.277726414949211D+03 -.135919612280404D+03
 0.233854135290784D+03 -.434795521954765D+02 0.190756424173521D+03 0.899667740113695D+02
 0.520385638235863D+03 0.143457760162926D+03 -.432721773735971D+03 0.250944117416565D+03
0.280692010152D-04 0.000000000000D+00 0.000000000000D+00 0.294803356646D-07 0.000000000000D+00  7 1 -2 -24 -11 11 23 21 0 0.15163547D+00 0.15901061D-01 0.74994697D+05 0.74994697D+05 0.74994697D+05 0.11321238D+01  1  2  2  2  7  2       -2 0.141301522125D-02 0.100000000000D+01
-.151493034042D-05 0.000000000000D+00 -.107793122689D-06 0.294803356646D-07 0.000000000000D+00  7 1 -2 -24 -11 11 23 21 2 0.15163547D+00 0.15901061D-01 0.74994697D+05 0.74994697D+05 0.74994697D+05 0.11321238D+01  1  2  3  2  7  2       -2 -.977456190585D-04 0.100000000000D+01
0.181042621856D-05 0.000000000000D+00 0.000000000000D+00 0.294803356646D-07 0.000000000000D+00  7 1 -2 -24 -11 11 23 21 2 0.15163547D+00 0.15901061D-01 0.74994697D+05 0.74994697D+05 0.74994697D+05 0.11321238D+01  1  2 15  2  7  2       -2 0.116811464376D-03 0.100000000000D+01
  </mgrwgt>
  </event>
  <event>
  9     66 0.29493621E-05 0.20126714E+03 0.75467711E-02 0.10567216E+00
        1 -1    0    0  501    0 0.00000000E+00 0.00000000E+00 0.10721382E+04 0.10721383E+04 0.32000000E+00 0.0000E+00 0.9000E+01
       -2 -1    0    0    0  502 0.00000000E+00 0.00000000E+00 -.10748191E+03 0.10748238E+03 0.32000000E+00 0.0000E+00 0.9000E+01
       25  2    1    2    0    0 -.18123087E+02 0.11291851E+03 0.94031857E+03 0.99362565E+03 0.30002314E+03 0.0000E+00 0.0000E+00
       23  2    3    3    0    0 0.26608259E+02 0.13275267E+03 0.81452193E+03 0.83073202E+03 0.91315146E+02 0.0000E+00 0.0000E+00
      -24  1    1    2    0    0 0.20101816E+01 -.10895287E+03 -.21601912E+02 0.13714455E+03 0.80419002E+02 0.0000E+00 0.9000E+01
      -11  1    4    4    0    0 0.60139309E+02 0.97790697E+02 0.56213740E+03 0.57374055E+03 0.51099893E-03 0.0000E+00 0.9000E+01
       11  1    4    4    0    0 -.33531050E+02 0.34961975E+02 0.25238453E+03 0.25699148E+03 0.51099893E-03 0.0000E+00 0.9000E+01
       23  1    3    3    0    0 -.44731346E+02 -.19834160E+02 0.12579665E+03 0.16289363E+03 0.91188000E+02 0.0000E+00 0.9000E+01
       21  1    1    2  501  502 0.16112906E+02 -.39656461E+01 0.45939640E+02 0.48850436E+02 0.75000000E+00 0.0000E+00 0.9000E+01
#aMCatNLO 2  0  0  2  1 0.16593736D+02 0.00000000D+00  -5  7  0 0.00000000D+00 0.00000000D+00 0.00000000D+00 0.00000000D+00 0.00000000D+00
  <mgrwgt>
 0.5343548532D-03    2    2    0
 0.329516915773997D+03 0.000000000000000D+00 0.000000000000000D+00 0.329516915773997D+03
 0.329516915773997D+03 0.000000000000000D+00 0.000000000000000D+00 -.329516915773997D+03
 0.266131193935786D+03 0.850622601498642D+01 -.110551648141162D+03 -.228176628171185D+03
 0.201666327099780D+03 0.650575678279345D+02 0.965802341216142D+02 0.164648348704878D+03
 0.880827422257908D+02 -.313655846079292D+02 0.344290194078093D+02 0.747623715704273D+02
 0.103153568286637D+03 -.421982092349917D+02 -.204576053882617D+02 -.112340921041210D+02
 0.000000000000000D+00 0.000000000000000D+00 -.000000000000000D+00 0.000000000000000D+00
 0.344859259579360D+03 0.000000000000000D+00 0.000000000000000D+00 0.344859259579360D+03
 0.334138902846777D+03 0.000000000000000D+00 0.000000000000000D+00 -.334138902846777D+03
 0.265342340402955D+03 0.201018162134148D+01 -.108952866793055D+03 -.228176628171185D+03
 0.200720790180597D+03 0.601393086703334D+02 0.977906970633420D+02 0.164648348704878D+03
 0.890846970048504D+02 -.335310500092922D+02 0.349619753859205D+02 0.747623715704273D+02
 0.104094876733211D+03 -.447313459057346D+02 -.198341595778621D+02 -.112340921041210D+02
 0.197554581045233D+02 0.161129056233519D+02 -.396564607834495D+01 0.107203567325829D+02
-.559725010227D-05 0.000000000000D+00 0.000000000000D+00 0.658478483813D-05 0.000000000000D+00  7 1 -2 -24 -11 11 23 21 2 0.15760288D+00 0.16306643D-01 0.40508464D+05 0.40508464D+05 0.40508464D+05 0.11554249D+01  1  2  8  2  7  2       -2 -.340435570538D-03 0.100000000000D+01
0.160294263516D-04 0.000000000000D+00 0.000000000000D+00 0.658478483813D-05 0.169496790475D-06  7 1 -2 -24 -11 11 23 21 2 0.16494089D+00 0.16535369D-01 0.43839731D+05 0.43839731D+05 0.43839731D+05 0.11523522D+01  1  2  1  2  7  2       -2 0.874790423740D-03 0.100000000000D+01
  </mgrwgt>
  </event>
  <event>
  8     66 0.29493621E-05 0.25153194E+03 0.75467711E-02 0.93488944E-01
        1 -1    0    0  501    0 0.00000000E+00 0.00000000E+00 0.18482982E+03 0.18483010E+03 0.32000000E+00 0.0000E+00 0.9000E+01
       -2 -1    0    0    0  501 0.00000000E+00 0.00000000E+00 -.44990722E+03 0.44990733E+03 0.32000000E+00 0.0000E+00 0.9000E+01
       25  2    1    2    0    0 0.66109174E+02 -.14733269E+03 -.29637663E+03 0.45164128E+03 0.30010564E+03 0.0000E+00 0.0000E+00
       23  2    3    3    0    0 -.69491813E+02 -.12643413E+02 -.16676087E+03 0.20335853E+03 0.92501532E+02 0.0000E+00 0.0000E+00
      -24  1    1    2    0    0 -.66109174E+02 0.14733269E+03 0.31299228E+02 0.18309616E+03 0.80419002E+02 0.0000E+00 0.9000E+01
      -13  1    4    4    0    0 -.51371001E+02 -.48547104E+02 -.74400835E+02 0.10262210E+03 0.10565837E+00 0.0000E+00 0.9000E+01
       13  1    4    4    0    0 -.18120813E+02 0.35903691E+02 -.92360037E+02 0.10073642E+03 0.10565837E+00 0.0000E+00 0.9000E+01
       23  1    3    3    0    0 0.13560099E+03 -.13468928E+03 -.12961575E+03 0.24828275E+03 0.91188000E+02 0.0000E+00 0.9000E+01
#aMCatNLO 1  0  0  2  1 0.43060845D+03 0.00000000D+00  -5  7  0 0.00000000D+00 0.00000000D+00 0.00000000D+00 0.00000000D+00 0.00000000D+00
  <mgrwgt>
 0.8715040328D-03    3    2    0
 0.288368506034628D+03 0.000000000000000D+00 0.000000000000000D+00 0.288368506034628D+03
 0.288368506034628D+03 0.000000000000000D+00 0.000000000000000D+00 -.288368506034628D+03
 0.215895112423353D+03 -.661091745264013D+02 0.147332690817177D+03 0.118600754103545D+03
 0.787466692748879D+02 -.513710437917231D+02 -.485472120008056D+02 -.347163072429411D+02
 0.684169903394162D+02 -.181207703026526D+02 0.359037997363485D+02 -.553483460930356D+02
 0.213678240031598D+03 0.135600988620777D+03 -.134689278552720D+03 -.285361007675687D+02
 0.000000000000000D+00 0.000000000000000D+00 -.000000000000000D+00 0.000000000000000D+00
 0.636832959679898D+03 0.000000000000000D+00 0.000000000000000D+00 0.636832959679898D+03
 0.527255361598085D+03 0.000000000000000D+00 0.000000000000000D+00 -.527255361598085D+03
 0.389998040100447D+03 -.146995722558739D+03 0.331598211701035D+03 0.118600754103545D+03
 0.805011591458961D+02 -.726305795183579D+02 -.116421965715567D+00 -.347163072429411D+02
 0.115367186826323D+03 -.426559009803611D+02 0.917966366079879D+02 -.553483460930356D+02
 0.133889976135878D+03 0.892007395101222D+02 -.289860895861518D+02 -.285361007675687D+02
 0.444331959069438D+03 0.173081463547335D+03 -.394292336757155D+03 0.109577598081812D+03
0.237065360399D-04 0.000000000000D+00 0.000000000000D+00 0.134527118367D-05 0.000000000000D+00  7 1 -2 -24 -13 13 23 21 0 0.28435387D-01 0.69216525D-01 0.63268317D+05 0.63268317D+05 0.63268317D+05 0.11384116D+01  1  2  2  2  7  2       -2 0.859491234264D-03 0.100000000000D+01
-.128711963653D-05 0.000000000000D+00 -.910393404674D-07 0.134527118367D-05 0.000000000000D+00  7 1 -2 -24 -13 13 23 21 2 0.28435387D-01 0.69216525D-01 0.63268317D+05 0.63268317D+05 0.63268317D+05 0.11384116D+01  1  2  3  2  7  2       -2 -.604770878550D-04 0.100000000000D+01
0.154278520162D-05 0.000000000000D+00 0.000000000000D+00 0.134527118367D-05 0.000000000000D+00  7 1 -2 -24 -13 13 23 21 2 0.28435387D-01 0.69216525D-01 0.63268317D+05 0.63268317D+05 0.63268317D+05 0.11384116D+01  1  2 15  2  7  2       -2 0.724898863570D-04 0.100000000000D+01
  </mgrwgt>
  </event>
  <event>
  8     66 0.29493621E-05 0.18446128E+03 0.75467711E-02 0.10258114E+00
        1 -1    0    0  501    0 0.00000000E+00 0.00000000E+00 0.98063834E+03 0.98063839E+03 0.32000000E+00 0.0000E+00 0.9000E+01
       -2 -1    0    0    0  501 0.00000000E+00 0.00000000E+00 -.11237177E+03 0.11237223E+03 0.32000000E+00 0.0000E+00 0.9000E+01
       25  2    1    2    0    0 -.15148870E+02 0.94560372E+02 0.12377275E+03 0.33808717E+03 0.29968665E+03 0.0000E+00 0.0000E+00
       23  2    3    3    0    0 -.76204441E+02 0.10789067E+03 0.15445508E+03 0.22336082E+03 0.92661597E+02 0.0000E+00 0.0000E+00
      -24  1    1    2    0    0 0.15148870E+02 -.94560372E+02 0.74449381E+03 0.75492344E+03 0.80419002E+02 0.0000E+00 0.9000E+01
      -11  1    4    4    0    0 -.26627387E+02 0.23846780E+02 -.53276673E+01 0.36139600E+02 0.51099893E-03 0.0000E+00 0.9000E+01
       11  1    4    4    0    0 -.49577054E+02 0.84043890E+02 0.15978275E+03 0.18722122E+03 0.51099893E-03 0.0000E+00 0.9000E+01
       23  1    3    3    0    0 0.61055571E+02 -.13330299E+02 -.30682326E+02 0.11472635E+03 0.91188000E+02 0.0000E+00 0.9000E+01
#aMCatNLO 1  0  0  2  2 0.14748357D+03 0.00000000D+00  -5  7  0 0.00000000D+00 0.00000000D+00 0.00000000D+00 0.00000000D+00 0.00000000D+00
  <mgrwgt>
 0.1358575667D-02    4    2    0
 0.331958348809071D+03 0.000000000000000D+00 0.000000000000000D+00 0.331958348809071D+03
 0.331958348809071D+03 0.000000000000000D+00 0.000000000000000D+00 -.331958348809071D+03
 0.269190779171854D+03 0.151488699026652D+02 -.945603723014147D+02 0.238380593521514D+03
 0.664643655169719D+02 -.266273867832794D+02 0.238467804019324D+02 -.560341433514361D+02
 0.992605953874597D+02 -.495770539879139D+02 0.840438904106246D+02 0.182045598463511D+02
 0.229000957541858D+03 0.610555708685282D+02 -.133302985111423D+02 -.200551010016429D+03
 0.000000000000000D+00 0.000000000000000D+00 -.000000000000000D+00 0.000000000000000D+00
 0.506961787169436D+03 0.000000000000000D+00 0.000000000000000D+00 0.506961787169436D+03
 0.372629532791515D+03 0.000000000000000D+00 0.000000000000000D+00 -.372629532791515D+03
 0.265338497144051D+03 -.398961612908997D+02 -.742986612185865D+02 0.238380593521514D+03
 0.754653562652950D+02 -.412430987918799D+02 0.292267271031472D+02 -.560341433514361D+02
 0.118464543939305D+03 -.719980655524557D+02 0.922969161361982D+02 0.182045598463511D+02
 0.220832173114965D+03 0.147324229961372D+02 0.372094513947873D+01 -.200551010016429D+03
 0.199490749497336D+03 0.138404902639098D+03 -.509459271602376D+02 0.134332254377921D+03
0.338546128794D-04 0.000000000000D+00 0.000000000000D+00 0.240199341775D-05 0.000000000000D+00  7 1 -2 -24 -11 11 23 21 0 0.15086748D+00 0.17288004D-01 0.34025964D+05 0.34025964D+05 0.34025964D+05 0.11622955D+01  1  2  2  2  7  2       -2 0.151676030608D-02 0.100000000000D+01
-.109132305154D-05 0.000000000000D+00 -.130010627581D-06 0.240199341775D-05 0.000000000000D+00  7 1 -2 -24 -11 11 23 21 2 0.15086748D+00 0.17288004D-01 0.34025964D+05 0.34025964D+05 0.34025964D+05 0.11622955D+01  1  2  3  2  7  2       -2 -.660519373289D-04 0.100000000000D+01
0.208880834793D-05 0.000000000000D+00 0.000000000000D+00 0.240199341775D-05 0.000000000000D+00  7 1 -2 -24 -11 11 23 21 2 0.15086748D+00 0.17288004D-01 0.34025964D+05 0.34025964D+05 0.34025964D+05 0.11622955D+01  1  2 15  2  7  2       -2 0.126424378094D-03 0.100000000000D+01
-.361104290172D-05 0.000000000000D+00 0.000000000000D+00 0.240199341775D-05 0.000000000000D+00  7 1 -2 -24 -11 11 23 21 2 0.15086748D+00 0.17288004D-01 0.34025964D+05 0.34025964D+05 0.34025964D+05 0.11622955D+01  1  2  4  2  7  2       -2 -.218557079960D-03 0.100000000000D+01
  </mgrwgt>
  </event>
  <event>
  8     66 0.29493621E-05 0.35005400E+03 0.75467711E-02 0.91551940E-01
        1 -1    0    0  501    0 0.00000000E+00 0.00000000E+00 0.49726972E+03 0.49726982E+03 0.32000000E+00 0.0000E+00 0.9000E+01
       -2 -1    0    0    0  501 0.00000000E+00 0.00000000E+00 -.72136480E+03 0.72136487E+03 0.32000000E+00 0.0000E+00 0.9000E+01
       25  2    1    2    0    0 -.48772045E+03 0.26942131E+03 -.15575881E+03 0.65154022E+03 0.29964107E+03 0.0000E+00 0.0000E+00
       23  2    3    3    0    0 -.22541788E+03 0.78686005E+02 0.45638843E+02 0.25903690E+03 0.89512573E+02 0.0000E+00 0.0000E+00
      -24  1    1    2    0    0 0.48772045E+03 -.26942131E+03 -.68336273E+02 0.56709447E+03 0.80419002E+02 0.0000E+00 0.9000E+01
      -11  1    4    4    0    0 -.53304079E+02 -.45807752E+01 -.19656573E+02 0.56997274E+02 0.51099893E-03 0.0000E+00 0.9000E+01
       11  1    4    4    0    0 -.17211380E+03 0.83266781E+02 0.65295416E+02 0.20203962E+03 0.51099893E-03 0.0000E+00 0.9000E+01
       23  1    3    3    0    0 -.26230257E+03 0.19073530E+03 -.20139765E+03 0.39250332E+03 0.91188000E+02 0.0000E+00 0.9000E+01
#aMCatNLO 1  0  0  1  2 0.16496675D+03 0.00000000D+00  -5  7  0 0.00000000D+00 0.00000000D+00 0.00000000D+00 0.00000000D+00 0.00000000D+00
  <mgrwgt>
 0.1588994350D-02    9    2    0
 0.598926519533387D+03 0.000000000000000D+00 0.000000000000000D+00 0.598926519533387D+03
 0.598926519533387D+03 0.000000000000000D+00 0.000000000000000D+00 -.598926519533387D+03
 0.564148649268587D+03 0.487720450198786D+03 -.269421307366503D+03 0.365705361188364D+02
 0.543087604656304D+02 -.533040791971664D+02 -.458077523598851D+01 -.933451136872039D+01
 0.217760330848861D+03 -.172113802458209D+03 0.832667805887068D+02 0.104225927413356D+03
 0.361635298483695D+03 -.262302568543411D+03 0.190735302013785D+03 -.131461952163472D+03
 0.000000000000000D+00 -.000000000000000D+00 -.000000000000000D+00 0.000000000000000D+00
 0.725969861915873D+03 0.000000000000000D+00 0.000000000000000D+00 0.725969861915873D+03
 0.660626150131866D+03 0.000000000000000D+00 0.000000000000000D+00 -.660626150131866D+03
 0.544923573936665D+03 0.501256603604717D+03 -.194625020766040D+03 0.365705361188364D+02
 0.528933024430771D+02 -.519956850830565D+02 0.264897595037459D+01 -.933451136872039D+01
 0.226878692268261D+03 -.166687012478939D+03 0.113253419069926D+03 0.104225927413356D+03
 0.384463614712983D+03 -.253196480469325D+03 0.241052519392535D+03 -.131461952163472D+03
 0.177436828686752D+03 -.293774255733973D+02 -.162329893646796D+03 0.653437117840066D+02
0.345433862841D-03 0.000000000000D+00 0.000000000000D+00 0.445389506393D-05 0.000000000000D+00  7 1 -2 -24 -11 11 23 21 0 0.76503047D-01 0.11097921D+00 0.32750132D+06 0.32750132D+06 0.32750132D+06 0.10817449D+01  1  2  2  1  7  1        1 0.109215344555D-02 0.100000000000D+01
-.191424322800D-04 0.000000000000D+00 -.132655698814D-05 0.445389506393D-05 0.000000000000D+00  7 1 -2 -24 -11 11 23 21 2 0.76503047D-01 0.11097921D+00 0.32750132D+06 0.32750132D+06 0.32750132D+06 0.10817449D+01  1  2  3  1  7  1        1 -.708215712805D-04 0.100000000000D+01
0.218270205050D-04 0.000000000000D+00 0.000000000000D+00 0.445389506393D-05 0.000000000000D+00  7 1 -2 -24 -11 11 23 21 2 0.76503047D-01 0.11097921D+00 0.32750132D+06 0.32750132D+06 0.32750132D+06 0.10817449D+01  1  2 15  1  7  1        1 0.807537864531D-04 0.100000000000D+01
0.304796781260D-03 0.000000000000D+00 0.000000000000D+00 0.445389506393D-05 0.000000000000D+00  7 1 -2 -24 -11 11 23 21 2 0.96014888D-01 0.11097921D+00 0.43793672D+06 0.43793672D+06 0.43793672D+06 0.10726023D+01  1  2 12  1  7  1        1 0.790431135957D-03 0.100000000000D+01
-.309424061686D-03 0.000000000000D+00 0.000000000000D+00 0.445389506393D-05 0.000000000000D+00  7 1 -2 -24 -11 11 23 21 2 0.76503047D-01 0.11097921D+00 0.32750132D+06 0.32750132D+06 0.32750132D+06 0.10817449D+01  1  2  4  1  7  1        1 -.114478128589D-02 0.100000000000D+01
-.641473103600D-03 0.000000000000D+00 -.194949280073D-03 0.445389506393D-05 0.000000000000D+00  7 1 -2 -24 -11 11 23 21 2 0.10006139D+00 0.11097921D+00 0.32750132D+06 0.32750132D+06 0.32750132D+06 0.10817449D+01  1  2  5  1  7  1        1 -.161094130573D-02 0.100000000000D+01
0.676118047444D-03 0.000000000000D+00 0.188129489299D-03 0.445389506393D-05 0.000000000000D+00  7 1 -2 -24 -11 11 23 21 2 0.76503047D-01 0.11097921D+00 0.32750132D+06 0.32750132D+06 0.32750132D+06 0.10817449D+01  1  2  6  1  7  1        1 0.250144505101D-02 0.100000000000D+01
0.960659839431D-05 0.000000000000D+00 0.000000000000D+00 0.445389506393D-05 0.000000000000D+00  7 21 -2 -24 -11 11 23 -1 2 0.96014888D-01 0.11097921D+00 0.43793672D+06 0.43793672D+06 0.43793672D+06 0.10726023D+01  1  2 12  3  7  1        1 0.566414124984D-04 0.100000000000D+01
-.192070388721D-04 0.000000000000D+00 -.695174830804D-05 0.445389506393D-05 0.000000000000D+00  7 21 -2 -24 -11 11 23 -1 2 0.10006139D+00 0.11097921D+00 0.32750132D+06 0.32750132D+06 0.32750132D+06 0.10817449D+01  1  2  5  3  7  1        1 -.105886318689D-03 0.100000000000D+01
  </mgrwgt>
  </event>
  <event>
  8     66 0.29493621E-05 0.27216090E+03 0.75467711E-02 0.95974048E-01
        1 -1    0    0  501    0 0.00000000E+00 0.00000000E+00 0.11217246E+04 0.11217247E+04 0.32000000E+00 0.0000E+00 0.9000E+01
       -2 -1    0    0    0  501 0.00000000E+00 0.00000000E+00 -.71583703E+02 0.71584418E+02 0.32000000E+00 0.0000E+00 0.9000E+01
       25  2    1    2    0    0 -.17790136E+03 -.59520824E+02 0.52773597E+03 0.63244745E+03 0.29375654E+03 0.0000E+00 0.0000E+00
       23  2    3    3    0    0 -.21122319E+03 0.71600954E+01 0.35339876E+03 0.42205401E+03 0.92587222E+02 0.0000E+00 0.0000E+00
      -24  1    1    2    0    0 0.17790136E+03 0.59520824E+02 0.52240496E+03 0.56086165E+03 0.80419002E+02 0.0000E+00 0.9000E+01
      -11  1    4    4    0    0 -.20778551E+03 0.20375764E+02 0.29082295E+03 0.35800555E+03 0.51099893E-03 0.0000E+00 0.9000E+01
       11  1    4    4    0    0 -.34376853E+01 -.13215669E+02 0.62575816E+02 0.64048453E+02 0.51099893E-03 0.0000E+00 0.9000E+01
       23  1    3    3    0    0 0.33321831E+02 -.66680920E+02 0.17433721E+03 0.21039345E+03 0.91188000E+02 0.0000E+00 0.9000E+01
#aMCatNLO 1  0  0  1  2 0.27993767D+03 0.00000000D+00  -5  7  0 0.00000000D+00 0.00000000D+00 0.00000000D+00 0.00000000D+00 0.00000000D+00
  <mgrwgt>
 0.3730118100D-02    3    2    0
 0.283368411430799D+03 0.000000000000000D+00 0.000000000000000D+00 0.283368411430799D+03
 0.283368411430799D+03 0.000000000000000D+00 0.000000000000000D+00 -.283368411430799D+03
 0.212942700082323D+03 0.177901363621077D+03 0.595208244631062D+02 0.607104096590770D+02
 0.214925514980003D+03 -.207785509593432D+03 0.203757642939940D+02 -.510194788473262D+02
 0.189085577192690D+02 -.343768528081951D+01 -.132156688996241D+02 0.130790661160677D+02
 0.119960050080004D+03 0.333218312531748D+02 -.666809198574761D+02 -.227699969278184D+02
 0.000000000000000D+00 0.000000000000000D+00 -.000000000000000D+00 -.000000000000000D+00
 0.441570767853075D+03 0.000000000000000D+00 0.000000000000000D+00 0.441570767853075D+03
 0.472134668230921D+03 0.000000000000000D+00 0.000000000000000D+00 -.472134668230921D+03
 0.246161796919553D+03 0.153535526343087D+03 0.163919195391727D+03 0.607104096590770D+02
 0.272843480064955D+03 -.233672644309226D+03 0.131292317725132D+03 -.510194788473262D+02
 0.151184166036914D+02 -.524358290288574D+01 -.547808255458653D+01 0.130790661160677D+02
 0.979805123695992D+02 0.217551741727085D+02 -.171221814273603D+02 -.227699969278184D+02
 0.281601230126197D+03 0.636255266963162D+02 -.272611249134912D+03 -.305639003778451D+02
0.517516720720D-04 0.000000000000D+00 0.000000000000D+00 0.110354625270D-07 0.000000000000D+00  7 1 -2 -24 -11 11 23 21 0 0.17257308D+00 0.11012936D-01 0.74071554D+05 0.74071554D+05 0.74071554D+05 0.11325782D+01  1  2  2  1  7  1        1 0.369355408742D-02 0.100000000000D+01
-.286940022465D-05 0.000000000000D+00 -.198740047284D-06 0.110354625270D-07 0.000000000000D+00  7 1 -2 -24 -11 11 23 21 2 0.17257308D+00 0.11012936D-01 0.74071554D+05 0.74071554D+05 0.74071554D+05 0.11325782D+01  1  2  3  1  7  1        1 -.262692469215D-03 0.100000000000D+01
0.326879038264D-05 0.000000000000D+00 0.000000000000D+00 0.110354625270D-07 0.000000000000D+00  7 1 -2 -24 -11 11 23 21 2 0.17257308D+00 0.11012936D-01 0.74071554D+05 0.74071554D+05 0.74071554D+05 0.11325782D+01  1  2 15  1  7  1        1 0.299256482099D-03 0.100000000000D+01
  </mgrwgt>
  </event>
  <event>
  8     66 0.29493621E-05 0.78485261E+02 0.75467711E-02 0.10053718E+00
        1 -1    0    0  501    0 0.00000000E+00 0.00000000E+00 0.10750598E+04 0.10750599E+04 0.32000000E+00 0.0000E+00 0.9000E+01
       -2 -1    0    0    0  501 0.00000000E+00 0.00000000E+00 -.11358935E+03 0.11358980E+03 0.32000000E+00 0.0000E+00 0.9000E+01
       25  2    1    2    0    0 -.66641982E+02 0.12244889E+03 0.15384033E+03 0.36513976E+03 0.30037529E+03 0.0000E+00 0.0000E+00
       23  2    3    3    0    0 -.91939462E+02 0.17760277E+03 0.11692694E+03 0.24955532E+03 0.92791941E+02 0.0000E+00 0.0000E+00
      -24  1    1    2    0    0 0.66641982E+02 -.12244889E+03 0.80763018E+03 0.82350993E+03 0.80419002E+02 0.0000E+00 0.9000E+01
      -13  1    4    4    0    0 -.18241089E+02 0.65492837E+02 -.51276971E+01 0.68178834E+02 0.10565837E+00 0.0000E+00 0.9000E+01
       13  1    4    4    0    0 -.73698372E+02 0.11210993E+03 0.12205463E+03 0.18137649E+03 0.10565837E+00 0.0000E+00 0.9000E+01
       23  1    3    3    0    0 0.25297480E+02 -.55153878E+02 0.36913389E+02 0.11558444E+03 0.91188000E+02 0.0000E+00 0.9000E+01
#aMCatNLO 1  0  0  2  1 0.11805575D+03 0.00000000D+00  -5  7  0 0.00000000D+00 0.00000000D+00 0.00000000D+00 0.00000000D+00 0.00000000D+00
  <mgrwgt>
 0.6875334241D-03    9    2    0
 0.349450483315450D+03 0.000000000000000D+00 0.000000000000000D+00 0.349450483315450D+03
 0.349450483315450D+03 0.000000000000000D+00 0.000000000000000D+00 -.349450483315450D+03
 0.289529189508592D+03 0.666419819470560D+02 -.122448887922548D+03 0.240676238361478D+03
 0.123008649174856D+03 -.182410178403557D+02 0.654927769058166D+02 -.102513848884605D+03
 0.140565257412663D+03 -.736984437950790D+02 0.112109989296397D+03 -.419342494106373D+02
 0.145797870534789D+03 0.252974796883787D+02 -.551538782796662D+02 -.962281400662357D+02
 0.000000000000000D+00 -.000000000000000D+00 0.000000000000000D+00 -.000000000000000D+00
 0.379999193329778D+03 0.000000000000000D+00 0.000000000000000D+00 0.379999193329778D+03
 0.490514443580848D+03 0.000000000000000D+00 0.000000000000000D+00 -.490514443580848D+03
 0.309270954717828D+03 0.115560480842921D+03 -.133798471714845D+03 0.240676238361478D+03
 0.119249442093066D+03 0.155006318136682D+01 0.609010470394862D+02 -.102513848884605D+03
 0.126149807047025D+03 -.519093699077683D+02 0.107054704988368D+03 -.419342494106373D+02
 0.154131404952267D+03 0.497999619827103D+02 -.608387006310388D+02 -.962281400662357D+02
 0.161712028100440D+03 -.115001136099230D+03 0.266814203180296D+02 -.110515250251070D+03
0.213336413892D-04 0.000000000000D+00 0.000000000000D+00 0.175372117658D-05 0.000000000000D+00  7 1 -2 -24 -13 13 23 21 0 0.16539386D+00 0.17475322D-01 0.55843108D+05 0.55843108D+05 0.55843108D+05 0.11430972D+01  1  2  2  2  7  2       -2 0.795596116523D-03 0.100000000000D+01
-.964657662679D-06 0.000000000000D+00 -.819268002113D-07 0.175372117658D-05 0.000000000000D+00  7 1 -2 -24 -13 13 23 21 2 0.16539386D+00 0.17475322D-01 0.55843108D+05 0.55843108D+05 0.55843108D+05 0.11430972D+01  1  2  3  2  7  2       -2 -.470075013700D-04 0.100000000000D+01
0.131036088722D-05 0.000000000000D+00 0.000000000000D+00 0.175372117658D-05 0.000000000000D+00  7 1 -2 -24 -13 13 23 21 2 0.16539386D+00 0.17475322D-01 0.55843108D+05 0.55843108D+05 0.55843108D+05 0.11430972D+01  1  2 15  2  7  2       -2 0.638535239849D-04 0.100000000000D+01
0.143190965674D-04 0.000000000000D+00 0.000000000000D+00 0.175372117658D-05 0.000000000000D+00  7 1 -2 -24 -13 13 23 21 2 0.16539386D+00 0.25054352D-01 0.93813509D+05 0.93813509D+05 0.93813509D+05 0.11240051D+01  1  2 12  2  7  2       -2 0.367668318151D-03 0.100000000000D+01
-.229623337743D-04 0.000000000000D+00 0.000000000000D+00 0.175372117658D-05 0.000000000000D+00  7 1 -2 -24 -13 13 23 21 2 0.16539386D+00 0.17475322D-01 0.55843108D+05 0.55843108D+05 0.55843108D+05 0.11430972D+01  1  2  4  2  7  2       -2 -.111894818039D-02 0.100000000000D+01
-.240695759459D-04 0.000000000000D+00 -.879582471228D-05 0.175372117658D-05 0.000000000000D+00  7 1 -2 -24 -13 13 23 21 2 0.16539386D+00 0.26524168D-01 0.55843108D+05 0.55843108D+05 0.55843108D+05 0.11430972D+01  1  2  5  2  7  2       -2 -.587079770744D-03 0.100000000000D+01
0.261443952629D-04 0.000000000000D+00 0.808197477039D-05 0.175372117658D-05 0.000000000000D+00  7 1 -2 -24 -13 13 23 21 2 0.16539386D+00 0.17475322D-01 0.55843108D+05 0.55843108D+05 0.55843108D+05 0.11430972D+01  1  2  6  2  7  2       -2 0.127400915753D-02 0.100000000000D+01
0.631607339897D-06 0.000000000000D+00 0.000000000000D+00 0.175372117658D-05 0.000000000000D+00  7 1 21 -24 -13 13 23 2 2 0.16539386D+00 0.25054352D-01 0.93813509D+05 0.93813509D+05 0.93813509D+05 0.11240051D+01  1  2 12  4  7  2       -2 0.199611633946D-03 0.100000000000D+01
-.864289399472D-06 0.000000000000D+00 -.431932016227D-06 0.175372117658D-05 0.000000000000D+00  7 1 21 -24 -13 13 23 2 2 0.16539386D+00 0.26524168D-01 0.55843108D+05 0.55843108D+05 0.55843108D+05 0.11430972D+01  1  2  5  4  7  2       -2 -.260169873526D-03 0.100000000000D+01
  </mgrwgt>
  </event>
  <event>
  8     66 0.29493621E-05 0.23827614E+03 0.75467711E-02 0.10060239E+00
        1 -1    0    0  501    0 0.00000000E+00 0.00000000E+00 0.49012594E+03 0.49012605E+03 0.32000000E+00 0.0000E+00 0.9000E+01
       -2 -1    0    0    0  501 0.00000000E+00 0.00000000E+00 -.20688837E+03 0.20688862E+03 0.32000000E+00 0.0000E+00 0.9000E+01
       25  2    1    2    0    0 0.13971889E+02 -.13434948E+03 -.46340634E+02 0.33186537E+03 0.29956998E+03 0.0000E+00 0.0000E+00
       23  2    3    3    0    0 0.12257806E+03 -.85587688E+02 -.47829003E+02 0.18189711E+03 0.91914711E+02 0.0000E+00 0.0000E+00
      -24  1    1    2    0    0 -.13971889E+02 0.13434948E+03 0.32957821E+03 0.36514929E+03 0.80419002E+02 0.0000E+00 0.9000E+01
      -11  1    4    4    0    0 -.11619805E+02 -.37623468E+01 0.85565478E+01 0.14912734E+02 0.51099893E-03 0.0000E+00 0.9000E+01
       11  1    4    4    0    0 0.13419786E+03 -.81825341E+02 -.56385551E+02 0.16698438E+03 0.51099893E-03 0.0000E+00 0.9000E+01
       23  1    3    3    0    0 -.10860617E+03 -.48761792E+02 0.14883694E+01 0.14996826E+03 0.91188000E+02 0.0000E+00 0.9000E+01
#aMCatNLO 1  0  0  1  1 0.11504897D+03 0.00000000D+00  -5  7  0 0.00000000D+00 0.00000000D+00 0.00000000D+00 0.00000000D+00 0.00000000D+00
  <mgrwgt>
 0.1527057046D-02    4    2    0
 0.318435990650895D+03 0.000000000000000D+00 0.000000000000000D+00 0.318435990650895D+03
 0.318435990650895D+03 0.000000000000000D+00 0.000000000000000D+00 -.318435990650895D+03
 0.253057891960763D+03 -.139718886614690D+02 0.134349479383326D+03 0.198308054415133D+03
 0.125156369479799D+02 -.116198052037834D+02 -.376234680837647D+01 0.273240585075973D+01
 0.207829943080345D+03 0.134197861742236D+03 -.818253408330353D+02 -.135973647234119D+03
 0.163468509312703D+03 -.108606167876983D+03 -.487617917419144D+02 -.650668130317740D+02
 0.000000000000000D+00 0.000000000000000D+00 -.000000000000000D+00 -.000000000000000D+00
 0.342566692503295D+03 0.000000000000000D+00 0.000000000000000D+00 0.342566692503295D+03
 0.497966227905939D+03 0.000000000000000D+00 0.000000000000000D+00 -.497966227905939D+03
 0.281228103034614D+03 -.266194508920084D+02 0.180519667544479D+03 0.198308054415133D+03
 0.126172818194877D+02 -.122147490299816D+02 -.159049203508602D+01 0.273240585075973D+01
 0.190532677668315D+03 0.124767863420301D+03 -.474009364342361D+02 -.135973647234119D+03
 0.162802118550021D+03 -.116329612078299D+03 -.205671985446703D+02 -.650668130317740D+02
 0.193352739336796D+03 0.303959485799873D+02 -.110961040530487D+03 -.155399535402644D+03
0.373653537230D-04 0.000000000000D+00 0.000000000000D+00 0.354432389789D-05 0.000000000000D+00  7 1 -2 -24 -11 11 23 21 0 0.75404018D-01 0.31829007D-01 0.56775520D+05 0.56775520D+05 0.56775520D+05 0.11424722D+01  1  2  2  1  7  1        1 0.168777328255D-02 0.100000000000D+01
-.186360293909D-05 0.000000000000D+00 -.143492796820D-06 0.354432389789D-05 0.000000000000D+00  7 1 -2 -24 -11 11 23 21 2 0.75404018D-01 0.31829007D-01 0.56775520D+05 0.56775520D+05 0.56775520D+05 0.11424722D+01  1  2  3  1  7  1        1 -.109872673273D-03 0.100000000000D+01
0.232822038295D-05 0.000000000000D+00 0.000000000000D+00 0.354432389789D-05 0.000000000000D+00  7 1 -2 -24 -11 11 23 21 2 0.75404018D-01 0.31829007D-01 0.56775520D+05 0.56775520D+05 0.56775520D+05 0.11424722D+01  1  2 15  1  7  1        1 0.137265182447D-03 0.100000000000D+01
-.319060235878D-05 0.000000000000D+00 0.000000000000D+00 0.354432389789D-05 0.000000000000D+00  7 1 -2 -24 -11 11 23 21 2 0.75404018D-01 0.31829007D-01 0.56775520D+05 0.56775520D+05 0.56775520D+05 0.11424722D+01  1  2  4  1  7  1        1 -.188108745247D-03 0.100000000000D+01
  </mgrwgt>
  </event>
  <event>
  8     66 0.29493621E-05 0.59371653E+03 0.75467711E-02 0.87829112E-01
        1 -1    0    0  501    0 0.00000000E+00 0.00000000E+00 0.14107778E+04 0.14107779E+04 0.32000000E+00 0.0000E+00 0.9000E+01
       -2 -1    0    0    0  501 0.00000000E+00 0.00000000E+00 -.57309319E+03 0.57309328E+03 0.32000000E+00 0.0000E+00 0.9000E+01
       25  2    1    2    0    0 0.58993237E+03 0.64192310E+03 0.45515041E+03 0.10284209E+04 0.30066964E+03 0.0000E+00 0.0000E+00
       23  2    3    3    0    0 0.21545546E+03 0.23436575E+03 0.42904075E+02 0.33229002E+03 0.85014909E+02 0.0000E+00 0.0000E+00
      -24  1    1    2    0    0 -.58993237E+03 -.64192310E+03 0.38253425E+03 0.95545023E+03 0.80419002E+02 0.0000E+00 0.9000E+01
      -13  1    4    4    0    0 -.66732254E+01 0.13243996E+02 0.82047335E+01 0.16948869E+02 0.10565837E+00 0.0000E+00 0.9000E+01
       13  1    4    4    0    0 0.22212868E+03 0.22112176E+03 0.34699342E+02 0.31534115E+03 0.10565837E+00 0.0000E+00 0.9000E+01
       23  1    3    3    0    0 0.37447692E+03 0.40755735E+03 0.41224634E+03 0.69613091E+03 0.91188000E+02 0.0000E+00 0.9000E+01
#aMCatNLO 1  0  0  1  2 0.14107988D+03 0.00000000D+00  -5  7  0 0.00000000D+00 0.00000000D+00 0.00000000D+00 0.00000000D+00 0.00000000D+00
  <mgrwgt>
 0.3029665755D-02    9    2    0
 0.899170339490753D+03 0.000000000000000D+00 0.000000000000000D+00 0.899170339490753D+03
 0.899170339490753D+03 0.000000000000000D+00 0.000000000000000D+00 -.899170339490753D+03
 0.875833543746443D+03 -.589932374973043D+03 -.641923103874758D+03 -.230586657797643D+02
 0.148751090336677D+02 -.667357877896890D+01 0.132436745487462D+02 0.115641665989861D+01
 0.331711332844566D+03 0.222129038054291D+03 0.221122078334808D+03 -.108609968527244D+03
 0.575920693356830D+03 0.374476915697721D+03 0.407557350991204D+03 0.130512217647110D+03
 0.000000000000000D+00 0.000000000000000D+00 0.000000000000000D+00 0.000000000000000D+00
 0.101700345801289D+04 0.000000000000000D+00 0.000000000000000D+00 0.101700345801289D+04
 0.945175093778170D+03 0.000000000000000D+00 0.000000000000000D+00 -.945175093778170D+03
 0.940500970520310D+03 -.611397508877838D+03 -.709743787338576D+03 -.230586657797643D+02
 0.140882505323390D+02 -.701586286074667D+01 0.121622025920412D+02 0.115641665989861D+01
 0.310933817007859D+03 0.214534366430480D+03 0.197126149751524D+03 -.108609968527244D+03
 0.538343013379670D+03 0.361308735782356D+03 0.365951509360042D+03 0.130512217647110D+03
 0.158312500350879D+03 0.425702695257486D+02 0.134503925634968D+03 0.718283642347168D+02
0.180034664254D-02 0.000000000000D+00 0.000000000000D+00 0.630591708072D-06 0.000000000000D+00  7 1 -2 -24 -13 13 23 21 0 0.21704276D+00 0.88168192D-01 0.77856315D+06 0.77856315D+06 0.77856315D+06 0.10551777D+01  1  2  2  1  7  1        1 0.162659204361D-02 0.100000000000D+01
-.999759567356D-04 0.000000000000D+00 -.691380514951D-05 0.630591708072D-06 0.000000000000D+00  7 1 -2 -24 -13 13 23 21 2 0.21704276D+00 0.88168192D-01 0.77856315D+06 0.77856315D+06 0.77856315D+06 0.10551777D+01  1  2  3  1  7  1        1 -.100570200254D-03 0.100000000000D+01
0.113723392761D-03 0.000000000000D+00 0.000000000000D+00 0.630591708072D-06 0.000000000000D+00  7 1 -2 -24 -13 13 23 21 2 0.21704276D+00 0.88168192D-01 0.77856315D+06 0.77856315D+06 0.77856315D+06 0.10551777D+01  1  2 15  1  7  1        1 0.114399349173D-03 0.100000000000D+01
0.281552679699D-02 0.000000000000D+00 0.000000000000D+00 0.630591708072D-06 0.000000000000D+00  7 1 -2 -24 -13 13 23 21 2 0.25050044D+00 0.88168192D-01 0.91104178D+06 0.91104178D+06 0.91104178D+06 0.10505680D+01  1  2 12  1  7  1        1 0.197636767885D-02 0.100000000000D+01
-.275412520031D-02 0.000000000000D+00 0.000000000000D+00 0.630591708072D-06 0.000000000000D+00  7 1 -2 -24 -13 13 23 21 2 0.21704276D+00 0.88168192D-01 0.77856315D+06 0.77856315D+06 0.77856315D+06 0.10551777D+01  1  2  4  1  7  1        1 -.277049534671D-02 0.100000000000D+01
-.690324661597D-02 0.000000000000D+00 -.143533898307D-02 0.630591708072D-06 0.000000000000D+00  7 1 -2 -24 -13 13 23 21 2 0.25174855D+00 0.88168192D-01 0.77856315D+06 0.77856315D+06 0.77856315D+06 0.10551777D+01  1  2  5  1  7  1        1 -.487332171416D-02 0.100000000000D+01
0.705405747081D-02 0.000000000000D+00 0.141969110096D-02 0.630591708072D-06 0.000000000000D+00  7 1 -2 -24 -13 13 23 21 2 0.21704276D+00 0.88168192D-01 0.77856315D+06 0.77856315D+06 0.77856315D+06 0.10551777D+01  1  2  6  1  7  1        1 0.709598583104D-02 0.100000000000D+01
0.619065465609D-04 0.000000000000D+00 0.000000000000D+00 0.630591708072D-06 0.000000000000D+00  7 21 -2 -24 -13 13 23 -1 2 0.25050044D+00 0.88168192D-01 0.91104178D+06 0.91104178D+06 0.91104178D+06 0.10505680D+01  1  2 12  3  7  1        1 0.285809010862D-04 0.100000000000D+01
-.146288764525D-03 0.000000000000D+00 -.324469092793D-04 0.630591708072D-06 0.000000000000D+00  7 21 -2 -24 -13 13 23 -1 2 0.25174855D+00 0.88168192D-01 0.77856315D+06 0.77856315D+06 0.77856315D+06 0.10551777D+01  1  2  5  3  7  1        1 -.678727874783D-04 0.100000000000D+01
  </mgrwgt>
  </event>
  <event>
  8     66 0.29493621E-05 0.15260347E+03 0.75467711E-02 0.90611137E-01
        1 -1    0    0  501    0 0.00000000E+00 0.00000000E+00 0.59585071E+03 0.59585080E+03 0.32000000E+00 0.0000E+00 0.9000E+01
       -2 -1    0    0    0  501 0.00000000E+00 0.00000000E+00 -.19963729E+03 0.19963754E+03 0.32000000E+00 0.0000E+00 0.9000E+01
       25  2    1    2    0    0 0.41663617E+02 -.96959597E+02 0.52047296E+03 0.61370642E+03 0.30758162E+03 0.0000E+00 0.0000E+00
       23  2    3    3    0    0 0.39216227E+01 -.10024050E+02 0.17585077E+02 0.93904810E+02 0.91613415E+02 0.0000E+00 0.0000E+00
      -24  1    1    2    0    0 -.41663617E+02 0.96959597E+02 -.12425953E+03 0.18178192E+03 0.80419002E+02 0.0000E+00 0.9000E+01
      -11  1    4    4    0    0 0.20910196E+02 0.68924145E+00 0.50884299E+02 0.55017481E+02 0.51099893E-03 0.0000E+00 0.9000E+01
       11  1    4    4    0    0 -.16988573E+02 -.10713292E+02 -.33299221E+02 0.38887329E+02 0.51099893E-03 0.0000E+00 0.9000E+01
       23  1    3    3    0    0 0.37741994E+02 -.86935547E+02 0.50288788E+03 0.51980161E+03 0.91188000E+02 0.0000E+00 0.9000E+01
#aMCatNLO 1  0  0  1  2 0.70133296D+03 0.00000000D+00  -5  7  0 0.00000000D+00 0.00000000D+00 0.00000000D+00 0.00000000D+00 0.00000000D+00
  <mgrwgt>
 0.1637857660D-02    3    2    0
 0.344897311337305D+03 0.000000000000000D+00 0.000000000000000D+00 0.344897311337305D+03
 0.344897311337305D+03 0.000000000000000D+00 0.000000000000000D+00 -.344897311337305D+03
 0.281009280883274D+03 -.416636167104084D+02 0.969595967289676D+02 -.247713503129984D+03
 0.342199278627752D+02 0.209101957517475D+02 0.689241410338814D+00 0.270793671055181D+02
 0.639726873500780D+02 -.169885730561194D+02 -.107132916115183D+02 -.607381140236861D+02
 0.310592726578483D+03 0.377419940147804D+02 -.869355465277881D+02 0.281372250048152D+03
 0.000000000000000D+00 0.000000000000000D+00 0.000000000000000D+00 -.000000000000000D+00
 0.796293004007791D+03 0.000000000000000D+00 0.000000000000000D+00 0.796293004007791D+03
 0.895769205933893D+03 0.000000000000000D+00 0.000000000000000D+00 -.895769205933893D+03
 0.303530583472666D+03 -.492943932875928D+02 -.147890778300630D+03 -.247713503129984D+03
 0.474380383805942D+02 0.198442056728039D+02 -.335154123319223D+02 0.270793671055181D+02
 0.102656098300050D+03 -.191638002940849D+02 -.805102774888012D+02 -.607381140236861D+02
 0.530084864953679D+03 0.267675108946330D+02 -.439076155094200D+03 0.281372250048152D+03
 0.708352624834694D+03 0.218464770142408D+02 0.700992623215554D+03 -.994762019261027D+02
0.413014160087D-04 0.000000000000D+00 0.000000000000D+00 0.475157705529D-07 0.000000000000D+00  7 1 -2 -24 -11 11 23 21 0 0.91669367D-01 0.30713455D-01 0.23287819D+05 0.23287819D+05 0.23287819D+05 0.11776809D+01  1  2  2  1  7  1        1 0.152915183408D-02 0.100000000000D+01
-.439627542074D-06 0.000000000000D+00 -.158608312386D-06 0.475157705529D-07 0.000000000000D+00  7 1 -2 -24 -11 11 23 21 2 0.91669367D-01 0.30713455D-01 0.23287819D+05 0.23287819D+05 0.23287819D+05 0.11776809D+01  1  2  3  1  7  1        1 -.225748977182D-04 0.100000000000D+01
0.255658398951D-05 0.000000000000D+00 0.000000000000D+00 0.475157705529D-07 0.000000000000D+00  7 1 -2 -24 -11 11 23 21 2 0.91669367D-01 0.30713455D-01 0.23287819D+05 0.23287819D+05 0.23287819D+05 0.11776809D+01  1  2 15  1  7  1        1 0.131280724130D-03 0.100000000000D+01
  </mgrwgt>
  </event>
  <event>
  8     66 0.29493621E-05 0.18927586E+03 0.75467711E-02 0.10619224E+00
        1 -1    0    0  501    0 0.00000000E+00 0.00000000E+00 0.17114449E+04 0.17114449E+04 0.32000000E+00 0.0000E+00 0.9000E+01
       -2 -1    0    0    0  501 0.00000000E+00 0.00000000E+00 -.13242314E+03 0.13242352E+03 0.32000000E+00 0.0000E+00 0.9000E+01
       25  2    1    2    0    0 -.25411529E+02 0.29742683E+02 0.16807608E+04 0.17084121E+04 0.30361951E+03 0.0000E+00 0.0000E+00
       23  2    3    3    0    0 0.10135047E+03 0.88884867E+01 0.83683603E+03 0.84990892E+03 0.10816524E+03 0.0000E+00 0.0000E+00
      -24  1    1    2    0    0 0.25411529E+02 -.29742683E+02 -.10173902E+03 0.13545633E+03 0.80419002E+02 0.0000E+00 0.9000E+01
      -13  1    4    4    0    0 0.55716667E+01 0.32469205E+02 0.43102003E+03 0.43227719E+03 0.10565837E+00 0.0000E+00 0.9000E+01
       13  1    4    4    0    0 0.95778804E+02 -.23580718E+02 0.40581600E+03 0.41763173E+03 0.10565837E+00 0.0000E+00 0.9000E+01
       23  1    3    3    0    0 -.12676200E+03 0.20854196E+02 0.84392475E+03 0.85850320E+03 0.91188000E+02 0.0000E+00 0.9000E+01
#aMCatNLO 1  0  0  2  2 0.26032712D+02 0.00000000D+00  -5  7  0 0.00000000D+00 0.00000000D+00 0.00000000D+00 0.00000000D+00 0.00000000D+00
  <mgrwgt>
 0.1674700032D-02    4    2    0
 0.476062272049627D+03 0.000000000000000D+00 0.000000000000000D+00 0.476062272049627D+03
 0.476062272049627D+03 0.000000000000000D+00 0.000000000000000D+00 -.476062272049627D+03
 0.431048419165860D+03 0.254115292165533D+02 -.297426827750631D+02 -.421669480417108D+03
 0.122328776899487D+03 0.557160507313181D+01 0.324692445224268D+02 0.117809316417576D+03
 0.135765530858110D+03 0.957788840454854D+02 -.235807603756382D+02 0.932879010391624D+02
 0.262981817175798D+03 -.126762018335171D+03 0.208541986282744D+02 0.210572262960370D+03
 0.000000000000000D+00 0.000000000000000D+00 -.000000000000000D+00 0.000000000000000D+00
 0.538385283419135D+03 0.000000000000000D+00 0.000000000000000D+00 0.538385283419135D+03
 0.478966472942715D+03 0.000000000000000D+00 0.000000000000000D+00 -.478966472942715D+03
 0.430197310944723D+03 0.152825047885113D+02 -.237445724715207D+02 -.421669480417108D+03
 0.122695760231391D+03 0.268989613072615D+01 0.341757077876749D+02 0.117809316417576D+03
 0.133234439978280D+03 0.926152024381530D+02 -.217073211929334D+02 0.932879010391624D+02
 0.266352855882497D+03 -.132987470197009D+03 0.245407280884385D+02 0.210572262960370D+03
 0.648713893249582D+02 0.223998668396182D+02 -.132645422116592D+02 0.594188104764206D+02
0.159703225719D-03 0.000000000000D+00 0.000000000000D+00 0.247169000363D-08 0.000000000000D+00  7 1 -2 -24 -13 13 23 21 0 0.26329925D+00 0.20372822D-01 0.35825352D+05 0.35825352D+05 0.35825352D+05 0.11602521D+01  1  2  2  2  7  2       -2 0.176083145525D-02 0.100000000000D+01
0.304746115757D-06 0.000000000000D+00 -.613302437585D-06 0.247169000363D-08 0.000000000000D+00  7 1 -2 -24 -13 13 23 21 2 0.26329925D+00 0.20372822D-01 0.35825352D+05 0.35825352D+05 0.35825352D+05 0.11602521D+01  1  2  3  2  7  2       -2 0.452321293132D-05 0.100000000000D+01
0.980418529946D-05 0.000000000000D+00 0.000000000000D+00 0.247169000363D-08 0.000000000000D+00  7 1 -2 -24 -13 13 23 21 2 0.26329925D+00 0.20372822D-01 0.35825352D+05 0.35825352D+05 0.35825352D+05 0.11602521D+01  1  2 15  2  7  2       -2 0.145519222181D-03 0.100000000000D+01
-.159119340964D-04 0.000000000000D+00 0.000000000000D+00 0.247169000363D-08 0.000000000000D+00  7 1 -2 -24 -13 13 23 21 2 0.26329925D+00 0.20372822D-01 0.35825352D+05 0.35825352D+05 0.35825352D+05 0.11602521D+01  1  2  4  2  7  2       -2 -.236173858650D-03 0.100000000000D+01
  </mgrwgt>
  </event>
  <event>
  8     66 0.29493621E-05 0.24886973E+03 0.75467711E-02 0.10165378E+00
        1 -1    0    0  501    0 0.00000000E+00 0.00000000E+00 0.19545373E+04 0.19545374E+04 0.32000000E+00 0.0000E+00 0.9000E+01
       -2 -1    0    0    0  501 0.00000000E+00 0.00000000E+00 -.65954105E+02 0.65954881E+02 0.32000000E+00 0.0000E+00 0.9000E+01
       25  2    1    2    0    0 -.91010307E+01 0.17500648E+03 0.17472205E+04 0.17814091E+04 0.29988148E+03 0.0000E+00 0.0000E+00
       23  2    3    3    0    0 0.68029564E+02 -.13865437E+02 0.80252561E+03 0.81064375E+03 0.90970671E+02 0.0000E+00 0.0000E+00
      -24  1    1    2    0    0 0.91010307E+01 -.17500648E+03 0.14136272E+03 0.23908311E+03 0.80419002E+02 0.0000E+00 0.9000E+01
      -11  1    4    4    0    0 0.30180886E+02 0.15148707E+02 0.83950978E+02 0.90488319E+02 0.51099893E-03 0.0000E+00 0.9000E+01
       11  1    4    4    0    0 0.37848678E+02 -.29014144E+02 0.71857463E+03 0.72015543E+03 0.51099893E-03 0.0000E+00 0.9000E+01
       23  1    3    3    0    0 -.77130595E+02 0.18887192E+03 0.94469488E+03 0.97076537E+03 0.91188000E+02 0.0000E+00 0.9000E+01
#aMCatNLO 1  0  0  1  1 0.64049449D+02 0.00000000D+00  -5  7  0 0.00000000D+00 0.00000000D+00 0.00000000D+00 0.00000000D+00 0.00000000D+00
  <mgrwgt>
 0.1253587983D-02    4    2    0
 0.359041181724175D+03 0.000000000000000D+00 0.000000000000000D+00 0.359041181724175D+03
 0.359041181724175D+03 0.000000000000000D+00 0.000000000000000D+00 -.359041181724175D+03
 0.300926895072165D+03 0.910103068215598D+01 -.175006481164512D+03 -.231040435885888D+03
 0.338158110973859D+02 0.301808858096375D+02 0.151487070556171D+02 -.177197247800622D+01
 0.136447386918906D+03 0.378486783132206D+02 -.290141439579299D+02 0.127841880451316D+03
 0.246892270359892D+03 -.771305948050140D+02 0.188871918066825D+03 0.104970527912578D+03
 0.000000000000000D+00 0.000000000000000D+00 0.000000000000000D+00 -.000000000000000D+00
 0.372415760898521D+03 0.000000000000000D+00 0.000000000000000D+00 0.372415760898521D+03
 0.446295283102067D+03 0.000000000000000D+00 0.000000000000000D+00 -.446295283102067D+03
 0.304097571143688D+03 -.173992400883846D+02 -.179793493350358D+03 -.231040435885888D+03
 0.310607545815598D+02 0.273392708780828D+02 0.146353973833266D+02 -.177197247800622D+01
 0.134126969988706D+03 0.259974324182182D+02 -.311549544805114D+02 0.127841880451316D+03
 0.251647858366126D+03 -.989668165430391D+02 0.184927420274411D+03 0.104970527912578D+03
 0.977778899205094D+02 0.630293533351227D+02 0.113856301731313D+02 -.738795222035456D+02
0.675236312375D-04 0.000000000000D+00 0.000000000000D+00 0.739667600852D-05 0.000000000000D+00  7 1 -2 -24 -11 11 23 21 0 0.30069811D+00 0.10146847D-01 0.61936142D+05 0.61936142D+05 0.61936142D+05 0.11392061D+01  1  2  2  1  7  1        1 0.153473870336D-02 0.100000000000D+01
-.313863730417D-05 0.000000000000D+00 -.259308523333D-06 0.739667600852D-05 0.000000000000D+00  7 1 -2 -24 -11 11 23 21 2 0.30069811D+00 0.10146847D-01 0.61936142D+05 0.61936142D+05 0.61936142D+05 0.11392061D+01  1  2  3  1  7  1        1 -.925815421473D-04 0.100000000000D+01
0.430369082537D-05 0.000000000000D+00 0.000000000000D+00 0.739667600852D-05 0.000000000000D+00  7 1 -2 -24 -11 11 23 21 2 0.30069811D+00 0.10146847D-01 0.61936142D+05 0.61936142D+05 0.61936142D+05 0.11392061D+01  1  2 15  1  7  1        1 0.126947555555D-03 0.100000000000D+01
-.106964365352D-04 0.000000000000D+00 0.000000000000D+00 0.739667600852D-05 0.000000000000D+00  7 1 -2 -24 -11 11 23 21 2 0.30069811D+00 0.10146847D-01 0.61936142D+05 0.61936142D+05 0.61936142D+05 0.11392061D+01  1  2  4  1  7  1        1 -.315516733516D-03 0.100000000000D+01
  </mgrwgt>
  </event>
  <event>
  8     66 0.29493621E-05 0.25126869E+03 0.75467711E-02 0.93474480E-01
        1 -1    0    0  501    0 0.00000000E+00 0.00000000E+00 0.23847922E+04 0.23847922E+04 0.32000000E+00 0.0000E+00 0.9000E+01
       -2 -1    0    0    0  501 0.00000000E+00 0.00000000E+00 -.45061649E+02 0.45062785E+02 0.32000000E+00 0.0000E+00 0.9000E+01
       25  2    1    2    0    0 0.51926912E+02 0.16240078E+03 0.20841303E+04 0.21122560E+04 0.29825472E+03 0.0000E+00 0.0000E+00
       23  2    3    3    0    0 -.44730907E+02 -.10813226E+02 0.36095666E+03 0.37530797E+03 0.91916150E+02 0.0000E+00 0.0000E+00
      -24  1    1    2    0    0 -.51926912E+02 -.16240078E+03 0.25560019E+03 0.31759895E+03 0.80419002E+02 0.0000E+00 0.9000E+01
      -11  1    4    4    0    0 -.24952113E+02 0.36622451E+02 0.10061214E+03 0.10993914E+03 0.51099893E-03 0.0000E+00 0.9000E+01
       11  1    4    4    0    0 -.19778794E+02 -.47435677E+02 0.26034452E+03 0.26536883E+03 0.51099893E-03 0.0000E+00 0.9000E+01
       23  1    3    3    0    0 0.96657819E+02 0.17321401E+03 0.17231737E+04 0.17369481E+04 0.91188000E+02 0.0000E+00 0.9000E+01
#aMCatNLO 1  0  0  2  1 0.43867743D+03 0.00000000D+00  -5  7  0 0.00000000D+00 0.00000000D+00 0.00000000D+00 0.00000000D+00 0.00000000D+00
  <mgrwgt>
 0.1387162058D-02    5    2    0
 0.327817135326770D+03 0.000000000000000D+00 0.000000000000000D+00 0.327817135326770D+03
 0.327817135326770D+03 0.000000000000000D+00 0.000000000000000D+00 -.327817135326770D+03
 0.264909605966076D+03 -.519269121191048D+02 -.162400781002144D+03 -.186116806082630D+03
 0.483972148880762D+02 -.249521132724705D+02 0.366224508866780D+02 -.194545250061079D+02
 0.544079863953268D+02 -.197787936505289D+02 -.474356770841279D+02 0.178573470844414D+02
 0.287919463404061D+03 0.966578190421042D+02 0.173214007199594D+03 0.187713984004296D+03
 0.000000000000000D+00 -.000000000000000D+00 0.000000000000000D+00 -.000000000000000D+00
 0.570743599629971D+03 0.000000000000000D+00 0.000000000000000D+00 0.570743599629971D+03
 0.667288301423369D+03 0.000000000000000D+00 0.000000000000000D+00 -.667288301423369D+03
 0.317469126775213D+03 0.117122504092685D+03 -.214388162055896D+03 -.186116806082630D+03
 0.350710191124592D+02 -.723453404343420D+00 0.291714664277430D+02 -.194545250061079D+02
 0.621436404804194D+02 0.140531156795667D+02 -.578399269273581D+02 0.178573470844414D+02
 0.374172463529388D+03 0.288845904619672D+03 0.114110843977813D+03 0.187713984004296D+03
 0.449175651155860D+03 -.419298070987581D+03 0.128945778577698D+03 -.965447017933981D+02
0.525642794831D-04 0.000000000000D+00 0.000000000000D+00 0.313945820738D-06 0.000000000000D+00  7 1 -2 -24 -11 11 23 21 0 0.36689119D+00 0.69326504D-02 0.63135954D+05 0.63135954D+05 0.63135954D+05 0.11384897D+01  1  2  2  2  7  2       -2 0.110771997274D-02 0.100000000000D+01
-.266913902906D-05 0.000000000000D+00 -.201860673708D-06 0.313945820738D-06 0.000000000000D+00  7 1 -2 -24 -11 11 23 21 2 0.36689119D+00 0.69326504D-02 0.63135954D+05 0.63135954D+05 0.63135954D+05 0.11384897D+01  1  2  3  2  7  2       -2 -.729069062575D-04 0.100000000000D+01
0.334498883981D-05 0.000000000000D+00 0.000000000000D+00 0.313945820738D-06 0.000000000000D+00  7 1 -2 -24 -11 11 23 21 2 0.36689119D+00 0.69326504D-02 0.63135954D+05 0.63135954D+05 0.63135954D+05 0.11384897D+01  1  2 15  2  7  2       -2 0.913675852480D-04 0.100000000000D+01
0.406399042653D-04 0.000000000000D+00 -.222159846786D-04 0.313945820738D-06 0.000000000000D+00  7 1 -2 -24 -11 11 23 21 2 0.36689119D+00 0.34432533D-01 0.63135954D+05 0.63135954D+05 0.63135954D+05 0.11384897D+01  1  2  5  2  7  2       -2 0.838793750153D-04 0.100000000000D+01
0.733271870772D-05 0.000000000000D+00 -.433794204841D-05 0.313945820738D-06 0.000000000000D+00  7 1 21 -24 -11 11 23 2 2 0.36689119D+00 0.34432533D-01 0.63135954D+05 0.63135954D+05 0.63135954D+05 0.11384897D+01  1  2  5  4  7  2       -2 0.177102031364D-03 0.100000000000D+01
  </mgrwgt>
  </event>
  <event>
  8     66 0.29493621E-05 0.31827523E+03 0.75467711E-02 0.99596891E-01
        1 -1    0    0  501    0 0.00000000E+00 0.00000000E+00 0.36224031E+04 0.36224031E+04 0.32000000E+00 0.0000E+00 0.9000E+01
       -2 -1    0    0    0  501 0.00000000E+00 0.00000000E+00 -.39587312E+02 0.39588606E+02 0.32000000E+00 0.0000E+00 0.9000E+01
       25  2    1    2    0    0 -.24481697E+03 0.18688480E+01 0.11053067E+04 0.11711169E+04 0.29978837E+03 0.0000E+00 0.0000E+00
       23  2    3    3    0    0 -.18905053E+03 0.10324235E+03 0.61175738E+03 0.65605121E+03 0.98777629E+02 0.0000E+00 0.0000E+00
      -24  1    1    2    0    0 0.24481697E+03 -.18688480E+01 0.24775090E+04 0.24908748E+04 0.80419002E+02 0.0000E+00 0.9000E+01
      -11  1    4    4    0    0 -.15552895E+00 -.10858844E+02 0.73706953E+02 0.74502709E+02 0.51099893E-03 0.0000E+00 0.9000E+01
       11  1    4    4    0    0 -.18889500E+03 0.11410120E+03 0.53805042E+03 0.58154850E+03 0.51099893E-03 0.0000E+00 0.9000E+01
       23  1    3    3    0    0 -.55766443E+02 -.10137351E+03 0.49354936E+03 0.51506572E+03 0.91188000E+02 0.0000E+00 0.9000E+01
#aMCatNLO 1  0  0  2  2 0.23504282D+02 0.00000000D+00  -5  7  0 0.00000000D+00 0.00000000D+00 0.00000000D+00 0.00000000D+00 0.00000000D+00
  <mgrwgt>
 0.6346364145D-03    4    2    0
 0.378686671673331D+03 0.000000000000000D+00 0.000000000000000D+00 0.378686671673331D+03
 0.378686671673331D+03 0.000000000000000D+00 0.000000000000000D+00 -.378686671673331D+03
 0.323624097329094D+03 0.244816970608860D+03 -.186884804864857D+01 0.195771547285534D+03
 0.115529119331058D+02 -.155528954515994D+00 -.108588442047741D+02 0.394095006500324D+01
 0.266566354885246D+03 -.188894998564728D+03 0.114101197493035D+03 -.149523301878650D+03
 0.155629979199216D+03 -.557664430896162D+02 -.101373505239612D+03 -.501891954718875D+02
 0.000000000000000D+00 0.000000000000000D+00 0.000000000000000D+00 0.000000000000000D+00
 0.401937275605433D+03 0.000000000000000D+00 0.000000000000000D+00 0.401937275605433D+03
 0.384856113861477D+03 0.000000000000000D+00 0.000000000000000D+00 -.384856113861477D+03
 0.317617514845191D+03 0.236704488478383D+03 -.762602056640133D+01 0.195771547285534D+03
 0.117574420480213D+02 -.450433131875566D+00 -.110681283915321D+02 0.394095006500324D+01
 0.269426009005154D+03 -.195675950380050D+03 0.109288970013518D+03 -.149523301878650D+03
 0.158937004957168D+03 -.597460959838720D+02 -.104197739290857D+03 -.501891954718875D+02
 0.290554186113767D+02 0.191679910174138D+02 0.136029182352725D+02 0.170811617439555D+02
0.332184571465D-03 0.000000000000D+00 0.000000000000D+00 0.242466107860D-06 0.000000000000D+00  7 1 -2 -24 -11 11 23 21 0 0.55729288D+00 0.60904563D-02 0.10129912D+06 0.10129912D+06 0.10129912D+06 0.11212623D+01  1  2  2  2  7  2       -2 0.101207959447D-02 0.100000000000D+01
-.177769770114D-04 0.000000000000D+00 -.127567622063D-05 0.242466107860D-06 0.000000000000D+00  7 1 -2 -24 -11 11 23 21 2 0.55729288D+00 0.60904563D-02 0.10129912D+06 0.10129912D+06 0.10129912D+06 0.11212623D+01  1  2  3  2  7  2       -2 -.680938016182D-04 0.100000000000D+01
0.217811846653D-04 0.000000000000D+00 0.000000000000D+00 0.242466107860D-06 0.000000000000D+00  7 1 -2 -24 -11 11 23 21 2 0.55729288D+00 0.60904563D-02 0.10129912D+06 0.10129912D+06 0.10129912D+06 0.11212623D+01  1  2 15  2  7  2       -2 0.834317143264D-04 0.100000000000D+01
-.102541792182D-03 0.000000000000D+00 0.000000000000D+00 0.242466107860D-06 0.000000000000D+00  7 1 -2 -24 -11 11 23 21 2 0.55729288D+00 0.60904563D-02 0.10129912D+06 0.10129912D+06 0.10129912D+06 0.11212623D+01  1  2  4  2  7  2       -2 -.392781092641D-03 0.100000000000D+01
  </mgrwgt>
  </event>
  <event>
  9     66 -.29493621E-05 0.51920806E+03 0.75467711E-02 0.93228289E-01
        1 -1    0    0  501    0 0.00000000E+00 0.00000000E+00 0.31953911E+03 0.31953927E+03 0.32000000E+00 0.0000E+00 0.9000E+01
       -2 -1    0    0    0  502 0.00000000E+00 0.00000000E+00 -.15168519E+04 0.15168520E+04 0.32000000E+00 0.0000E+00 0.9000E+01
       25  2    1    2    0    0 -.87533191E+01 -.52961845E+03 -.10579963E+04 0.12207942E+04 0.30068263E+03 0.0000E+00 0.0000E+00
       23  2    3    3    0    0 0.63508194E+02 -.22566955E+03 -.64097026E+03 0.69180213E+03 0.11308085E+03 0.0000E+00 0.0000E+00
      -24  1    1    2    0    0 0.75724810E+02 0.47164594E+03 -.45454130E+02 0.48653616E+03 0.80419002E+02 0.0000E+00 0.9000E+01
      -11  1    4    4    0    0 0.37715612E+02 -.10925242E+03 -.16721739E+03 0.20327374E+03 0.51099893E-03 0.0000E+00 0.9000E+01
       11  1    4    4    0    0 0.25792583E+02 -.11641713E+03 -.47375287E+03 0.48852839E+03 0.51099893E-03 0.0000E+00 0.9000E+01
       23  1    3    3    0    0 -.72261513E+02 -.30394890E+03 -.41702599E+03 0.52899205E+03 0.91188000E+02 0.0000E+00 0.9000E+01
       21  1    1    2  501  502 -.66971491E+02 0.57972513E+02 -.93862449E+02 0.12906089E+03 0.75000000E+00 0.0000E+00 0.9000E+01
#aMCatNLO 2  0  0  2  1 0.88577609D+02 0.00000000D+00  -5  7  0 0.00000000D+00 0.00000000D+00 0.00000000D+00 0.00000000D+00 0.00000000D+00
  <mgrwgt>
 -.8125142201D-04    2    2    0
 0.649909253955774D+03 0.000000000000000D+00 0.000000000000000D+00 0.649909253955774D+03
 0.649909253955774D+03 0.000000000000000D+00 0.000000000000000D+00 -.649909253955774D+03
 0.617619042202106D+03 0.444162815340814D+02 0.498747530798138D+03 0.352511219387017D+03
 0.118231758217401D+03 0.314629842118768D+02 -.103839960753336D+03 -.469690517937817D+02
 0.232986522085819D+03 0.136486108842928D+02 -.105904943231152D+03 -.207076261058050D+03
 0.330981185406221D+03 -.895278766302510D+02 -.289002626813651D+03 -.984659065351849D+02
 0.000000000000000D+00 -.000000000000000D+00 0.000000000000000D+00 -.000000000000000D+00
 0.689384225086177D+03 0.000000000000000D+00 0.000000000000000D+00 0.689384225086177D+03
 0.703078897386110D+03 0.000000000000000D+00 0.000000000000000D+00 -.703078897386110D+03
 0.599095579811980D+03 0.757248096936240D+02 0.471645938389196D+03 0.352511219387017D+03
 0.124758369097234D+03 0.377156116611366D+02 -.109252420890436D+03 -.469690517937817D+02
 0.238953515241159D+03 0.257925825937873D+02 -.116417126040235D+03 -.207076261058050D+03
 0.340025658806347D+03 -.722615133457373D+02 -.303948903998482D+03 -.984659065351849D+02
 0.896299995155661D+02 -.669714906028105D+02 0.579725125399572D+02 -.136946722999330D+02
-.871022085703D-03 0.000000000000D+00 0.000000000000D+00 0.357773392418D-07 0.000000000000D+00  7 1 -2 -24 -11 11 23 21 2 0.46344819D-01 0.23944915D+00 0.32107051D+06 0.32107051D+06 0.32107051D+06 0.10823776D+01  1  2 13  2  7  2       -2 -.681077064267D-03 0.100000000000D+01
0.757502153437D-03 0.000000000000D+00 0.000000000000D+00 0.357773392418D-07 0.286039652276D-10  7 1 -2 -24 -11 11 23 21 2 0.49159766D-01 0.23336132D+00 0.32107051D+06 0.32107051D+06 0.32107051D+06 0.10823776D+01  1  2  1  2  7  2       -2 0.599825642256D-03 0.100000000000D+01
  </mgrwgt>
  </event>
  <event>
  8     66 0.29493621E-05 0.14222444E+03 0.75467711E-02 0.10280901E+00
        1 -1    0    0  501    0 0.00000000E+00 0.00000000E+00 0.58162155E+03 0.58162164E+03 0.32000000E+00 0.0000E+00 0.9000E+01
       -2 -1    0    0    0  502 0.00000000E+00 0.00000000E+00 -.81405538E+03 0.81405544E+03 0.32000000E+00 0.0000E+00 0.9000E+01
       25  2    1    2    0    0 -.86272973E+02 -.91499160E+02 -.72851601E+03 0.79713225E+03 0.29810925E+03 0.0000E+00 0.0000E+00
      -24  1    1    2    0    0 -.71594215E+02 0.12788354E+02 0.35935958E+03 0.37536089E+03 0.80419002E+02 0.0000E+00 0.9000E+01
      -13  1    3    3    0    0 0.28976240E+02 -.43681064E+02 -.64120032E+01 0.52808927E+02 0.10565837E+00 0.0000E+00 0.9000E+01
       13  1    3    3    0    0 -.40390360E+02 -.44300742E+02 -.18775371E+03 0.19709238E+03 0.10565837E+00 0.0000E+00 0.9000E+01
       23  1    3    3    0    0 -.74858853E+02 -.35173544E+01 -.53435029E+03 0.54723094E+03 0.91188000E+02 0.0000E+00 0.9000E+01
       21  1    1    2  501  502 0.15786719E+03 0.78710807E+02 0.13672260E+03 0.22318394E+03 0.75000000E+00 0.0000E+00 0.9000E+01
#aMCatNLO 2  0  0  2  1 0.17640136D+03 0.00000000D+00  -5  7  0 0.00000000D+00 0.00000000D+00 0.00000000D+00 0.00000000D+00 0.00000000D+00
  <mgrwgt>
 0.1058466948D-03    1    2    0
 0.549396542154930D+03 0.000000000000000D+00 0.000000000000000D+00 0.549396542154930D+03
 0.549396542154930D+03 0.000000000000000D+00 0.000000000000000D+00 -.549396542154930D+03
 0.511899988957410D+03 0.168266996421671D+01 0.493233855492908D+02 0.503128964580626D+03
 0.552308069719284D+02 0.367382490372103D+02 -.398110347237501D+02 0.107621842891998D+02
 0.138256701341091D+03 -.201450376042050D+02 -.342066700051716D+02 -.132434877025662D+03
 0.393405587039432D+03 -.182758813972221D+02 0.246943191796309D+02 -.381456271844164D+03
 0.000000000000000D+00 0.000000000000000D+00 0.000000000000000D+00 0.000000000000000D+00
 0.805720131683952D+03 0.000000000000000D+00 0.000000000000000D+00 0.805720131683952D+03
 0.587637642180450D+03 0.000000000000000D+00 0.000000000000000D+00 -.587637642180450D+03
 0.514679749579614D+03 -.715942154273362D+02 0.127883536991719D+02 0.503128964580626D+03
 0.535115370321098D+02 0.289762603872606D+02 -.436810750649962D+02 0.107621842891998D+02
 0.145371700541479D+03 -.403903289521102D+02 -.443007448318825D+02 -.132434877025662D+03
 0.399299844654307D+03 -.748589045048700D+02 -.351734047767540D+01 -.381456271844164D+03
 0.280494942056892D+03 0.157867188497056D+03 0.787108066753822D+02 0.218082489503502D+03
0.410914187409D-04 0.000000000000D+00 0.000000000000D+00 0.249681210544D-08 0.589621265964D-12  7 1 -2 -24 -13 13 23 21 2 0.89480176D-01 0.12523920D+00 0.66364961D+05 0.66364961D+05 0.66364961D+05 0.11366337D+01  1  2  1  2  7  2       -2 0.105846694765D-03 0.100000000000D+01
  </mgrwgt>
  </event>
  <event>
  8     66 0.29493621E-05 0.10404357E+04 0.75467711E-02 0.81853318E-01
        1 -1    0    0  501    0 0.00000000E+00 0.00000000E+00 0.69341808E+03 0.69341815E+03 0.32000000E+00 0.0000E+00 0.9000E+01
       -2 -1    0    0    0  501 0.00000000E+00 0.00000000E+00 -.15748778E+04 0.15748778E+04 0.32000000E+00 0.0000E+00 0.9000E+01
       25  2    1    2    0    0 -.10090718E+04 0.13396345E+03 -.34945611E+03 0.11169197E+04 0.29869374E+03 0.0000E+00 0.0000E+00
       23  2    3    3    0    0 -.91774975E+03 0.11099166E+03 -.32053028E+03 0.98268345E+03 0.91341924E+02 0.0000E+00 0.0000E+00
      -24  1    1    2    0    0 0.10090718E+04 -.13396345E+03 -.53200360E+03 0.11513762E+04 0.80419002E+02 0.0000E+00 0.9000E+01
      -13  1    4    4    0    0 -.62197704E+03 0.33213092E+02 -.20429532E+03 0.65551136E+03 0.10565837E+00 0.0000E+00 0.9000E+01
       13  1    4    4    0    0 -.29577271E+03 0.77778564E+02 -.11623497E+03 0.32717209E+03 0.10565837E+00 0.0000E+00 0.9000E+01
       23  1    3    3    0    0 -.91322090E+02 0.22971789E+02 -.28925822E+02 0.13423629E+03 0.91188000E+02 0.0000E+00 0.9000E+01
#aMCatNLO 1  0  0  1  1 0.12578774D+04 0.00000000D+00  -5  7  0 0.00000000D+00 0.00000000D+00 0.00000000D+00 0.00000000D+00 0.00000000D+00
  <mgrwgt>
 0.1323340655D-02    5    2    0
 0.104501141137619D+04 0.000000000000000D+00 0.000000000000000D+00 0.104501141137619D+04
 0.104501141137619D+04 0.000000000000000D+00 0.000000000000000D+00 -.104501141137619D+04
 0.102521480057168D+04 0.100907183925934D+04 -.133963445838178D+03 -.917931901057491D+02
 0.625264257573094D+03 -.621977477679457D+03 0.332130323507991D+02 0.547385014409218D+02
 0.306056853842862D+03 -.295772272074334D+03 0.777786240189769D+02 0.118341244666201D+02
 0.133486910764747D+03 -.913220895055463D+02 0.229717894684016D+02 0.252205641982073D+02
 0.000000000000000D+00 -.000000000000000D+00 -.000000000000000D+00 0.000000000000000D+00
 0.380458117580730D+04 0.000000000000000D+00 0.000000000000000D+00 0.380458117580730D+04
 0.137270577255018D+04 0.000000000000000D+00 0.000000000000000D+00 -.137270577255018D+04
 0.142968276921994D+04 0.134920295453443D+04 0.456892769012387D+03 -.917931901057491D+02
 0.560340140721605D+03 -.457709546003083D+03 0.318569837338003D+03 0.547385014409218D+02
 0.308971963779307D+03 -.210558762460610D+03 0.225806632876022D+03 0.118341244666201D+02
 0.140359736158844D+03 -.533800724622972D+02 0.888824796910192D+02 0.252205641982073D+02
 0.273793233847779D+04 -.627554573608435D+03 -.109015171891743D+04 0.243187540325711D+04
0.727263654576D-02 0.000000000000D+00 0.000000000000D+00 0.690723346769D-05 0.000000000000D+00  7 1 -2 -24 -13 13 23 21 0 0.10667971D+00 0.24228890D+00 0.10825065D+07 0.10825065D+07 0.10825065D+07 0.10455797D+01  1  2  2  1  7  1        1 0.133916630521D-02 0.100000000000D+01
-.404025904007D-03 0.000000000000D+00 -.279288392649D-04 0.690723346769D-05 0.000000000000D+00  7 1 -2 -24 -13 13 23 21 2 0.10667971D+00 0.24228890D+00 0.10825065D+07 0.10825065D+07 0.10825065D+07 0.10455797D+01  1  2  3  1  7  1        1 -.813328744691D-04 0.100000000000D+01
0.462562589920D-03 0.000000000000D+00 0.000000000000D+00 0.690723346769D-05 0.000000000000D+00  7 1 -2 -24 -13 13 23 21 2 0.10667971D+00 0.24228890D+00 0.10825065D+07 0.10825065D+07 0.10825065D+07 0.10455797D+01  1  2 15  1  7  1        1 0.931166657556D-04 0.100000000000D+01
-.389772565774D-02 0.000000000000D+00 -.253381817798D-02 0.690723346769D-05 0.000000000000D+00  7 1 -2 -24 -13 13 23 21 2 0.41998454D+00 0.24228890D+00 0.10825065D+07 0.10825065D+07 0.10825065D+07 0.10455797D+01  1  2  5  1  7  1        1 -.265314171960D-04 0.100000000000D+01
-.599936164765D-03 0.000000000000D+00 -.413518099417D-03 0.690723346769D-05 0.000000000000D+00  7 21 -2 -24 -13 13 23 -1 2 0.41998454D+00 0.24228890D+00 0.10825065D+07 0.10825065D+07 0.10825065D+07 0.10455797D+01  1  2  5  3  7  1        1 -.107802426329D-05 0.100000000000D+01
  </mgrwgt>
  </event>
  <event>
  8     66 0.29493621E-05 0.29295318E+03 0.75467711E-02 0.92877422E-01
        3 -1    0    0  501    0 0.00000000E+00 0.00000000E+00 0.38300653E+03 0.38300686E+03 0.50000000E+00 0.0000E+00 0.9000E+01
       -4 -1    0    0    0  501 0.00000000E+00 0.00000000E+00 -.73656154E+03 0.73656317E+03 0.15500000E+01 0.0000E+00 0.9000E+01
       25  2    1    2    0    0 -.47096300E+03 0.90611599E+02 -.11284305E+03 0.57695960E+03 0.30022028E+03 0.0000E+00 0.0000E+00
       23  2    3    3    0    0 -.15553366E+03 0.14374858E+03 -.73295819E+02 0.24199924E+03 0.91307081E+02 0.0000E+00 0.0000E+00
      -24  1    1    2    0    0 0.47096300E+03 -.90611599E+02 -.24071195E+03 0.54261042E+03 0.80419002E+02 0.0000E+00 0.9000E+01
      -13  1    4    4    0    0 -.11521468E+03 0.13186266E+03 -.89861848E+02 0.19681806E+03 0.10565837E+00 0.0000E+00 0.9000E+01
       13  1    4    4    0    0 -.40318977E+02 0.11885914E+02 0.16566029E+02 0.45181184E+02 0.10565837E+00 0.0000E+00 0.9000E+01
       23  1    3    3    0    0 -.31542934E+03 -.53136977E+02 -.39547235E+02 0.33496036E+03 0.91188000E+02 0.0000E+00 0.9000E+01
#aMCatNLO 1  0  0  2  1 0.12654853D+03 0.00000000D+00  -5  7  0 0.00000000D+00 0.00000000D+00 0.00000000D+00 0.00000000D+00 0.00000000D+00
  <mgrwgt>
 0.1239935940D-03    9    2    0
 0.531139319157361D+03 0.000000000000000D+00 0.000000000000000D+00 0.531139319157361D+03
 0.531139319157361D+03 0.000000000000000D+00 0.000000000000000D+00 -.531139319157361D+03
 0.491759350173325D+03 0.470963004531485D+03 -.906115986082680D+02 -.730987625671664D+02
 0.177524673905828D+03 -.115214784231812D+03 0.131862821895869D+03 -.292020468708257D+02
 0.531313747925647D+02 -.403188765923330D+02 0.118857535287352D+02 0.324970774183520D+02
 0.339863239443004D+03 -.315429343707339D+03 -.531369768163361D+02 0.698037320196401D+02
 0.000000000000000D+00 0.000000000000000D+00 0.000000000000000D+00 -.000000000000000D+00
 0.588716732198676D+03 0.000000000000000D+00 0.000000000000000D+00 0.588716732198676D+03
 0.609281795381136D+03 0.000000000000000D+00 0.000000000000000D+00 -.609281795381136D+03
 0.500365907854942D+03 0.465073787823063D+03 -.149203782057253D+03 -.730987625671664D+02
 0.164522615557135D+03 -.117245163557281D+03 0.111662451660087D+03 -.292020468708257D+02
 0.525785731279653D+02 -.409463667066128D+02 0.564281534041443D+01 0.324970774183520D+02
 0.352322805813871D+03 -.319538132985787D+03 -.940155769893824D+02 0.698037320196401D+02
 0.128208625225898D+03 0.126558754266185D+02 0.125914092046134D+03 -.205650631824596D+02
0.184025049861D-03 0.000000000000D+00 0.000000000000D+00 0.135288445912D-04 0.000000000000D+00  7 3 -4 -24 -13 13 23 21 0 0.58924233D-01 0.11331731D+00 0.26835214D+06 0.26835214D+06 0.26835214D+06 0.10881522D+01  1  2  2  2  7  2       -4 0.818982518831D-04 0.100000000000D+01
-.102158469286D-04 0.000000000000D+00 -.706704646373D-06 0.135288445912D-04 0.000000000000D+00  7 3 -4 -24 -13 13 23 21 2 0.58924233D-01 0.11331731D+00 0.26835214D+06 0.26835214D+06 0.26835214D+06 0.10881522D+01  1  2  3  2  7  2       -4 -.538333419989D-05 0.100000000000D+01
0.117467317757D-04 0.000000000000D+00 0.000000000000D+00 0.135288445912D-04 0.000000000000D+00  7 3 -4 -24 -13 13 23 21 2 0.58924233D-01 0.11331731D+00 0.26835214D+06 0.26835214D+06 0.26835214D+06 0.10881522D+01  1  2 15  2  7  2       -4 0.619004800552D-05 0.100000000000D+01
0.152427040491D-03 0.000000000000D+00 0.000000000000D+00 0.135288445912D-04 0.000000000000D+00  7 3 -4 -24 -13 13 23 21 2 0.58924233D-01 0.13535661D+00 0.34230012D+06 0.34230012D+06 0.34230012D+06 0.10803389D+01  1  2 12  2  7  2       -4 0.462555208862D-04 0.100000000000D+01
-.138105043003D-03 0.000000000000D+00 0.000000000000D+00 0.135288445912D-04 0.000000000000D+00  7 3 -4 -24 -13 13 23 21 2 0.58924233D-01 0.11331731D+00 0.26835214D+06 0.26835214D+06 0.26835214D+06 0.10881522D+01  1  2  4  2  7  2       -4 -.727757185839D-04 0.100000000000D+01
-.397050752074D-03 0.000000000000D+00 -.114009220877D-03 0.135288445912D-04 0.000000000000D+00  7 3 -4 -24 -13 13 23 21 2 0.58924233D-01 0.14034622D+00 0.26835214D+06 0.26835214D+06 0.26835214D+06 0.10881522D+01  1  2  5  2  7  2       -4 -.109399334289D-03 0.100000000000D+01
0.414479548285D-03 0.000000000000D+00 0.111449409451D-03 0.135288445912D-04 0.000000000000D+00  7 3 -4 -24 -13 13 23 21 2 0.58924233D-01 0.11331731D+00 0.26835214D+06 0.26835214D+06 0.26835214D+06 0.10881522D+01  1  2  6  2  7  2       -4 0.218413797997D-03 0.100000000000D+01
0.398016095952D-05 0.000000000000D+00 0.000000000000D+00 0.135288445912D-04 0.000000000000D+00  7 3 21 -24 -13 13 23 4 2 0.58924233D-01 0.13535661D+00 0.34230012D+06 0.34230012D+06 0.34230012D+06 0.10803389D+01  1  2 12  4  7  2       -4 0.284928539970D-04 0.100000000000D+01
-.104872280831D-04 0.000000000000D+00 -.343426469286D-05 0.135288445912D-04 0.000000000000D+00  7 3 21 -24 -13 13 23 4 2 0.58924233D-01 0.14034622D+00 0.26835214D+06 0.26835214D+06 0.26835214D+06 0.10881522D+01  1  2  5  4  7  2       -4 -.696984917191D-04 0.100000000000D+01
  </mgrwgt>
  </event>
  <event>
  8     66 0.29493621E-05 0.32858614E+03 0.75467711E-02 0.91142157E-01
        1 -1    0    0  501    0 0.00000000E+00 0.00000000E+00 0.88184228E+03 0.88184234E+03 0.32000000E+00 0.0000E+00 0.9000E+01
       -2 -1    0    0    0  501 0.00000000E+00 0.00000000E+00 -.55656017E+03 0.55656026E+03 0.32000000E+00 0.0000E+00 0.9000E+01
       25  2    1    2    0    0 -.24230294E+03 0.15501195E+03 -.44707784E+03 0.61030446E+03 0.29975577E+03 0.0000E+00 0.0000E+00
       23  2    3    3    0    0 0.16794875E+02 0.59606883E+02 -.54844297E+02 0.12204612E+03 0.89734668E+02 0.0000E+00 0.0000E+00
      -24  1    1    2    0    0 0.24230294E+03 -.15501195E+03 0.77235995E+03 0.82809814E+03 0.80419002E+02 0.0000E+00 0.9000E+01
      -11  1    4    4    0    0 -.19291793E+01 0.41929801E+02 0.17333665E+02 0.45412398E+02 0.51099893E-03 0.0000E+00 0.9000E+01
       11  1    4    4    0    0 0.18724054E+02 0.17677082E+02 -.72177962E+02 0.76633724E+02 0.51099893E-03 0.0000E+00 0.9000E+01
       23  1    3    3    0    0 -.25909781E+03 0.95405064E+02 -.39223355E+03 0.48825834E+03 0.91188000E+02 0.0000E+00 0.9000E+01
#aMCatNLO 1  0  0  2  1 0.53402976D+03 0.00000000D+00  -5  7  0 0.00000000D+00 0.00000000D+00 0.00000000D+00 0.00000000D+00 0.00000000D+00
  <mgrwgt>
 0.1224715218D-02    5    2    0
 0.700570054058851D+03 0.000000000000000D+00 0.000000000000000D+00 0.700570054058851D+03
 0.700570054058851D+03 0.000000000000000D+00 0.000000000000000D+00 -.700570054058851D+03
 0.670813462435343D+03 0.242302937745808D+03 -.155011946389537D+03 0.600653034843246D+03
 0.425960115080596D+02 -.192917932129160D+01 0.419298008143964D+02 0.725191472689054D+01
 0.954282499079644D+02 0.187240542293178D+02 0.176770818712493D+02 -.918884184771488D+02
 0.592302384266335D+03 -.259097812653834D+03 0.954050637038910D+02 -.516016531092988D+03
 0.000000000000000D+00 -.000000000000000D+00 -.000000000000000D+00 -.000000000000000D+00
 0.832165042082866D+03 0.000000000000000D+00 0.000000000000000D+00 0.832165042082866D+03
 0.161461848000330D+04 0.000000000000000D+00 0.000000000000000D+00 -.161461848000330D+04
 0.710232064970476D+03 0.364039745431507D+03 0.682155820734379D+02 0.600653034843246D+03
 0.592633643533351D+02 0.704955092630301D+01 0.583940058482677D+02 0.725191472689054D+01
 0.111456434716064D+03 0.369605863098355D+02 0.511172226262131D+02 -.918884184771488D+02
 0.618508500512261D+03 -.152366898358111D+03 0.291116440252718D+03 -.516016531092988D+03
 0.947323157534029D+03 -.255682984309534D+03 -.468843250800636D+03 -.782453437920433D+03
0.458122542144D-03 0.000000000000D+00 0.000000000000D+00 0.128117630318D-04 0.000000000000D+00  7 1 -2 -24 -11 11 23 21 0 0.13566805D+00 0.85624653D-01 0.10796885D+06 0.10796885D+06 0.10796885D+06 0.11189997D+01  1  2  2  2  7  2       -2 0.119208651823D-02 0.100000000000D+01
-.771377755551D-05 0.000000000000D+00 -.175931118827D-05 0.128117630318D-04 0.000000000000D+00  7 1 -2 -24 -11 11 23 21 2 0.13566805D+00 0.85624653D-01 0.10796885D+06 0.10796885D+06 0.10796885D+06 0.11189997D+01  1  2  3  2  7  2       -2 -.251335120617D-04 0.100000000000D+01
0.283806731738D-04 0.000000000000D+00 0.000000000000D+00 0.128117630318D-04 0.000000000000D+00  7 1 -2 -24 -11 11 23 21 2 0.13566805D+00 0.85624653D-01 0.10796885D+06 0.10796885D+06 0.10796885D+06 0.11189997D+01  1  2 15  2  7  2       -2 0.924716828295D-04 0.100000000000D+01
-.104790481802D-03 0.000000000000D+00 -.133175425883D-03 0.128117630318D-04 0.000000000000D+00  7 1 -2 -24 -11 11 23 21 2 0.13566805D+00 0.21440357D+00 0.10796885D+06 0.10796885D+06 0.10796885D+06 0.11189997D+01  1  2  5  2  7  2       -2 -.293626920533D-04 0.100000000000D+01
-.236708601542D-05 0.000000000000D+00 -.134591663638D-04 0.128117630318D-04 0.000000000000D+00  7 1 21 -24 -11 11 23 2 2 0.13566805D+00 0.21440357D+00 0.10796885D+06 0.10796885D+06 0.10796885D+06 0.11189997D+01  1  2  5  4  7  2       -2 -.534677854741D-05 0.100000000000D+01
  </mgrwgt>
  </event>
  <event>
  9     66 0.29493621E-05 0.26383060E+03 0.75467711E-02 0.10142132E+00
        1 -1    0    0  501    0 0.00000000E+00 0.00000000E+00 0.10527013E+04 0.10527014E+04 0.32000000E+00 0.0000E+00 0.9000E+01
       21 -1    0    0  502  501 0.00000000E+00 0.00000000E+00 -.11452529E+03 0.11452774E+03 0.75000000E+00 0.0000E+00 0.9000E+01
       25  2    1    2    0    0 -.16556380E+03 -.28540806E+02 0.38327751E+03 0.51490776E+03 0.30000401E+03 0.0000E+00 0.0000E+00
       23  2    3    3    0    0 -.10332094E+03 0.10368711E+03 0.18351915E+03 0.25113315E+03 0.89231972E+02 0.0000E+00 0.0000E+00
      -24  1    1    2    0    0 0.16148772E+03 0.70952834E+02 0.57383446E+03 0.60569447E+03 0.80419002E+02 0.0000E+00 0.9000E+01
      -13  1    4    4    0    0 -.45365023E+02 0.84905979E+00 0.20316375E+02 0.49713906E+02 0.10565837E+00 0.0000E+00 0.9000E+01
       13  1    4    4    0    0 -.57955919E+02 0.10283805E+03 0.16320278E+03 0.20141924E+03 0.10565837E+00 0.0000E+00 0.9000E+01
       23  1    3    3    0    0 -.62242862E+02 -.13222792E+03 0.19975835E+03 0.26377462E+03 0.91188000E+02 0.0000E+00 0.9000E+01
        2  1    1    2  502    0 0.40760856E+01 -.42412028E+02 -.18935927E+02 0.46626884E+02 0.32000000E+00 0.0000E+00 0.9000E+01
#aMCatNLO 2  0  0  2  1 0.42607448D+02 0.00000000D+00  -5  7  0 0.00000000D+00 0.00000000D+00 0.00000000D+00 0.00000000D+00 0.00000000D+00
  <mgrwgt>
 0.6004415511D-04    2    2    0
 0.290633210728290D+03 0.000000000000000D+00 0.000000000000000D+00 0.290633210728290D+03
 0.290633210728290D+03 0.000000000000000D+00 0.000000000000000D+00 -.290633210728290D+03
 0.218777012718605D+03 0.163031894825675D+03 0.548855443832363D+02 0.108647796236334D+03
 0.620085806605515D+02 -.449300110911161D+02 -.367723433024769D+01 -.425774133381626D+02
 0.111669546782080D+03 -.571473348444806D+02 0.944246243425433D+02 -.169782247734408D+02
 0.188811281295345D+03 -.609545488900780D+02 -.145632934395532D+03 -.490921581247310D+02
 0.000000000000000D+00 0.000000000000000D+00 -.000000000000000D+00 -.000000000000000D+00
 0.295296585331814D+03 0.000000000000000D+00 0.000000000000000D+00 0.295296585331814D+03
 0.408274994215730D+03 0.000000000000000D+00 0.000000000000000D+00 -.408274994215730D+03
 0.222225442886835D+03 0.161487718571423D+03 0.709528338790244D+02 0.108647796236334D+03
 0.622217042591477D+02 -.453650051678919D+02 0.848917228724311D+00 -.425774133381626D+02
 0.119259569258522D+03 -.579559363678343D+02 0.102838194183865D+03 -.169782247734408D+02
 0.179119198702406D+03 -.622428626017285D+02 -.132227917118854D+03 -.490921581247310D+02
 0.120745664440633D+03 0.407608556603195D+01 -.424120281727593D+02 -.112978408883916D+03
-.384173620206D-05 0.000000000000D+00 0.000000000000D+00 0.103522989681D-05 0.000000000000D+00  7 1 21 -24 -13 13 23 2 2 0.15939652D+00 0.17689253D-01 0.81836260D+05 0.81836260D+05 0.81836260D+05 0.11289366D+01  1  2 13  4  7  2       -2 -.250871891185D-02 0.100000000000D+01
0.401724603585D-05 0.000000000000D+00 0.000000000000D+00 0.103522989681D-05 0.176894517061D-09  7 1 21 -24 -13 13 23 2 2 0.16195413D+00 0.17619455D-01 0.81836260D+05 0.81836260D+05 0.81836260D+05 0.11289366D+01  1  2  1  4  7  2       -2 0.256876306696D-02 0.100000000000D+01
  </mgrwgt>
  </event>
  <event>
  9     66 0.29493621E-05 0.20899614E+03 0.75467711E-02 0.10424947E+00
        1 -1    0    0  501    0 0.00000000E+00 0.00000000E+00 0.13707169E+04 0.13707169E+04 0.32000000E+00 0.0000E+00 0.9000E+01
       21 -1    0    0  502  501 0.00000000E+00 0.00000000E+00 -.71233339E+02 0.71237287E+02 0.75000000E+00 0.0000E+00 0.9000E+01
       25  2    1    2    0    0 0.86962219E+02 -.70033139E+02 0.78019844E+03 0.83803174E+03 0.28481662E+03 0.0000E+00 0.0000E+00
       23  2    3    3    0    0 0.15334157E+03 -.15980488E+02 0.42004527E+03 0.45677924E+03 0.91870730E+02 0.0000E+00 0.0000E+00
      -24  1    1    2    0    0 -.42331704E+02 0.78613050E+02 0.46324792E+02 0.12878349E+03 0.80419002E+02 0.0000E+00 0.9000E+01
      -11  1    4    4    0    0 0.14707429E+03 0.87435220E+01 0.30216400E+03 0.33617017E+03 0.51099893E-03 0.0000E+00 0.9000E+01
       11  1    4    4    0    0 0.62672811E+01 -.24724010E+02 0.11788127E+03 0.12060907E+03 0.51099893E-03 0.0000E+00 0.9000E+01
       23  1    3    3    0    0 -.66379348E+02 -.54052651E+02 0.36015317E+03 0.38125250E+03 0.91188000E+02 0.0000E+00 0.9000E+01
        2  1    1    2  502    0 -.44630516E+02 -.85799106E+01 0.47296030E+03 0.47513898E+03 0.32000000E+00 0.0000E+00 0.9000E+01
#aMCatNLO 2  0  0  2  1 0.45447748D+02 0.00000000D+00  -5  7  0 0.00000000D+00 0.00000000D+00 0.00000000D+00 0.00000000D+00 0.00000000D+00
  <mgrwgt>
 0.5400839232D-03    1    2    0
 0.249762647976718D+03 0.000000000000000D+00 0.000000000000000D+00 0.249762647976718D+03
 0.249762647976718D+03 0.000000000000000D+00 0.000000000000000D+00 -.249762647976718D+03
 0.175038410644751D+03 -.577983621540360D+02 0.756396908302216D+02 -.122919549910050D+03
 0.137390126674269D+03 0.134259467573506D+03 0.627996105949833D+01 0.284781383440283D+02
 0.382513159535995D+02 0.285773553938255D+01 -.253794718457598D+02 0.284759359565112D+02
 0.148845442680816D+03 -.793188409588524D+02 -.565401800439601D+02 0.659654756095105D+02
 0.000000000000000D+00 -.000000000000000D+00 -.000000000000000D+00 0.000000000000000D+00
 0.383383467229852D+03 0.000000000000000D+00 0.000000000000000D+00 0.383383467229852D+03
 0.254688791110084D+03 0.000000000000000D+00 0.000000000000000D+00 -.254688791110084D+03
 0.171896528316533D+03 -.423317035982739D+02 0.786130498917615D+02 -.122919549910050D+03
 0.150060984578502D+03 0.147074285828859D+03 0.874352200539807D+01 0.284781383440283D+02
 0.382287119301289D+02 0.626728109035630D+01 -.247240100908390D+02 0.284759359565112D+02
 0.141402270938748D+03 -.663793477599694D+02 -.540526511949898D+02 0.659654756095105D+02
 0.136483762576024D+03 -.446305155609724D+02 -.857991061133072D+01 0.128694676119768D+03
0.582861002795D-06 0.000000000000D+00 0.000000000000D+00 0.268138145215D-08 0.433097873942D-13  7 1 21 -24 -11 11 23 2 2 0.21087967D+00 0.10959274D-01 0.53713516D+05 0.53713516D+05 0.53713516D+05 0.11445687D+01  1  2  1  4  7  2       -2 0.540083923157D-03 0.100000000000D+01
  </mgrwgt>
  </event>
  <event>
  8     66 0.29493621E-05 0.24067477E+03 0.75467711E-02 0.94606119E-01
        1 -1    0    0  501    0 0.00000000E+00 0.00000000E+00 0.13437776E+04 0.13437776E+04 0.32000000E+00 0.0000E+00 0.9000E+01
       -2 -1    0    0    0  501 0.00000000E+00 0.00000000E+00 -.12751207E+03 0.12751247E+03 0.32000000E+00 0.0000E+00 0.9000E+01
       25  2    1    2    0    0 -.12621115E+03 -.10256317E+03 0.12421503E+04 0.12880261E+04 0.29937491E+03 0.0000E+00 0.0000E+00
       23  2    3    3    0    0 0.64472373E+02 -.14039108E+02 0.38167117E+03 0.39755637E+03 0.89579003E+02 0.0000E+00 0.0000E+00
      -24  1    1    2    0    0 0.12621115E+03 0.10256317E+03 -.25884797E+02 0.18326401E+03 0.80419002E+02 0.0000E+00 0.9000E+01
      -13  1    4    4    0    0 0.15996483E+02 -.15494201E+02 0.31127988E+03 0.31207553E+03 0.10565837E+00 0.0000E+00 0.9000E+01
       13  1    4    4    0    0 0.48475891E+02 0.14550930E+01 0.70391290E+02 0.85480841E+02 0.10565837E+00 0.0000E+00 0.9000E+01
       23  1    3    3    0    0 -.19068352E+03 -.88524066E+02 0.86047915E+03 0.89046973E+03 0.91188000E+02 0.0000E+00 0.9000E+01
#aMCatNLO 1  0  0  2  1 0.38110894D+03 0.00000000D+00  -5  7  0 0.00000000D+00 0.00000000D+00 0.00000000D+00 0.00000000D+00 0.00000000D+00
  <mgrwgt>
 0.1187979513D-02    3    2    0
 0.413942248124250D+03 0.000000000000000D+00 0.000000000000000D+00 0.413942248124250D+03
 0.413942248124250D+03 0.000000000000000D+00 0.000000000000000D+00 -.413942248124250D+03
 0.363718985614652D+03 0.126211147253585D+03 0.102563173756297D+03 -.315239315822361D+03
 0.973018580966855D+02 0.159964375402765D+02 -.154942242034549D+02 0.947190297217018D+02
 0.485001951625031D+02 0.484759359726269D+02 0.145511654796633D+01 -.484972381176284D+00
 0.318363457374660D+03 -.190683520766488D+03 -.885240661008085D+02 0.221005258481836D+03
 0.000000000000000D+00 -.000000000000000D+00 0.000000000000000D+00 0.000000000000000D+00
 0.878082513440723D+03 0.000000000000000D+00 0.000000000000000D+00 0.878082513440723D+03
 0.541662756120866D+03 0.000000000000000D+00 0.000000000000000D+00 -.541662756120866D+03
 0.444536222852049D+03 0.297452440098661D+03 0.573712219880150D+02 -.315239315822361D+03
 0.116056724671133D+03 0.611997336898486D+02 -.274237369127931D+02 0.947190297217018D+02
 0.747981688098711D+02 0.745985900936761D+02 -.543886156609763D+01 -.484972381176284D+00
 0.276001642614164D+03 -.647581359648726D+02 -.121756785976998D+03 0.221005258481836D+03
 0.508352510614373D+03 -.368492627917313D+03 0.972481624678739D+02 0.336419757319857D+03
0.571729119250D-04 0.000000000000D+00 0.000000000000D+00 0.169452717946D-05 0.000000000000D+00  7 1 -2 -24 -13 13 23 21 0 0.20673505D+00 0.19617275D-01 0.57924343D+05 0.57924343D+05 0.57924343D+05 0.11417176D+01  1  2  2  2  7  2       -2 0.115007951385D-02 0.100000000000D+01
-.204061787594D-05 0.000000000000D+00 -.219559035765D-06 0.169452717946D-05 0.000000000000D+00  7 1 -2 -24 -13 13 23 21 2 0.20673505D+00 0.19617275D-01 0.57924343D+05 0.57924343D+05 0.57924343D+05 0.11417176D+01  1  2  3  2  7  2       -2 -.535077435624D-04 0.100000000000D+01
0.348600522835D-05 0.000000000000D+00 0.000000000000D+00 0.169452717946D-05 0.000000000000D+00  7 1 -2 -24 -13 13 23 21 2 0.20673505D+00 0.19617275D-01 0.57924343D+05 0.57924343D+05 0.57924343D+05 0.11417176D+01  1  2 15  2  7  2       -2 0.914077427309D-04 0.100000000000D+01
  </mgrwgt>
  </event>
  <event>
  8     66 0.29493621E-05 0.14764643E+03 0.75467711E-02 0.81145884E-01
        1 -1    0    0  501    0 0.00000000E+00 0.00000000E+00 0.56671848E+03 0.56671857E+03 0.32000000E+00 0.0000E+00 0.9000E+01
       -2 -1    0    0    0  501 0.00000000E+00 0.00000000E+00 -.87985934E+02 0.87986516E+02 0.32000000E+00 0.0000E+00 0.9000E+01
       25  2    1    2    0    0 0.50505306E+02 -.36324849E+02 0.22232102E+03 0.37887114E+03 0.30041042E+03 0.0000E+00 0.0000E+00
       23  2    3    3    0    0 -.18457215E+02 -.68068800E+02 0.23310165E+03 0.25972845E+03 0.90268811E+02 0.0000E+00 0.0000E+00
      -24  1    1    2    0    0 -.50505306E+02 0.36324849E+02 0.25641152E+03 0.27583394E+03 0.80419002E+02 0.0000E+00 0.9000E+01
      -11  1    4    4    0    0 -.12597332E+02 -.67946349E+02 0.24053355E+03 0.25026344E+03 0.51099893E-03 0.0000E+00 0.9000E+01
       11  1    4    4    0    0 -.58598840E+01 -.12245108E+00 -.74319033E+01 0.94650104E+01 0.51099893E-03 0.0000E+00 0.9000E+01
       23  1    3    3    0    0 0.68962522E+02 0.31743951E+02 -.10780624E+02 0.11914269E+03 0.91188000E+02 0.0000E+00 0.9000E+01
#aMCatNLO 1  0  0  2  2 0.19979240D+04 0.00000000D+00  -5  7  0 0.00000000D+00 0.00000000D+00 0.00000000D+00 0.00000000D+00 0.00000000D+00
  <mgrwgt>
 0.1225828455D-02    3    2    0
 0.223301308572727D+03 0.000000000000000D+00 0.000000000000000D+00 0.223301308572727D+03
 0.223301308572727D+03 0.000000000000000D+00 0.000000000000000D+00 -.223301308572727D+03
 0.129505164950380D+03 -.505053063535033D+02 0.363248491176143D+02 0.802127867685443D+02
 0.109039902866619D+03 -.125973314847229D+02 -.679463488957308D+02 0.843463178115401D+02
 0.218419777250603D+02 -.585988397865343D+01 -.122451078526723D+00 -.210408829765321D+02
 0.186215571603394D+03 0.689625218168797D+02 0.317439508566433D+02 -.143518221603552D+03
 0.000000000000000D+00 -.000000000000000D+00 -.000000000000000D+00 0.000000000000000D+00
 0.216930662754029D+04 0.000000000000000D+00 0.000000000000000D+00 0.216930662754029D+04
 0.189463999101944D+04 0.000000000000000D+00 0.000000000000000D+00 -.189463999101944D+04
 0.487091108442905D+03 0.369497957471342D+03 0.296357385993833D+03 0.802127867685443D+02
 0.291917411576387D+03 0.260520408578384D+03 0.101146381879158D+03 0.843463178115401D+02
 0.775466709923430D+02 0.618400984080793D+02 0.417919807432195D+02 -.210408829765321D+02
 0.119067571735395D+04 0.100685147808896D+04 0.612410020893004D+03 -.143518221603552D+03
 0.201671571019415D+04 -.169870994254677D+04 -.105170576950921D+04 0.274666636520853D+03
0.791272155934D-05 0.000000000000D+00 0.000000000000D+00 0.825163038824D-06 0.000000000000D+00  7 1 -2 -24 -11 11 23 21 0 0.87187510D-01 0.13536349D-01 0.21799467D+05 0.21799467D+05 0.21799467D+05 0.11804253D+01  1  2  2  2  7  2       -2 0.119502769066D-02 0.100000000000D+01
-.348119190958D-06 0.000000000000D+00 -.303869342553D-07 0.825163038824D-06 0.000000000000D+00  7 1 -2 -24 -11 11 23 21 2 0.87187510D-01 0.13536349D-01 0.21799467D+05 0.21799467D+05 0.21799467D+05 0.11804253D+01  1  2  3  2  7  2       -2 -.732583449349D-04 0.100000000000D+01
0.494482543892D-06 0.000000000000D+00 0.000000000000D+00 0.825163038824D-06 0.000000000000D+00  7 1 -2 -24 -11 11 23 21 2 0.87187510D-01 0.13536349D-01 0.21799467D+05 0.21799467D+05 0.21799467D+05 0.11804253D+01  1  2 15  2  7  2       -2 0.104059108793D-03 0.100000000000D+01
  </mgrwgt>
  </event>
  <event>
  8     66 0.29493621E-05 0.23581945E+03 0.75467711E-02 0.89855470E-01
        1 -1    0    0  501    0 0.00000000E+00 0.00000000E+00 0.45207400E+03 0.45207411E+03 0.32000000E+00 0.0000E+00 0.9000E+01
       -2 -1    0    0    0  501 0.00000000E+00 0.00000000E+00 -.37848404E+03 0.37848418E+03 0.32000000E+00 0.0000E+00 0.9000E+01
       25  2    1    2    0    0 0.13211254E+03 0.46726935E+02 -.28512665E+03 0.43713492E+03 0.30025423E+03 0.0000E+00 0.0000E+00
       23  2    3    3    0    0 0.72490436E+00 0.11543519E+03 -.79014175E+02 0.16735512E+03 0.91862335E+02 0.0000E+00 0.0000E+00
      -24  1    1    2    0    0 -.13211254E+03 -.46726935E+02 0.35871661E+03 0.39342337E+03 0.80419002E+02 0.0000E+00 0.9000E+01
      -11  1    4    4    0    0 -.22608384E+02 0.10966185E+03 -.87247602E+02 0.14194719E+03 0.51099893E-03 0.0000E+00 0.9000E+01
       11  1    4    4    0    0 0.23333288E+02 0.57733398E+01 0.82334266E+01 0.25407934E+02 0.51099893E-03 0.0000E+00 0.9000E+01
       23  1    3    3    0    0 0.13138763E+03 -.68708258E+02 -.20611248E+03 0.26977980E+03 0.91188000E+02 0.0000E+00 0.9000E+01
#aMCatNLO 1  0  0  2  2 0.72259999D+03 0.00000000D+00  -5  7  0 0.00000000D+00 0.00000000D+00 0.00000000D+00 0.00000000D+00 0.00000000D+00
  <mgrwgt>
 0.1360751993D-02    5    2    0
 0.413645861105677D+03 0.000000000000000D+00 0.000000000000000D+00 0.413645861105677D+03
 0.413645861105677D+03 0.000000000000000D+00 0.000000000000000D+00 -.413645861105677D+03
 0.363067942044882D+03 -.132112536303617D+03 -.467269346418168D+02 0.325136872588669D+03
 0.150268593118525D+03 -.226083835270827D+02 0.109661852944824D+03 -.100218706242003D+03
 0.247758703164752D+02 0.233332878869800D+02 0.577333977852129D+01 0.600582834618628D+01
 0.289179316731472D+03 0.131387631943720D+03 -.687082580815286D+02 -.230923994692853D+03
 0.000000000000000D+00 0.000000000000000D+00 -.000000000000000D+00 -.000000000000000D+00
 0.866603428854606D+03 0.000000000000000D+00 0.000000000000000D+00 0.866603428854606D+03
 0.960509099608586D+03 0.000000000000000D+00 0.000000000000000D+00 -.960509099608586D+03
 0.503952476004551D+03 -.293697840258944D+03 0.235644806493243D+03 0.325136872588669D+03
 0.292462000865718D+03 -.105119424916638D+03 0.253850624137018D+03 -.100218706242003D+03
 0.271505104344697D+02 0.136558456465561D+02 0.226847552864435D+02 0.600582834618628D+01
 0.274871328952970D+03 0.262663532151686D+02 0.114992101903754D+03 -.230923994692853D+03
 0.728676212205484D+03 0.358895066313858D+03 -.627172287820459D+03 -.939056707539800D+02
0.764116458118D-04 0.000000000000D+00 0.000000000000D+00 0.892235287569D-05 0.000000000000D+00  7 1 -2 -24 -11 11 23 21 0 0.69549865D-01 0.58228334D-01 0.55610814D+05 0.55610814D+05 0.55610814D+05 0.11432546D+01  1  2  2  2  7  2       -2 0.123542858735D-02 0.100000000000D+01
-.261521682432D-05 0.000000000000D+00 -.293440839566D-06 0.892235287569D-05 0.000000000000D+00  7 1 -2 -24 -11 11 23 21 2 0.69549865D-01 0.58228334D-01 0.55610814D+05 0.55610814D+05 0.55610814D+05 0.11432546D+01  1  2  3  2  7  2       -2 -.552651983675D-04 0.100000000000D+01
0.470954002431D-05 0.000000000000D+00 0.000000000000D+00 0.892235287569D-05 0.000000000000D+00  7 1 -2 -24 -11 11 23 21 2 0.69549865D-01 0.58228334D-01 0.55610814D+05 0.55610814D+05 0.55610814D+05 0.11432546D+01  1  2 15  2  7  2       -2 0.995227857370D-04 0.100000000000D+01
0.560422867901D-04 0.000000000000D+00 -.268970905365D-04 0.892235287569D-05 0.000000000000D+00  7 1 -2 -24 -11 11 23 21 2 0.69549865D-01 0.23412592D+00 0.55610814D+05 0.55610814D+05 0.55610814D+05 0.11432546D+01  1  2  5  2  7  2       -2 0.339473717401D-04 0.100000000000D+01
0.960371252865D-05 0.000000000000D+00 -.446954341227D-05 0.892235287569D-05 0.000000000000D+00  7 1 21 -24 -11 11 23 2 2 0.69549865D-01 0.23412592D+00 0.55610814D+05 0.55610814D+05 0.55610814D+05 0.11432546D+01  1  2  5  4  7  2       -2 0.471184468756D-04 0.100000000000D+01
  </mgrwgt>
  </event>
  <event>
  9     66 0.29493621E-05 0.15584359E+03 0.75467711E-02 0.10059235E+00
        1 -1    0    0  502    0 0.00000000E+00 0.00000000E+00 0.60935212E+03 0.60935221E+03 0.32000000E+00 0.0000E+00 0.9000E+01
       -2 -1    0    0    0  501 0.00000000E+00 0.00000000E+00 -.29927494E+03 0.29927511E+03 0.32000000E+00 0.0000E+00 0.9000E+01
       25  2    1    2    0    0 0.10579960E+03 -.15024962E+03 -.96026856E+02 0.35945041E+03 0.29362380E+03 0.0000E+00 0.0000E+00
       23  2    3    3    0    0 0.11493921E+03 -.19182110E+02 0.36398095E+02 0.15181167E+03 0.90238502E+02 0.0000E+00 0.0000E+00
      -24  1    1    2    0    0 0.37803040E+02 -.29809132E+02 0.26013274E+03 0.27650301E+03 0.80419002E+02 0.0000E+00 0.9000E+01
      -11  1    4    4    0    0 0.79118633E+02 0.10045595E+02 0.60095260E+02 0.99860464E+02 0.51099893E-03 0.0000E+00 0.9000E+01
       11  1    4    4    0    0 0.35820581E+02 -.29227705E+02 -.23697165E+02 0.51951211E+02 0.51099893E-03 0.0000E+00 0.9000E+01
       23  1    3    3    0    0 -.91396151E+01 -.13106751E+03 -.13242495E+03 0.20763873E+03 0.91188000E+02 0.0000E+00 0.9000E+01
       21  1    1    2  502  501 -.14360264E+03 0.18005875E+03 0.14597130E+03 0.27267390E+03 0.75000000E+00 0.0000E+00 0.9000E+01
#aMCatNLO 2  0  0  1  2 0.23031038D+03 0.00000000D+00  -5  7  0 0.00000000D+00 0.00000000D+00 0.00000000D+00 0.00000000D+00 0.00000000D+00
  <mgrwgt>
 0.2910408498D-03    1    2    0
 0.284808328009370D+03 0.000000000000000D+00 0.000000000000000D+00 0.284808328009370D+03
 0.284808328009370D+03 0.000000000000000D+00 0.000000000000000D+00 -.284808328009370D+03
 0.214807109755387D+03 -.145332934952519D+02 0.358137209517594D+02 0.195399690938503D+03
 0.774060408886234D+02 0.591414122296567D+02 0.350943919849928D+02 0.355298772406650D+02
 0.465589625829595D+02 0.228844822914505D+02 -.130075455050956D+02 -.384036616351434D+02
 0.230844542791771D+03 -.674926010258552D+02 -.579005674316567D+02 -.192525906544025D+03
 0.000000000000000D+00 -.000000000000000D+00 0.000000000000000D+00 0.000000000000000D+00
 0.467958746582464D+03 0.000000000000000D+00 0.000000000000000D+00 0.467958746582464D+03
 0.389699793474025D+03 0.000000000000000D+00 0.000000000000000D+00 -.389699793474025D+03
 0.216716195532086D+03 0.378030403358282D+02 -.298091323932058D+02 0.195399690938503D+03
 0.873100461918333D+02 0.791186324983259D+02 0.100455950982604D+02 0.355298772406650D+02
 0.601016967510843D+02 0.358205805395645D+02 -.292277049249731D+02 -.384036616351434D+02
 0.250287235619081D+03 -.913961507327325D+01 -.131067508237378D+03 -.192525906544025D+03
 0.243243365962405D+03 -.143602638300445D+03 0.180058750457296D+03 0.782589531084393D+02
0.137265295511D-04 0.000000000000D+00 0.000000000000D+00 0.221071577010D-07 0.316489552958D-11  7 1 -2 -24 -11 11 23 21 2 0.93746370D-01 0.46042254D-01 0.93010716D+05 0.93010716D+05 0.93010716D+05 0.11243135D+01  1  2  1  1  7  1        1 0.291040849830D-03 0.100000000000D+01
  </mgrwgt>
  </event>
  <event>
  8     66 0.29493621E-05 0.23847125E+03 0.75467711E-02 0.91851142E-01
        1 -1    0    0  501    0 0.00000000E+00 0.00000000E+00 0.39719304E+03 0.39719317E+03 0.32000000E+00 0.0000E+00 0.9000E+01
       -2 -1    0    0    0  501 0.00000000E+00 0.00000000E+00 -.28326824E+03 0.28326842E+03 0.32000000E+00 0.0000E+00 0.9000E+01
       25  2    1    2    0    0 0.11895783E+03 -.87841439E+02 0.28147859E+03 0.44295670E+03 0.30840454E+03 0.0000E+00 0.0000E+00
       23  2    3    3    0    0 0.15046938E+03 0.30705478E+02 0.20026042E+03 0.26987293E+03 0.95620618E+02 0.0000E+00 0.0000E+00
      -24  1    1    2    0    0 -.11895783E+03 0.87841439E+02 -.16755378E+03 0.23750488E+03 0.80419002E+02 0.0000E+00 0.9000E+01
      -11  1    4    4    0    0 0.84274681E+01 0.85588062E+01 -.96821808E+01 0.15427897E+02 0.51099893E-03 0.0000E+00 0.9000E+01
       11  1    4    4    0    0 0.14204191E+03 0.22146672E+02 0.20994260E+03 0.25444504E+03 0.51099893E-03 0.0000E+00 0.9000E+01
       23  1    3    3    0    0 -.31511552E+02 -.11854692E+03 0.81218163E+02 0.17308377E+03 0.91188000E+02 0.0000E+00 0.9000E+01
#aMCatNLO 1  0  0  2  2 0.55585076D+03 0.00000000D+00  -5  7  0 0.00000000D+00 0.00000000D+00 0.00000000D+00 0.00000000D+00 0.00000000D+00
  <mgrwgt>
 0.1883543650D-02    3    2    0
 0.335428498668603D+03 0.000000000000000D+00 0.000000000000000D+00 0.335428498668603D+03
 0.335428498668603D+03 0.000000000000000D+00 0.000000000000000D+00 -.335428498668603D+03
 0.269359167495694D+03 -.118957829845545D+03 0.878414393856465D+02 -.210285666189351D+03
 0.172930025867808D+02 0.842746804998161D+01 0.855880613615385D+01 -.124407619644732D+02
 0.222435489395350D+03 0.142041913735551D+03 0.221466712209615D+02 0.169738524321150D+03
 0.161769337859381D+03 -.315115519399876D+02 -.118546916742762D+03 0.529879038326739D+02
 0.000000000000000D+00 0.000000000000000D+00 -.000000000000000D+00 0.000000000000000D+00
 0.133352607881303D+04 0.000000000000000D+00 0.000000000000000D+00 0.133352607881303D+04
 0.521632595635410D+03 0.000000000000000D+00 0.000000000000000D+00 -.521632595635410D+03
 0.469619205698230D+03 -.295386242373586D+03 0.287405443264354D+03 -.210285666189351D+03
 0.231457966407630D+02 -.122714893348930D+01 0.194794622455012D+02 -.124407619644732D+02
 0.224664301661896D+03 0.352984564988813D+02 0.142887720855580D+03 0.169738524321150D+03
 0.153787760812274D+03 -.106849667370850D+03 -.333294863718488D+02 0.529879038326739D+02
 0.983941609635277D+03 0.368164602179044D+03 -.416443139993586D+03 0.811893483177620D+03
0.546493963049D-04 0.000000000000D+00 0.000000000000D+00 0.240304159002D-08 0.000000000000D+00  7 1 -2 -24 -11 11 23 21 0 0.61106645D-01 0.43579753D-01 0.56868538D+05 0.56868538D+05 0.56868538D+05 0.11424105D+01  1  2  2  2  7  2       -2 0.184840106617D-02 0.100000000000D+01
-.260643165103D-05 0.000000000000D+00 -.209868071327D-06 0.240304159002D-08 0.000000000000D+00  7 1 -2 -24 -11 11 23 21 2 0.61106645D-01 0.43579753D-01 0.56868538D+05 0.56868538D+05 0.56868538D+05 0.11424105D+01  1  2  3  2  7  2       -2 -.115053954342D-03 0.100000000000D+01
0.340255155369D-05 0.000000000000D+00 0.000000000000D+00 0.240304159002D-08 0.000000000000D+00  7 1 -2 -24 -11 11 23 21 2 0.61106645D-01 0.43579753D-01 0.56868538D+05 0.56868538D+05 0.56868538D+05 0.11424105D+01  1  2 15  2  7  2       -2 0.150196538225D-03 0.100000000000D+01
  </mgrwgt>
  </event>
  <event>
  8     66 0.29493621E-05 0.27085797E+03 0.75467711E-02 0.95343405E-01
        1 -1    0    0  501    0 0.00000000E+00 0.00000000E+00 0.60562548E+03 0.60562556E+03 0.32000000E+00 0.0000E+00 0.9000E+01
       -2 -1    0    0    0  501 0.00000000E+00 0.00000000E+00 -.13717474E+03 0.13717512E+03 0.32000000E+00 0.0000E+00 0.9000E+01
       25  2    1    2    0    0 0.52731483E+02 0.19100734E+03 0.25335896E+03 0.43949209E+03 0.29949645E+03 0.0000E+00 0.0000E+00
       23  2    3    3    0    0 0.87787439E+02 0.19110220E+03 0.25267083E+03 0.34179535E+03 0.93567229E+02 0.0000E+00 0.0000E+00
      -24  1    1    2    0    0 -.52731483E+02 -.19100734E+03 0.21509178E+03 0.30330859E+03 0.80419002E+02 0.0000E+00 0.9000E+01
      -13  1    4    4    0    0 -.19715037E+02 0.19873244E+02 0.29993421E+02 0.41027369E+02 0.10565837E+00 0.0000E+00 0.9000E+01
       13  1    4    4    0    0 0.10750248E+03 0.17122895E+03 0.22267741E+03 0.30076798E+03 0.10565837E+00 0.0000E+00 0.9000E+01
       23  1    3    3    0    0 -.35055956E+02 -.94862823E-01 0.68812636E+00 0.97696745E+02 0.91188000E+02 0.0000E+00 0.9000E+01
#aMCatNLO 1  0  0  2  1 0.31169637D+03 0.00000000D+00  -5  7  0 0.00000000D+00 0.00000000D+00 0.00000000D+00 0.00000000D+00 0.00000000D+00
  <mgrwgt>
 0.1160113399D-02    5    2    0
 0.288230273815318D+03 0.000000000000000D+00 0.000000000000000D+00 0.288230273815318D+03
 0.288230273815318D+03 0.000000000000000D+00 0.000000000000000D+00 -.288230273815318D+03
 0.216038941412681D+03 -.527314827720664D+02 -.191007336903125D+03 0.306789215289071D+02
 0.284921244665408D+02 -.197151967175416D+02 0.198730517309625D+02 0.530791766175534D+01
 0.206601120002386D+03 0.107502636327130D+03 0.171229148500488D+03 0.425180511401327D+02
 0.125328361749029D+03 -.350559568375223D+02 -.948633283253315D-01 -.785048903307951D+02
 0.000000000000000D+00 0.000000000000000D+00 0.000000000000000D+00 -.000000000000000D+00
 0.419743220795777D+03 0.000000000000000D+00 0.000000000000000D+00 0.419743220795777D+03
 0.591453724901473D+03 0.000000000000000D+00 0.000000000000000D+00 -.591453724901473D+03
 0.285809572919061D+03 -.178876375735776D+03 -.205625732813921D+03 0.306789215289071D+02
 0.417427832110452D+02 -.373694781556420D+02 0.178271720324716D+02 0.530791766175534D+01
 0.166469737887771D+03 0.137273593412069D+02 0.160361929912263D+03 0.425180511401327D+02
 0.161310941935849D+03 -.107105755232700D+03 -.844440847032915D+01 -.785048903307951D+02
 0.355863909743524D+03 0.309624249782911D+03 0.358810393395150D+02 -.171710504105696D+03
0.166387760950D-04 0.000000000000D+00 0.000000000000D+00 0.384156351957D-06 0.000000000000D+00  7 1 -2 -24 -13 13 23 21 0 0.93173186D-01 0.21103842D-01 0.73364039D+05 0.73364039D+05 0.73364039D+05 0.11329307D+01  1  2  2  2  7  2       -2 0.112609651538D-02 0.100000000000D+01
-.920033105698D-06 0.000000000000D+00 -.638972812952D-07 0.384156351957D-06 0.000000000000D+00  7 1 -2 -24 -13 13 23 21 2 0.93173186D-01 0.21103842D-01 0.73364039D+05 0.73364039D+05 0.73364039D+05 0.11329307D+01  1  2  3  2  7  2       -2 -.799216448922D-04 0.100000000000D+01
0.106447798018D-05 0.000000000000D+00 0.000000000000D+00 0.384156351957D-06 0.000000000000D+00  7 1 -2 -24 -13 13 23 21 2 0.93173186D-01 0.21103842D-01 0.73364039D+05 0.73364039D+05 0.73364039D+05 0.11329307D+01  1  2 15  2  7  2       -2 0.924693150721D-04 0.100000000000D+01
-.551935387730D-06 0.000000000000D+00 -.530133466437D-05 0.384156351957D-06 0.000000000000D+00  7 1 -2 -24 -13 13 23 21 2 0.93173186D-01 0.61017082D-01 0.73364039D+05 0.73364039D+05 0.73364039D+05 0.11329307D+01  1  2  5  2  7  2       -2 -.689575862191D-05 0.100000000000D+01
0.216312119210D-06 0.000000000000D+00 -.635922895952D-06 0.384156351957D-06 0.000000000000D+00  7 1 21 -24 -13 13 23 2 2 0.93173186D-01 0.61017082D-01 0.73364039D+05 0.73364039D+05 0.73364039D+05 0.11329307D+01  1  2  5  4  7  2       -2 0.283649722466D-04 0.100000000000D+01
  </mgrwgt>
  </event>
  <event>
  8     66 0.29493621E-05 0.87550633E+02 0.75467711E-02 0.10155420E+00
        1 -1    0    0  501    0 0.00000000E+00 0.00000000E+00 0.63902231E+03 0.63902239E+03 0.32000000E+00 0.0000E+00 0.9000E+01
       -2 -1    0    0    0  501 0.00000000E+00 0.00000000E+00 -.22225462E+03 0.22225485E+03 0.32000000E+00 0.0000E+00 0.9000E+01
       25  2    1    2    0    0 0.15268839E+03 -.14360072E+03 -.23035052E+02 0.36748722E+03 0.30096732E+03 0.0000E+00 0.0000E+00
       23  2    3    3    0    0 -.35016941E+02 -.93229420E+02 0.43768516E+02 0.14265722E+03 0.92290234E+02 0.0000E+00 0.0000E+00
      -24  1    1    2    0    0 -.15268839E+03 0.14360072E+03 0.43980275E+03 0.49379003E+03 0.80419002E+02 0.0000E+00 0.9000E+01
      -13  1    4    4    0    0 -.40160819E+02 -.99749720E+02 0.60928504E+02 0.12359285E+03 0.10565837E+00 0.0000E+00 0.9000E+01
       13  1    4    4    0    0 0.51438787E+01 0.65203003E+01 -.17159988E+02 0.19064368E+02 0.10565837E+00 0.0000E+00 0.9000E+01
       23  1    3    3    0    0 0.18770534E+03 -.50371305E+02 -.66803568E+02 0.22483000E+03 0.91188000E+02 0.0000E+00 0.9000E+01
#aMCatNLO 1  0  0  2  1 0.12123468D+02 0.00000000D+00  -5  7  0 0.00000000D+00 0.00000000D+00 0.00000000D+00 0.00000000D+00 0.00000000D+00
  <mgrwgt>
 0.8797113019D-03    9    2    0
 0.376863096127859D+03 0.000000000000000D+00 0.000000000000000D+00 0.376863096127859D+03
 0.376863096127859D+03 0.000000000000000D+00 0.000000000000000D+00 -.376863096127859D+03
 0.321064245966374D+03 -.152688394905878D+03 0.143600724995287D+03 0.229521502098344D+03
 0.107538718458930D+03 -.401608783249987D+02 -.997498587360400D+02 0.128277125541677D+01
 0.312731069088719D+02 0.514393802018739D+01 0.652043935390722D+01 -.301501407626933D+02
 0.293850120921542D+03 0.187705335210690D+03 -.503713056131542D+02 -.200654132591068D+03
 0.000000000000000D+00 -.000000000000000D+00 0.000000000000000D+00 -.000000000000000D+00
 0.377544368504353D+03 0.000000000000000D+00 0.000000000000000D+00 0.377544368504353D+03
 0.435003810277477D+03 0.000000000000000D+00 0.000000000000000D+00 -.435003810277477D+03
 0.318303373541260D+03 -.151533484678688D+03 0.138590420841521D+03 0.229521502098344D+03
 0.108970980889964D+03 -.397697899144589D+02 -.101446503065344D+03 0.128277125541677D+01
 0.311935372141420D+02 0.525677352194687D+01 0.603092928650285D+01 -.301501407626933D+02
 0.295355795536891D+03 0.188769636745639D+03 -.549885254419101D+02 -.200654132591068D+03
 0.587244915995730D+02 -.272313567443843D+01 0.118136783792306D+02 -.574594417731239D+02
0.355549631163D-04 0.000000000000D+00 0.000000000000D+00 0.141170484659D-05 0.000000000000D+00  7 1 -2 -24 -13 13 23 21 0 0.98311149D-01 0.34193042D-01 0.77010832D+05 0.77010832D+05 0.77010832D+05 0.11311524D+01  1  2  2  2  7  2       -2 0.970024721347D-03 0.100000000000D+01
-.175034907906D-05 0.000000000000D+00 -.136540420203D-06 0.141170484659D-05 0.000000000000D+00  7 1 -2 -24 -13 13 23 21 2 0.98311149D-01 0.34193042D-01 0.77010832D+05 0.77010832D+05 0.77010832D+05 0.11311524D+01  1  2  3  2  7  2       -2 -.611011635198D-04 0.100000000000D+01
0.229237344064D-05 0.000000000000D+00 0.000000000000D+00 0.141170484659D-05 0.000000000000D+00  7 1 -2 -24 -13 13 23 21 2 0.98311149D-01 0.34193042D-01 0.77010832D+05 0.77010832D+05 0.77010832D+05 0.11311524D+01  1  2 15  2  7  2       -2 0.800221430803D-04 0.100000000000D+01
0.137751370663D-02 0.000000000000D+00 0.000000000000D+00 0.141170484659D-05 0.000000000000D+00  7 1 -2 -24 -13 13 23 21 2 0.98311149D-01 0.39496177D-01 0.80190211D+05 0.80190211D+05 0.80190211D+05 0.11296760D+01  1  2 12  2  7  2       -2 0.368644705195D-01 0.100000000000D+01
-.137110253594D-02 0.000000000000D+00 0.000000000000D+00 0.141170484659D-05 0.000000000000D+00  7 1 -2 -24 -13 13 23 21 2 0.98311149D-01 0.34193042D-01 0.77010832D+05 0.77010832D+05 0.77010832D+05 0.11311524D+01  1  2  4  2  7  2       -2 -.478624299878D-01 0.100000000000D+01
-.145687337407D-02 0.000000000000D+00 -.339529218889D-04 0.141170484659D-05 0.000000000000D+00  7 1 -2 -24 -13 13 23 21 2 0.98311149D-01 0.39503320D-01 0.77010832D+05 0.77010832D+05 0.77010832D+05 0.11311524D+01  1  2  5  2  7  2       -2 -.391085526526D-01 0.100000000000D+01
0.144702109523D-02 0.000000000000D+00 0.336021695379D-04 0.141170484659D-05 0.000000000000D+00  7 1 -2 -24 -13 13 23 21 2 0.98311149D-01 0.34193042D-01 0.77010832D+05 0.77010832D+05 0.77010832D+05 0.11311524D+01  1  2  6  2  7  2       -2 0.505125940958D-01 0.100000000000D+01
0.304285922426D-04 0.000000000000D+00 0.000000000000D+00 0.141170484659D-05 0.000000000000D+00  7 1 21 -24 -13 13 23 2 2 0.98311149D-01 0.39496177D-01 0.80190211D+05 0.80190211D+05 0.80190211D+05 0.11296760D+01  1  2 12  4  7  2       -2 0.922000150333D-02 0.100000000000D+01
-.319945621492D-04 0.000000000000D+00 -.750769893723D-06 0.141170484659D-05 0.000000000000D+00  7 1 21 -24 -13 13 23 2 2 0.98311149D-01 0.39503320D-01 0.77010832D+05 0.77010832D+05 0.77010832D+05 0.11311524D+01  1  2  5  4  7  2       -2 -.973531787718D-02 0.100000000000D+01
  </mgrwgt>
  </event>
  <event>
  8     66 0.29493621E-05 0.18321072E+03 0.75467711E-02 0.10283002E+00
        1 -1    0    0  501    0 0.00000000E+00 0.00000000E+00 0.26675018E+04 0.26675019E+04 0.32000000E+00 0.0000E+00 0.9000E+01
       -2 -1    0    0    0  501 0.00000000E+00 0.00000000E+00 -.21130371E+02 0.21132794E+02 0.32000000E+00 0.0000E+00 0.9000E+01
       25  2    1    2    0    0 -.59179823E+00 0.11239608E+03 0.14757418E+04 0.15098750E+04 0.29879006E+03 0.0000E+00 0.0000E+00
       23  2    3    3    0    0 -.59444573E+02 0.18631310E+02 0.17226629E+03 0.19853253E+03 0.76542194E+02 0.0000E+00 0.0000E+00
      -24  1    1    2    0    0 0.59179823E+00 -.11239608E+03 0.11706297E+04 0.11787596E+04 0.80419002E+02 0.0000E+00 0.9000E+01
      -13  1    4    4    0    0 -.34829989E+02 -.19113927E+02 0.13285135E+03 0.13866493E+03 0.10565837E+00 0.0000E+00 0.9000E+01
       13  1    4    4    0    0 -.24614583E+02 0.37745237E+02 0.39414934E+02 0.59867594E+02 0.10565837E+00 0.0000E+00 0.9000E+01
       23  1    3    3    0    0 0.58852774E+02 0.93764767E+02 0.13034755E+04 0.13113425E+04 0.91188000E+02 0.0000E+00 0.9000E+01
#aMCatNLO 1  0  0  2  1 0.14910083D+03 0.00000000D+00  -5  7  0 0.00000000D+00 0.00000000D+00 0.00000000D+00 0.00000000D+00 0.00000000D+00
  <mgrwgt>
 0.4974176639D-02    3    2    0
 0.237420697860872D+03 0.000000000000000D+00 0.000000000000000D+00 0.237420697860872D+03
 0.237420697860872D+03 0.000000000000000D+00 0.000000000000000D+00 -.237420697860872D+03
 0.150224972792599D+03 0.591798244771082D+00 -.112396080534064D+03 0.588820630717400D+02
 0.447417685713144D+02 -.348300056868201D+02 -.191140307916993D+02 -.205754802043382D+02
 0.119314781645342D+03 -.246145674830628D+02 0.377453413455589D+02 -.110478185147135D+03
 0.160559872712488D+03 0.588527749251118D+02 0.937647699802043D+02 0.721716022797333D+02
 0.000000000000000D+00 -.000000000000000D+00 0.000000000000000D+00 0.000000000000000D+00
 0.498492823377649D+03 0.000000000000000D+00 0.000000000000000D+00 0.498492823377649D+03
 0.271112930583763D+03 0.000000000000000D+00 0.000000000000000D+00 -.271112930583763D+03
 0.189560309168799D+03 0.224813815313815D+02 -.159666480485592D+03 0.588820630717400D+02
 0.477462209500592D+02 -.288717618866391D+02 -.319808160454666D+02 -.205754802043382D+02
 0.111055862528907D+03 -.977367333563702D+01 0.569653562817319D+01 -.110478185147135D+03
 0.149337727206679D+03 0.788169396016795D+02 0.506522978694729D+02 0.721716022797333D+02
 0.271905634106968D+03 -.626528859107849D+02 0.135298463033413D+03 0.227379892793885D+03
0.115898629396D-03 0.000000000000D+00 0.000000000000D+00 0.149046753513D-08 0.000000000000D+00  7 1 -2 -24 -13 13 23 21 0 0.41038509D+00 0.32510142D-02 0.33566168D+05 0.33566168D+05 0.33566168D+05 0.11628369D+01  1  2  2  2  7  2       -2 0.488644562062D-02 0.100000000000D+01
-.591286062804D-05 0.000000000000D+00 -.445081253689D-06 0.149046753513D-08 0.000000000000D+00  7 1 -2 -24 -13 13 23 21 2 0.41038509D+00 0.32510142D-02 0.33566168D+05 0.33566168D+05 0.33566168D+05 0.11628369D+01  1  2  3  2  7  2       -2 -.337093200298D-03 0.100000000000D+01
0.745172668900D-05 0.000000000000D+00 0.000000000000D+00 0.149046753513D-08 0.000000000000D+00  7 1 -2 -24 -13 13 23 21 2 0.41038509D+00 0.32510142D-02 0.33566168D+05 0.33566168D+05 0.33566168D+05 0.11628369D+01  1  2 15  2  7  2       -2 0.424824218827D-03 0.100000000000D+01
  </mgrwgt>
  </event>
  <event>
  9     66 0.29493621E-05 0.18692036E+03 0.75467711E-02 0.10397838E+00
        1 -1    0    0  501    0 0.00000000E+00 0.00000000E+00 0.53447317E+03 0.53447326E+03 0.32000000E+00 0.0000E+00 0.9000E+01
       21 -1    0    0  502  501 0.00000000E+00 0.00000000E+00 -.16115627E+03 0.16115802E+03 0.75000000E+00 0.0000E+00 0.9000E+01
       25  2    1    2    0    0 0.91672540E+01 0.33296304E+02 0.38789544E+03 0.49144024E+03 0.29976317E+03 0.0000E+00 0.0000E+00
       23  2    3    3    0    0 0.79115696E+02 -.69553941E+02 0.13269262E+03 0.19325458E+03 0.92967510E+02 0.0000E+00 0.0000E+00
      -24  1    1    2    0    0 -.51869744E+02 0.42314329E+02 0.26783101E+02 0.10800705E+03 0.80419002E+02 0.0000E+00 0.9000E+01
      -13  1    4    4    0    0 0.49458279E+02 -.81279365E+02 0.56497421E+02 0.11065454E+03 0.10565837E+00 0.0000E+00 0.9000E+01
       13  1    4    4    0    0 0.29657417E+02 0.11725424E+02 0.76195202E+02 0.82600048E+02 0.10565837E+00 0.0000E+00 0.9000E+01
       23  1    3    3    0    0 -.69948442E+02 0.10285025E+03 0.25520282E+03 0.29818566E+03 0.91188000E+02 0.0000E+00 0.9000E+01
        2  1    1    2  502    0 0.42702490E+02 -.75610633E+02 -.41361652E+02 0.96183986E+02 0.32000000E+00 0.0000E+00 0.9000E+01
#aMCatNLO 2  0  0  2  1 0.86835882D+02 0.00000000D+00  -5  7  0 0.00000000D+00 0.00000000D+00 0.00000000D+00 0.00000000D+00 0.00000000D+00
  <mgrwgt>
 0.2412463059D-03    2    2    0
 0.212036727853789D+03 0.000000000000000D+00 0.000000000000000D+00 0.212036727853789D+03
 0.212036727853789D+03 0.000000000000000D+00 0.000000000000000D+00 -.212036727853789D+03
 0.113715633226527D+03 -.400285224273353D+02 0.213478091379244D+02 -.663778406023765D+02
 0.120641623316744D+03 0.604089052315783D+02 -.100669016091011D+03 -.277653497094678D+02
 0.431474643759873D+02 0.338701189020473D+02 0.426632013950019D+01 0.263878237091573D+02
 0.146568734788320D+03 -.542505017062903D+02 0.750548868135861D+02 0.677553666026869D+02
 0.000000000000000D+00 0.000000000000000D+00 -.000000000000000D+00 -.000000000000000D+00
 0.228136472866700D+03 0.000000000000000D+00 0.000000000000000D+00 0.228136472866700D+03
 0.377555752685182D+03 0.000000000000000D+00 0.000000000000000D+00 -.377555752685182D+03
 0.123912096709598D+03 -.518697515991588D+02 0.423143344814191D+02 -.663778406023765D+02
 0.991130306028351D+02 0.494583094432166D+02 -.812794796846567D+02 -.277653497094678D+02
 0.413928283488159D+02 0.296573909486366D+02 0.117255345604666D+02 0.263878237091573D+02
 0.168454734978370D+03 -.699484385632939D+02 0.102850243712524D+03 0.677553666026869D+02
 0.172819534912262D+03 0.427024897705995D+02 -.756106330697527D+02 -.149419279818482D+03
-.373098056796D-06 0.000000000000D+00 0.000000000000D+00 0.372177953099D-06 0.000000000000D+00  7 1 21 -24 -13 13 23 2 2 0.76423935D-01 0.24955207D-01 0.55869117D+05 0.55869117D+05 0.55869117D+05 0.11430796D+01  1  2 13  4  7  2       -2 -.410878792459D-03 0.100000000000D+01
0.646985505047D-06 0.000000000000D+00 0.000000000000D+00 0.372177953099D-06 0.280744900745D-10  7 1 21 -24 -13 13 23 2 2 0.82226731D-01 0.24793399D-01 0.55869117D+05 0.55869117D+05 0.55869117D+05 0.11430796D+01  1  2  1  4  7  2       -2 0.652125098398D-03 0.100000000000D+01
  </mgrwgt>
  </event>
  <event>
  8     66 0.29493621E-05 0.31559612E+03 0.75467711E-02 0.96499313E-01
        1 -1    0    0  501    0 0.00000000E+00 0.00000000E+00 0.13440507E+04 0.13440507E+04 0.32000000E+00 0.0000E+00 0.9000E+01
       -2 -1    0    0    0  501 0.00000000E+00 0.00000000E+00 -.15517170E+03 0.15517203E+03 0.32000000E+00 0.0000E+00 0.9000E+01
       25  2    1    2    0    0 -.25174996E+03 0.48565400E+02 0.14464620E+03 0.42097141E+03 0.30092816E+03 0.0000E+00 0.0000E+00
       23  2    3    3    0    0 -.16080942E+03 -.77779234E+02 0.16692754E+02 0.19979165E+03 0.87913460E+02 0.0000E+00 0.0000E+00
      -24  1    1    2    0    0 0.25174996E+03 -.48565400E+02 0.10442328E+04 0.10782514E+04 0.80419002E+02 0.0000E+00 0.9000E+01
      -13  1    4    4    0    0 -.44121840E+02 -.39631851E+02 -.32392585E+02 0.67577445E+02 0.10565837E+00 0.0000E+00 0.9000E+01
       13  1    4    4    0    0 -.11668758E+03 -.38147383E+02 0.49085339E+02 0.13221420E+03 0.10565837E+00 0.0000E+00 0.9000E+01
       23  1    3    3    0    0 -.90940541E+02 0.12634463E+03 0.12795345E+03 0.22117976E+03 0.91188000E+02 0.0000E+00 0.9000E+01
#aMCatNLO 1  0  0  2  1 0.17919750D+03 0.00000000D+00  -5  7  0 0.00000000D+00 0.00000000D+00 0.00000000D+00 0.00000000D+00 0.00000000D+00
  <mgrwgt>
 0.1219018040D-02    4    2    0
 0.456682500325387D+03 0.000000000000000D+00 0.000000000000000D+00 0.456682500325387D+03
 0.456682500325387D+03 0.000000000000000D+00 0.000000000000000D+00 -.456682500325387D+03
 0.410649127213003D+03 0.251749959972043D+03 -.485653996780585D+02 0.310529949174979D+03
 0.153087220678241D+03 -.441217351542308D+02 -.396318528874773D+02 -.141132157422303D+03
 0.153128284353551D+03 -.116687684026364D+03 -.381473808558879D+02 -.915261339698192D+02
 0.196500368405979D+03 -.909405407914487D+02 0.126344633421424D+03 -.778716577828569D+02
 0.000000000000000D+00 -.000000000000000D+00 0.000000000000000D+00 0.000000000000000D+00
 0.844868062607676D+03 0.000000000000000D+00 0.000000000000000D+00 0.844868062607676D+03
 0.486544059511017D+03 0.000000000000000D+00 0.000000000000000D+00 -.486544059511017D+03
 0.446482769690247D+03 0.284173995830127D+03 -.125283432405198D+03 0.310529949174979D+03
 0.159797974656047D+03 -.322857495496402D+02 -.676368037500199D+02 -.141132157422303D+03
 0.154029092351574D+03 -.105068373355108D+03 -.656396603563742D+02 -.915261339698192D+02
 0.170467993460051D+03 -.770586687401169D+02 0.934989408306126D+02 -.778716577828569D+02
 0.400634291960774D+03 -.697612041852615D+02 0.165060955680980D+03 0.358324003096659D+03
0.881344250451D-04 0.000000000000D+00 0.000000000000D+00 0.351852352562D-06 0.000000000000D+00  7 1 -2 -24 -13 13 23 21 0 0.20677706D+00 0.23872597D-01 0.99600912D+05 0.99600912D+05 0.99600912D+05 0.11218646D+01  1  2  2  2  7  2       -2 0.125934211742D-02 0.100000000000D+01
-.408344694754D-05 0.000000000000D+00 -.338459398500D-06 0.351852352562D-06 0.000000000000D+00  7 1 -2 -24 -13 13 23 21 2 0.20677706D+00 0.23872597D-01 0.99600912D+05 0.99600912D+05 0.99600912D+05 0.11218646D+01  1  2  3  2  7  2       -2 -.734354818015D-04 0.100000000000D+01
0.540861715719D-05 0.000000000000D+00 0.000000000000D+00 0.351852352562D-06 0.000000000000D+00  7 1 -2 -24 -13 13 23 21 2 0.20677706D+00 0.23872597D-01 0.99600912D+05 0.99600912D+05 0.99600912D+05 0.11218646D+01  1  2 15  2  7  2       -2 0.972669443048D-04 0.100000000000D+01
-.356742731560D-05 0.000000000000D+00 0.000000000000D+00 0.351852352562D-06 0.000000000000D+00  7 1 -2 -24 -13 13 23 21 2 0.20677706D+00 0.23872597D-01 0.99600912D+05 0.99600912D+05 0.99600912D+05 0.11218646D+01  1  2  4  2  7  2       -2 -.641555399343D-04 0.100000000000D+01
  </mgrwgt>
  </event>
  <event>
  8     66 0.29493621E-05 0.38057089E+03 0.75467711E-02 0.90624850E-01
        1 -1    0    0  501    0 0.00000000E+00 0.00000000E+00 0.69556153E+03 0.69556161E+03 0.32000000E+00 0.0000E+00 0.9000E+01
       -2 -1    0    0    0  501 0.00000000E+00 0.00000000E+00 -.55641195E+03 0.55641205E+03 0.32000000E+00 0.0000E+00 0.9000E+01
       25  2    1    2    0    0 0.10440854E+03 -.56756885E+03 0.15522176E+03 0.66908338E+03 0.30090404E+03 0.0000E+00 0.0000E+00
       23  2    3    3    0    0 -.63252974E+02 -.13449672E+03 0.49321750E+02 0.18411750E+03 0.96831349E+02 0.0000E+00 0.0000E+00
      -24  1    1    2    0    0 -.10440854E+03 0.56756885E+03 -.16072180E+02 0.58289027E+03 0.80419002E+02 0.0000E+00 0.9000E+01
      -11  1    4    4    0    0 -.25924047E+02 -.13510893E+03 0.51059444E+02 0.14674313E+03 0.51099893E-03 0.0000E+00 0.9000E+01
       11  1    4    4    0    0 -.37328927E+02 0.61220887E+00 -.17376937E+01 0.37374365E+02 0.51099893E-03 0.0000E+00 0.9000E+01
       23  1    3    3    0    0 0.16766151E+03 -.43307212E+03 0.10590001E+03 0.48496588E+03 0.91188000E+02 0.0000E+00 0.9000E+01
#aMCatNLO 1  0  0  2  1 0.19912762D+03 0.00000000D+00  -5  7  0 0.00000000D+00 0.00000000D+00 0.00000000D+00 0.00000000D+00 0.00000000D+00
  <mgrwgt>
 0.1368653904D-02    9    2    0
 0.622108395716514D+03 0.000000000000000D+00 0.000000000000000D+00 0.622108395716514D+03
 0.622108395716514D+03 0.000000000000000D+00 0.000000000000000D+00 -.622108395716514D+03
 0.588321670130327D+03 -.104408539395703D+03 0.567568846201862D+03 -.813611290046381D+02
 0.141947638255642D+03 -.259240473080912D+02 -.135108932974775D+03 0.349664411677862D+02
 0.378017076531740D+02 -.373289266612931D+02 0.612208876031893D+00 -.592836706892762D+01
 0.476145775393884D+03 0.167661513365087D+03 -.433072122103119D+03 0.523230549057795D+02
 0.000000000000000D+00 -.000000000000000D+00 0.000000000000000D+00 -.000000000000000D+00
 0.722943426213747D+03 0.000000000000000D+00 0.000000000000000D+00 0.722943426213747D+03
 0.736709983778155D+03 0.000000000000000D+00 0.000000000000000D+00 -.736709983778155D+03
 0.533733934310681D+03 -.285853790165877D+02 0.520545809198342D+03 -.813611290046381D+02
 0.151624429332997D+03 -.608584867025170D+01 -.147411933060317D+03 0.349664411677862D+02
 0.331540042768265D+02 -.325340784343525D+02 -.236139871925103D+01 -.592836706892762D+01
 0.541538120125874D+03 0.236431731988681D+03 -.475721155972303D+03 0.523230549057795D+02
 0.199602921945524D+03 -.169226425867489D+03 0.104948678553530D+03 -.137665575644079D+02
0.240442500688D-03 0.000000000000D+00 0.000000000000D+00 0.204393287166D-06 0.000000000000D+00  7 1 -2 -24 -11 11 23 21 0 0.10700948D+00 0.85601852D-01 0.37874075D+06 0.37874075D+06 0.37874075D+06 0.10771416D+01  1  2  2  2  7  2       -2 0.864329689792D-03 0.100000000000D+01
-.133560185505D-04 0.000000000000D+00 -.923362512605D-06 0.204393287166D-06 0.000000000000D+00  7 1 -2 -24 -11 11 23 21 2 0.10700948D+00 0.85601852D-01 0.37874075D+06 0.37874075D+06 0.37874075D+06 0.10771416D+01  1  2  3  2  7  2       -2 -.557045687562D-04 0.100000000000D+01
0.150706166289D-04 0.000000000000D+00 0.000000000000D+00 0.204393287166D-06 0.000000000000D+00  7 1 -2 -24 -11 11 23 21 2 0.10700948D+00 0.85601852D-01 0.37874075D+06 0.37874075D+06 0.37874075D+06 0.10771416D+01  1  2 15  2  7  2       -2 0.628557228362D-04 0.100000000000D+01
0.133983004221D-03 0.000000000000D+00 0.000000000000D+00 0.204393287166D-06 0.000000000000D+00  7 1 -2 -24 -11 11 23 21 2 0.10700948D+00 0.10716806D+00 0.52257393D+06 0.52257393D+06 0.52257393D+06 0.10671577D+01  1  2 12  2  7  2       -2 0.316316656275D-03 0.100000000000D+01
-.125194877820D-03 0.000000000000D+00 0.000000000000D+00 0.204393287166D-06 0.000000000000D+00  7 1 -2 -24 -11 11 23 21 2 0.10700948D+00 0.85601852D-01 0.37874075D+06 0.37874075D+06 0.37874075D+06 0.10771416D+01  1  2  4  2  7  2       -2 -.522156109107D-03 0.100000000000D+01
-.330686726881D-03 0.000000000000D+00 -.119415481635D-03 0.204393287166D-06 0.000000000000D+00  7 1 -2 -24 -11 11 23 21 2 0.10700948D+00 0.11451970D+00 0.37874075D+06 0.37874075D+06 0.37874075D+06 0.10771416D+01  1  2  5  2  7  2       -2 -.683304847262D-03 0.100000000000D+01
0.355177352033D-03 0.000000000000D+00 0.114530535143D-03 0.204393287166D-06 0.000000000000D+00  7 1 -2 -24 -11 11 23 21 2 0.10700948D+00 0.85601852D-01 0.37874075D+06 0.37874075D+06 0.37874075D+06 0.10771416D+01  1  2  6  2  7  2       -2 0.148135472800D-02 0.100000000000D+01
0.418823760948D-05 0.000000000000D+00 0.000000000000D+00 0.204393287166D-06 0.000000000000D+00  7 1 21 -24 -11 11 23 2 2 0.10700948D+00 0.10716806D+00 0.52257393D+06 0.52257393D+06 0.52257393D+06 0.10671577D+01  1  2 12  4  7  2       -2 0.883708041821D-04 0.100000000000D+01
-.995162359140D-05 0.000000000000D+00 -.451589287088D-05 0.204393287166D-06 0.000000000000D+00  7 1 21 -24 -11 11 23 2 2 0.10700948D+00 0.11451970D+00 0.37874075D+06 0.37874075D+06 0.37874075D+06 0.10771416D+01  1  2  5  4  7  2       -2 -.183408171784D-03 0.100000000000D+01
  </mgrwgt>
  </event>
  <event>
  9     66 0.29493621E-05 0.22026975E+03 0.75467711E-02 0.96581892E-01
        1 -1    0    0  501    0 0.00000000E+00 0.00000000E+00 0.97653824E+03 0.97653829E+03 0.32000000E+00 0.0000E+00 0.9000E+01
       21 -1    0    0  502  501 0.00000000E+00 0.00000000E+00 -.31495945E+03 0.31496035E+03 0.75000000E+00 0.0000E+00 0.9000E+01
       25  2    1    2    0    0 -.31483744E+03 -.18894363E+03 0.10613436E+03 0.48505223E+03 0.29864503E+03 0.0000E+00 0.0000E+00
       23  2    3    3    0    0 -.59915619E+02 0.25321351E+01 0.10347651E+03 0.15343435E+03 0.96116687E+02 0.0000E+00 0.0000E+00
      -24  1    1    2    0    0 0.35549325E+01 0.78325138E+02 0.44371686E+03 0.45771097E+03 0.80419002E+02 0.0000E+00 0.9000E+01
      -11  1    4    4    0    0 -.27400919E+00 -.94455339E+01 0.90806033E+02 0.91296379E+02 0.51099893E-03 0.0000E+00 0.9000E+01
       11  1    4    4    0    0 -.59641610E+02 0.11977669E+02 0.12670480E+02 0.62137970E+02 0.51099893E-03 0.0000E+00 0.9000E+01
       23  1    3    3    0    0 -.25492182E+03 -.19147577E+03 0.26578429E+01 0.33161789E+03 0.91188000E+02 0.0000E+00 0.9000E+01
        2  1    1    2  502    0 0.31128251E+03 0.11061850E+03 0.11172757E+03 0.34873544E+03 0.32000000E+00 0.0000E+00 0.9000E+01
#aMCatNLO 2  0  0  2  2 0.33035322D+03 0.00000000D+00  -5  7  0 0.00000000D+00 0.00000000D+00 0.00000000D+00 0.00000000D+00 0.00000000D+00
  <mgrwgt>
 0.1301588915D-03    1    2    0
 0.345446394010288D+03 0.000000000000000D+00 0.000000000000000D+00 0.345446394010288D+03
 0.345446394010288D+03 0.000000000000000D+00 0.000000000000000D+00 -.345446394010288D+03
 0.285580636553715D+03 0.116909752106439D+03 0.118607322999237D+03 0.217608586258493D+03
 0.506748874277118D+02 0.206393908784474D+02 -.201367116027389D+01 0.462374835867633D+02
 0.497531229702126D+02 -.346075126837003D+02 0.208738778384574D+02 -.290167974649473D+02
 0.304884141068938D+03 -.102941630301187D+03 -.137467529677421D+03 -.234829272380309D+03
 0.000000000000000D+00 0.000000000000000D+00 0.000000000000000D+00 -.000000000000000D+00
 0.501029422493545D+03 0.000000000000000D+00 0.000000000000000D+00 0.501029422493545D+03
 0.613877078474105D+03 0.000000000000000D+00 0.000000000000000D+00 -.613877078474105D+03
 0.244884008261292D+03 0.355493246141366D+01 0.783251376604016D+02 0.217608586258493D+03
 0.471931995070246D+02 -.274009198120520D+00 -.944553387760391D+01 0.462374835867633D+02
 0.673985217752770D+02 -.596416100378685D+02 0.119776689911495D+02 -.290167974649473D+02
 0.406335015795318D+03 -.254921823594842D+03 -.191475769761598D+03 -.234829272380309D+03
 0.349095755628739D+03 0.311282510369418D+03 0.110618496987651D+03 -.112847655980560D+03
0.141312810732D-05 0.000000000000D+00 0.000000000000D+00 0.569707115611D-07 0.442472148126D-12  7 1 21 -24 -11 11 23 2 2 0.15023670D+00 0.48455367D-01 0.17831935D+06 0.17831935D+06 0.17831935D+06 0.11016732D+01  1  2  1  4  7  2       -2 0.130158891525D-03 0.100000000000D+01
  </mgrwgt>
  </event>
  <event>
  8     66 0.29493621E-05 0.36825935E+03 0.75467711E-02 0.90994304E-01
        1 -1    0    0  501    0 0.00000000E+00 0.00000000E+00 0.12536566E+03 0.12536607E+03 0.32000000E+00 0.0000E+00 0.9000E+01
       -2 -1    0    0    0  501 0.00000000E+00 0.00000000E+00 -.12651338E+04 0.12651339E+04 0.32000000E+00 0.0000E+00 0.9000E+01
       25  2    1    2    0    0 -.18461651E+03 0.27905774E+03 -.70614800E+03 0.83692054E+03 0.29972408E+03 0.0000E+00 0.0000E+00
       23  2    3    3    0    0 -.26721471E+01 0.10157762E+03 -.88227053E+02 0.16257309E+03 0.91218657E+02 0.0000E+00 0.0000E+00
      -24  1    1    2    0    0 0.18461651E+03 -.27905774E+03 -.43362019E+03 0.55357941E+03 0.80419002E+02 0.0000E+00 0.9000E+01
      -13  1    4    4    0    0 -.22934812E+02 0.99361271E+02 -.96667595E+02 0.14051086E+03 0.10565837E+00 0.0000E+00 0.9000E+01
       13  1    4    4    0    0 0.20262665E+02 0.22163441E+01 0.84405422E+01 0.22062223E+02 0.10565837E+00 0.0000E+00 0.9000E+01
       23  1    3    3    0    0 -.18194437E+03 0.17748012E+03 -.61792095E+03 0.67434746E+03 0.91188000E+02 0.0000E+00 0.9000E+01
#aMCatNLO 1  0  0  1  2 0.49774134D+03 0.00000000D+00  -5  7  0 0.00000000D+00 0.00000000D+00 0.00000000D+00 0.00000000D+00 0.00000000D+00
  <mgrwgt>
 0.1007424177D-02    5    2    0
 0.398251992629505D+03 0.000000000000000D+00 0.000000000000000D+00 0.398251992629505D+03
 0.398251992629505D+03 0.000000000000000D+00 0.000000000000000D+00 -.398251992629505D+03
 0.345918728636576D+03 0.184616513167682D+03 -.279057738419590D+03 0.351578236118953D+02
 0.106969659874457D+03 -.229348696481289D+02 0.993614013632733D+02 0.323080764980973D+02
 0.505932447743005D+02 0.202627225851037D+02 0.221621381480588D+01 0.463053656346484D+02
 0.293022351973677D+03 -.181944366104657D+03 0.177480123241511D+03 -.113771265744641D+03
 0.000000000000000D+00 0.000000000000000D+00 -.000000000000000D+00 0.000000000000000D+00
 0.100915713369881D+04 0.000000000000000D+00 0.000000000000000D+00 0.100915713369881D+04
 0.584413651735654D+03 0.000000000000000D+00 0.000000000000000D+00 -.584413651735654D+03
 0.224600547923416D+03 0.171123137225949D+03 -.116012885137607D+03 0.351578236118953D+02
 0.189200689265486D+03 -.299396073106946D+02 0.184001926418202D+03 0.323080764980973D+02
 0.599953483481983D+02 0.176471870139540D+02 0.338205814166125D+02 0.463053656346484D+02
 0.465439828877144D+03 -.199882787757147D+03 0.394235910604905D+03 -.113771265744641D+03
 0.654334371020216D+03 0.410520708279381D+02 -.496045533302112D+03 0.424743481963152D+03
0.224097501494D-03 0.000000000000D+00 0.000000000000D+00 0.457735235333D-05 0.000000000000D+00  7 1 -2 -24 -13 13 23 21 0 0.19287059D-01 0.19463601D+00 0.13561495D+06 0.13561495D+06 0.13561495D+06 0.11110237D+01  1  2  2  1  7  1        1 0.972037600371D-03 0.100000000000D+01
-.123570624818D-04 0.000000000000D+00 -.860593411966D-06 0.457735235333D-05 0.000000000000D+00  7 1 -2 -24 -13 13 23 21 2 0.19287059D-01 0.19463601D+00 0.13561495D+06 0.13561495D+06 0.13561495D+06 0.11110237D+01  1  2  3  1  7  1        1 -.661618971604D-04 0.100000000000D+01
0.145162461263D-04 0.000000000000D+00 0.000000000000D+00 0.457735235333D-05 0.000000000000D+00  7 1 -2 -24 -13 13 23 21 2 0.19287059D-01 0.19463601D+00 0.13561495D+06 0.13561495D+06 0.13561495D+06 0.11110237D+01  1  2 15  1  7  1        1 0.777225481199D-04 0.100000000000D+01
0.119732686932D-04 0.000000000000D+00 -.826691049520D-04 0.457735235333D-05 0.000000000000D+00  7 1 -2 -24 -13 13 23 21 2 0.70761884D-01 0.19463601D+00 0.13561495D+06 0.13561495D+06 0.13561495D+06 0.11110237D+01  1  2  5  1  7  1        1 0.115687493559D-04 0.100000000000D+01
0.391916509451D-05 0.000000000000D+00 -.126675724999D-04 0.457735235333D-05 0.000000000000D+00  7 21 -2 -24 -13 13 23 -1 2 0.70761884D-01 0.19463601D+00 0.13561495D+06 0.13561495D+06 0.13561495D+06 0.11110237D+01  1  2  5  3  7  1        1 0.122571766794D-04 0.100000000000D+01
  </mgrwgt>
  </event>
  <event>
  8     66 0.29493621E-05 0.89873092E+02 0.75467711E-02 0.99564139E-01
        1 -1    0    0  501    0 0.00000000E+00 0.00000000E+00 0.11348675E+03 0.11348720E+03 0.32000000E+00 0.0000E+00 0.9000E+01
       -2 -1    0    0    0  501 0.00000000E+00 0.00000000E+00 -.68077285E+03 0.68077293E+03 0.32000000E+00 0.0000E+00 0.9000E+01
       25  2    1    2    0    0 0.13863773E+02 -.11422153E+03 -.15142584E+03 0.35534586E+03 0.30017017E+03 0.0000E+00 0.0000E+00
       23  2    3    3    0    0 -.33639279E+02 0.58901327E+02 -.91182541E+02 0.14517314E+03 0.90332821E+02 0.0000E+00 0.0000E+00
      -24  1    1    2    0    0 -.13863773E+02 0.11422153E+03 -.41586026E+03 0.43891427E+03 0.80419002E+02 0.0000E+00 0.9000E+01
      -11  1    4    4    0    0 -.11563019E+02 0.80562144E+02 -.72788656E+02 0.10918860E+03 0.51099893E-03 0.0000E+00 0.9000E+01
       11  1    4    4    0    0 -.22076260E+02 -.21660817E+02 -.18393884E+02 0.35984542E+02 0.51099893E-03 0.0000E+00 0.9000E+01
       23  1    3    3    0    0 0.47503052E+02 -.17312286E+03 -.60243297E+02 0.21017271E+03 0.91188000E+02 0.0000E+00 0.9000E+01
#aMCatNLO 1  0  0  2  1 0.17642338D+03 0.00000000D+00  -5  7  0 0.00000000D+00 0.00000000D+00 0.00000000D+00 0.00000000D+00 0.00000000D+00
  <mgrwgt>
 0.1068992818D-02    7    2    0
 0.277954867181478D+03 0.000000000000000D+00 0.000000000000000D+00 0.277954867181478D+03
 0.277954867181478D+03 0.000000000000000D+00 0.000000000000000D+00 -.277954867181478D+03
 0.202731398716821D+03 -.138637727431409D+02 0.114221530630653D+03 -.146267022315440D+03
 0.817257868645939D+02 -.115630189477987D+02 0.805621437468332D+02 0.742575426232568D+01
 0.326428747093306D+02 -.220762604303646D+02 -.216608168142044D+02 0.104405464244574D+02
 0.238809674072211D+03 0.475030521213042D+02 -.173122857563282D+03 0.128400721628657D+03
 0.000000000000000D+00 0.000000000000000D+00 -.000000000000000D+00 -.000000000000000D+00
 0.299456756394974D+03 0.000000000000000D+00 0.000000000000000D+00 0.299456756394974D+03
 0.128410319936207D+04 0.000000000000000D+00 0.000000000000000D+00 -.128410319936207D+04
 0.249133866291674D+03 -.267957356986037D+02 0.182998399201775D+03 -.146267022315440D+03
 0.111547646332681D+03 -.170943245646074D+02 0.109979632858435D+03 0.742575426232568D+01
 0.287860690635702D+02 -.238342995778291D+02 -.123109271026059D+02 0.104405464244574D+02
 0.193765513425901D+03 0.351231532147734D+02 -.107282065801766D+03 0.128400721628657D+03
 0.100032686064322D+04 0.326012066262667D+02 -.173385039155838D+03 -.984646442967099D+03
0.403352022568D-04 0.000000000000D+00 0.000000000000D+00 0.263868155388D-05 0.000000000000D+00  7 1 -2 -24 -11 11 23 21 0 0.17459541D-01 0.10473433D+00 0.51539805D+05 0.51539805D+05 0.51539805D+05 0.11461385D+01  1  2  2  2  7  2       -2 0.107902214892D-02 0.100000000000D+01
-.212922740557D-05 0.000000000000D+00 -.154897797169D-06 0.263868155388D-05 0.000000000000D+00  7 1 -2 -24 -11 11 23 21 2 0.17459541D-01 0.10473433D+00 0.51539805D+05 0.51539805D+05 0.51539805D+05 0.11461385D+01  1  2  3  2  7  2       -2 -.748242519242D-04 0.100000000000D+01
0.257464693355D-05 0.000000000000D+00 0.000000000000D+00 0.263868155388D-05 0.000000000000D+00  7 1 -2 -24 -11 11 23 21 2 0.17459541D-01 0.10473433D+00 0.51539805D+05 0.51539805D+05 0.51539805D+05 0.11461385D+01  1  2 15  2  7  2       -2 0.904769637419D-04 0.100000000000D+01
0.211680740192D-04 0.000000000000D+00 0.000000000000D+00 0.263868155388D-05 0.000000000000D+00  7 1 -2 -24 -11 11 23 21 2 0.17459541D-01 0.46791263D+00 0.10934315D+06 0.10934315D+06 0.10934315D+06 0.11185526D+01  1  2 12  2  7  2       -2 0.164518433184D-05 0.100000000000D+01
-.184565669841D-03 0.000000000000D+00 -.147468197332D-04 0.263868155388D-05 0.000000000000D+00  7 1 -2 -24 -11 11 23 21 2 0.17459541D-01 0.48839382D+00 0.51539805D+05 0.51539805D+05 0.51539805D+05 0.11461385D+01  1  2  5  2  7  2       -2 -.103416372229D-04 0.100000000000D+01
0.382861118757D-05 0.000000000000D+00 0.000000000000D+00 0.263868155388D-05 0.000000000000D+00  7 1 21 -24 -11 11 23 2 2 0.17459541D-01 0.46791263D+00 0.10934315D+06 0.10934315D+06 0.10934315D+06 0.11185526D+01  1  2 12  4  7  2       -2 0.270208804027D-05 0.100000000000D+01
-.346920270731D-04 0.000000000000D+00 -.275388649322D-05 0.263868155388D-05 0.000000000000D+00  7 1 21 -24 -11 11 23 2 2 0.17459541D-01 0.48839382D+00 0.51539805D+05 0.51539805D+05 0.51539805D+05 0.11461385D+01  1  2  5  4  7  2       -2 -.196876778177D-04 0.100000000000D+01
  </mgrwgt>
  </event>
  <event>
  8     66 0.29493621E-05 0.15730504E+03 0.75467711E-02 0.10314226E+00
        1 -1    0    0  501    0 0.00000000E+00 0.00000000E+00 0.14939244E+04 0.14939244E+04 0.32000000E+00 0.0000E+00 0.9000E+01
       -2 -1    0    0    0  501 0.00000000E+00 0.00000000E+00 -.10029674E+03 0.10029725E+03 0.32000000E+00 0.0000E+00 0.9000E+01
       25  2    1    2    0    0 0.14263663E+03 0.39078121E+02 0.20224198E+03 0.39100127E+03 0.30017972E+03 0.0000E+00 0.0000E+00
       23  2    3    3    0    0 0.19035188E+03 -.60708082E+01 0.82628913E+02 0.22687416E+03 0.91507665E+02 0.0000E+00 0.0000E+00
      -24  1    1    2    0    0 -.14263663E+03 -.39078121E+02 0.11913857E+04 0.12032204E+04 0.80419002E+02 0.0000E+00 0.9000E+01
      -11  1    4    4    0    0 0.69713259E+02 -.42750542E+02 0.52674024E+02 0.97273327E+02 0.51099893E-03 0.0000E+00 0.9000E+01
       11  1    4    4    0    0 0.12063862E+03 0.36679734E+02 0.29954889E+02 0.12960083E+03 0.51099893E-03 0.0000E+00 0.9000E+01
       23  1    3    3    0    0 -.47715249E+02 0.45148929E+02 0.11961307E+03 0.16412711E+03 0.91188000E+02 0.0000E+00 0.9000E+01
#aMCatNLO 1  0  0  2  1 0.14578538D+02 0.00000000D+00  -5  7  0 0.00000000D+00 0.00000000D+00 0.00000000D+00 0.00000000D+00 0.00000000D+00
  <mgrwgt>
 0.5433677969D-03    9    2    0
 0.387086780243742D+03 0.000000000000000D+00 0.000000000000000D+00 0.387086780243742D+03
 0.387086780243742D+03 0.000000000000000D+00 0.000000000000000D+00 -.387086780243742D+03
 0.333067467597994D+03 -.142636629244596D+03 -.390781206439480D+02 0.287392439883945D+03
 0.105489613526325D+03 0.697132589536145D+02 -.427505418582935D+02 -.666371612452241D+02
 0.212958046558304D+03 0.120638619219544D+03 0.366797336902744D+02 -.171615996582898D+03
 0.122658432804860D+03 -.477152489285625D+02 0.451489288119671D+02 -.491392820558226D+02
 0.000000000000000D+00 -.000000000000000D+00 -.000000000000000D+00 -.000000000000000D+00
 0.392677579393079D+03 0.000000000000000D+00 0.000000000000000D+00 0.392677579393079D+03
 0.396777243087569D+03 0.000000000000000D+00 0.000000000000000D+00 -.396777243087569D+03
 0.331215224438576D+03 -.139699059423352D+03 -.335569253554262D+02 0.287392439883945D+03
 0.105414231392017D+03 0.706459112377153D+02 -.409976114736040D+02 -.666371612452241D+02
 0.214672647218399D+03 0.122529674090814D+03 0.402339924418742D+02 -.171615996582898D+03
 0.123008710210610D+03 -.466288674917964D+02 0.471907948560804D+02 -.491392820558226D+02
 0.151440092210459D+02 -.684765841338113D+01 -.128702504689245D+02 -.409966369449041D+01
0.215263896722D-04 0.000000000000D+00 0.000000000000D+00 0.759529779584D-05 0.000000000000D+00  7 1 -2 -24 -11 11 23 21 0 0.22983457D+00 0.15430309D-01 0.59681903D+05 0.59681903D+05 0.59681903D+05 0.11405945D+01  1  2  2  2  7  2       -2 0.506935028994D-03 0.100000000000D+01
-.887889264713D-06 0.000000000000D+00 -.826670043698D-07 0.759529779584D-05 0.000000000000D+00  7 1 -2 -24 -11 11 23 21 2 0.22983457D+00 0.15430309D-01 0.59681903D+05 0.59681903D+05 0.59681903D+05 0.11405945D+01  1  2  3  2  7  2       -2 -.272021000589D-04 0.100000000000D+01
0.132998982722D-05 0.000000000000D+00 0.000000000000D+00 0.759529779584D-05 0.000000000000D+00  7 1 -2 -24 -11 11 23 21 2 0.22983457D+00 0.15430309D-01 0.59681903D+05 0.59681903D+05 0.59681903D+05 0.11405945D+01  1  2 15  2  7  2       -2 0.407466536597D-04 0.100000000000D+01
0.329642319592D-04 0.000000000000D+00 0.000000000000D+00 0.759529779584D-05 0.000000000000D+00  7 1 -2 -24 -11 11 23 21 2 0.22983457D+00 0.15925819D-01 0.63161930D+05 0.63161930D+05 0.63161930D+05 0.11384743D+01  1  2 12  2  7  2       -2 0.955336899930D-03 0.100000000000D+01
-.297389851126D-04 0.000000000000D+00 0.000000000000D+00 0.759529779584D-05 0.000000000000D+00  7 1 -2 -24 -11 11 23 21 2 0.22983457D+00 0.15430309D-01 0.59681903D+05 0.59681903D+05 0.59681903D+05 0.11405945D+01  1  2  4  2  7  2       -2 -.911107815841D-03 0.100000000000D+01
-.443936099926D-03 0.000000000000D+00 -.716190634729D-04 0.759529779584D-05 0.000000000000D+00  7 1 -2 -24 -11 11 23 21 2 0.22983457D+00 0.16055805D-01 0.59681903D+05 0.59681903D+05 0.59681903D+05 0.11405945D+01  1  2  5  2  7  2       -2 -.127645087533D-01 0.100000000000D+01
0.446485966427D-03 0.000000000000D+00 0.715625570461D-04 0.759529779584D-05 0.000000000000D+00  7 1 -2 -24 -11 11 23 21 2 0.22983457D+00 0.15430309D-01 0.59681903D+05 0.59681903D+05 0.59681903D+05 0.11405945D+01  1  2  6  2  7  2       -2 0.136789084138D-01 0.100000000000D+01
0.669703237446D-06 0.000000000000D+00 0.000000000000D+00 0.759529779584D-05 0.000000000000D+00  7 1 21 -24 -11 11 23 2 2 0.22983457D+00 0.15925819D-01 0.63161930D+05 0.63161930D+05 0.63161930D+05 0.11384743D+01  1  2 12  4  7  2       -2 0.262830296205D-03 0.100000000000D+01
-.307875042498D-05 0.000000000000D+00 -.503193471435D-06 0.759529779584D-05 0.000000000000D+00  7 1 21 -24 -11 11 23 2 2 0.22983457D+00 0.16055805D-01 0.59681903D+05 0.59681903D+05 0.59681903D+05 0.11405945D+01  1  2  5  4  7  2       -2 -.119857082654D-02 0.100000000000D+01
  </mgrwgt>
  </event>
  <event>
  8     66 0.29493621E-05 0.17407299E+03 0.75467711E-02 0.10481605E+00
        1 -1    0    0  501    0 0.00000000E+00 0.00000000E+00 0.17180042E+04 0.17180043E+04 0.32000000E+00 0.0000E+00 0.9000E+01
       -2 -1    0    0    0  501 0.00000000E+00 0.00000000E+00 -.58552479E+02 0.58553354E+02 0.32000000E+00 0.0000E+00 0.9000E+01
       25  2    1    2    0    0 -.79685147E+02 0.20443706E+02 0.16273511E+04 0.16571200E+04 0.30167466E+03 0.0000E+00 0.0000E+00
       23  2    3    3    0    0 0.51163077E+02 -.83293385E+01 0.11076376E+04 0.11127245E+04 0.92777785E+02 0.0000E+00 0.0000E+00
      -24  1    1    2    0    0 0.79685147E+02 -.20443706E+02 0.32100678E+02 0.11943759E+03 0.80419002E+02 0.0000E+00 0.9000E+01
      -11  1    4    4    0    0 0.87609937E+01 -.24221811E+02 0.79048834E+02 0.83139456E+02 0.51099893E-03 0.0000E+00 0.9000E+01
       11  1    4    4    0    0 0.42402083E+02 0.15892472E+02 0.10285888E+04 0.10295851E+04 0.51099893E-03 0.0000E+00 0.9000E+01
       23  1    3    3    0    0 -.13084822E+03 0.28773044E+02 0.51971345E+03 0.54439551E+03 0.91188000E+02 0.0000E+00 0.9000E+01
#aMCatNLO 1  0  0  2  1 0.68959825D+02 0.00000000D+00  -5  7  0 0.00000000D+00 0.00000000D+00 0.00000000D+00 0.00000000D+00 0.00000000D+00
  <mgrwgt>
 0.1722180491D-02    4    2    0
 0.317165905408405D+03 0.000000000000000D+00 0.000000000000000D+00 0.317165905408405D+03
 0.317165905408405D+03 0.000000000000000D+00 0.000000000000000D+00 -.317165905408405D+03
 0.250528551548430D+03 0.796851470163631D+02 -.204437055127872D+02 -.222552626217870D+03
 0.260499454083871D+02 0.876099370466690D+01 -.242218105578567D+02 0.389211232957589D+01
 0.192681050839085D+03 0.424020832280910D+02 0.158924720858440D+02 0.187284489537636D+03
 0.165072263020907D+03 -.130848223949121D+03 0.287730439847999D+02 0.313760243506580D+02
 0.000000000000000D+00 -.000000000000000D+00 0.000000000000000D+00 0.000000000000000D+00
 0.437558570349324D+03 0.000000000000000D+00 0.000000000000000D+00 0.437558570349324D+03
 0.329065181492888D+03 0.000000000000000D+00 0.000000000000000D+00 -.329065181492888D+03
 0.260935835500008D+03 0.106857351970211D+03 -.259254544253351D+02 -.222552626217870D+03
 0.276577845957923D+02 0.116142861024058D+02 -.247974367363377D+02 0.389211232957589D+01
 0.197993235303833D+03 0.631571583458985D+02 0.117053216263897D+02 0.187284489537636D+03
 0.151482344339020D+03 -.114030852323490D+03 0.253802899268464D+02 0.313760243506580D+02
 0.128554552103559D+03 -.675979440950253D+02 0.136372796084368D+02 0.108493388856436D+03
0.461441627371D-04 0.000000000000D+00 0.000000000000D+00 0.241607040460D-06 0.000000000000D+00  7 1 -2 -24 -11 11 23 21 0 0.26430842D+00 0.90081433D-02 0.30301406D+05 0.30301406D+05 0.30301406D+05 0.11669333D+01  1  2  2  2  7  2       -2 0.181520415836D-02 0.100000000000D+01
-.144165897383D-05 0.000000000000D+00 -.177205734948D-06 0.241607040460D-06 0.000000000000D+00  7 1 -2 -24 -11 11 23 21 2 0.26430842D+00 0.90081433D-02 0.30301406D+05 0.30301406D+05 0.30301406D+05 0.11669333D+01  1  2  3  2  7  2       -2 -.772259621268D-04 0.100000000000D+01
0.285963956076D-05 0.000000000000D+00 0.000000000000D+00 0.241607040460D-06 0.000000000000D+00  7 1 -2 -24 -11 11 23 21 2 0.26430842D+00 0.90081433D-02 0.30301406D+05 0.30301406D+05 0.30301406D+05 0.11669333D+01  1  2 15  2  7  2       -2 0.153183533987D-03 0.100000000000D+01
-.315455209466D-05 0.000000000000D+00 0.000000000000D+00 0.241607040460D-06 0.000000000000D+00  7 1 -2 -24 -11 11 23 21 2 0.26430842D+00 0.90081433D-02 0.30301406D+05 0.30301406D+05 0.30301406D+05 0.11669333D+01  1  2  4  2  7  2       -2 -.168981239677D-03 0.100000000000D+01
  </mgrwgt>
  </event>
  <event>
  8     66 0.29493621E-05 0.37257559E+03 0.75467711E-02 0.89380958E-01
        1 -1    0    0  501    0 0.00000000E+00 0.00000000E+00 0.14560181E+03 0.14560216E+03 0.32000000E+00 0.0000E+00 0.9000E+01
       -2 -1    0    0    0  501 0.00000000E+00 0.00000000E+00 -.25431013E+04 0.25431014E+04 0.32000000E+00 0.0000E+00 0.9000E+01
       25  2    1    2    0    0 0.57311303E+02 -.55568945E+03 -.10345445E+04 0.12135124E+04 0.30042396E+03 0.0000E+00 0.0000E+00
       23  2    3    3    0    0 0.24619390E+02 -.51805241E+03 -.90913614E+03 0.10506387E+04 0.91262314E+02 0.0000E+00 0.0000E+00
      -24  1    1    2    0    0 -.57311303E+02 0.55568945E+03 -.13629550E+04 0.14751911E+04 0.80419002E+02 0.0000E+00 0.9000E+01
      -13  1    4    4    0    0 -.98977764E+01 -.16900841E+03 -.22229026E+03 0.27941864E+03 0.10565837E+00 0.0000E+00 0.9000E+01
       13  1    4    4    0    0 0.34517166E+02 -.34904401E+03 -.68684588E+03 0.77122009E+03 0.10565837E+00 0.0000E+00 0.9000E+01
       23  1    3    3    0    0 0.32691913E+02 -.37637034E+02 -.12540839E+03 0.16287364E+03 0.91188000E+02 0.0000E+00 0.9000E+01
#aMCatNLO 1  0  0  2  1 0.38591634D+03 0.00000000D+00  -5  7  0 0.00000000D+00 0.00000000D+00 0.00000000D+00 0.00000000D+00 0.00000000D+00
  <mgrwgt>
 0.1026793575D-02    8    2    0
 0.608506899919095D+03 0.000000000000000D+00 0.000000000000000D+00 0.608506899919095D+03
 0.608506899919095D+03 0.000000000000000D+00 0.000000000000000D+00 -.608506899919095D+03
 0.574083569001289D+03 -.573113025413383D+02 0.555689446762776D+03 -.105020862691097D+03
 0.179400442529941D+03 -.989783591771363D+01 -.169008164633429D+03 0.593531120609897D+02
 0.350751792646353D+03 0.345172256604495D+02 -.349044248569293D+03 0.186914901325326D+01
 0.112777995660607D+03 0.326919127986025D+02 -.376370335600534D+02 0.437986016168539D+02
 0.000000000000000D+00 -.000000000000000D+00 -.000000000000000D+00 -.000000000000000D+00
 0.718763855101159D+03 0.000000000000000D+00 0.000000000000000D+00 0.718763855101159D+03
 0.110148601206511D+04 0.000000000000000D+00 0.000000000000000D+00 -.110148601206511D+04
 0.771176975386038D+03 -.153174749364416D+02 0.759593776154319D+03 -.105020862691097D+03
 0.135079936338051D+03 -.809756296423849D-01 -.121341628193769D+03 0.593531120609897D+02
 0.261764785861900D+03 0.536376226053634D+02 -.256203658913251D+03 0.186914901325326D+01
 0.108713986433074D+03 0.396060352343757D+02 -.406496883040331D+01 0.437986016168539D+02
 0.543514183147204D+03 -.778452072736552D+02 -.377983520216896D+03 -.382722156963949D+03
0.361682727107D-02 0.000000000000D+00 0.000000000000D+00 0.101065751603D-04 0.000000000000D+00  7 1 -2 -24 -13 13 23 21 0 0.22400306D-01 0.39124639D+00 0.35305346D+06 0.35305346D+06 0.35305346D+06 0.10793582D+01  1  2  2  2  7  2       -2 0.621072673466D-03 0.100000000000D+01
-.200796220168D-03 0.000000000000D+00 -.138895690534D-04 0.101065751603D-04 0.000000000000D+00  7 1 -2 -24 -13 13 23 21 2 0.22400306D-01 0.39124639D+00 0.35305346D+06 0.35305346D+06 0.35305346D+06 0.10793582D+01  1  2  3  2  7  2       -2 -.401699582398D-04 0.100000000000D+01
0.230862408789D-03 0.000000000000D+00 0.000000000000D+00 0.101065751603D-04 0.000000000000D+00  7 1 -2 -24 -13 13 23 21 2 0.22400306D-01 0.39124639D+00 0.35305346D+06 0.35305346D+06 0.35305346D+06 0.10793582D+01  1  2 15  2  7  2       -2 0.461848002538D-04 0.100000000000D+01
0.533980021346D-03 0.000000000000D+00 0.000000000000D+00 0.101065751603D-04 0.000000000000D+00  7 1 -2 -24 -13 13 23 21 2 0.22400306D-01 0.71901119D+00 0.66627176D+06 0.66627176D+06 0.66627176D+06 0.10598086D+01  1  2 12  2  7  2       -2 0.120630731603D-05 0.100000000000D+01
-.182115860695D-02 0.000000000000D+00 -.753581666741D-03 0.101065751603D-04 0.000000000000D+00  7 1 -2 -24 -13 13 23 21 2 0.22400306D-01 0.72358964D+00 0.35305346D+06 0.35305346D+06 0.35305346D+06 0.10793582D+01  1  2  5  2  7  2       -2 -.439804794270D-05 0.100000000000D+01
0.201454759630D-02 0.000000000000D+00 0.630572834751D-03 0.101065751603D-04 0.000000000000D+00  7 1 -2 -24 -13 13 23 21 2 0.22400306D-01 0.39124639D+00 0.35305346D+06 0.35305346D+06 0.35305346D+06 0.10793582D+01  1  2  6  2  7  2       -2 0.403017012709D-03 0.100000000000D+01
0.354885906796D-04 0.000000000000D+00 0.000000000000D+00 0.101065751603D-04 0.000000000000D+00  7 1 21 -24 -13 13 23 2 2 0.22400306D-01 0.71901119D+00 0.66627176D+06 0.66627176D+06 0.66627176D+06 0.10598086D+01  1  2 12  4  7  2       -2 0.924367557802D-07 0.100000000000D+01
-.805278283491D-04 0.000000000000D+00 -.505488709655D-04 0.101065751603D-04 0.000000000000D+00  7 1 21 -24 -13 13 23 2 2 0.22400306D-01 0.72358964D+00 0.35305346D+06 0.35305346D+06 0.35305346D+06 0.10793582D+01  1  2  5  4  7  2       -2 -.211648848049D-06 0.100000000000D+01
  </mgrwgt>
  </event>
  <event>
  8     66 0.29493621E-05 0.35898021E+03 0.75467711E-02 0.93540169E-01
        1 -1    0    0  501    0 0.00000000E+00 0.00000000E+00 0.75822435E+03 0.75822441E+03 0.32000000E+00 0.0000E+00 0.9000E+01
       -2 -1    0    0    0  501 0.00000000E+00 0.00000000E+00 -.18688096E+03 0.18688123E+03 0.32000000E+00 0.0000E+00 0.9000E+01
       25  2    1    2    0    0 -.18022101E+03 -.25424873E+03 0.32252276E+03 0.53828756E+03 0.29767523E+03 0.0000E+00 0.0000E+00
       23  2    3    3    0    0 -.11952437E+03 -.10247797E+01 0.66127407E+02 0.16164413E+03 0.86422595E+02 0.0000E+00 0.0000E+00
      -24  1    1    2    0    0 0.18022101E+03 0.25424873E+03 0.24882063E+03 0.40681808E+03 0.80419002E+02 0.0000E+00 0.9000E+01
      -11  1    4    4    0    0 -.89539407E+02 0.47693402E+01 0.86774993E+02 0.12477961E+03 0.51099893E-03 0.0000E+00 0.9000E+01
       11  1    4    4    0    0 -.29984959E+02 -.57941199E+01 -.20647585E+02 0.36864514E+02 0.51099893E-03 0.0000E+00 0.9000E+01
       23  1    3    3    0    0 -.60696642E+02 -.25322395E+03 0.25639535E+03 0.37664344E+03 0.91188000E+02 0.0000E+00 0.9000E+01
#aMCatNLO 1  0  0  1  1 0.31470261D+03 0.00000000D+00  -5  7  0 0.00000000D+00 0.00000000D+00 0.00000000D+00 0.00000000D+00 0.00000000D+00
  <mgrwgt>
 0.1452827359D-02    3    2    0
 0.376427750935816D+03 0.000000000000000D+00 0.000000000000000D+00 0.376427750935816D+03
 0.376427750935816D+03 0.000000000000000D+00 0.000000000000000D+00 -.376427750935816D+03
 0.321873241252175D+03 0.180221008759796D+03 0.254248728999408D+03 0.362481497418577D+01
 0.907897947137155D+02 -.895394074897136D+02 0.476934023955080D+01 0.142384944509254D+02
 0.619477727917787D+02 -.299849591780747D+02 -.579411991261524D+01 -.538967248670016D+02
 0.278244693113964D+03 -.606966420920076D+02 -.253223949326344D+03 0.360334154418904D+02
 0.000000000000000D+00 0.000000000000000D+00 -.000000000000000D+00 -.000000000000000D+00
 0.536543585459833D+03 0.000000000000000D+00 0.000000000000000D+00 0.536543585459833D+03
 0.600594515945522D+03 0.000000000000000D+00 0.000000000000000D+00 -.600594515945522D+03
 0.411694872979666D+03 0.116101015198729D+03 0.386694798865462D+03 0.362481497418577D+01
 0.116506320880117D+03 -.107658823177552D+03 0.421967519225850D+02 0.142384944509254D+02
 0.704238448010650D+02 -.415553465804893D+02 0.181056382309664D+02 -.538967248670016D+02
 0.217358501234873D+03 -.104016509755242D+03 -.163742558258384D+03 0.360334154418904D+02
 0.321154561509634D+03 0.137129664314555D+03 -.283254630760629D+03 -.640509304856894D+02
0.504667158127D-04 0.000000000000D+00 0.000000000000D+00 0.138576581067D-07 0.000000000000D+00  7 1 -2 -24 -11 11 23 21 0 0.11664993D+00 0.28750942D-01 0.12886679D+06 0.12886679D+06 0.12886679D+06 0.11127942D+01  1  2  2  1  7  1        1 0.143542624067D-02 0.100000000000D+01
-.279602842310D-05 0.000000000000D+00 -.193805476912D-06 0.138576581067D-07 0.000000000000D+00  7 1 -2 -24 -11 11 23 21 2 0.11664993D+00 0.28750942D-01 0.12886679D+06 0.12886679D+06 0.12886679D+06 0.11127942D+01  1  2  3  1  7  1        1 -.984797956539D-04 0.100000000000D+01
0.329007921221D-05 0.000000000000D+00 0.000000000000D+00 0.138576581067D-07 0.000000000000D+00  7 1 -2 -24 -11 11 23 21 2 0.11664993D+00 0.28750942D-01 0.12886679D+06 0.12886679D+06 0.12886679D+06 0.11127942D+01  1  2 15  1  7  1        1 0.115880913737D-03 0.100000000000D+01
  </mgrwgt>
  </event>
  <event>
  6     66 0.29493621E-05 0.31681118E+03 0.75467711E-02 0.88055817E-01
        1 -1    0    0  501    0 0.00000000E+00 0.00000000E+00 0.93603245E+03 0.93603251E+03 0.32000000E+00 0.0000E+00 0.9000E+01
       -2 -1    0    0    0  501 0.00000000E+00 0.00000000E+00 -.13045170E+03 0.13045209E+03 0.32000000E+00 0.0000E+00 0.9000E+01
      -24  1    1    2    0    0 0.12171083E+03 -.17639140E+03 0.46551514E+03 0.51874754E+03 0.80419002E+02 0.0000E+00 0.9000E+01
      -13  1    1    2    0    0 0.94954834E+01 -.89967927E+02 0.14544018E+03 0.17128120E+03 0.10565837E+00 0.0000E+00 0.9000E+01
       13  1    1    2    0    0 -.21577927E+02 0.57006482E+02 0.72537809E+01 0.61383828E+02 0.10565837E+00 0.0000E+00 0.9000E+01
       23  1    1    2    0    0 -.10962839E+03 0.20935285E+03 0.18737165E+03 0.31507203E+03 0.91188000E+02 0.0000E+00 0.9000E+01
#aMCatNLO 1  0  0  2  1 0.84436905D+03 0.00000000D+00  -5  7  0 0.00000000D+00 0.00000000D+00 0.00000000D+00 0.00000000D+00 0.00000000D+00
  <mgrwgt>
 0.3831265840D-02    5    2    0
 0.349438498962143D+03 0.000000000000000D+00 0.000000000000000D+00 0.349438498962143D+03
 0.349438498962143D+03 0.000000000000000D+00 0.000000000000000D+00 -.349438498962143D+03
 0.255023154803184D+03 0.121713548201941D+03 -.176395341699625D+03 0.112428151021729D+03
 0.937238036921239D+02 0.949395263323700D+01 -.899632586190239D+02 0.245077200197047D+02
 0.853109641279440D+02 -.215788805188211D+02 0.570071996877016D+02 -.596866123997694D+02
 0.264819075301033D+03 -.109628620316357D+03 0.209351400630947D+03 -.772492586416646D+02
 0.000000000000000D+00 0.000000000000000D+00 -.000000000000000D+00 -.000000000000000D+00
 0.630289624267101D+03 0.000000000000000D+00 0.000000000000000D+00 0.630289624267101D+03
 0.271507872429764D+04 0.000000000000000D+00 0.000000000000000D+00 -.271507872429764D+04
 0.141041540650154D+03 0.149560917763400D+02 -.237007681565672D+02 0.112428151021729D+03
 0.513394524752177D+02 -.296071953029980D+02 -.340371124830093D+02 0.245077200197047D+02
 0.205182457871255D+03 -.998800752403209D+02 0.169000946412489D+03 -.596866123997694D+02
 0.698515080586690D+03 -.369291007171521D+03 0.580745013344572D+03 -.772492586416646D+02
 0.224928981698143D+04 0.483822185938500D+03 -.692008079117484D+03 -.208478910003054D+04
0.101110821276D-03 0.000000000000D+00 0.000000000000D+00 0.172178426711D-12 0.000000000000D+00  7 1 -2 -24 -13 13 23 21 0 0.14400503D+00 0.20069527D-01 0.10036932D+06 0.10036932D+06 0.10036932D+06 0.11215907D+01  1  2  2  2  7  2       -2 0.378902965475D-02 0.100000000000D+01
-.555164570005D-05 0.000000000000D+00 -.388292176792D-06 0.172178426711D-12 0.000000000000D+00  7 1 -2 -24 -13 13 23 21 2 0.14400503D+00 0.20069527D-01 0.10036932D+06 0.10036932D+06 0.10036932D+06 0.11215907D+01  1  2  3  2  7  2       -2 -.261710349731D-03 0.100000000000D+01
0.647359972442D-05 0.000000000000D+00 0.000000000000D+00 0.172178426711D-12 0.000000000000D+00  7 1 -2 -24 -13 13 23 21 2 0.14400503D+00 0.20069527D-01 0.10036932D+06 0.10036932D+06 0.10036932D+06 0.11215907D+01  1  2 15  2  7  2       -2 0.305172220894D-03 0.100000000000D+01
0.348446679987D-04 0.000000000000D+00 -.828049643221D-04 0.172178426711D-12 0.000000000000D+00  7 1 -2 -24 -13 13 23 21 2 0.14400503D+00 0.23113131D+00 0.10036932D+06 0.10036932D+06 0.10036932D+06 0.11215907D+01  1  2  5  2  7  2       -2 0.695352609296D-05 0.100000000000D+01
-.517081468646D-05 0.000000000000D+00 -.236802934343D-04 0.172178426711D-12 0.000000000000D+00  7 1 21 -24 -13 13 23 2 2 0.14400503D+00 0.23113131D+00 0.10036932D+06 0.10036932D+06 0.10036932D+06 0.11215907D+01  1  2  5  4  7  2       -2 -.817921209722D-05 0.100000000000D+01
  </mgrwgt>
  </event>
  <event>
  8     66 0.29493621E-05 0.23187017E+03 0.75467711E-02 0.89191686E-01
        1 -1    0    0  501    0 0.00000000E+00 0.00000000E+00 0.94054237E+03 0.94054243E+03 0.32000000E+00 0.0000E+00 0.9000E+01
       -2 -1    0    0    0  501 0.00000000E+00 0.00000000E+00 -.10036644E+03 0.10036695E+03 0.32000000E+00 0.0000E+00 0.9000E+01
       25  2    1    2    0    0 -.49405281E+02 -.10763936E+03 0.83705788E+03 0.89771701E+03 0.30199806E+03 0.0000E+00 0.0000E+00
       23  2    3    3    0    0 0.48332710E+02 0.52479502E+02 0.31370880E+03 0.33433412E+03 0.90972239E+02 0.0000E+00 0.0000E+00
      -24  1    1    2    0    0 0.49405281E+02 0.10763936E+03 0.31180576E+01 0.14319236E+03 0.80419002E+02 0.0000E+00 0.9000E+01
      -11  1    4    4    0    0 0.22831613E+02 -.22952891E+02 0.13258112E+03 0.13647663E+03 0.51099893E-03 0.0000E+00 0.9000E+01
       11  1    4    4    0    0 0.25501097E+02 0.75432393E+02 0.18112768E+03 0.19785750E+03 0.51099893E-03 0.0000E+00 0.9000E+01
       23  1    3    3    0    0 -.97737991E+02 -.16011886E+03 0.52334908E+03 0.56338289E+03 0.91188000E+02 0.0000E+00 0.9000E+01
#aMCatNLO 1  0  0  2  1 0.78282160D+03 0.00000000D+00  -5  7  0 0.00000000D+00 0.00000000D+00 0.00000000D+00 0.00000000D+00 0.00000000D+00
  <mgrwgt>
 0.1155811620D-02    5    2    0
 0.307244493548343D+03 0.000000000000000D+00 0.000000000000000D+00 0.307244493548343D+03
 0.307244493548343D+03 0.000000000000000D+00 0.000000000000000D+00 -.307244493548343D+03
 0.238296463594016D+03 0.494052808355354D+02 0.107639360530375D+03 -.190501640143117D+03
 0.499086860343038D+02 0.228316127616933D+02 -.229528910185854D+02 0.379836700999223D+02
 0.875078378652300D+02 0.255010971446329D+02 0.754323926549515D+02 0.362942126325478D+02
 0.238775999603137D+03 -.977379907418617D+02 -.160118862166742D+03 0.116223757410647D+03
 0.000000000000000D+00 -.000000000000000D+00 0.000000000000000D+00 -.000000000000000D+00
 0.690361043421244D+03 0.000000000000000D+00 0.000000000000000D+00 0.690361043421244D+03
 0.129235748560640D+04 0.000000000000000D+00 0.000000000000000D+00 -.129235748560640D+04
 0.262877438202263D+03 0.946635206528143D+02 -.131853230987378D+03 -.190501640143117D+03
 0.114962304178525D+03 0.377201989135668D+02 -.101738678887122D+03 0.379836700999223D+02
 0.533301674723014D+02 0.382193975152380D+02 0.813108514156228D+01 0.362942126325478D+02
 0.564021718820606D+03 -.252417742889247D+02 -.543746392173271D+03 0.116223757410647D+03
 0.987526900353947D+03 -.145361342792694D+03 0.769207216906209D+03 -.601996442185154D+03
0.184427264252D-04 0.000000000000D+00 0.000000000000D+00 0.375686229672D-06 0.000000000000D+00  7 1 -2 -24 -11 11 23 21 0 0.14469887D+00 0.15441033D-01 0.53763775D+05 0.53763775D+05 0.53763775D+05 0.11445332D+01  1  2  2  2  7  2       -2 0.105661352785D-02 0.100000000000D+01
-.925902833069D-06 0.000000000000D+00 -.708249255541D-07 0.375686229672D-06 0.000000000000D+00  7 1 -2 -24 -11 11 23 21 2 0.14469887D+00 0.15441033D-01 0.53763775D+05 0.53763775D+05 0.53763775D+05 0.11445332D+01  1  2  3  2  7  2       -2 -.694885498349D-04 0.100000000000D+01
0.115429928903D-05 0.000000000000D+00 0.000000000000D+00 0.375686229672D-06 0.000000000000D+00  7 1 -2 -24 -11 11 23 21 2 0.14469887D+00 0.15441033D-01 0.53763775D+05 0.53763775D+05 0.53763775D+05 0.11445332D+01  1  2 15  2  7  2       -2 0.866295909305D-04 0.100000000000D+01
0.293774661691D-04 0.000000000000D+00 -.122497056153D-04 0.375686229672D-06 0.000000000000D+00  7 1 -2 -24 -11 11 23 21 2 0.14469887D+00 0.13908387D+00 0.53763775D+05 0.53763775D+05 0.53763775D+05 0.11445332D+01  1  2  5  2  7  2       -2 0.283765702892D-04 0.100000000000D+01
0.603338013536D-05 0.000000000000D+00 -.323768355918D-05 0.375686229672D-06 0.000000000000D+00  7 1 21 -24 -11 11 23 2 2 0.14469887D+00 0.13908387D+00 0.53763775D+05 0.53763775D+05 0.53763775D+05 0.11445332D+01  1  2  5  4  7  2       -2 0.536804803678D-04 0.100000000000D+01
  </mgrwgt>
  </event>
  <event>
  8     66 0.29493621E-05 0.12920936E+03 0.75467711E-02 0.10569729E+00
        1 -1    0    0  501    0 0.00000000E+00 0.00000000E+00 0.76400692E+03 0.76400699E+03 0.32000000E+00 0.0000E+00 0.9000E+01
       -2 -1    0    0    0  501 0.00000000E+00 0.00000000E+00 -.99485776E+02 0.99486291E+02 0.32000000E+00 0.0000E+00 0.9000E+01
       25  2    1    2    0    0 0.77465456E+02 0.44258404E+02 0.17389230E+03 0.35837589E+03 0.30039148E+03 0.0000E+00 0.0000E+00
       23  2    3    3    0    0 -.14842135E+02 -.45543998E+02 0.17346634E+03 0.20057666E+03 0.88576985E+02 0.0000E+00 0.0000E+00
      -24  1    1    2    0    0 -.77465456E+02 -.44258404E+02 0.49062884E+03 0.50511739E+03 0.80419002E+02 0.0000E+00 0.9000E+01
      -11  1    4    4    0    0 -.44846356E+02 -.18816705E+02 0.14024973E+03 0.14844275E+03 0.51099893E-03 0.0000E+00 0.9000E+01
       11  1    4    4    0    0 0.30004221E+02 -.26727293E+02 0.33216607E+02 0.52133909E+02 0.51099893E-03 0.0000E+00 0.9000E+01
       23  1    3    3    0    0 0.92307591E+02 0.89802402E+02 0.42596617E+00 0.15779923E+03 0.91188000E+02 0.0000E+00 0.9000E+01
#aMCatNLO 1  0  0  2  1 0.47283725D+02 0.00000000D+00  -5  7  0 0.00000000D+00 0.00000000D+00 0.00000000D+00 0.00000000D+00 0.00000000D+00
  <mgrwgt>
 0.1470812927D-02    9    2    0
 0.275695615784243D+03 0.000000000000000D+00 0.000000000000000D+00 0.275695615784243D+03
 0.275695615784243D+03 0.000000000000000D+00 0.000000000000000D+00 -.275695615784243D+03
 0.199735191250125D+03 -.774654557682456D+02 -.442584042448769D+02 0.159584546512714D+03
 0.634402690364015D+02 -.448463562358196D+02 -.188167048364046D+02 0.407357789526676D+02
 0.416113655518839D+02 0.300042210346176D+02 -.267272927915276D+02 -.108122284120473D+02
 0.246604405730076D+03 0.923075909694476D+02 0.898024018728091D+02 -.189508097053334D+03
 0.000000000000000D+00 0.000000000000000D+00 -.000000000000000D+00 -.000000000000000D+00
 0.300200902310453D+03 0.000000000000000D+00 0.000000000000000D+00 0.300200902310453D+03
 0.300498650657896D+03 0.000000000000000D+00 0.000000000000000D+00 -.300498650657896D+03
 0.205746812145564D+03 -.940932050284814D+02 -.392909154320860D+02 0.159584546512714D+03
 0.668960259823424D+02 -.501911044982103D+02 -.172199777758095D+02 0.407357789526676D+02
 0.386427149567552D+02 0.267132125147987D+02 -.257441141454498D+02 -.108122284120473D+02
 0.242129337310588D+03 0.722659070815281D+02 0.957897931273076D+02 -.189508097053334D+03
 0.472846625730996D+02 0.453051899303648D+02 -.135347857739623D+02 -.297748347442474D+00
0.123191547203D-04 0.000000000000D+00 0.000000000000D+00 0.445186723878D-06 0.000000000000D+00  7 1 -2 -24 -11 11 23 21 0 0.11753957D+00 0.15305549D-01 0.33622145D+05 0.33622145D+05 0.33622145D+05 0.11627705D+01  1  2  2  2  7  2       -2 0.998172713011D-03 0.100000000000D+01
-.545995432771D-06 0.000000000000D+00 -.473087978337D-07 0.445186723878D-06 0.000000000000D+00  7 1 -2 -24 -11 11 23 21 2 0.11753957D+00 0.15305549D-01 0.33622145D+05 0.33622145D+05 0.33622145D+05 0.11627705D+01  1  2  3  2  7  2       -2 -.598138584380D-04 0.100000000000D+01
0.757838361113D-06 0.000000000000D+00 0.000000000000D+00 0.445186723878D-06 0.000000000000D+00  7 1 -2 -24 -11 11 23 21 2 0.11753957D+00 0.15305549D-01 0.33622145D+05 0.33622145D+05 0.33622145D+05 0.11627705D+01  1  2 15  2  7  2       -2 0.830212740432D-04 0.100000000000D+01
0.123979244604D-04 0.000000000000D+00 0.000000000000D+00 0.445186723878D-06 0.000000000000D+00  7 1 -2 -24 -11 11 23 21 2 0.11753957D+00 0.17304271D-01 0.43684910D+05 0.43684910D+05 0.43684910D+05 0.11524892D+01  1  2 12  2  7  2       -2 0.109625951869D-02 0.100000000000D+01
-.102412624403D-04 0.000000000000D+00 0.000000000000D+00 0.445186723878D-06 0.000000000000D+00  7 1 -2 -24 -11 11 23 21 2 0.11753957D+00 0.15305549D-01 0.33622145D+05 0.33622145D+05 0.33622145D+05 0.11627705D+01  1  2  4  2  7  2       -2 -.112193140284D-02 0.100000000000D+01
-.310325058367D-04 0.000000000000D+00 -.103013502522D-04 0.445186723878D-06 0.000000000000D+00  7 1 -2 -24 -11 11 23 21 2 0.11753957D+00 0.18159688D-01 0.33622145D+05 0.33622145D+05 0.33622145D+05 0.11627705D+01  1  2  5  2  7  2       -2 -.258811390596D-02 0.100000000000D+01
0.324669213808D-04 0.000000000000D+00 0.101525721150D-04 0.445186723878D-06 0.000000000000D+00  7 1 -2 -24 -11 11 23 21 2 0.11753957D+00 0.15305549D-01 0.33622145D+05 0.33622145D+05 0.33622145D+05 0.11627705D+01  1  2  6  2  7  2       -2 0.355675473242D-02 0.100000000000D+01
0.239731780602D-06 0.000000000000D+00 0.000000000000D+00 0.445186723878D-06 0.000000000000D+00  7 1 21 -24 -11 11 23 2 2 0.11753957D+00 0.17304271D-01 0.43684910D+05 0.43684910D+05 0.43684910D+05 0.11524892D+01  1  2 12  4  7  2       -2 0.285201932598D-03 0.100000000000D+01
-.695777154667D-06 0.000000000000D+00 -.260933649798D-06 0.445186723878D-06 0.000000000000D+00  7 1 21 -24 -11 11 23 2 2 0.11753957D+00 0.18159688D-01 0.33622145D+05 0.33622145D+05 0.33622145D+05 0.11627705D+01  1  2  5  4  7  2       -2 -.778738076099D-03 0.100000000000D+01
  </mgrwgt>
  </event>
  <event>
  8     66 0.29493621E-05 0.18725997E+03 0.75467711E-02 0.99417831E-01
        1 -1    0    0  501    0 0.00000000E+00 0.00000000E+00 0.93871978E+03 0.93871984E+03 0.32000000E+00 0.0000E+00 0.9000E+01
       -2 -1    0    0    0  501 0.00000000E+00 0.00000000E+00 -.14328427E+03 0.14328463E+03 0.32000000E+00 0.0000E+00 0.9000E+01
       25  2    1    2    0    0 0.18428576E+03 0.68792990E+02 0.12719326E+03 0.38078506E+03 0.30020896E+03 0.0000E+00 0.0000E+00
       23  2    3    3    0    0 0.22299958E+03 0.52122148E+02 0.43909473E+02 0.25029324E+03 0.90956757E+02 0.0000E+00 0.0000E+00
      -24  1    1    2    0    0 -.18428576E+03 -.68792990E+02 0.66824226E+03 0.70121940E+03 0.80419002E+02 0.0000E+00 0.9000E+01
      -13  1    4    4    0    0 0.19250366E+03 0.49323072E+02 0.24340891E+01 0.19873691E+03 0.10565837E+00 0.0000E+00 0.9000E+01
       13  1    4    4    0    0 0.30495922E+02 0.27990757E+01 0.41475384E+02 0.51556326E+02 0.10565837E+00 0.0000E+00 0.9000E+01
       23  1    3    3    0    0 -.38713818E+02 0.16670842E+02 0.83283783E+02 0.13049183E+03 0.91188000E+02 0.0000E+00 0.9000E+01
#aMCatNLO 1  0  0  1  2 0.11736558D+03 0.00000000D+00  -5  7  0 0.00000000D+00 0.00000000D+00 0.00000000D+00 0.00000000D+00 0.00000000D+00
  <mgrwgt>
 0.1326767170D-02    9    2    0
 0.366747872649039D+03 0.000000000000000D+00 0.000000000000000D+00 0.366747872649039D+03
 0.366747872649039D+03 0.000000000000000D+00 0.000000000000000D+00 -.366747872649039D+03
 0.309720816508208D+03 -.184285764633391D+03 -.687929902607816D+02 0.225313225685060D+03
 0.290524279924721D+03 0.192503878700063D+03 0.493231348625459D+02 -.211928861362817D+03
 0.310743788421304D+02 0.304957035847553D+02 0.279901290374396D+01 0.527205937558146D+01
 0.102176270023019D+03 -.387138176514274D+02 0.166708424944917D+02 -.186564236978249D+02
 0.000000000000000D+00 0.000000000000000D+00 0.000000000000000D+00 0.000000000000000D+00
 0.449890513666074D+03 0.000000000000000D+00 0.000000000000000D+00 0.449890513666074D+03
 0.415294090094482D+03 0.000000000000000D+00 0.000000000000000D+00 -.415294090094482D+03
 0.341495620083401D+03 -.218726796512560D+03 -.107445713737321D+03 0.225313225685060D+03
 0.267836027987866D+03 0.162973750029585D+03 0.161818543767841D+02 -.211928861362817D+03
 0.278890946654843D+02 0.273772889430563D+02 -.700743411736410D+00 0.527205937558146D+01
 0.105605406066561D+03 -.497028144395970D+02 0.433803389491533D+01 -.186564236978249D+02
 0.122358454957244D+03 0.780785719795157D+02 0.876265688773583D+02 0.345964235715920D+02
0.309646002300D-04 0.000000000000D+00 0.000000000000D+00 0.786106581173D-05 0.000000000000D+00  7 1 -2 -24 -13 13 23 21 0 0.14441846D+00 0.22043766D-01 0.73526580D+05 0.73526580D+05 0.73526580D+05 0.11328494D+01  1  2  2  1  7  1        1 0.992992129435D-03 0.100000000000D+01
-.152952860022D-05 0.000000000000D+00 -.118912218050D-06 0.786106581173D-05 0.000000000000D+00  7 1 -2 -24 -13 13 23 21 2 0.14441846D+00 0.22043766D-01 0.73526580D+05 0.73526580D+05 0.73526580D+05 0.11328494D+01  1  2  3  1  7  1        1 -.629480540230D-04 0.100000000000D+01
0.189607423664D-05 0.000000000000D+00 0.000000000000D+00 0.786106581173D-05 0.000000000000D+00  7 1 -2 -24 -13 13 23 21 2 0.14441846D+00 0.22043766D-01 0.73526580D+05 0.73526580D+05 0.73526580D+05 0.11328494D+01  1  2 15  1  7  1        1 0.780333126575D-04 0.100000000000D+01
0.172891898355D-04 0.000000000000D+00 0.000000000000D+00 0.786106581173D-05 0.000000000000D+00  7 1 -2 -24 -13 13 23 21 2 0.18495727D+00 0.22043766D-01 0.11192042D+06 0.11192042D+06 0.11192042D+06 0.11177304D+01  1  2 12  1  7  1        1 0.440471002249D-03 0.100000000000D+01
-.214622242260D-04 0.000000000000D+00 0.000000000000D+00 0.786106581173D-05 0.000000000000D+00  7 1 -2 -24 -13 13 23 21 2 0.14441846D+00 0.22043766D-01 0.73526580D+05 0.73526580D+05 0.73526580D+05 0.11328494D+01  1  2  4  1  7  1        1 -.883282110473D-03 0.100000000000D+01
-.385130638513D-04 0.000000000000D+00 -.154444430626D-04 0.786106581173D-05 0.000000000000D+00  7 1 -2 -24 -13 13 23 21 2 0.19202079D+00 0.22043766D-01 0.73526580D+05 0.73526580D+05 0.73526580D+05 0.11328494D+01  1  2  5  1  7  1        1 -.946396029301D-03 0.100000000000D+01
0.418110098369D-04 0.000000000000D+00 0.148382135522D-04 0.786106581173D-05 0.000000000000D+00  7 1 -2 -24 -13 13 23 21 2 0.14441846D+00 0.22043766D-01 0.73526580D+05 0.73526580D+05 0.73526580D+05 0.11328494D+01  1  2  6  1  7  1        1 0.172074043309D-02 0.100000000000D+01
0.580640158253D-06 0.000000000000D+00 0.000000000000D+00 0.786106581173D-05 0.000000000000D+00  7 21 -2 -24 -13 13 23 -1 2 0.18495727D+00 0.22043766D-01 0.11192042D+06 0.11192042D+06 0.11192042D+06 0.11177304D+01  1  2 12  3  7  1        1 0.161382486854D-04 0.100000000000D+01
-.111467005758D-05 0.000000000000D+00 -.575082203528D-06 0.786106581173D-05 0.000000000000D+00  7 21 -2 -24 -13 13 23 -1 2 0.19202079D+00 0.22043766D-01 0.73526580D+05 0.73526580D+05 0.73526580D+05 0.11328494D+01  1  2  5  3  7  1        1 -.289817621960D-04 0.100000000000D+01
  </mgrwgt>
  </event>
  <event>
  8     66 0.29493621E-05 0.13269559E+03 0.75467711E-02 0.98223116E-01
        1 -1    0    0  501    0 0.00000000E+00 0.00000000E+00 0.20436928E+03 0.20436953E+03 0.32000000E+00 0.0000E+00 0.9000E+01
       -2 -1    0    0    0  501 0.00000000E+00 0.00000000E+00 -.39446886E+03 0.39446899E+03 0.32000000E+00 0.0000E+00 0.9000E+01
       25  2    1    2    0    0 -.76287051E+02 0.17844148E+03 -.10006051E+03 0.37028804E+03 0.29906529E+03 0.0000E+00 0.0000E+00
       23  2    3    3    0    0 -.67063172E+02 0.22733599E+03 -.64973268E+02 0.26064261E+03 0.86798156E+02 0.0000E+00 0.0000E+00
      -24  1    1    2    0    0 0.76287051E+02 -.17844148E+03 -.90039075E+02 0.22855049E+03 0.80419002E+02 0.0000E+00 0.9000E+01
      -11  1    4    4    0    0 0.94813119E+01 0.32627025E+02 0.14366921E+02 0.36889382E+02 0.51099893E-03 0.0000E+00 0.9000E+01
       11  1    4    4    0    0 -.76544484E+02 0.19470897E+03 -.79340188E+02 0.22375323E+03 0.51099893E-03 0.0000E+00 0.9000E+01
       23  1    3    3    0    0 -.92238788E+01 -.48894519E+02 -.35087244E+02 0.10964543E+03 0.91188000E+02 0.0000E+00 0.9000E+01
#aMCatNLO 1  0  0  1  2 0.15636540D+03 0.00000000D+00  -5  7  0 0.00000000D+00 0.00000000D+00 0.00000000D+00 0.00000000D+00 0.00000000D+00
  <mgrwgt>
 0.8111663005D-03    7    2    0
 0.283932089000513D+03 0.000000000000000D+00 0.000000000000000D+00 0.283932089000513D+03
 0.283932089000513D+03 0.000000000000000D+00 0.000000000000000D+00 -.283932089000513D+03
 0.210875153497533D+03 0.762870508313742D+02 -.178441475877883D+03 -.184401727272819D+02
 0.437110304766157D+02 0.948131192478264D+01 0.326270254022537D+02 0.274997476881750D+02
 0.209397809028551D+03 -.765444839201203D+02 0.194708969407383D+03 -.876365447029834D+01
 0.103880184998325D+03 -.922387883603650D+01 -.488945189317538D+02 -.295920490594838D+00
 0.000000000000000D+00 -.000000000000000D+00 -.000000000000000D+00 0.000000000000000D+00
 0.523730362946431D+03 0.000000000000000D+00 0.000000000000000D+00 0.523730362946431D+03
 0.321164928675295D+03 0.000000000000000D+00 0.000000000000000D+00 -.321164928675295D+03
 0.176094370499982D+03 0.888847837120786D+02 -.127677196952547D+03 -.184401727272819D+02
 0.546862858252047D+02 0.126846213072457D+02 0.455351964609187D+02 0.274997476881750D+02
 0.264150803653922D+03 -.611281822254156D+02 0.256831054915784D+03 -.876365447029834D+01
 0.940675752679085D+02 -.277972017876781D+01 -.229269047098517D+02 -.295920490594838D+00
 0.255896256374709D+03 -.376615026151409D+02 -.151762149714303D+03 0.202565434271137D+03
0.252807154340D-04 0.000000000000D+00 0.000000000000D+00 0.486140463150D-07 0.000000000000D+00  7 1 -2 -24 -11 11 23 21 0 0.31441457D-01 0.60687547D-01 0.77600738D+05 0.77600738D+05 0.77600738D+05 0.11308734D+01  1  2  2  1  7  1        1 0.105767913477D-02 0.100000000000D+01
-.140386324574D-05 0.000000000000D+00 -.970846038317D-07 0.486140463150D-07 0.000000000000D+00  7 1 -2 -24 -11 11 23 21 2 0.31441457D-01 0.60687547D-01 0.77600738D+05 0.77600738D+05 0.77600738D+05 0.11308734D+01  1  2  3  1  7  1        1 -.751133957389D-04 0.100000000000D+01
0.166343964014D-05 0.000000000000D+00 0.000000000000D+00 0.486140463150D-07 0.000000000000D+00  7 1 -2 -24 -11 11 23 21 2 0.31441457D-01 0.60687547D-01 0.77600738D+05 0.77600738D+05 0.77600738D+05 0.11308734D+01  1  2 15  1  7  1        1 0.890019739150D-04 0.100000000000D+01
0.123307620023D-04 0.000000000000D+00 0.000000000000D+00 0.486140463150D-07 0.000000000000D+00  7 1 -2 -24 -11 11 23 21 2 0.58516899D-01 0.60687547D-01 0.13573074D+06 0.13573074D+06 0.13573074D+06 0.11109942D+01  1  2 12  1  7  1        1 0.280016113056D-03 0.100000000000D+01
-.240910138339D-04 0.000000000000D+00 -.845433053290D-05 0.486140463150D-07 0.000000000000D+00  7 1 -2 -24 -11 11 23 21 2 0.63765307D-01 0.60687547D-01 0.77600738D+05 0.77600738D+05 0.77600738D+05 0.11308734D+01  1  2  5  1  7  1        1 -.510960577242D-03 0.100000000000D+01
0.834728929199D-06 0.000000000000D+00 0.000000000000D+00 0.486140463150D-07 0.000000000000D+00  7 21 -2 -24 -11 11 23 -1 2 0.58516899D-01 0.60687547D-01 0.13573074D+06 0.13573074D+06 0.13573074D+06 0.11109942D+01  1  2 12  3  7  1        1 0.731317977610D-04 0.100000000000D+01
-.132967167870D-05 0.000000000000D+00 -.646526236287D-06 0.486140463150D-07 0.000000000000D+00  7 21 -2 -24 -11 11 23 -1 2 0.63765307D-01 0.60687547D-01 0.77600738D+05 0.77600738D+05 0.77600738D+05 0.11308734D+01  1  2  5  3  7  1        1 -.102588746070D-03 0.100000000000D+01
  </mgrwgt>
  </event>
  <event>
  8     66 0.29493621E-05 0.20081998E+03 0.75467711E-02 0.97170963E-01
        1 -1    0    0  501    0 0.00000000E+00 0.00000000E+00 0.49416812E+03 0.49416822E+03 0.32000000E+00 0.0000E+00 0.9000E+01
       -2 -1    0    0    0  501 0.00000000E+00 0.00000000E+00 -.15762176E+03 0.15762208E+03 0.32000000E+00 0.0000E+00 0.9000E+01
       25  2    1    2    0    0 0.10669342E+02 -.13683754E+03 0.64806578E+02 0.33691243E+03 0.30078522E+03 0.0000E+00 0.0000E+00
       23  2    3    3    0    0 0.65884435E+02 -.11663529E+03 0.13284603E+03 0.20884426E+03 0.89572918E+02 0.0000E+00 0.0000E+00
      -24  1    1    2    0    0 -.10669342E+02 0.13683754E+03 0.27173978E+03 0.31487787E+03 0.80419002E+02 0.0000E+00 0.9000E+01
      -13  1    4    4    0    0 0.18252618E+02 -.37328783E+02 0.10391486E+03 0.11191472E+03 0.10565837E+00 0.0000E+00 0.9000E+01
       13  1    4    4    0    0 0.47631817E+02 -.79306504E+02 0.28931178E+02 0.96929541E+02 0.10565837E+00 0.0000E+00 0.9000E+01
       23  1    3    3    0    0 -.55215093E+02 -.20202250E+02 -.68039456E+02 0.12806817E+03 0.91188000E+02 0.0000E+00 0.9000E+01
#aMCatNLO 1  0  0  2  2 0.31059573D+03 0.00000000D+00  -5  7  0 0.00000000D+00 0.00000000D+00 0.00000000D+00 0.00000000D+00 0.00000000D+00
  <mgrwgt>
 0.8263820978D-03    5    2    0
 0.279090998903680D+03 0.000000000000000D+00 0.000000000000000D+00 0.279090998903680D+03
 0.279090998903680D+03 0.000000000000000D+00 0.000000000000000D+00 -.279090998903680D+03
 0.203842666352351D+03 -.106693421012737D+02 0.136837538984225D+03 0.127460855697473D+03
 0.680293168587386D+02 0.182525761655781D+02 -.373287241431743D+02 0.538646244712540D+02
 0.957413058926327D+02 0.476318574236133D+02 -.793065629863249D+02 -.246591337986419D+02
 0.190568708703639D+03 -.552150914879177D+02 -.202022518547261D+02 -.156666346370085D+03
 0.000000000000000D+00 -.000000000000000D+00 0.000000000000000D+00 -.000000000000000D+00
 0.420207143350268D+03 0.000000000000000D+00 0.000000000000000D+00 0.420207143350268D+03
 0.558605482004943D+03 0.000000000000000D+00 0.000000000000000D+00 -.558605482004943D+03
 0.156951250213777D+03 -.674111082453022D+01 0.432985759467495D+02 0.127460855697473D+03
 0.990311548380272D+02 0.200714875714928D+02 -.806406054403828D+02 0.538646244712540D+02
 0.154768047249806D+03 0.503593387666934D+02 -.144253293095168D+03 -.246591337986419D+02
 0.228027167487878D+03 -.506575273559571D+02 -.128726876004096D+03 -.156666346370085D+03
 0.340035005565723D+03 -.130321881576988D+02 0.310322198592897D+03 -.138398338654675D+03
0.102644559124D-04 0.000000000000D+00 0.000000000000D+00 0.325305486242D-06 0.000000000000D+00  7 1 -2 -24 -13 13 23 21 0 0.76025897D-01 0.24249534D-01 0.40328663D+05 0.40328663D+05 0.40328663D+05 0.11555986D+01  1  2  2  2  7  2       -2 0.733117584437D-03 0.100000000000D+01
-.495141090656D-06 0.000000000000D+00 -.394182133968D-07 0.325305486242D-06 0.000000000000D+00  7 1 -2 -24 -13 13 23 21 2 0.76025897D-01 0.24249534D-01 0.40328663D+05 0.40328663D+05 0.40328663D+05 0.11555986D+01  1  2  3  2  7  2       -2 -.472259497306D-04 0.100000000000D+01
0.662754927468D-06 0.000000000000D+00 0.000000000000D+00 0.325305486242D-06 0.000000000000D+00  7 1 -2 -24 -13 13 23 21 2 0.76025897D-01 0.24249534D-01 0.40328663D+05 0.40328663D+05 0.40328663D+05 0.11555986D+01  1  2 15  2  7  2       -2 0.632127518378D-04 0.100000000000D+01
0.180467128283D-05 0.000000000000D+00 -.325977548671D-05 0.325305486242D-06 0.000000000000D+00  7 1 -2 -24 -13 13 23 21 2 0.76025897D-01 0.70103230D-01 0.40328663D+05 0.40328663D+05 0.40328663D+05 0.11555986D+01  1  2  5  2  7  2       -2 0.236976073022D-04 0.100000000000D+01
0.390203674303D-06 0.000000000000D+00 -.390970840707D-06 0.325305486242D-06 0.000000000000D+00  7 1 21 -24 -13 13 23 2 2 0.76025897D-01 0.70103230D-01 0.40328663D+05 0.40328663D+05 0.40328663D+05 0.11555986D+01  1  2  5  4  7  2       -2 0.535801039213D-04 0.100000000000D+01
  </mgrwgt>
  </event>
  <event>
  8     66 0.29493621E-05 0.21416730E+03 0.75467711E-02 0.94195845E-01
        1 -1    0    0  501    0 0.00000000E+00 0.00000000E+00 0.61454687E+03 0.61454696E+03 0.32000000E+00 0.0000E+00 0.9000E+01
       -2 -1    0    0    0  501 0.00000000E+00 0.00000000E+00 -.69609471E+03 0.69609479E+03 0.32000000E+00 0.0000E+00 0.9000E+01
       25  2    1    2    0    0 0.42635087E+03 0.27572858E+02 0.40312941E+03 0.65955451E+03 0.29993916E+03 0.0000E+00 0.0000E+00
       23  2    3    3    0    0 0.23967493E+03 0.56895432E+02 0.35971643E+03 0.44529378E+03 0.90606182E+02 0.0000E+00 0.0000E+00
      -24  1    1    2    0    0 -.42635087E+03 -.27572858E+02 -.48467725E+03 0.65108723E+03 0.80419002E+02 0.0000E+00 0.9000E+01
      -11  1    4    4    0    0 0.64800389E+02 0.55436977E+02 0.14671148E+03 0.16969563E+03 0.51099893E-03 0.0000E+00 0.9000E+01
       11  1    4    4    0    0 0.17487454E+03 0.14584555E+01 0.21300495E+03 0.27559815E+03 0.51099893E-03 0.0000E+00 0.9000E+01
       23  1    3    3    0    0 0.18667594E+03 -.29322574E+02 0.43412979E+02 0.21426073E+03 0.91188000E+02 0.0000E+00 0.9000E+01
#aMCatNLO 1  0  0  2  1 0.13147016D+03 0.00000000D+00  -5  7  0 0.00000000D+00 0.00000000D+00 0.00000000D+00 0.00000000D+00 0.00000000D+00
  <mgrwgt>
 0.1203268857D-02    9    2    0
 0.654051169801228D+03 0.000000000000000D+00 0.000000000000000D+00 0.654051169801228D+03
 0.654051169801228D+03 0.000000000000000D+00 0.000000000000000D+00 -.654051169801228D+03
 0.622136126419643D+03 -.426350874640044D+03 -.275728584598889D+02 -.445029002439266D+03
 0.179171138741893D+03 0.648003894893480D+02 0.554369766573363D+02 0.157575214101678D+03
 0.289412014886865D+03 0.174874540853438D+03 0.145845545437202D+01 0.230599397722245D+03
 0.217383059554054D+03 0.186675944297258D+03 -.293225736518194D+02 0.568543906153440D+02
 0.000000000000000D+00 0.000000000000000D+00 0.000000000000000D+00 -.000000000000000D+00
 0.680599590022960D+03 0.000000000000000D+00 0.000000000000000D+00 0.680599590022960D+03
 0.843172948826514D+03 0.000000000000000D+00 0.000000000000000D+00 -.843172948826514D+03
 0.652071601856307D+03 -.462912883441054D+03 -.799437760259087D+02 -.445029002439266D+03
 0.171777177853879D+03 0.547303081711037D+02 0.410127309472284D+02 0.157575214101678D+03
 0.280688900572950D+03 0.158516113396160D+03 -.219731306091152D+02 0.230599397722245D+03
 0.210154730126654D+03 0.174408211115149D+03 -.468947056071183D+02 0.568543906153440D+02
 0.209080128439684D+03 0.752582507586414D+02 0.107798881294914D+03 -.162573358803554D+03
0.378293771355D-03 0.000000000000D+00 0.000000000000D+00 0.205498051287D-04 0.000000000000D+00  7 1 -2 -24 -11 11 23 21 0 0.94545685D-01 0.10709151D+00 0.20462932D+06 0.20462932D+06 0.20462932D+06 0.10970629D+01  1  2  2  2  7  2       -2 0.983490431640D-03 0.100000000000D+01
-.175425348854D-04 0.000000000000D+00 -.145274768904D-05 0.205498051287D-04 0.000000000000D+00  7 1 -2 -24 -11 11 23 21 2 0.94545685D-01 0.10709151D+00 0.20462932D+06 0.20462932D+06 0.20462932D+06 0.10970629D+01  1  2  3  2  7  2       -2 -.548903992294D-04 0.100000000000D+01
0.242879334093D-04 0.000000000000D+00 0.000000000000D+00 0.205498051287D-04 0.000000000000D+00  7 1 -2 -24 -11 11 23 21 2 0.94545685D-01 0.10709151D+00 0.20462932D+06 0.20462932D+06 0.20462932D+06 0.10970629D+01  1  2 15  2  7  2       -2 0.759966772194D-04 0.100000000000D+01
0.699017037389D-03 0.000000000000D+00 0.000000000000D+00 0.205498051287D-04 0.000000000000D+00  7 1 -2 -24 -11 11 23 21 2 0.94545685D-01 0.13977728D+00 0.26978199D+06 0.26978199D+06 0.26978199D+06 0.10879797D+01  1  2 12  2  7  2       -2 0.107131706833D-02 0.100000000000D+01
-.749085161148D-03 0.000000000000D+00 0.000000000000D+00 0.205498051287D-04 0.000000000000D+00  7 1 -2 -24 -11 11 23 21 2 0.94545685D-01 0.10709151D+00 0.20462932D+06 0.20462932D+06 0.20462932D+06 0.10970629D+01  1  2  4  2  7  2       -2 -.234387925239D-02 0.100000000000D+01
-.926683025463D-03 0.000000000000D+00 -.191755588788D-03 0.205498051287D-04 0.000000000000D+00  7 1 -2 -24 -11 11 23 21 2 0.94545685D-01 0.14100977D+00 0.20462932D+06 0.20462932D+06 0.20462932D+06 0.10970629D+01  1  2  5  2  7  2       -2 -.142880637413D-02 0.100000000000D+01
0.950281953915D-03 0.000000000000D+00 0.184719275561D-03 0.205498051287D-04 0.000000000000D+00  7 1 -2 -24 -11 11 23 21 2 0.94545685D-01 0.10709151D+00 0.20462932D+06 0.20462932D+06 0.20462932D+06 0.10970629D+01  1  2  6  2  7  2       -2 0.297342181000D-02 0.100000000000D+01
0.247846885775D-04 0.000000000000D+00 0.000000000000D+00 0.205498051287D-04 0.000000000000D+00  7 1 21 -24 -11 11 23 2 2 0.94545685D-01 0.13977728D+00 0.26978199D+06 0.26978199D+06 0.26978199D+06 0.10879797D+01  1  2 12  4  7  2       -2 0.329596562778D-03 0.100000000000D+01
-.298912500271D-04 0.000000000000D+00 -.696177430260D-05 0.205498051287D-04 0.000000000000D+00  7 1 21 -24 -11 11 23 2 2 0.94545685D-01 0.14100977D+00 0.20462932D+06 0.20462932D+06 0.20462932D+06 0.10970629D+01  1  2  5  4  7  2       -2 -.402977667240D-03 0.100000000000D+01
  </mgrwgt>
  </event>
  <event>
  8     66 0.29493621E-05 0.43189941E+03 0.75467711E-02 0.94119524E-01
        1 -1    0    0  501    0 0.00000000E+00 0.00000000E+00 0.34519449E+03 0.34519464E+03 0.32000000E+00 0.0000E+00 0.9000E+01
       -2 -1    0    0    0  501 0.00000000E+00 0.00000000E+00 -.61199355E+03 0.61199363E+03 0.32000000E+00 0.0000E+00 0.9000E+01
       25  2    1    2    0    0 0.27039033E+03 0.26935358E+03 -.29229159E+03 0.56631826E+03 0.29936552E+03 0.0000E+00 0.0000E+00
       23  2    3    3    0    0 -.22069216E+02 0.64341286E+02 -.42092105E+02 0.12080994E+03 0.90534221E+02 0.0000E+00 0.0000E+00
      -24  1    1    2    0    0 -.27039033E+03 -.26935358E+03 0.25492535E+02 0.39087001E+03 0.80419002E+02 0.0000E+00 0.9000E+01
      -11  1    4    4    0    0 0.23416650E+02 0.53477456E+02 -.45360362E+02 0.73930645E+02 0.51099893E-03 0.0000E+00 0.9000E+01
       11  1    4    4    0    0 -.45485867E+02 0.10863830E+02 0.32682574E+01 0.46879296E+02 0.51099893E-03 0.0000E+00 0.9000E+01
       23  1    3    3    0    0 0.29245955E+03 0.20501229E+03 -.25019949E+03 0.44550832E+03 0.91188000E+02 0.0000E+00 0.9000E+01
#aMCatNLO 1  0  0  1  2 0.16622990D+03 0.00000000D+00  -5  7  0 0.00000000D+00 0.00000000D+00 0.00000000D+00 0.00000000D+00 0.00000000D+00
  <mgrwgt>
 0.1122626011D-02    4    2    0
 0.459626927231698D+03 0.000000000000000D+00 0.000000000000000D+00 0.459626927231698D+03
 0.459626927231698D+03 0.000000000000000D+00 0.000000000000000D+00 -.459626927231698D+03
 0.414398670371828D+03 -.270390332468492D+03 -.269353576152511D+03 0.139988432282814D+03
 0.638163704385316D+02 0.234166503844175D+02 0.534774559683709D+02 -.257750135571798D+02
 0.497624023538118D+02 -.454858667495622D+02 0.108638301628755D+02 0.170091095668151D+02
 0.391276411299225D+03 0.292459548833637D+03 0.205012290021265D+03 -.131222528292450D+03
 0.000000000000000D+00 0.000000000000000D+00 -.000000000000000D+00 -.000000000000000D+00
 0.504165163609009D+03 0.000000000000000D+00 0.000000000000000D+00 0.504165163609009D+03
 0.653364763686054D+03 0.000000000000000D+00 0.000000000000000D+00 -.653364763686054D+03
 0.423320973314952D+03 -.325086617489420D+03 -.217842512954280D+03 0.139988432282814D+03
 0.683986917143251D+02 0.147840812688768D+02 0.616073099996562D+02 -.257750135571798D+02
 0.579042133596056D+02 -.525156218050633D+02 0.174842095322140D+02 0.170091095668151D+02
 0.384538863269157D+03 0.241805116051532D+03 0.252716877038669D+03 -.131222528292450D+03
 0.223367185637023D+03 0.121013041974075D+03 -.113965883616259D+03 -.149199600077045D+03
0.167390834965D-03 0.000000000000D+00 0.000000000000D+00 0.388895452061D-05 0.000000000000D+00  7 1 -2 -24 -11 11 23 21 0 0.53106863D-01 0.94152871D-01 0.18653710D+06 0.18653710D+06 0.18653710D+06 0.11001574D+01  1  2  2  1  7  1        1 0.132173598871D-02 0.100000000000D+01
-.925571498467D-05 0.000000000000D+00 -.642824881283D-06 0.388895452061D-05 0.000000000000D+00  7 1 -2 -24 -11 11 23 21 2 0.53106863D-01 0.94152871D-01 0.18653710D+06 0.18653710D+06 0.18653710D+06 0.11001574D+01  1  2  3  1  7  1        1 -.884570907555D-04 0.100000000000D+01
0.107354062103D-04 0.000000000000D+00 0.000000000000D+00 0.388895452061D-05 0.000000000000D+00  7 1 -2 -24 -11 11 23 21 2 0.53106863D-01 0.94152871D-01 0.18653710D+06 0.18653710D+06 0.18653710D+06 0.11001574D+01  1  2 15  1  7  1        1 0.102598535393D-03 0.100000000000D+01
-.223135801232D-04 0.000000000000D+00 0.000000000000D+00 0.388895452061D-05 0.000000000000D+00  7 1 -2 -24 -11 11 23 21 2 0.53106863D-01 0.94152871D-01 0.18653710D+06 0.18653710D+06 0.18653710D+06 0.11001574D+01  1  2  4  1  7  1        1 -.213251421993D-03 0.100000000000D+01
  </mgrwgt>
  </event>
  <event>
  7     66 0.29493621E-05 0.39817861E+03 0.75467711E-02 0.83605160E-01
        1 -1    0    0  501    0 0.00000000E+00 0.00000000E+00 0.13753779E+04 0.13753779E+04 0.32000000E+00 0.0000E+00 0.9000E+01
       -2 -1    0    0    0  501 0.00000000E+00 0.00000000E+00 -.15344738E+03 0.15344771E+03 0.32000000E+00 0.0000E+00 0.9000E+01
       23  2    1    2    0    0 0.74783254E+01 0.16793541E+03 0.26884164E+03 0.33989094E+03 0.12244099E+03 0.0000E+00 0.0000E+00
      -24  1    1    2    0    0 0.16200756E+03 -.32335327E+03 0.25892698E+03 0.45201126E+03 0.80419002E+02 0.0000E+00 0.9000E+01
      -11  1    3    3    0    0 -.21448566E+02 0.12422999E+03 0.93701248E+02 0.15707659E+03 0.51099893E-03 0.0000E+00 0.9000E+01
       11  1    3    3    0    0 0.28926892E+02 0.43705424E+02 0.17514040E+03 0.18281435E+03 0.51099893E-03 0.0000E+00 0.9000E+01
       23  1    1    2    0    0 -.16948589E+03 0.15541785E+03 0.69416186E+03 0.73692341E+03 0.91188000E+02 0.0000E+00 0.9000E+01
#aMCatNLO 1  0  0  1  1 0.14040593D+04 0.00000000D+00  -5  7  0 0.00000000D+00 0.00000000D+00 0.00000000D+00 0.00000000D+00 0.00000000D+00
  <mgrwgt>
 0.1829470065D-02    3    2    0
 0.459400058770915D+03 0.000000000000000D+00 0.000000000000000D+00 0.459400058770915D+03
 0.459400058770915D+03 0.000000000000000D+00 0.000000000000000D+00 -.459400058770915D+03
 0.407766193326120D+03 0.162007560190616D+03 -.323353265799461D+03 -.170300523790185D+03
 0.136750421400498D+03 -.214485662961405D+02 0.124229989312771D+03 -.529862860785961D+02
 0.712689025436569D+02 0.289268917338705D+02 0.437054237463182D+02 0.482941750064020D+02
 0.303014600271555D+03 -.169485885628345D+03 0.155417852740372D+03 0.174992634862379D+03
 0.000000000000000D+00 0.000000000000000D+00 0.000000000000000D+00 -.000000000000000D+00
 0.101163630369082D+04 0.000000000000000D+00 0.000000000000000D+00 0.101163630369082D+04
 0.369353806807498D+04 0.000000000000000D+00 0.000000000000000D+00 -.369353806807498D+04
 0.674718803747418D+03 -.390262141922571D+03 -.517176411251298D+03 -.170300523790185D+03
 0.217802012627189D+03 -.202336585671317D+03 0.607459981474105D+02 -.529862860785961D+02
 0.663279979169430D+02 -.412732490851814D+02 0.190681639932529D+02 0.482941750064020D+02
 0.719119014665211D+03 -.690965101106705D+03 -.275991432038614D+02 0.174992634862379D+03
 0.302720654280904D+04 0.132483707778577D+04 0.464961392314496D+03 -.268190176438416D+04
0.132236443386D-03 0.000000000000D+00 0.000000000000D+00 0.175078662443D-10 0.000000000000D+00  7 1 -2 -24 -11 11 23 21 0 0.21159662D+00 0.23607318D-01 0.15854621D+06 0.15854621D+06 0.15854621D+06 0.11056579D+01  1  2  2  1  7  1        1 0.180868274719D-02 0.100000000000D+01
-.716376080402D-05 0.000000000000D+00 -.507822761257D-06 0.175078662443D-10 0.000000000000D+00  7 1 -2 -24 -11 11 23 21 2 0.21159662D+00 0.23607318D-01 0.15854621D+06 0.15854621D+06 0.15854621D+06 0.11056579D+01  1  2  3  1  7  1        1 -.119782624023D-03 0.100000000000D+01
0.840697428878D-05 0.000000000000D+00 0.000000000000D+00 0.175078662443D-10 0.000000000000D+00  7 1 -2 -24 -11 11 23 21 2 0.21159662D+00 0.23607318D-01 0.15854621D+06 0.15854621D+06 0.15854621D+06 0.11056579D+01  1  2 15  1  7  1        1 0.140569941955D-03 0.100000000000D+01
  </mgrwgt>
  </event>
  <event>
  8     66 0.29493621E-05 0.53700922E+03 0.75467711E-02 0.86087442E-01
        1 -1    0    0  501    0 0.00000000E+00 0.00000000E+00 0.65024671E+03 0.65024679E+03 0.32000000E+00 0.0000E+00 0.9000E+01
       -2 -1    0    0    0  501 0.00000000E+00 0.00000000E+00 -.50224466E+03 0.50224476E+03 0.32000000E+00 0.0000E+00 0.9000E+01
       25  2    1    2    0    0 -.69673331E+02 0.49659465E+03 -.86922907E+02 0.59292245E+03 0.30420523E+03 0.0000E+00 0.0000E+00
       23  2    3    3    0    0 -.59868486E+02 0.37515253E+02 0.50433599E+01 0.11582385E+03 0.91641142E+02 0.0000E+00 0.0000E+00
      -24  1    1    2    0    0 0.69673331E+02 -.49659465E+03 0.23492496E+03 0.55956910E+03 0.80419002E+02 0.0000E+00 0.9000E+01
      -11  1    4    4    0    0 -.36029668E+02 -.15995659E+02 0.32535111E+02 0.51112929E+02 0.51099893E-03 0.0000E+00 0.9000E+01
       11  1    4    4    0    0 -.23838818E+02 0.53510912E+02 -.27491751E+02 0.64710921E+02 0.51099893E-03 0.0000E+00 0.9000E+01
       23  1    3    3    0    0 -.98048455E+01 0.45907940E+03 -.91966267E+02 0.47709860E+03 0.91188000E+02 0.0000E+00 0.9000E+01
#aMCatNLO 1  0  0  2  2 0.90312213D+03 0.00000000D+00  -5  7  0 0.00000000D+00 0.00000000D+00 0.00000000D+00 0.00000000D+00 0.00000000D+00
  <mgrwgt>
 0.1474787936D-02    5    2    0
 0.571474447286386D+03 0.000000000000000D+00 0.000000000000000D+00 0.571474447286386D+03
 0.571474447286386D+03 0.000000000000000D+00 0.000000000000000D+00 -.571474447286386D+03
 0.533820268324729D+03 0.696733310170898D+02 -.496594654901301D+03 0.164427000788668D+03
 0.473266616223143D+02 -.360296675627079D+02 -.159956589626282D+02 0.261880669386857D+02
 0.688111480508744D+02 -.238388179589374D+02 0.535109117109613D+02 -.361007919893968D+02
 0.492990816574854D+03 -.980484549544448D+01 0.459079402152968D+03 -.154514275737957D+03
 0.000000000000000D+00 -.000000000000000D+00 -.000000000000000D+00 -.000000000000000D+00
 0.951635268502283D+03 0.000000000000000D+00 0.000000000000000D+00 0.951635268502283D+03
 0.164155324423141D+04 0.000000000000000D+00 0.000000000000000D+00 -.164155324423141D+04
 0.372541390388037D+03 0.232035054054938D+03 -.226811301965415D+03 0.164427000788668D+03
 0.348086459324150D+02 -.213163023970091D+02 0.845235078439206D+01 0.261880669386857D+02
 0.114215119329243D+03 0.894771912298831D+01 0.107989650539427D+03 -.361007919893968D+02
 0.935130334833682D+03 0.246022625382787D+03 0.884167234280422D+03 -.154514275737957D+03
 0.113649302225032D+04 -.465689096163704D+03 -.773797933638826D+03 -.689917975729132D+03
0.286228655361D-03 0.000000000000D+00 0.000000000000D+00 0.294337928630D-06 0.000000000000D+00  7 1 -2 -24 -11 11 23 21 0 0.10003797D+00 0.77268423D-01 0.28837890D+06 0.28837890D+06 0.28837890D+06 0.10858236D+01  1  2  2  2  7  2       -2 0.145085739825D-02 0.100000000000D+01
-.158267809076D-04 0.000000000000D+00 -.109919340232D-05 0.294337928630D-06 0.000000000000D+00  7 1 -2 -24 -11 11 23 21 2 0.10003797D+00 0.77268423D-01 0.28837890D+06 0.28837890D+06 0.28837890D+06 0.10858236D+01  1  2  3  2  7  2       -2 -.945851004907D-04 0.100000000000D+01
0.180165738050D-04 0.000000000000D+00 0.000000000000D+00 0.294337928630D-06 0.000000000000D+00  7 1 -2 -24 -11 11 23 21 2 0.10003797D+00 0.77268423D-01 0.28837890D+06 0.28837890D+06 0.28837890D+06 0.10858236D+01  1  2 15  2  7  2       -2 0.107671891953D-03 0.100000000000D+01
0.376049863829D-04 0.000000000000D+00 -.963935791189D-04 0.294337928630D-06 0.000000000000D+00  7 1 -2 -24 -11 11 23 21 2 0.10003797D+00 0.29721987D+00 0.28837890D+06 0.28837890D+06 0.28837890D+06 0.10858236D+01  1  2  5  2  7  2       -2 0.435607285930D-05 0.100000000000D+01
0.774726470627D-05 0.000000000000D+00 -.154156654599D-04 0.294337928630D-06 0.000000000000D+00  7 1 21 -24 -11 11 23 2 2 0.10003797D+00 0.29721987D+00 0.28837890D+06 0.28837890D+06 0.28837890D+06 0.10858236D+01  1  2  5  4  7  2       -2 0.648767390478D-05 0.100000000000D+01
  </mgrwgt>
  </event>
  <event>
  8     66 0.29493621E-05 0.34072378E+03 0.75467711E-02 0.92170826E-01
        1 -1    0    0  501    0 0.00000000E+00 0.00000000E+00 0.17553309E+03 0.17553338E+03 0.32000000E+00 0.0000E+00 0.9000E+01
       -2 -1    0    0    0  501 0.00000000E+00 0.00000000E+00 -.17105910E+04 0.17105911E+04 0.32000000E+00 0.0000E+00 0.9000E+01
       25  2    1    2    0    0 0.43419834E+03 0.21180964E+03 -.10646590E+04 0.12070560E+04 0.30015651E+03 0.0000E+00 0.0000E+00
       23  2    3    3    0    0 0.29314488E+03 0.24825931E+03 -.69456875E+03 0.79900370E+03 0.91730853E+02 0.0000E+00 0.0000E+00
      -24  1    1    2    0    0 -.43419834E+03 -.21180964E+03 -.47039891E+03 0.67906839E+03 0.80419002E+02 0.0000E+00 0.9000E+01
      -11  1    4    4    0    0 0.41901908E+02 0.99735022E+01 -.41492075E+02 0.59806629E+02 0.51099893E-03 0.0000E+00 0.9000E+01
       11  1    4    4    0    0 0.25124297E+03 0.23828581E+03 -.65307668E+03 0.73919707E+03 0.51099893E-03 0.0000E+00 0.9000E+01
       23  1    3    3    0    0 0.14105346E+03 -.36449667E+02 -.37009027E+03 0.40805235E+03 0.91188000E+02 0.0000E+00 0.9000E+01
#aMCatNLO 1  0  0  2  1 0.18266813D+03 0.00000000D+00  -5  7  0 0.00000000D+00 0.00000000D+00 0.00000000D+00 0.00000000D+00 0.00000000D+00
  <mgrwgt>
 0.1303619657D-02    9    2    0
 0.547964989209431D+03 0.000000000000000D+00 0.000000000000000D+00 0.547964989209431D+03
 0.547964989209431D+03 0.000000000000000D+00 0.000000000000000D+00 -.547964989209431D+03
 0.509811678535952D+03 -.434198343871355D+03 -.211809644135041D+03 0.141595213365545D+03
 0.448112627126171D+02 0.419019079150722D+02 0.997350214698701D+01 0.123615789404125D+02
 0.357419837660936D+03 0.251242973024841D+03 0.238285809044008D+03 -.885764193645871D+02
 0.183887199509357D+03 0.141053462931441D+03 -.364496670559533D+02 -.653803729413704D+02
 0.000000000000000D+00 0.000000000000000D+00 0.000000000000000D+00 -.000000000000000D+00
 0.588656913843571D+03 0.000000000000000D+00 0.000000000000000D+00 0.588656913843571D+03
 0.807299996804543D+03 0.000000000000000D+00 0.000000000000000D+00 -.807299996804543D+03
 0.583625175769955D+03 -.479484507914403D+03 -.290166386854489D+03 0.141595213365545D+03
 0.404953953795542D+02 0.383688174607737D+02 0.386034450641411D+01 0.123615789404125D+02
 0.307008861197720D+03 0.223724761129082D+03 0.190672205746419D+03 -.885764193645871D+02
 0.179919695528982D+03 0.125985909040406D+03 -.625204210842467D+02 -.653803729413704D+02
 0.284907782771903D+03 0.914050202841420D+02 0.158154257685903D+03 -.218643082960972D+03
0.102856000996D-02 0.000000000000D+00 0.000000000000D+00 0.140867009928D-04 0.000000000000D+00  7 1 -2 -24 -11 11 23 21 0 0.27005115D-01 0.26316788D+00 0.27613364D+06 0.27613364D+06 0.27613364D+06 0.10872255D+01  1  2  2  2  7  2       -2 0.992294975070D-03 0.100000000000D+01
-.570202997267D-04 0.000000000000D+00 -.394994126431D-05 0.140867009928D-04 0.000000000000D+00  7 1 -2 -24 -11 11 23 21 2 0.27005115D-01 0.26316788D+00 0.27613364D+06 0.27613364D+06 0.27613364D+06 0.10872255D+01  1  2  3  2  7  2       -2 -.650249373813D-04 0.100000000000D+01
0.659228300655D-04 0.000000000000D+00 0.000000000000D+00 0.140867009928D-04 0.000000000000D+00  7 1 -2 -24 -11 11 23 21 2 0.27005115D-01 0.26316788D+00 0.27613364D+06 0.27613364D+06 0.27613364D+06 0.10872255D+01  1  2 15  2  7  2       -2 0.751772249102D-04 0.100000000000D+01
0.961959220054D-03 0.000000000000D+00 0.000000000000D+00 0.140867009928D-04 0.000000000000D+00  7 1 -2 -24 -11 11 23 21 2 0.27005115D-01 0.39382384D+00 0.38999559D+06 0.38999559D+06 0.38999559D+06 0.10762215D+01  1  2 12  2  7  2       -2 0.142110080934D-03 0.100000000000D+01
-.106442920815D-02 0.000000000000D+00 0.000000000000D+00 0.140867009928D-04 0.000000000000D+00  7 1 -2 -24 -11 11 23 21 2 0.27005115D-01 0.26316788D+00 0.27613364D+06 0.27613364D+06 0.27613364D+06 0.10872255D+01  1  2  4  2  7  2       -2 -.121385616944D-02 0.100000000000D+01
-.134884749768D-02 0.000000000000D+00 -.322049042979D-03 0.140867009928D-04 0.000000000000D+00  7 1 -2 -24 -11 11 23 21 2 0.27005115D-01 0.39624064D+00 0.27613364D+06 0.27613364D+06 0.27613364D+06 0.10872255D+01  1  2  5  2  7  2       -2 -.200258363454D-03 0.100000000000D+01
0.138799073639D-02 0.000000000000D+00 0.296844144712D-03 0.140867009928D-04 0.000000000000D+00  7 1 -2 -24 -11 11 23 21 2 0.27005115D-01 0.26316788D+00 0.27613364D+06 0.27613364D+06 0.27613364D+06 0.10872255D+01  1  2  6  2  7  2       -2 0.158283999123D-02 0.100000000000D+01
0.460504148021D-04 0.000000000000D+00 0.000000000000D+00 0.140867009928D-04 0.000000000000D+00  7 1 21 -24 -11 11 23 2 2 0.27005115D-01 0.39382384D+00 0.38999559D+06 0.38999559D+06 0.38999559D+06 0.10762215D+01  1  2 12  4  7  2       -2 0.494842904289D-04 0.100000000000D+01
-.539564824323D-04 0.000000000000D+00 -.155889182722D-04 0.140867009928D-04 0.000000000000D+00  7 1 21 -24 -11 11 23 2 2 0.27005115D-01 0.39624064D+00 0.27613364D+06 0.27613364D+06 0.27613364D+06 0.10872255D+01  1  2  5  4  7  2       -2 -.591474352496D-04 0.100000000000D+01
  </mgrwgt>
  </event>
  <event>
  8     66 0.29493621E-05 0.14420831E+03 0.75467711E-02 0.99877048E-01
        1 -1    0    0  501    0 0.00000000E+00 0.00000000E+00 0.43586232E+03 0.43586243E+03 0.32000000E+00 0.0000E+00 0.9000E+01
       -2 -1    0    0    0  501 0.00000000E+00 0.00000000E+00 -.29324028E+03 0.29324045E+03 0.32000000E+00 0.0000E+00 0.9000E+01
       25  2    1    2    0    0 -.14636366E+03 -.17854762E+03 0.25870404E+03 0.45846694E+03 0.29993763E+03 0.0000E+00 0.0000E+00
       23  2    3    3    0    0 0.27366089E+02 -.62158101E+02 0.26114346E+01 0.11549870E+03 0.93384136E+02 0.0000E+00 0.0000E+00
      -24  1    1    2    0    0 0.14636366E+03 0.17854762E+03 -.11608200E+03 0.27063595E+03 0.80419002E+02 0.0000E+00 0.9000E+01
      -11  1    4    4    0    0 -.30651378E+02 -.21242844E+02 -.18228543E+02 0.41509579E+02 0.51099893E-03 0.0000E+00 0.9000E+01
       11  1    4    4    0    0 0.58017467E+02 -.40915257E+02 0.20839978E+02 0.73989117E+02 0.51099893E-03 0.0000E+00 0.9000E+01
       23  1    3    3    0    0 -.17372974E+03 -.11638951E+03 0.25609260E+03 0.34296824E+03 0.91188000E+02 0.0000E+00 0.9000E+01
#aMCatNLO 1  0  0  1  2 0.60128848D+02 0.00000000D+00  -5  7  0 0.00000000D+00 0.00000000D+00 0.00000000D+00 0.00000000D+00 0.00000000D+00
  <mgrwgt>
 0.1096777042D-02    9    2    0
 0.357508731483727D+03 0.000000000000000D+00 0.000000000000000D+00 0.357508731483727D+03
 0.357508731483727D+03 0.000000000000000D+00 0.000000000000000D+00 -.357508731483727D+03
 0.299121788110057D+03 0.146363655799006D+03 0.178547615618942D+03 -.172351551735771D+03
 0.459632774400955D+02 -.306513779946934D+02 -.212428439134571D+02 -.268674055786954D+02
 0.712897812112085D+02 0.580174667322893D+02 -.409152574760824D+02 0.649216179523986D+01
 0.298642616206092D+03 -.173729744536602D+03 -.116389514229403D+03 0.192726795519226D+03
 0.000000000000000D+00 0.000000000000000D+00 0.000000000000000D+00 0.000000000000000D+00
 0.394106936144144D+03 0.000000000000000D+00 0.000000000000000D+00 0.394106936144144D+03
 0.384349686929856D+03 0.000000000000000D+00 0.000000000000000D+00 -.384349686929856D+03
 0.281247904705254D+03 0.127120769169304D+03 0.163610576084805D+03 -.172351551735771D+03
 0.492570593759898D+02 -.338085279439019D+02 -.236935403455473D+02 -.268674055786954D+02
 0.697971361827033D+02 0.533395526544962D+02 -.445464272097044D+02 0.649216179523986D+01
 0.317239153372328D+03 -.194150078706376D+03 -.132240532045171D+03 0.192726795519226D+03
 0.609153694377245D+02 0.474982848264779D+02 0.368699235156180D+02 0.975724921428820D+01
0.225401090611D-04 0.000000000000D+00 0.000000000000D+00 0.144222924112D-05 0.000000000000D+00  7 1 -2 -24 -11 11 23 21 0 0.67055764D-01 0.45113911D-01 0.84359509D+05 0.84359509D+05 0.84359509D+05 0.11278345D+01  1  2  2  1  7  1        1 0.627239888025D-03 0.100000000000D+01
-.118652327061D-05 0.000000000000D+00 -.865599537417D-07 0.144222924112D-05 0.000000000000D+00  7 1 -2 -24 -11 11 23 21 2 0.67055764D-01 0.45113911D-01 0.84359509D+05 0.84359509D+05 0.84359509D+05 0.11278345D+01  1  2  3  1  7  1        1 -.419995507819D-04 0.100000000000D+01
0.145342141473D-05 0.000000000000D+00 0.000000000000D+00 0.144222924112D-05 0.000000000000D+00  7 1 -2 -24 -11 11 23 21 2 0.67055764D-01 0.45113911D-01 0.84359509D+05 0.84359509D+05 0.84359509D+05 0.11278345D+01  1  2 15  1  7  1        1 0.514469863573D-04 0.100000000000D+01
0.281257311181D-04 0.000000000000D+00 0.000000000000D+00 0.144222924112D-05 0.000000000000D+00  7 1 -2 -24 -11 11 23 21 2 0.76216022D-01 0.45113911D-01 0.10405289D+06 0.10405289D+06 0.10405289D+06 0.11203089D+01  1  2 12  1  7  1        1 0.822137380481D-03 0.100000000000D+01
-.248358034664D-04 0.000000000000D+00 0.000000000000D+00 0.144222924112D-05 0.000000000000D+00  7 1 -2 -24 -11 11 23 21 2 0.67055764D-01 0.45113911D-01 0.84359509D+05 0.84359509D+05 0.84359509D+05 0.11278345D+01  1  2  4  1  7  1        1 -.879116840551D-03 0.100000000000D+01
-.752885944481D-04 0.000000000000D+00 -.201641408532D-04 0.144222924112D-05 0.000000000000D+00  7 1 -2 -24 -11 11 23 21 2 0.78576977D-01 0.45113911D-01 0.84359509D+05 0.84359509D+05 0.84359509D+05 0.11278345D+01  1  2  5  1  7  1        1 -.214636219401D-02 0.100000000000D+01
0.777570988914D-04 0.000000000000D+00 0.199133114183D-04 0.144222924112D-05 0.000000000000D+00  7 1 -2 -24 -11 11 23 21 2 0.67055764D-01 0.45113911D-01 0.84359509D+05 0.84359509D+05 0.84359509D+05 0.11278345D+01  1  2  6  1  7  1        1 0.275238025620D-02 0.100000000000D+01
0.563424229332D-06 0.000000000000D+00 0.000000000000D+00 0.144222924112D-05 0.000000000000D+00  7 21 -2 -24 -11 11 23 -1 2 0.76216022D-01 0.45113911D-01 0.10405289D+06 0.10405289D+06 0.10405289D+06 0.11203089D+01  1  2 12  3  7  1        1 0.500458905970D-04 0.100000000000D+01
-.164130594232D-05 0.000000000000D+00 -.480976070341D-06 0.144222924112D-05 0.000000000000D+00  7 21 -2 -24 -11 11 23 -1 2 0.78576977D-01 0.45113911D-01 0.84359509D+05 0.84359509D+05 0.84359509D+05 0.11278345D+01  1  2  5  3  7  1        1 -.138994774089D-03 0.100000000000D+01
  </mgrwgt>
  </event>
  <event>
  8     66 0.29493621E-05 0.37476354E+03 0.75467711E-02 0.92672308E-01
        1 -1    0    0  501    0 0.00000000E+00 0.00000000E+00 0.77829536E+03 0.77829543E+03 0.32000000E+00 0.0000E+00 0.9000E+01
       -2 -1    0    0    0  501 0.00000000E+00 0.00000000E+00 -.21778535E+03 0.21778559E+03 0.32000000E+00 0.0000E+00 0.9000E+01
       25  2    1    2    0    0 0.60321527E+02 -.31318889E+03 0.13555823E+03 0.45870108E+03 0.30050738E+03 0.0000E+00 0.0000E+00
       23  2    3    3    0    0 -.38899944E+02 -.30840325E+02 -.19485500E+02 0.10953147E+03 0.95671972E+02 0.0000E+00 0.0000E+00
      -24  1    1    2    0    0 -.60321527E+02 0.31318889E+03 0.42495178E+03 0.53737994E+03 0.80419002E+02 0.0000E+00 0.9000E+01
      -13  1    4    4    0    0 -.36245197E+02 -.64494598E+02 -.14824031E+02 0.75452174E+02 0.10565837E+00 0.0000E+00 0.9000E+01
       13  1    4    4    0    0 -.26547469E+01 0.33654273E+02 -.46614698E+01 0.34079293E+02 0.10565837E+00 0.0000E+00 0.9000E+01
       23  1    3    3    0    0 0.99221471E+02 -.28234856E+03 0.15504373E+03 0.34916962E+03 0.91188000E+02 0.0000E+00 0.9000E+01
#aMCatNLO 1  0  0  1  2 0.35782628D+03 0.00000000D+00  -5  7  0 0.00000000D+00 0.00000000D+00 0.00000000D+00 0.00000000D+00 0.00000000D+00
  <mgrwgt>
 0.1248579567D-02    3    2    0
 0.411705576336372D+03 0.000000000000000D+00 0.000000000000000D+00 0.411705576336372D+03
 0.411705576336372D+03 0.000000000000000D+00 0.000000000000000D+00 -.411705576336372D+03
 0.360796946425807D+03 -.603215269837416D+02 0.313188887355249D+03 0.148260766271280D+03
 0.101365580392749D+03 -.362452382244092D+02 -.644947122276551D+02 -.692942688040400D+02
 0.443988155295747D+02 -.265470736016090D+01 0.336543912072152D+02 -.288372901246429D+02
 0.316849810324613D+03 0.992214725683118D+02 -.282348566334809D+03 -.501292073425969D+02
 0.000000000000000D+00 0.000000000000000D+00 -.000000000000000D+00 -.000000000000000D+00
 0.492070389763076D+03 0.000000000000000D+00 0.000000000000000D+00 0.492070389763076D+03
 0.119038209053023D+04 0.000000000000000D+00 0.000000000000000D+00 -.119038209053023D+04
 0.515855244794209D+03 -.174588400378684D+03 0.455167060830623D+03 0.148260766271280D+03
 0.985646539866951D+02 -.623050633277534D+02 -.321150184517311D+02 -.692942688040400D+02
 0.605266469037498D+02 -.163311740956047D+02 0.506475906271704D+02 -.288372901246429D+02
 0.222853861384191D+03 0.288740169370079D+02 -.194940877978346D+03 -.501292073425969D+02
 0.784652073224457D+03 0.224350620865034D+03 -.278758755027716D+03 -.698311700767150D+03
0.593464462213D-04 0.000000000000D+00 0.000000000000D+00 0.267884747819D-06 0.000000000000D+00  7 1 -2 -24 -13 13 23 21 0 0.11973777D+00 0.33505462D-01 0.14044771D+06 0.14044771D+06 0.14044771D+06 0.11098141D+01  1  2  2  1  7  1        1 0.123339798547D-02 0.100000000000D+01
-.326159395480D-05 0.000000000000D+00 -.227905979768D-06 0.267884747819D-06 0.000000000000D+00  7 1 -2 -24 -13 13 23 21 2 0.11973777D+00 0.33505462D-01 0.14044771D+06 0.14044771D+06 0.14044771D+06 0.11098141D+01  1  2  3  1  7  1        1 -.834908476699D-04 0.100000000000D+01
0.385466681632D-05 0.000000000000D+00 0.000000000000D+00 0.267884747819D-06 0.000000000000D+00  7 1 -2 -24 -13 13 23 21 2 0.11973777D+00 0.33505462D-01 0.14044771D+06 0.14044771D+06 0.14044771D+06 0.11098141D+01  1  2 15  1  7  1        1 0.986724296281D-04 0.100000000000D+01
  </mgrwgt>
  </event>
  <event>
  8     66 0.29493621E-05 0.40946810E+03 0.75467711E-02 0.89654661E-01
        1 -1    0    0  501    0 0.00000000E+00 0.00000000E+00 0.24354247E+03 0.24354268E+03 0.32000000E+00 0.0000E+00 0.9000E+01
       -2 -1    0    0    0  501 0.00000000E+00 0.00000000E+00 -.79043511E+03 0.79043518E+03 0.32000000E+00 0.0000E+00 0.9000E+01
       25  2    1    2    0    0 0.81639116E+02 0.36732860E+03 -.38548910E+03 0.61670868E+03 0.30022076E+03 0.0000E+00 0.0000E+00
       23  2    3    3    0    0 0.87549408E+01 0.29660112E+03 -.36419026E+03 0.47856611E+03 0.91335089E+02 0.0000E+00 0.0000E+00
      -24  1    1    2    0    0 -.81639116E+02 -.36732860E+03 -.16140354E+03 0.41726917E+03 0.80419002E+02 0.0000E+00 0.9000E+01
      -11  1    4    4    0    0 -.43609943E+00 0.25709656E+03 -.35260962E+03 0.43638558E+03 0.51099893E-03 0.0000E+00 0.9000E+01
       11  1    4    4    0    0 0.91910402E+01 0.39504559E+02 -.11580642E+02 0.42180525E+02 0.51099893E-03 0.0000E+00 0.9000E+01
       23  1    3    3    0    0 0.72884175E+02 0.70727479E+02 -.21298839E+02 0.13814258E+03 0.91188000E+02 0.0000E+00 0.9000E+01
#aMCatNLO 1  0  0  1  2 0.57900253D+03 0.00000000D+00  -5  7  0 0.00000000D+00 0.00000000D+00 0.00000000D+00 0.00000000D+00 0.00000000D+00
  <mgrwgt>
 0.1595402736D-02    3    2    0
 0.438753532162215D+03 0.000000000000000D+00 0.000000000000000D+00 0.438753532162215D+03
 0.438753532162215D+03 0.000000000000000D+00 0.000000000000000D+00 -.438753532162215D+03
 0.391081385133376D+03 -.816391160194218D+02 -.367328599065815D+03 0.698726619457286D+02
 0.294440276344130D+03 -.436099429399698D+00 0.257096560751070D+03 -.143513917794990D+03
 0.424844002182383D+02 0.919104023810171D+01 0.395045594473101D+02 0.126427379993015D+02
 0.149501002628686D+03 0.728841752107198D+02 0.707274788674354D+02 0.609985178499599D+02
 0.000000000000000D+00 0.000000000000000D+00 -.000000000000000D+00 -.000000000000000D+00
 0.665827030662925D+03 0.000000000000000D+00 0.000000000000000D+00 0.665827030662925D+03
 0.112358250998538D+04 0.000000000000000D+00 0.000000000000000D+00 -.112358250998538D+04
 0.322273012751990D+03 -.223182022047737D+03 -.206640448463448D+03 0.698726619457286D+02
 0.480246632692540D+03 -.154148527210302D+03 0.431600295609897D+03 -.143513917794990D+03
 0.664506369363435D+02 -.124237164282472D+02 0.640429511752641D+02 0.126427379993015D+02
 0.182344407684315D+03 0.703981528653966D+01 0.145478017207354D+03 0.609985178499599D+02
 0.738094850583116D+03 0.382714450399747D+03 -.434480815529067D+03 -.457755479322454D+03
0.235577058412D-03 0.000000000000D+00 0.000000000000D+00 0.934070922769D-05 0.000000000000D+00  7 1 -2 -24 -11 11 23 21 0 0.37468093D-01 0.12160542D+00 0.16766413D+06 0.16766413D+06 0.16766413D+06 0.11037566D+01  1  2  2  1  7  1        1 0.157694484658D-02 0.100000000000D+01
-.130116811452D-04 0.000000000000D+00 -.904677933167D-06 0.934070922769D-05 0.000000000000D+00  7 1 -2 -24 -11 11 23 21 2 0.37468093D-01 0.12160542D+00 0.16766413D+06 0.16766413D+06 0.16766413D+06 0.11037566D+01  1  2  3  1  7  1        1 -.106111763561D-03 0.100000000000D+01
0.152750321744D-04 0.000000000000D+00 0.000000000000D+00 0.934070922769D-05 0.000000000000D+00  7 1 -2 -24 -11 11 23 21 2 0.37468093D-01 0.12160542D+00 0.16766413D+06 0.16766413D+06 0.16766413D+06 0.11037566D+01  1  2 15  1  7  1        1 0.124569652790D-03 0.100000000000D+01
  </mgrwgt>
  </event>
  <event>
  8     66 0.29493621E-05 0.24489865E+03 0.75467711E-02 0.91332290E-01
        1 -1    0    0  501    0 0.00000000E+00 0.00000000E+00 0.26992742E+03 0.26992761E+03 0.32000000E+00 0.0000E+00 0.9000E+01
       -2 -1    0    0    0  501 0.00000000E+00 0.00000000E+00 -.25308312E+03 0.25308332E+03 0.32000000E+00 0.0000E+00 0.9000E+01
       25  2    1    2    0    0 -.12295807E+03 -.77666532E+02 0.84936523E+02 0.34341543E+03 0.29928108E+03 0.0000E+00 0.0000E+00
       23  2    3    3    0    0 -.17841660E+03 0.72374492E+01 0.65165974E+02 0.20560954E+03 0.78382498E+02 0.0000E+00 0.0000E+00
      -24  1    1    2    0    0 0.12295807E+03 0.77666532E+02 -.68092222E+02 0.17959550E+03 0.80419002E+02 0.0000E+00 0.9000E+01
      -13  1    4    4    0    0 -.18258503E+03 0.53749306E+01 0.49443951E+02 0.18923768E+03 0.10565837E+00 0.0000E+00 0.9000E+01
       13  1    4    4    0    0 0.41684304E+01 0.18625186E+01 0.15722023E+02 0.16371864E+02 0.10565837E+00 0.0000E+00 0.9000E+01
       23  1    3    3    0    0 0.55458536E+02 -.84903981E+02 0.19770549E+02 0.13780588E+03 0.91188000E+02 0.0000E+00 0.9000E+01
#aMCatNLO 1  0  0  2  2 0.58820129D+03 0.00000000D+00  -5  7  0 0.00000000D+00 0.00000000D+00 0.00000000D+00 0.00000000D+00 0.00000000D+00
  <mgrwgt>
 0.4246454330D-02    5    2    0
 0.261369803473866D+03 0.000000000000000D+00 0.000000000000000D+00 0.261369803473866D+03
 0.261369803473866D+03 0.000000000000000D+00 0.000000000000000D+00 -.261369803473866D+03
 0.181882858217241D+03 0.122958067051196D+03 0.776665325773150D+02 -.739146915257907D+02
 0.187742973313106D+03 -.182585371101134D+03 0.537493768638547D+01 0.433718380193227D+02
 0.158734355949971D+02 0.416876789331158D+01 0.186251225437525D+01 0.152025780689499D+02
 0.137240339822387D+03 0.554585361566256D+02 -.849039825180757D+02 0.153402754375181D+02
 0.000000000000000D+00 -.000000000000000D+00 -.000000000000000D+00 -.000000000000000D+00
 0.497875426805896D+03 0.000000000000000D+00 0.000000000000000D+00 0.497875426805896D+03
 0.122181959419287D+04 0.000000000000000D+00 0.000000000000000D+00 -.122181959419287D+04
 0.425120675746997D+03 0.391520908590527D+03 0.124532604189859D+03 -.739146915257907D+02
 0.812706968326548D+02 -.635628751439251D+02 0.261451856740146D+02 0.433718380193227D+02
 0.288766509669461D+02 0.239680107868704D+02 0.531761695167861D+01 0.152025780689499D+02
 0.251648398079809D+03 0.227518596188848D+03 -.548783131108364D+02 0.153402754375181D+02
 0.932778599372361D+03 -.579444640422321D+03 -.101117093704716D+03 -.723944167386976D+03
0.600440517792D-04 0.000000000000D+00 0.000000000000D+00 0.869694934700D-08 0.000000000000D+00  7 1 -2 -24 -13 13 23 21 0 0.41527325D-01 0.38935894D-01 0.59975350D+05 0.59975350D+05 0.59975350D+05 0.11404105D+01  1  2  2  2  7  2       -2 0.415154266184D-02 0.100000000000D+01
-.331859635742D-05 0.000000000000D+00 -.230584968794D-06 0.869694934700D-08 0.000000000000D+00  7 1 -2 -24 -13 13 23 21 2 0.41527325D-01 0.38935894D-01 0.59975350D+05 0.59975350D+05 0.59975350D+05 0.11404105D+01  1  2  3  2  7  2       -2 -.298412054827D-03 0.100000000000D+01
0.382544827089D-05 0.000000000000D+00 0.000000000000D+00 0.869694934700D-08 0.000000000000D+00  7 1 -2 -24 -13 13 23 21 2 0.41527325D-01 0.38935894D-01 0.59975350D+05 0.59975350D+05 0.59975350D+05 0.11404105D+01  1  2 15  2  7  2       -2 0.343988770011D-03 0.100000000000D+01
0.337449392865D-04 0.000000000000D+00 -.316518628679D-04 0.869694934700D-08 0.000000000000D+00  7 1 -2 -24 -13 13 23 21 2 0.41527325D-01 0.27281058D+00 0.59975350D+05 0.59975350D+05 0.59975350D+05 0.11404105D+01  1  2  5  2  7  2       -2 0.227496579982D-04 0.100000000000D+01
0.504538414114D-05 0.000000000000D+00 -.753203543971D-05 0.869694934700D-08 0.000000000000D+00  7 1 21 -24 -13 13 23 2 2 0.41527325D-01 0.27281058D+00 0.59975350D+05 0.59975350D+05 0.59975350D+05 0.11404105D+01  1  2  5  4  7  2       -2 0.265852948491D-04 0.100000000000D+01
  </mgrwgt>
  </event>
  <event>
  8     66 0.29493621E-05 0.16632734E+03 0.75467711E-02 0.99670524E-01
        1 -1    0    0  501    0 0.00000000E+00 0.00000000E+00 0.33758627E+04 0.33758627E+04 0.32000000E+00 0.0000E+00 0.9000E+01
       -2 -1    0    0    0  501 0.00000000E+00 0.00000000E+00 -.32266662E+02 0.32268249E+02 0.32000000E+00 0.0000E+00 0.9000E+01
       25  2    1    2    0    0 0.22084932E+03 0.70569542E+02 0.14566754E+04 0.15053196E+04 0.30054836E+03 0.0000E+00 0.0000E+00
       23  2    3    3    0    0 0.54899748E+02 0.12685282E+03 0.87549504E+03 0.89148496E+03 0.95646511E+02 0.0000E+00 0.0000E+00
      -24  1    1    2    0    0 -.22084932E+03 -.70569542E+02 0.18869206E+04 0.19028114E+04 0.80419002E+02 0.0000E+00 0.9000E+01
      -11  1    4    4    0    0 -.16940064E+02 0.18546757E+02 0.32019074E+03 0.32117450E+03 0.51099893E-03 0.0000E+00 0.9000E+01
       11  1    4    4    0    0 0.71839813E+02 0.10830606E+03 0.55530430E+03 0.57031046E+03 0.51099893E-03 0.0000E+00 0.9000E+01
       23  1    3    3    0    0 0.16594957E+03 -.56283278E+02 0.58118041E+03 0.61383466E+03 0.91188000E+02 0.0000E+00 0.9000E+01
#aMCatNLO 1  0  0  2  1 0.55171809D+02 0.00000000D+00  -5  7  0 0.00000000D+00 0.00000000D+00 0.00000000D+00 0.00000000D+00 0.00000000D+00
  <mgrwgt>
 0.1057136687D-02    9    2    0
 0.330046287602496D+03 0.000000000000000D+00 0.000000000000000D+00 0.330046287602496D+03
 0.330046287602496D+03 0.000000000000000D+00 0.000000000000000D+00 -.330046287602496D+03
 0.266523303351630D+03 -.220849320209854D+03 -.705695424514024D+02 0.103985444732133D+03
 0.363831710041838D+02 -.169400644337780D+02 0.185467570216570D+02 0.263208501625375D+02
 0.131768641086111D+03 0.718398128560707D+02 0.108306063442079D+03 -.217212495995394D+02
 0.225417459763068D+03 0.165949571787561D+03 -.562832780123338D+02 -.108585045295131D+03
 0.000000000000000D+00 -.000000000000000D+00 0.000000000000000D+00 -.000000000000000D+00
 0.357897826716651D+03 0.000000000000000D+00 0.000000000000000D+00 0.357897826716651D+03
 0.359697574286338D+03 0.000000000000000D+00 0.000000000000000D+00 -.359697574286338D+03
 0.263607922988540D+03 -.210071847729566D+03 -.898819625025420D+02 0.103985444732133D+03
 0.344664029457704D+02 -.154997053386211D+02 0.159657418605395D+02 0.263208501625375D+02
 0.127249346374263D+03 0.771056019532830D+02 0.988701654491061D+02 -.217212495995394D+02
 0.237070573084677D+03 0.175351870310684D+03 -.731314897666998D+02 -.108585045295131D+03
 0.552011556097380D+02 -.268859191957798D+02 0.481775449595963D+02 -.179974756968633D+01
0.115192184290D-03 0.000000000000D+00 0.000000000000D+00 0.137932749911D-06 0.000000000000D+00  7 1 -2 -24 -11 11 23 21 0 0.51936362D+00 0.49642251D-02 0.89408910D+05 0.89408910D+05 0.89408910D+05 0.11257338D+01  1  2  2  2  7  2       -2 0.759735420504D-03 0.100000000000D+01
-.632369701528D-05 0.000000000000D+00 -.442368318474D-06 0.137932749911D-06 0.000000000000D+00  7 1 -2 -24 -11 11 23 21 2 0.51936362D+00 0.49642251D-02 0.89408910D+05 0.89408910D+05 0.89408910D+05 0.11257338D+01  1  2  3  2  7  2       -2 -.528544807671D-04 0.100000000000D+01
0.743207393999D-05 0.000000000000D+00 0.000000000000D+00 0.137932749911D-06 0.000000000000D+00  7 1 -2 -24 -11 11 23 21 2 0.51936362D+00 0.49642251D-02 0.89408910D+05 0.89408910D+05 0.89408910D+05 0.11257338D+01  1  2 15  2  7  2       -2 0.621184740781D-04 0.100000000000D+01
0.938169171013D-04 0.000000000000D+00 0.000000000000D+00 0.137932749911D-06 0.000000000000D+00  7 1 -2 -24 -11 11 23 21 2 0.51936362D+00 0.56020258D-02 0.10751120D+06 0.10751120D+06 0.10751120D+06 0.11191500D+01  1  2 12  2  7  2       -2 0.641654906806D-03 0.100000000000D+01
-.762066416822D-04 0.000000000000D+00 0.000000000000D+00 0.137932749911D-06 0.000000000000D+00  7 1 -2 -24 -11 11 23 21 2 0.51936362D+00 0.49642251D-02 0.89408910D+05 0.89408910D+05 0.89408910D+05 0.11257338D+01  1  2  4  2  7  2       -2 -.636947416581D-03 0.100000000000D+01
-.226894040641D-03 0.000000000000D+00 -.748173043326D-04 0.137932749911D-06 0.000000000000D+00  7 1 -2 -24 -11 11 23 21 2 0.51936362D+00 0.62597665D-02 0.89408910D+05 0.89408910D+05 0.89408910D+05 0.11257338D+01  1  2  5  2  7  2       -2 -.134145983265D-02 0.100000000000D+01
0.239736143455D-03 0.000000000000D+00 0.728499073416D-04 0.137932749911D-06 0.000000000000D+00  7 1 -2 -24 -11 11 23 21 2 0.51936362D+00 0.49642251D-02 0.89408910D+05 0.89408910D+05 0.89408910D+05 0.11257338D+01  1  2  6  2  7  2       -2 0.200375339818D-02 0.100000000000D+01
0.179091189663D-05 0.000000000000D+00 0.000000000000D+00 0.137932749911D-06 0.000000000000D+00  7 1 21 -24 -11 11 23 2 2 0.51936362D+00 0.56020258D-02 0.10751120D+06 0.10751120D+06 0.10751120D+06 0.11191500D+01  1  2 12  4  7  2       -2 0.196388635075D-03 0.100000000000D+01
-.615475158226D-05 0.000000000000D+00 -.239459481196D-05 0.137932749911D-06 0.000000000000D+00  7 1 21 -24 -11 11 23 2 2 0.51936362D+00 0.62597665D-02 0.89408910D+05 0.89408910D+05 0.89408910D+05 0.11257338D+01  1  2  5  4  7  2       -2 -.575252417404D-03 0.100000000000D+01
  </mgrwgt>
  </event>
  <event>
  8     66 0.29493621E-05 0.13299141E+03 0.75467711E-02 0.10084678E+00
        1 -1    0    0  501    0 0.00000000E+00 0.00000000E+00 0.32883807E+03 0.32883822E+03 0.32000000E+00 0.0000E+00 0.9000E+01
       -2 -1    0    0    0  501 0.00000000E+00 0.00000000E+00 -.20450780E+03 0.20450805E+03 0.32000000E+00 0.0000E+00 0.9000E+01
       25  2    1    2    0    0 0.91593250E+02 -.17961835E+02 -.51628779E+02 0.31854228E+03 0.30015280E+03 0.0000E+00 0.0000E+00
       23  2    3    3    0    0 -.55411988E+02 -.49727345E+02 0.34121947E+02 0.12286901E+03 0.91592523E+02 0.0000E+00 0.0000E+00
      -24  1    1    2    0    0 -.91593250E+02 0.17961835E+02 0.17595905E+03 0.21480399E+03 0.80419002E+02 0.0000E+00 0.9000E+01
      -11  1    4    4    0    0 -.52812662E+02 0.13318742E+02 0.21280992E+02 0.58476036E+02 0.51099893E-03 0.0000E+00 0.9000E+01
       11  1    4    4    0    0 -.25993268E+01 -.63046087E+02 0.12840955E+02 0.64392979E+02 0.51099893E-03 0.0000E+00 0.9000E+01
       23  1    3    3    0    0 0.14700524E+03 0.31765510E+02 -.85750726E+02 0.19567326E+03 0.91188000E+02 0.0000E+00 0.9000E+01
#aMCatNLO 1  0  0  1  2 0.15750006D+03 0.00000000D+00  -5  7  0 0.00000000D+00 0.00000000D+00 0.00000000D+00 0.00000000D+00 0.00000000D+00
  <mgrwgt>
 0.7017879283D-03    9    2    0
 0.259326158503314D+03 0.000000000000000D+00 0.000000000000000D+00 0.259326158503314D+03
 0.259326158503314D+03 0.000000000000000D+00 0.000000000000000D+00 -.259326158503314D+03
 0.178709064417470D+03 -.915932502444496D+02 0.179618353324947D+02 0.129451777630680D+03
 0.550312857526684D+02 -.528126615416517D+02 0.133187423355224D+02 0.786614868145471D+01
 0.631390907534098D+02 -.259932678049636D+01 -.630460873738649D+02 -.223140052489450D+01
 0.221772876083080D+03 0.147005238566598D+03 0.317655097058479D+02 -.135086525787240D+03
 0.000000000000000D+00 0.000000000000000D+00 0.000000000000000D+00 0.000000000000000D+00
 0.378310961866293D+03 0.000000000000000D+00 0.000000000000000D+00 0.378310961866293D+03
 0.328820780812911D+03 0.000000000000000D+00 0.000000000000000D+00 -.328820780812911D+03
 0.196048744718491D+03 -.119592819161925D+03 -.301278811814811D+02 0.129451777630680D+03
 0.620870827970551D+02 -.615630164422498D+02 -.171013499493558D+01 0.786614868145471D+01
 0.829285198910541D+02 -.135125887089939D+02 -.817897928191533D+02 -.223140052489450D+01
 0.200974853461196D+03 0.115420161752930D+03 -.224823751283161D+02 -.135086525787240D+03
 0.165092541811408D+03 0.792482625602393D+02 0.136110184123886D+03 0.494901810533822D+02
0.919647709632D-05 0.000000000000D+00 0.000000000000D+00 0.206312907173D-05 0.000000000000D+00  7 1 -2 -24 -11 11 23 21 0 0.50590503D-01 0.31462769D-01 0.43399853D+05 0.43399853D+05 0.43399853D+05 0.11527429D+01  1  2  2  1  7  1        1 0.721246721831D-03 0.100000000000D+01
-.481127284171D-06 0.000000000000D+00 -.353168935379D-07 0.206312907173D-05 0.000000000000D+00  7 1 -2 -24 -11 11 23 21 2 0.50590503D-01 0.31462769D-01 0.43399853D+05 0.43399853D+05 0.43399853D+05 0.11527429D+01  1  2  3  1  7  1        1 -.501403360400D-04 0.100000000000D+01
0.578771431565D-06 0.000000000000D+00 0.000000000000D+00 0.206312907173D-05 0.000000000000D+00  7 1 -2 -24 -11 11 23 21 2 0.50590503D-01 0.31462769D-01 0.43399853D+05 0.43399853D+05 0.43399853D+05 0.11527429D+01  1  2 15  1  7  1        1 0.603162510707D-04 0.100000000000D+01
0.519145150684D-06 0.000000000000D+00 0.000000000000D+00 0.206312907173D-05 0.000000000000D+00  7 1 -2 -24 -11 11 23 21 2 0.78059189D-01 0.31462769D-01 0.89407353D+05 0.89407353D+05 0.89407353D+05 0.11257344D+01  1  2 12  1  7  1        1 0.287980424901D-04 0.100000000000D+01
-.393758817682D-05 0.000000000000D+00 0.000000000000D+00 0.206312907173D-05 0.000000000000D+00  7 1 -2 -24 -11 11 23 21 2 0.50590503D-01 0.31462769D-01 0.43399853D+05 0.43399853D+05 0.43399853D+05 0.11527429D+01  1  2  4  1  7  1        1 -.410352937504D-03 0.100000000000D+01
-.358057060601D-05 0.000000000000D+00 -.324043505099D-05 0.206312907173D-05 0.000000000000D+00  7 1 -2 -24 -11 11 23 21 2 0.90010656D-01 0.31462769D-01 0.43399853D+05 0.43399853D+05 0.43399853D+05 0.11527429D+01  1  2  5  1  7  1        1 -.172086264729D-03 0.100000000000D+01
0.505704499869D-05 0.000000000000D+00 0.276812295913D-05 0.206312907173D-05 0.000000000000D+00  7 1 -2 -24 -11 11 23 21 2 0.50590503D-01 0.31462769D-01 0.43399853D+05 0.43399853D+05 0.43399853D+05 0.11527429D+01  1  2  6  1  7  1        1 0.527016330076D-03 0.100000000000D+01
0.262378663620D-07 0.000000000000D+00 0.000000000000D+00 0.206312907173D-05 0.000000000000D+00  7 21 -2 -24 -11 11 23 -1 2 0.78059189D-01 0.31462769D-01 0.89407353D+05 0.89407353D+05 0.89407353D+05 0.11257344D+01  1  2 12  3  7  1        1 0.434297500053D-05 0.100000000000D+01
-.577081215741D-07 0.000000000000D+00 -.205325787688D-06 0.206312907173D-05 0.000000000000D+00  7 21 -2 -24 -11 11 23 -1 2 0.90010656D-01 0.31462769D-01 0.43399853D+05 0.43399853D+05 0.43399853D+05 0.11527429D+01  1  2  5  3  7  1        1 -.735285390366D-05 0.100000000000D+01
  </mgrwgt>
  </event>
  <event>
  8     66 0.29493621E-05 0.94034947E+02 0.75467711E-02 0.10197191E+00
        1 -1    0    0  501    0 0.00000000E+00 0.00000000E+00 0.15014925E+03 0.15014959E+03 0.32000000E+00 0.0000E+00 0.9000E+01
       -2 -1    0    0    0  501 0.00000000E+00 0.00000000E+00 -.35377385E+03 0.35377400E+03 0.32000000E+00 0.0000E+00 0.9000E+01
       25  2    1    2    0    0 -.82231988E+02 0.57418083E+02 -.81796677E+02 0.32681290E+03 0.30009506E+03 0.0000E+00 0.0000E+00
       23  2    3    3    0    0 -.15317047E+03 0.40911775E+02 0.31117075E+01 0.18248892E+03 0.90319201E+02 0.0000E+00 0.0000E+00
      -24  1    1    2    0    0 0.82231988E+02 -.57418083E+02 -.12182792E+03 0.17711069E+03 0.80419002E+02 0.0000E+00 0.9000E+01
      -13  1    4    4    0    0 -.23074082E+02 0.11614026E+02 -.35272370E+02 0.43720134E+02 0.10565837E+00 0.0000E+00 0.9000E+01
       13  1    4    4    0    0 -.13009639E+03 0.29297748E+02 0.38384077E+02 0.13876879E+03 0.10565837E+00 0.0000E+00 0.9000E+01
       23  1    3    3    0    0 0.70938482E+02 0.16506308E+02 -.84908385E+02 0.14432398E+03 0.91188000E+02 0.0000E+00 0.9000E+01
#aMCatNLO 1  0  0  2  1 0.12506461D+03 0.00000000D+00  -5  7  0 0.00000000D+00 0.00000000D+00 0.00000000D+00 0.00000000D+00 0.00000000D+00
  <mgrwgt>
 0.8852576010D-03    9    2    0
 0.230475598999003D+03 0.000000000000000D+00 0.000000000000000D+00 0.230475598999003D+03
 0.230475598999003D+03 0.000000000000000D+00 0.000000000000000D+00 -.230475598999003D+03
 0.139804587079903D+03 0.822319911752642D+02 -.574180851635739D+02 -.549469720522579D+02
 0.322142526703481D+02 -.230739358153964D+02 0.116140021316260D+02 -.192475067367849D+02
 0.168661877874795D+03 -.130096534500707D+03 0.292977736007750D+02 0.103263552239870D+03
 0.120270480372960D+03 0.709384791408390D+02 0.165063094311729D+02 -.290690734508277D+02
 0.000000000000000D+00 0.000000000000000D+00 0.000000000000000D+00 -.000000000000000D+00
 0.274258104559922D+03 0.000000000000000D+00 0.000000000000000D+00 0.274258104559922D+03
 0.349112288980539D+03 0.000000000000000D+00 0.000000000000000D+00 -.349112288980539D+03
 0.155102658930621D+03 0.735185983977839D+02 -.957364340514711D+02 -.549469720522579D+02
 0.316943936048098D+02 -.249621943929854D+02 0.331012408843500D+01 -.192475067367849D+02
 0.174835102498358D+03 -.140245569996982D+03 -.153340125419363D+02 0.103263552239870D+03
 0.115983971528903D+03 0.639580544049348D+02 -.141910730060543D+02 -.290690734508277D+02
 0.145754266977770D+03 0.277311115872490D+02 0.121951395511027D+03 -.748541844206170D+02
0.107869898045D-04 0.000000000000D+00 0.000000000000D+00 0.111788228457D-05 0.000000000000D+00  7 1 -2 -24 -13 13 23 21 0 0.23099922D-01 0.54426784D-01 0.40894021D+05 0.40894021D+05 0.40894021D+05 0.11550553D+01  1  2  2  2  7  2       -2 0.837705721574D-03 0.100000000000D+01
-.586815962510D-06 0.000000000000D+00 -.414248811288D-07 0.111788228457D-05 0.000000000000D+00  7 1 -2 -24 -13 13 23 21 2 0.23099922D-01 0.54426784D-01 0.40894021D+05 0.40894021D+05 0.40894021D+05 0.11550553D+01  1  2  3  2  7  2       -2 -.607993111744D-04 0.100000000000D+01
0.696591725386D-06 0.000000000000D+00 0.000000000000D+00 0.111788228457D-05 0.000000000000D+00  7 1 -2 -24 -13 13 23 21 2 0.23099922D-01 0.54426784D-01 0.40894021D+05 0.40894021D+05 0.40894021D+05 0.11550553D+01  1  2 15  2  7  2       -2 0.721730487563D-04 0.100000000000D+01
0.225540374490D-05 0.000000000000D+00 0.000000000000D+00 0.111788228457D-05 0.000000000000D+00  7 1 -2 -24 -13 13 23 21 2 0.23099922D-01 0.85468740D-01 0.75254879D+05 0.75254879D+05 0.75254879D+05 0.11319968D+01  1  2 12  2  7  2       -2 0.861721727823D-04 0.100000000000D+01
-.608640119053D-05 0.000000000000D+00 0.000000000000D+00 0.111788228457D-05 0.000000000000D+00  7 1 -2 -24 -13 13 23 21 2 0.23099922D-01 0.54426784D-01 0.40894021D+05 0.40894021D+05 0.40894021D+05 0.11550553D+01  1  2  4  2  7  2       -2 -.630604863460D-03 0.100000000000D+01
-.657311610009D-05 0.000000000000D+00 -.365816159427D-05 0.111788228457D-05 0.000000000000D+00  7 1 -2 -24 -13 13 23 21 2 0.23099922D-01 0.94492430D-01 0.40894021D+05 0.40894021D+05 0.40894021D+05 0.11550553D+01  1  2  5  2  7  2       -2 -.208983662066D-03 0.100000000000D+01
0.785858172364D-05 0.000000000000D+00 0.316432260573D-05 0.111788228457D-05 0.000000000000D+00  7 1 -2 -24 -13 13 23 21 2 0.23099922D-01 0.54426784D-01 0.40894021D+05 0.40894021D+05 0.40894021D+05 0.11550553D+01  1  2  6  2  7  2       -2 0.814218402581D-03 0.100000000000D+01
0.117458090629D-06 0.000000000000D+00 0.000000000000D+00 0.111788228457D-05 0.000000000000D+00  7 1 21 -24 -13 13 23 2 2 0.23099922D-01 0.85468740D-01 0.75254879D+05 0.75254879D+05 0.75254879D+05 0.11319968D+01  1  2 12  4  7  2       -2 0.444441521819D-04 0.100000000000D+01
-.218281772989D-06 0.000000000000D+00 -.223423554341D-06 0.111788228457D-05 0.000000000000D+00  7 1 21 -24 -13 13 23 2 2 0.23099922D-01 0.94492430D-01 0.40894021D+05 0.40894021D+05 0.40894021D+05 0.11550553D+01  1  2  5  4  7  2       -2 -.690680601555D-04 0.100000000000D+01
  </mgrwgt>
  </event>
  <event>
  8     66 0.29493621E-05 0.17829313E+03 0.75467711E-02 0.10220461E+00
        1 -1    0    0  501    0 0.00000000E+00 0.00000000E+00 0.16799328E+04 0.16799328E+04 0.32000000E+00 0.0000E+00 0.9000E+01
       -2 -1    0    0    0  501 0.00000000E+00 0.00000000E+00 -.14695261E+03 0.14695296E+03 0.32000000E+00 0.0000E+00 0.9000E+01
       25  2    1    2    0    0 0.14769357E+03 -.15467363E+03 0.15542767E+04 0.15974123E+04 0.30035387E+03 0.0000E+00 0.0000E+00
       23  2    3    3    0    0 -.28852316E+02 -.47783421E+02 0.22221992E+03 0.24638133E+03 0.90588942E+02 0.0000E+00 0.0000E+00
      -24  1    1    2    0    0 -.14769357E+03 0.15467363E+03 -.21296571E+02 0.22947350E+03 0.80419002E+02 0.0000E+00 0.9000E+01
      -13  1    4    4    0    0 -.26948509E+02 -.59131340E+02 0.77213856E+02 0.10091941E+03 0.10565837E+00 0.0000E+00 0.9000E+01
       13  1    4    4    0    0 -.19038070E+01 0.11347919E+02 0.14500606E+03 0.14546191E+03 0.10565837E+00 0.0000E+00 0.9000E+01
       23  1    3    3    0    0 0.17654589E+03 -.10689021E+03 0.13320568E+04 0.13510309E+04 0.91188000E+02 0.0000E+00 0.9000E+01
#aMCatNLO 1  0  0  2  1 0.89408954D+01 0.00000000D+00  -5  7  0 0.00000000D+00 0.00000000D+00 0.00000000D+00 0.00000000D+00 0.00000000D+00
  <mgrwgt>
 0.1485156798D-02   11    2    0
 0.496860995201017D+03 0.000000000000000D+00 0.000000000000000D+00 0.496860995201017D+03
 0.496860995201017D+03 0.000000000000000D+00 0.000000000000000D+00 -.496860995201017D+03
 0.454723841899394D+03 -.147693574642281D+03 0.154673634799898D+03 -.393152936075196D+03
 0.664179348443766D+02 -.269485434506033D+02 -.591314358633275D+02 -.137328572272483D+02
 0.437253631249820D+02 -.190377291267227D+01 0.113480149010418D+02 0.421841864555220D+02
 0.428854850533282D+03 0.176545891005556D+03 -.106890213837612D+03 0.364701606846923D+03
 0.000000000000000D+00 -.000000000000000D+00 0.000000000000000D+00 -.000000000000000D+00
 0.498287113604018D+03 0.000000000000000D+00 0.000000000000000D+00 0.498287113604018D+03
 0.511095041834156D+03 0.000000000000000D+00 0.000000000000000D+00 -.511095041834156D+03
 0.452822659762687D+03 -.144676384496656D+03 0.151923197256417D+03 -.393152936075196D+03
 0.665998538289636D+02 -.265063182197827D+02 -.595345635479672D+02 -.137328572272483D+02
 0.436456896182320D+02 -.161330286087120D+01 0.110832255781385D+02 0.421841864555220D+02
 0.430694008699424D+03 0.179403510249320D+03 -.109495188291880D+03 0.364701606846923D+03
 0.156199435288668D+02 -.660750467200966D+01 0.602332900529127D+01 -.128079282301384D+02
0.807848855835D-04 0.000000000000D+00 0.000000000000D+00 0.122569899991D-04 0.000000000000D+00  7 1 -2 -24 -13 13 23 21 0 0.25845122D+00 0.22608123D-01 0.70384924D+05 0.70384924D+05 0.70384924D+05 0.11344572D+01  1  2  2  2  7  2       -2 0.767289218406D-03 0.100000000000D+01
-.233978432397D-05 0.000000000000D+00 -.310235231789D-06 0.122569899991D-04 0.000000000000D+00  7 1 -2 -24 -13 13 23 21 2 0.25845122D+00 0.22608123D-01 0.70384924D+05 0.70384924D+05 0.70384924D+05 0.11344572D+01  1  2  3  2  7  2       -2 -.286009890896D-04 0.100000000000D+01
0.491636628950D-05 0.000000000000D+00 0.000000000000D+00 0.122569899991D-04 0.000000000000D+00  7 1 -2 -24 -13 13 23 21 2 0.25845122D+00 0.22608123D-01 0.70384924D+05 0.70384924D+05 0.70384924D+05 0.11344572D+01  1  2 15  2  7  2       -2 0.600965384571D-04 0.100000000000D+01
0.319363910100D-03 0.000000000000D+00 0.000000000000D+00 0.122569899991D-04 0.000000000000D+00  7 1 -2 -24 -13 13 23 21 2 0.25845122D+00 0.23287716D-01 0.72655117D+05 0.72655117D+05 0.72655117D+05 0.11332877D+01  1  2 12  2  7  2       -2 0.370268594350D-02 0.100000000000D+01
-.325893677586D-03 0.000000000000D+00 0.000000000000D+00 0.122569899991D-04 0.000000000000D+00  7 1 -2 -24 -13 13 23 21 2 0.25845122D+00 0.22608123D-01 0.70384924D+05 0.70384924D+05 0.70384924D+05 0.11344572D+01  1  2  4  2  7  2       -2 -.398364986958D-02 0.100000000000D+01
-.360103675889D-02 0.000000000000D+00 -.344547986950D-03 0.122569899991D-04 0.000000000000D+00  7 1 -2 -24 -13 13 23 21 2 0.25845122D+00 0.23311158D-01 0.70384924D+05 0.70384924D+05 0.70384924D+05 0.11344572D+01  1  2  5  2  7  2       -2 -.418148653054D-01 0.100000000000D+01
0.361005647971D-02 0.000000000000D+00 0.344386498366D-03 0.122569899991D-04 0.000000000000D+00  7 1 -2 -24 -13 13 23 21 2 0.25845122D+00 0.22608123D-01 0.70384924D+05 0.70384924D+05 0.70384924D+05 0.11344572D+01  1  2  6  2  7  2       -2 0.441285057479D-01 0.100000000000D+01
0.494479874144D-06 0.000000000000D+00 0.000000000000D+00 0.122569899991D-04 0.105077784669D-05  7 1 -2 -24 -13 13 23 21 2 0.25919305D+00 0.23255799D-01 0.72655117D+05 0.72655117D+05 0.72655117D+05 0.11332877D+01  1  2 11  2  7  2       -2 0.570477719468D-05 0.100000000000D+01
0.104008531994D-04 0.000000000000D+00 0.000000000000D+00 0.122569899991D-04 0.000000000000D+00  7 1 21 -24 -13 13 23 2 2 0.25845122D+00 0.23287716D-01 0.72655117D+05 0.72655117D+05 0.72655117D+05 0.11332877D+01  1  2 12  4  7  2       -2 0.151507080298D-02 0.100000000000D+01
-.196421430939D-04 0.000000000000D+00 -.189051873361D-05 0.122569899991D-04 0.000000000000D+00  7 1 21 -24 -13 13 23 2 2 0.25845122D+00 0.23311158D-01 0.70384924D+05 0.70384924D+05 0.70384924D+05 0.11344572D+01  1  2  5  4  7  2       -2 -.286745503274D-02 0.100000000000D+01
0.258616021984D-08 0.000000000000D+00 0.000000000000D+00 0.122569899991D-04 0.532358583645D-08  7 1 21 -24 -13 13 23 2 2 0.25919305D+00 0.23255799D-01 0.72655117D+05 0.72655117D+05 0.72655117D+05 0.11332877D+01  1  2 11  4  7  2       -2 0.374966233478D-06 0.100000000000D+01
  </mgrwgt>
  </event>
  <event>
  8     66 0.29493621E-05 0.58107374E+03 0.75467711E-02 0.89602364E-01
        3 -1    0    0  501    0 0.00000000E+00 0.00000000E+00 0.90918833E+03 0.90918847E+03 0.50000000E+00 0.0000E+00 0.9000E+01
       -4 -1    0    0    0  501 0.00000000E+00 0.00000000E+00 -.40939300E+03 0.40939594E+03 0.15500000E+01 0.0000E+00 0.9000E+01
       25  2    1    2    0    0 0.29925354E+03 -.45851470E+03 0.43828919E+03 0.76177328E+03 0.29734273E+03 0.0000E+00 0.0000E+00
       23  2    3    3    0    0 0.23704651E+03 -.42879702E+03 0.29827896E+03 0.58102215E+03 0.92511977E+02 0.0000E+00 0.0000E+00
      -24  1    1    2    0    0 -.29925354E+03 0.45851470E+03 0.61506134E+02 0.55681113E+03 0.80419002E+02 0.0000E+00 0.9000E+01
      -11  1    4    4    0    0 0.60867364E+01 0.13161985E+01 0.15812487E+02 0.16994572E+02 0.51099893E-03 0.0000E+00 0.9000E+01
       11  1    4    4    0    0 0.23095978E+03 -.43011322E+03 0.28246648E+03 0.56402758E+03 0.51099893E-03 0.0000E+00 0.9000E+01
       23  1    3    3    0    0 0.62207026E+02 -.29717681E+02 0.14001023E+03 0.18075113E+03 0.91188000E+02 0.0000E+00 0.9000E+01
#aMCatNLO 1  0  0  2  1 0.37761594D+03 0.00000000D+00  -5  7  0 0.00000000D+00 0.00000000D+00 0.00000000D+00 0.00000000D+00 0.00000000D+00
  <mgrwgt>
 0.1064929015D-03    4    2    0
 0.610096195685743D+03 0.000000000000000D+00 0.000000000000000D+00 0.610096195685743D+03
 0.610096195685743D+03 0.000000000000000D+00 0.000000000000000D+00 -.610096195685743D+03
 0.576517275916306D+03 -.299253539169524D+03 0.458514701153670D+03 -.161606131059630D+03
 0.118881011356304D+02 0.608673640036302D+01 0.131619851764076D+01 0.101265102609750D+02
 0.493809459913486D+03 0.230959776815551D+03 -.430113218443515D+03 0.742157901899682D+02
 0.137977554406062D+03 0.622070259536106D+02 -.297176812277966D+02 0.772638306086864D+02
 0.000000000000000D+00 0.000000000000000D+00 -.000000000000000D+00 0.000000000000000D+00
 0.859043577211744D+03 0.000000000000000D+00 0.000000000000000D+00 0.859043577211744D+03
 0.800388173574990D+03 0.000000000000000D+00 0.000000000000000D+00 -.800388173574990D+03
 0.769466588090372D+03 -.442528261271034D+03 0.603045446557256D+03 -.161606131059630D+03
 0.114075100808671D+02 0.360700962764151D+01 0.381766390945457D+01 0.101265102609750D+02
 0.372064258217613D+03 0.138790903430291D+03 -.337136343123231D+03 0.742157901899682D+02
 0.124349109363935D+03 0.342833777907109D+02 -.154923934094387D+01 0.772638306086864D+02
 0.382144285033945D+03 0.265846970422391D+03 -.268177528002536D+03 0.586554036367540D+02
0.540041153631D-03 0.000000000000D+00 0.000000000000D+00 0.455190434076D-06 0.000000000000D+00  7 3 -4 -24 -11 11 23 21 0 0.13987536D+00 0.62983775D-01 0.33764669D+06 0.33764669D+06 0.33764669D+06 0.10807737D+01  1  2  2  2  7  2       -4 0.144379294303D-03 0.100000000000D+01
-.299156323198D-04 0.000000000000D+00 -.207390022604D-05 0.455190434076D-06 0.000000000000D+00  7 3 -4 -24 -11 11 23 21 2 0.13987536D+00 0.62983775D-01 0.33764669D+06 0.33764669D+06 0.33764669D+06 0.10807737D+01  1  2  3  2  7  2       -4 -.934212783960D-05 0.100000000000D+01
0.346933315506D-04 0.000000000000D+00 0.000000000000D+00 0.455190434076D-06 0.000000000000D+00  7 3 -4 -24 -11 11 23 21 2 0.13987536D+00 0.62983775D-01 0.33764669D+06 0.33764669D+06 0.33764669D+06 0.10807737D+01  1  2 15  2  7  2       -4 0.108341196022D-04 0.100000000000D+01
-.126098603482D-03 0.000000000000D+00 0.000000000000D+00 0.455190434076D-06 0.000000000000D+00  7 3 -4 -24 -11 11 23 21 2 0.13987536D+00 0.62983775D-01 0.33764669D+06 0.33764669D+06 0.33764669D+06 0.10807737D+01  1  2  4  2  7  2       -4 -.393783845693D-04 0.100000000000D+01
  </mgrwgt>
  </event>
  <event>
  8     66 0.29493621E-05 0.23847253E+03 0.75467711E-02 0.92149388E-01
        1 -1    0    0  501    0 0.00000000E+00 0.00000000E+00 0.30802451E+03 0.30802467E+03 0.32000000E+00 0.0000E+00 0.9000E+01
       -2 -1    0    0    0  501 0.00000000E+00 0.00000000E+00 -.27765945E+03 0.27765963E+03 0.32000000E+00 0.0000E+00 0.9000E+01
       25  2    1    2    0    0 -.18166045E+03 -.46100016E+01 0.12553268E+03 0.36535305E+03 0.29103715E+03 0.0000E+00 0.0000E+00
       23  2    3    3    0    0 -.74881052E+01 -.24666249E+02 0.13812659E+03 0.16733255E+03 0.90866563E+02 0.0000E+00 0.0000E+00
      -24  1    1    2    0    0 0.18166045E+03 0.46100016E+01 -.95167622E+02 0.22033126E+03 0.80419002E+02 0.0000E+00 0.9000E+01
      -11  1    4    4    0    0 -.33390506E+02 -.38727168E+02 0.40133432E+02 0.65003168E+02 0.51099893E-03 0.0000E+00 0.9000E+01
       11  1    4    4    0    0 0.25902401E+02 0.14060918E+02 0.97993156E+02 0.10232938E+03 0.51099893E-03 0.0000E+00 0.9000E+01
       23  1    3    3    0    0 -.17417235E+03 0.20056248E+02 -.12593912E+02 0.19802050E+03 0.91188000E+02 0.0000E+00 0.9000E+01
#aMCatNLO 1  0  0  1  1 0.53120876D+03 0.00000000D+00  -5  7  0 0.00000000D+00 0.00000000D+00 0.00000000D+00 0.00000000D+00 0.00000000D+00
  <mgrwgt>
 0.3643093461D-02    3    2    0
 0.292448316083073D+03 0.000000000000000D+00 0.000000000000000D+00 0.292448316083073D+03
 0.292448316083073D+03 0.000000000000000D+00 0.000000000000000D+00 -.292448316083073D+03
 0.225568628325940D+03 0.181660451428427D+03 0.461000156841944D+01 -.106734335632141D+03
 0.630071698244332D+02 -.333905064462976D+02 -.387271677714195D+02 0.368128239197843D+02
 0.973798488193562D+02 0.259024012328079D+02 0.140609184345048D+02 0.928126669115455D+02
 0.198940985196416D+03 -.174172346214937D+03 0.200562477684953D+02 -.228911551991886D+02
 0.000000000000000D+00 -.000000000000000D+00 -.000000000000000D+00 -.000000000000000D+00
 0.533239350599972D+03 0.000000000000000D+00 0.000000000000000D+00 0.533239350599972D+03
 0.905592967819507D+03 0.000000000000000D+00 0.000000000000000D+00 -.905592967819507D+03
 0.316224981895603D+03 0.190958194792541D+03 0.213714231297880D+03 -.106734335632141D+03
 0.486296250601042D+02 -.314747026249787D+02 0.435884425122415D+01 0.368128239197843D+02
 0.145349982269064D+03 0.300678982665434D+02 0.107742042398576D+03 0.928126669115455D+02
 0.279913642581696D+03 -.165954701425848D+03 0.204869295033829D+03 -.228911551991886D+02
 0.648714086613011D+03 -.235966890082572D+02 -.530684412981509D+03 -.372353617219536D+03
0.731709931692D-04 0.000000000000D+00 0.000000000000D+00 0.104077860826D-07 0.000000000000D+00  7 1 -2 -24 -11 11 23 21 0 0.47388412D-01 0.42716866D-01 0.56869149D+05 0.56869149D+05 0.56869149D+05 0.11424101D+01  1  2  2  1  7  1        1 0.358884964469D-02 0.100000000000D+01
-.385929929491D-05 0.000000000000D+00 -.280995880135D-06 0.104077860826D-07 0.000000000000D+00  7 1 -2 -24 -11 11 23 21 2 0.47388412D-01 0.42716866D-01 0.56869149D+05 0.56869149D+05 0.56869149D+05 0.11424101D+01  1  2  3  1  7  1        1 -.247040884605D-03 0.100000000000D+01
0.470670203931D-05 0.000000000000D+00 0.000000000000D+00 0.104077860826D-07 0.000000000000D+00  7 1 -2 -24 -11 11 23 21 2 0.47388412D-01 0.42716866D-01 0.56869149D+05 0.56869149D+05 0.56869149D+05 0.11424101D+01  1  2 15  1  7  1        1 0.301284701318D-03 0.100000000000D+01
  </mgrwgt>
  </event>
  <event>
  8     66 0.29493621E-05 0.98482534E+02 0.75467711E-02 0.10484074E+00
        1 -1    0    0  501    0 0.00000000E+00 0.00000000E+00 0.45335064E+03 0.45335075E+03 0.32000000E+00 0.0000E+00 0.9000E+01
       -2 -1    0    0    0  501 0.00000000E+00 0.00000000E+00 -.10461705E+03 0.10461754E+03 0.32000000E+00 0.0000E+00 0.9000E+01
       25  2    1    2    0    0 0.31196448E+02 -.38212305E+01 0.36145769E+03 0.47069322E+03 0.29985433E+03 0.0000E+00 0.0000E+00
       23  2    3    3    0    0 0.80284016E+02 0.93923205E+02 0.14301543E+03 0.20993310E+03 0.91386007E+02 0.0000E+00 0.0000E+00
      -24  1    1    2    0    0 -.31196448E+02 0.38212305E+01 -.12724099E+02 0.87275076E+02 0.80419002E+02 0.0000E+00 0.9000E+01
      -11  1    4    4    0    0 0.56497283E+02 0.10854222E+03 0.97165989E+02 0.15625168E+03 0.51099893E-03 0.0000E+00 0.9000E+01
       11  1    4    4    0    0 0.23786733E+02 -.14619016E+02 0.45849436E+02 0.53681422E+02 0.51099893E-03 0.0000E+00 0.9000E+01
       23  1    3    3    0    0 -.49087568E+02 -.97744435E+02 0.21844227E+03 0.26076012E+03 0.91188000E+02 0.0000E+00 0.9000E+01
#aMCatNLO 1  0  0  1  2 0.62559505D+02 0.00000000D+00  -5  7  0 0.00000000D+00 0.00000000D+00 0.00000000D+00 0.00000000D+00 0.00000000D+00
  <mgrwgt>
 0.1433099750D-02    9    2    0
 0.217780563708974D+03 0.000000000000000D+00 0.000000000000000D+00 0.217780563708974D+03
 0.217780563708974D+03 0.000000000000000D+00 0.000000000000000D+00 -.217780563708974D+03
 0.121989870419602D+03 -.311964479231050D+02 0.382123051985585D+01 -.861770988425341D+02
 0.122367293298775D+03 0.564972831498190D+02 0.108542221288979D+03 -.630605749976057D+00
 0.320581705500237D+02 0.237867328954755D+02 -.146190164179459D+02 0.157544278266633D+02
 0.159145793149547D+03 -.490875681221895D+02 -.977444353908893D+02 0.710532767658468D+02
 0.000000000000000D+00 -.000000000000000D+00 -.000000000000000D+00 0.000000000000000D+00
 0.299838654268226D+03 0.000000000000000D+00 0.000000000000000D+00 0.299838654268226D+03
 0.232272821078694D+03 0.000000000000000D+00 0.000000000000000D+00 -.232272821078694D+03
 0.122108908798546D+03 -.247997220164038D+02 0.200462234995585D+02 -.861770988425341D+02
 0.141102723284202D+03 0.634016416481019D+02 0.126054800348626D+03 -.630605749976057D+00
 0.316868431070579D+02 0.254572016359965D+02 -.103819513970148D+02 0.157544278266633D+02
 0.145132418518663D+03 -.411138112453341D+02 -.775193778793106D+02 0.710532767658468D+02
 0.920805816384512D+02 -.229453100223605D+02 -.581996945718588D+02 0.675658331895314D+02
0.759682827261D-05 0.000000000000D+00 0.000000000000D+00 0.166643180069D-05 0.000000000000D+00  7 1 -2 -24 -11 11 23 21 0 0.69746299D-01 0.16094977D-01 0.35916293D+05 0.35916293D+05 0.35916293D+05 0.11601519D+01  1  2  2  1  7  1        1 0.118927560000D-02 0.100000000000D+01
-.412129400192D-06 0.000000000000D+00 -.291738208576D-07 0.166643180069D-05 0.000000000000D+00  7 1 -2 -24 -11 11 23 21 2 0.69746299D-01 0.16094977D-01 0.35916293D+05 0.35916293D+05 0.35916293D+05 0.11601519D+01  1  2  3  1  7  1        1 -.868387380006D-04 0.100000000000D+01
0.486193426225D-06 0.000000000000D+00 0.000000000000D+00 0.166643180069D-05 0.000000000000D+00  7 1 -2 -24 -11 11 23 21 2 0.69746299D-01 0.16094977D-01 0.35916293D+05 0.35916293D+05 0.35916293D+05 0.11601519D+01  1  2 15  1  7  1        1 0.102444580605D-03 0.100000000000D+01
0.976823537588D-05 0.000000000000D+00 0.000000000000D+00 0.166643180069D-05 0.000000000000D+00  7 1 -2 -24 -11 11 23 21 2 0.97680345D-01 0.16094977D-01 0.49331535D+05 0.49331535D+05 0.49331535D+05 0.11478099D+01  1  2 12  1  7  1        1 0.126564950081D-02 0.100000000000D+01
-.107599318671D-04 0.000000000000D+00 0.000000000000D+00 0.166643180069D-05 0.000000000000D+00  7 1 -2 -24 -11 11 23 21 2 0.69746299D-01 0.16094977D-01 0.35916293D+05 0.35916293D+05 0.35916293D+05 0.11601519D+01  1  2  4  1  7  1        1 -.226719788464D-02 0.100000000000D+01
-.138314437422D-04 0.000000000000D+00 -.344709234757D-05 0.166643180069D-05 0.000000000000D+00  7 1 -2 -24 -11 11 23 21 2 0.10013411D+00 0.16094977D-01 0.35916293D+05 0.35916293D+05 0.35916293D+05 0.11601519D+01  1  2  5  1  7  1        1 -.176600673540D-02 0.100000000000D+01
0.143435756898D-04 0.000000000000D+00 0.323333713338D-05 0.166643180069D-05 0.000000000000D+00  7 1 -2 -24 -11 11 23 21 2 0.69746299D-01 0.16094977D-01 0.35916293D+05 0.35916293D+05 0.35916293D+05 0.11601519D+01  1  2  6  1  7  1        1 0.302229836245D-02 0.100000000000D+01
0.410472159621D-06 0.000000000000D+00 0.000000000000D+00 0.166643180069D-05 0.000000000000D+00  7 21 -2 -24 -11 11 23 -1 2 0.97680345D-01 0.16094977D-01 0.49331535D+05 0.49331535D+05 0.49331535D+05 0.11478099D+01  1  2 12  3  7  1        1 0.128618218866D-03 0.100000000000D+01
-.509586371055D-06 0.000000000000D+00 -.152472803668D-06 0.166643180069D-05 0.000000000000D+00  7 21 -2 -24 -11 11 23 -1 2 0.10013411D+00 0.16094977D-01 0.35916293D+05 0.35916293D+05 0.35916293D+05 0.11601519D+01  1  2  5  3  7  1        1 -.155143154388D-03 0.100000000000D+01
  </mgrwgt>
  </event>
  <event>
  8     66 0.29493621E-05 0.19538285E+03 0.75467711E-02 0.10152493E+00
        1 -1    0    0  501    0 0.00000000E+00 0.00000000E+00 0.56236810E+03 0.56236819E+03 0.32000000E+00 0.0000E+00 0.9000E+01
       -2 -1    0    0    0  501 0.00000000E+00 0.00000000E+00 -.28065311E+03 0.28065329E+03 0.32000000E+00 0.0000E+00 0.9000E+01
       25  2    1    2    0    0 0.70490736E+02 0.21134693E+03 0.42498118E+03 0.56620225E+03 0.30056533E+03 0.0000E+00 0.0000E+00
       23  2    3    3    0    0 -.24861054E+02 0.82225084E+02 0.28482658E+02 0.12883428E+03 0.91695001E+02 0.0000E+00 0.0000E+00
      -24  1    1    2    0    0 -.70490736E+02 -.21134693E+03 -.14326618E+03 0.27681923E+03 0.80419002E+02 0.0000E+00 0.9000E+01
      -13  1    4    4    0    0 -.40825830E+02 0.88720706E+00 0.20121188E+02 0.45523718E+02 0.10565837E+00 0.0000E+00 0.9000E+01
       13  1    4    4    0    0 0.15964776E+02 0.81337877E+02 0.83614692E+01 0.83310562E+02 0.10565837E+00 0.0000E+00 0.9000E+01
       23  1    3    3    0    0 0.95351790E+02 0.12912185E+03 0.39649852E+03 0.43736797E+03 0.91188000E+02 0.0000E+00 0.9000E+01
#aMCatNLO 1  0  0  2  1 0.21235776D+02 0.00000000D+00  -5  7  0 0.00000000D+00 0.00000000D+00 0.00000000D+00 0.00000000D+00 0.00000000D+00
  <mgrwgt>
 0.9537327876D-03    6    2    0
 0.397278831195903D+03 0.000000000000000D+00 0.000000000000000D+00 0.397278831195903D+03
 0.397278831195903D+03 0.000000000000000D+00 0.000000000000000D+00 -.397278831195903D+03
 0.344499589297606D+03 -.704907358886754D+02 -.211346934090244D+03 -.250152514831204D+03
 0.411662818555208D+02 -.408259047777589D+02 0.887100309757571D+00 0.520781277754627D+01
 0.854275171363860D+02 0.159648510477227D+02 0.813379839999930D+02 -.206667988311793D+02
 0.323464274102292D+03 0.953517896187117D+02 0.129121849780494D+03 0.265611500884837D+03
 0.000000000000000D+00 -.000000000000000D+00 -.000000000000000D+00 0.000000000000000D+00
 0.408083312827512D+03 0.000000000000000D+00 0.000000000000000D+00 0.408083312827512D+03
 0.407994041980224D+03 0.000000000000000D+00 0.000000000000000D+00 -.407994041980224D+03
 0.339780241227119D+03 -.630912091139464D+02 -.205977219687404D+03 -.250152514831204D+03
 0.403117995475357D+02 -.399448335872883D+02 0.152647912484011D+01 0.520781277754627D+01
 0.870801458575776D+02 0.178302795087529D+02 0.826916946330664D+02 -.206667988311793D+02
 0.327669204495375D+03 0.102392885079777D+03 0.134231456497261D+03 0.265611500884837D+03
 0.212359636801288D+02 -.171871218872948D+02 -.124724105677631D+02 0.892708472874541D-01
0.264448496596D-04 0.000000000000D+00 0.000000000000D+00 0.337678795449D-05 0.000000000000D+00  7 1 -2 -24 -13 13 23 21 0 0.86518190D-01 0.43177422D-01 0.74309247D+05 0.74309247D+05 0.74309247D+05 0.11324606D+01  1  2  2  2  7  2       -2 0.564505574959D-03 0.100000000000D+01
-.121575634541D-05 0.000000000000D+00 -.101555185782D-06 0.337678795449D-05 0.000000000000D+00  7 1 -2 -24 -13 13 23 21 2 0.86518190D-01 0.43177422D-01 0.74309247D+05 0.74309247D+05 0.74309247D+05 0.11324606D+01  1  2  3  2  7  2       -2 -.332828037149D-04 0.100000000000D+01
0.169675552620D-05 0.000000000000D+00 0.000000000000D+00 0.337678795449D-05 0.000000000000D+00  7 1 -2 -24 -13 13 23 21 2 0.86518190D-01 0.43177422D-01 0.74309247D+05 0.74309247D+05 0.74309247D+05 0.11324606D+01  1  2 15  2  7  2       -2 0.464507393638D-04 0.100000000000D+01
0.469017027056D-04 0.000000000000D+00 0.000000000000D+00 0.337678795449D-05 0.000000000000D+00  7 1 -2 -24 -13 13 23 21 2 0.86518190D-01 0.44913423D-01 0.80549636D+05 0.80549636D+05 0.80549636D+05 0.11295131D+01  1  2 12  2  7  2       -2 0.118347663971D-02 0.100000000000D+01
-.356548863991D-04 0.000000000000D+00 0.000000000000D+00 0.337678795449D-05 0.000000000000D+00  7 1 -2 -24 -13 13 23 21 2 0.86518190D-01 0.43177422D-01 0.74309247D+05 0.74309247D+05 0.74309247D+05 0.11324606D+01  1  2  4  2  7  2       -2 -.976095736596D-03 0.100000000000D+01
0.604731731321D-06 0.000000000000D+00 0.000000000000D+00 0.337678795449D-05 0.000000000000D+00  7 1 21 -24 -13 13 23 2 2 0.86518190D-01 0.44913423D-01 0.80549636D+05 0.80549636D+05 0.80549636D+05 0.11295131D+01  1  2 12  4  7  2       -2 0.168678373922D-03 0.100000000000D+01
  </mgrwgt>
  </event>
  <event>
  8     66 0.29493621E-05 0.32880293E+03 0.75467711E-02 0.98123462E-01
        1 -1    0    0  501    0 0.00000000E+00 0.00000000E+00 0.12454844E+03 0.12454885E+03 0.32000000E+00 0.0000E+00 0.9000E+01
       -2 -1    0    0    0  501 0.00000000E+00 0.00000000E+00 -.10831383E+04 0.10831384E+04 0.32000000E+00 0.0000E+00 0.9000E+01
       25  2    1    2    0    0 -.11141649E+02 -.29498854E+03 -.45912909E+03 0.62196487E+03 0.29815834E+03 0.0000E+00 0.0000E+00
       23  2    3    3    0    0 -.62511265E+02 -.12221018E+03 -.56950771E+02 0.17190503E+03 0.86400019E+02 0.0000E+00 0.0000E+00
      -24  1    1    2    0    0 0.11141649E+02 0.29498854E+03 -.49946079E+03 0.58572235E+03 0.80419002E+02 0.0000E+00 0.9000E+01
      -11  1    4    4    0    0 -.72295052E+02 -.11919344E+03 -.29342142E+02 0.14245916E+03 0.51099893E-03 0.0000E+00 0.9000E+01
       11  1    4    4    0    0 0.97837864E+01 -.30167431E+01 -.27608628E+02 0.29445875E+02 0.51099893E-03 0.0000E+00 0.9000E+01
       23  1    3    3    0    0 0.51369616E+02 -.17277835E+03 -.40217832E+03 0.45005983E+03 0.91188000E+02 0.0000E+00 0.9000E+01
#aMCatNLO 1  0  0  1  1 0.75510063D+02 0.00000000D+00  -5  7  0 0.00000000D+00 0.00000000D+00 0.00000000D+00 0.00000000D+00 0.00000000D+00
  <mgrwgt>
 0.9107566411D-03    4    2    0
 0.367292066103131D+03 0.000000000000000D+00 0.000000000000000D+00 0.367292066103131D+03
 0.367292066103131D+03 0.000000000000000D+00 0.000000000000000D+00 -.367292066103131D+03
 0.311184687378089D+03 0.111416494144059D+02 0.294988538664153D+03 -.568006990215985D+02
 0.195919049644093D+03 -.722950516019564D+02 -.119193440955996D+03 0.137661262381196D+03
 0.123825916504531D+02 0.978378639448107D+01 -.301674313300568D+01 -.696457899937260D+01
 0.215097803533628D+03 0.513696157930695D+02 -.172778354575152D+03 -.738959843602254D+02
 0.000000000000000D+00 0.000000000000000D+00 0.000000000000000D+00 -.000000000000000D+00
 0.393565435131931D+03 0.000000000000000D+00 0.000000000000000D+00 0.393565435131931D+03
 0.427796053169904D+03 0.000000000000000D+00 0.000000000000000D+00 -.427796053169904D+03
 0.284867109931028D+03 -.179106160007483D+01 0.267306055028854D+03 -.568006990215985D+02
 0.211197478940542D+03 -.811283785664469D+02 -.138101188052947D+03 0.137661262381196D+03
 0.123031094035434D+02 0.924817348405538D+01 -.416322321835766D+01 -.696457899937260D+01
 0.230087186584053D+03 0.417103062311011D+02 -.193454118425290D+03 -.738959843602254D+02
 0.829066034426670D+02 0.319609604513653D+02 0.684124746677412D+02 -.342306180379725D+02
0.232232113714D-03 0.000000000000D+00 0.000000000000D+00 0.329402542121D-07 0.000000000000D+00  7 1 -2 -24 -11 11 23 21 0 0.19161333D-01 0.16663670D+00 0.10811137D+06 0.10811137D+06 0.10811137D+06 0.11189531D+01  1  2  2  1  7  1        1 0.161504119103D-02 0.100000000000D+01
-.127095559497D-04 0.000000000000D+00 -.891832464783D-06 0.329402542121D-07 0.000000000000D+00  7 1 -2 -24 -11 11 23 21 2 0.19161333D-01 0.16663670D+00 0.10811137D+06 0.10811137D+06 0.10811137D+06 0.11189531D+01  1  2  3  1  7  1        1 -.110666313577D-03 0.100000000000D+01
0.150203742448D-04 0.000000000000D+00 0.000000000000D+00 0.329402542121D-07 0.000000000000D+00  7 1 -2 -24 -11 11 23 21 2 0.19161333D-01 0.16663670D+00 0.10811137D+06 0.10811137D+06 0.10811137D+06 0.11189531D+01  1  2 15  1  7  1        1 0.130787373910D-03 0.100000000000D+01
-.831949067086D-04 0.000000000000D+00 0.000000000000D+00 0.329402542121D-07 0.000000000000D+00  7 1 -2 -24 -11 11 23 21 2 0.19161333D-01 0.16663670D+00 0.10811137D+06 0.10811137D+06 0.10811137D+06 0.11189531D+01  1  2  4  1  7  1        1 -.724405610258D-03 0.100000000000D+01
  </mgrwgt>
  </event>
  <event>
  8     66 0.29493621E-05 0.17641920E+03 0.75467711E-02 0.94965357E-01
        1 -1    0    0  501    0 0.00000000E+00 0.00000000E+00 0.11094330E+04 0.11094331E+04 0.32000000E+00 0.0000E+00 0.9000E+01
       -2 -1    0    0    0  501 0.00000000E+00 0.00000000E+00 -.14630792E+03 0.14630827E+03 0.32000000E+00 0.0000E+00 0.9000E+01
       25  2    1    2    0    0 0.26075559E+03 0.14590009E+03 0.80207576E+03 0.90690840E+03 0.29979494E+03 0.0000E+00 0.0000E+00
       23  2    3    3    0    0 0.48260097E+02 -.33823506E+02 0.26031349E+03 0.29105410E+03 0.11608751E+03 0.0000E+00 0.0000E+00
      -24  1    1    2    0    0 -.26075559E+03 -.14590009E+03 0.16104936E+03 0.34883295E+03 0.80419002E+02 0.0000E+00 0.9000E+01
      -11  1    4    4    0    0 0.13893977E+02 0.40075390E+02 0.13554423E+03 0.14202576E+03 0.51099893E-03 0.0000E+00 0.9000E+01
       11  1    4    4    0    0 0.34366120E+02 -.73898896E+02 0.12476926E+03 0.14902834E+03 0.51099893E-03 0.0000E+00 0.9000E+01
       23  1    3    3    0    0 0.21249550E+03 0.17972360E+03 0.54176227E+03 0.61585430E+03 0.91188000E+02 0.0000E+00 0.9000E+01
#aMCatNLO 1  0  0  1  2 0.21101157D+03 0.00000000D+00  -5  7  0 0.00000000D+00 0.00000000D+00 0.00000000D+00 0.00000000D+00 0.00000000D+00
  <mgrwgt>
 0.1343564399D-02    9    2    0
 0.402888427554223D+03 0.000000000000000D+00 0.000000000000000D+00 0.402888427554223D+03
 0.402888427554223D+03 0.000000000000000D+00 0.000000000000000D+00 -.402888427554223D+03
 0.351131054015011D+03 -.260755592234108D+03 -.145900092471003D+03 -.165968326119518D+03
 0.593235845919852D+02 0.138939762065717D+02 0.400753890373658D+02 0.414753940007497D+02
 0.831156121943319D+02 0.343661197774302D+02 -.738988955928557D+02 0.163134310320701D+02
 0.312206604307118D+03 0.212495496250106D+03 0.179723599026493D+03 0.108179501086698D+03
 0.000000000000000D+00 0.000000000000000D+00 -.000000000000000D+00 0.000000000000000D+00
 0.583533565087554D+03 0.000000000000000D+00 0.000000000000000D+00 0.583533565087554D+03
 0.483105688141991D+03 0.000000000000000D+00 0.000000000000000D+00 -.483105688141991D+03
 0.392350778341797D+03 -.335450821419972D+03 -.860184773452478D+02 -.165968326119518D+03
 0.650495151883345D+02 0.139861076744843D+01 0.500926641998717D+02 0.414753940007497D+02
 0.667919135325395D+02 0.193053926640867D+02 -.618250232137890D+02 0.163134310320701D+02
 0.308755705228509D+03 0.150109409586071D+03 0.229737230037947D+03 0.108179501086698D+03
 0.233691340938364D+03 0.164637408402365D+03 -.131986393678781D+03 0.100427876945563D+03
0.508094701691D-04 0.000000000000D+00 0.000000000000D+00 0.225359017796D-07 0.000000000000D+00  7 1 -2 -24 -11 11 23 21 0 0.17068204D+00 0.22508941D-01 0.13184557D+06 0.13184557D+06 0.13184557D+06 0.11120004D+01  1  2  2  1  7  1        1 0.116006217315D-02 0.100000000000D+01
-.278565128441D-05 0.000000000000D+00 -.195121743890D-06 0.225359017796D-07 0.000000000000D+00  7 1 -2 -24 -11 11 23 21 2 0.17068204D+00 0.22508941D-01 0.13184557D+06 0.13184557D+06 0.13184557D+06 0.11120004D+01  1  2  3  1  7  1        1 -.786453900680D-04 0.100000000000D+01
0.324294716602D-05 0.000000000000D+00 0.000000000000D+00 0.225359017796D-07 0.000000000000D+00  7 1 -2 -24 -11 11 23 21 2 0.17068204D+00 0.22508941D-01 0.13184557D+06 0.13184557D+06 0.13184557D+06 0.11120004D+01  1  2 15  1  7  1        1 0.915559123532D-04 0.100000000000D+01
0.122356315802D-04 0.000000000000D+00 0.000000000000D+00 0.225359017796D-07 0.000000000000D+00  7 1 -2 -24 -11 11 23 21 2 0.25808968D+00 0.22508941D-01 0.23551390D+06 0.23551390D+06 0.23551390D+06 0.10924147D+01  1  2 12  1  7  1        1 0.134201552095D-03 0.100000000000D+01
-.268185372216D-04 0.000000000000D+00 0.000000000000D+00 0.225359017796D-07 0.000000000000D+00  7 1 -2 -24 -11 11 23 21 2 0.17068204D+00 0.22508941D-01 0.13184557D+06 0.13184557D+06 0.13184557D+06 0.11120004D+01  1  2  4  1  7  1        1 -.757149443885D-03 0.100000000000D+01
-.356833842265D-04 0.000000000000D+00 -.174413169664D-04 0.225359017796D-07 0.000000000000D+00  7 1 -2 -24 -11 11 23 21 2 0.27202228D+00 0.22508941D-01 0.13184557D+06 0.13184557D+06 0.13184557D+06 0.11120004D+01  1  2  5  1  7  1        1 -.361152349296D-03 0.100000000000D+01
0.410133812294D-04 0.000000000000D+00 0.157044579111D-04 0.225359017796D-07 0.000000000000D+00  7 1 -2 -24 -11 11 23 21 2 0.17068204D+00 0.22508941D-01 0.13184557D+06 0.13184557D+06 0.13184557D+06 0.11120004D+01  1  2  6  1  7  1        1 0.115790277945D-02 0.100000000000D+01
0.596834107729D-06 0.000000000000D+00 0.000000000000D+00 0.225359017796D-07 0.000000000000D+00  7 21 -2 -24 -11 11 23 -1 2 0.25808968D+00 0.22508941D-01 0.23551390D+06 0.23551390D+06 0.23551390D+06 0.10924147D+01  1  2 12  3  7  1        1 0.436835209033D-05 0.100000000000D+01
-.118001202378D-05 0.000000000000D+00 -.930957616201D-06 0.225359017796D-07 0.000000000000D+00  7 21 -2 -24 -11 11 23 -1 2 0.27202228D+00 0.22508941D-01 0.13184557D+06 0.13184557D+06 0.13184557D+06 0.11120004D+01  1  2  5  3  7  1        1 -.757918722540D-05 0.100000000000D+01
  </mgrwgt>
  </event>
  <event>
  8     66 0.29493621E-05 0.16648282E+03 0.75467711E-02 0.10214077E+00
        1 -1    0    0  501    0 0.00000000E+00 0.00000000E+00 0.75012658E+02 0.75013340E+02 0.32000000E+00 0.0000E+00 0.9000E+01
       -2 -1    0    0    0  501 0.00000000E+00 0.00000000E+00 -.10326937E+04 0.10326937E+04 0.32000000E+00 0.0000E+00 0.9000E+01
       25  2    1    2    0    0 0.44364351E+02 -.16669505E+03 -.46483623E+03 0.57939028E+03 0.29977480E+03 0.0000E+00 0.0000E+00
       23  2    3    3    0    0 -.93541843E+02 -.50311950E+02 -.14610436E+03 0.20194041E+03 0.90288847E+02 0.0000E+00 0.0000E+00
      -24  1    1    2    0    0 -.44364351E+02 0.16669505E+03 -.49284480E+03 0.52831681E+03 0.80419002E+02 0.0000E+00 0.9000E+01
      -11  1    4    4    0    0 -.18667674E+02 -.33607799E+02 -.17697194E+01 0.38485037E+02 0.51099893E-03 0.0000E+00 0.9000E+01
       11  1    4    4    0    0 -.74874169E+02 -.16704151E+02 -.14433464E+03 0.16345537E+03 0.51099893E-03 0.0000E+00 0.9000E+01
       23  1    3    3    0    0 0.13790619E+03 -.11638310E+03 -.31873187E+03 0.37744987E+03 0.91188000E+02 0.0000E+00 0.9000E+01
#aMCatNLO 1  0  0  1  2 0.31581999D+02 0.00000000D+00  -5  7  0 0.00000000D+00 0.00000000D+00 0.00000000D+00 0.00000000D+00 0.00000000D+00
  <mgrwgt>
 0.7782872453D-03    9    2    0
 0.278326254942247D+03 0.000000000000000D+00 0.000000000000000D+00 0.278326254942247D+03
 0.278326254942247D+03 0.000000000000000D+00 0.000000000000000D+00 -.278326254942247D+03
 0.203416221197100D+03 -.443643508087709D+02 0.166695048081624D+03 -.718018691547686D+02
 0.735383759348658D+02 -.186676739512552D+02 -.336077985528175D+02 0.626891263363951D+02
 0.769494854838695D+02 -.748741688408003D+02 -.167041514773775D+02 -.600445501710169D+01
 0.202748427268657D+03 0.137906193600826D+03 -.116383098051429D+03 0.151171978354752D+02
 0.000000000000000D+00 0.000000000000000D+00 0.000000000000000D+00 0.000000000000000D+00
 0.307868183043060D+03 0.000000000000000D+00 0.000000000000000D+00 0.307868183043060D+03
 0.287344443384888D+03 0.000000000000000D+00 0.000000000000000D+00 -.287344443384888D+03
 0.200665883385574D+03 -.539450047735487D+02 0.160418231028788D+03 -.718018691547686D+02
 0.755874930245807D+02 -.222033993186847D+02 -.359242480730711D+02 0.626891263363951D+02
 0.811459378763823D+02 -.786225593967096D+02 -.191599297414206D+02 -.600445501710169D+01
 0.200148387207619D+03 0.128353642475121D+03 -.122641503377865D+03 0.151171978354752D+02
 0.376649249337910D+02 0.264173210138216D+02 0.173074501635688D+02 0.205237396581713D+02
0.434150215476D-04 0.000000000000D+00 0.000000000000D+00 0.133697362996D-05 0.000000000000D+00  7 1 -2 -24 -11 11 23 21 0 0.11540465D-01 0.15887601D+00 0.64431126D+05 0.64431126D+05 0.64431126D+05 0.11377329D+01  1  2  2  1  7  1        1 0.678972951967D-03 0.100000000000D+01
-.238706064905D-05 0.000000000000D+00 -.166725114181D-06 0.133697362996D-05 0.000000000000D+00  7 1 -2 -24 -11 11 23 21 2 0.11540465D-01 0.15887601D+00 0.64431126D+05 0.64431126D+05 0.64431126D+05 0.11377329D+01  1  2  3  1  7  1        1 -.483232987827D-04 0.100000000000D+01
0.285367972549D-05 0.000000000000D+00 0.000000000000D+00 0.133697362996D-05 0.000000000000D+00  7 1 -2 -24 -11 11 23 21 2 0.11540465D-01 0.15887601D+00 0.64431126D+05 0.64431126D+05 0.64431126D+05 0.11377329D+01  1  2 15  1  7  1        1 0.577694655809D-04 0.100000000000D+01
0.112569627292D-03 0.000000000000D+00 0.000000000000D+00 0.133697362996D-05 0.000000000000D+00  7 1 -2 -24 -11 11 23 21 2 0.12938493D-01 0.15887601D+00 0.73358158D+05 0.73358158D+05 0.73358158D+05 0.11329337D+01  1  2 12  1  7  1        1 0.193956421960D-02 0.100000000000D+01
-.112000402634D-03 0.000000000000D+00 0.000000000000D+00 0.133697362996D-05 0.000000000000D+00  7 1 -2 -24 -11 11 23 21 2 0.11540465D-01 0.15887601D+00 0.64431126D+05 0.64431126D+05 0.64431126D+05 0.11377329D+01  1  2  4  1  7  1        1 -.226731940071D-02 0.100000000000D+01
-.254306929476D-03 0.000000000000D+00 -.485103745469D-04 0.133697362996D-05 0.000000000000D+00  7 1 -2 -24 -11 11 23 21 2 0.13172613D-01 0.15887601D+00 0.64431126D+05 0.64431126D+05 0.64431126D+05 0.11377329D+01  1  2  5  1  7  1        1 -.432395297397D-02 0.100000000000D+01
0.258877014356D-03 0.000000000000D+00 0.480890276063D-04 0.133697362996D-05 0.000000000000D+00  7 1 -2 -24 -11 11 23 21 2 0.11540465D-01 0.15887601D+00 0.64431126D+05 0.64431126D+05 0.64431126D+05 0.11377329D+01  1  2  6  1  7  1        1 0.524066756230D-02 0.100000000000D+01
0.205063463731D-05 0.000000000000D+00 0.000000000000D+00 0.133697362996D-05 0.000000000000D+00  7 21 -2 -24 -11 11 23 -1 2 0.12938493D-01 0.15887601D+00 0.73358158D+05 0.73358158D+05 0.73358158D+05 0.11329337D+01  1  2 12  3  7  1        1 0.362431419552D-03 0.100000000000D+01
-.496554047286D-05 0.000000000000D+00 -.998360193612D-06 0.133697362996D-05 0.000000000000D+00  7 21 -2 -24 -11 11 23 -1 2 0.13172613D-01 0.15887601D+00 0.64431126D+05 0.64431126D+05 0.64431126D+05 0.11377329D+01  1  2  5  3  7  1        1 -.861522700234D-03 0.100000000000D+01
  </mgrwgt>
  </event>
  <event>
  8     66 0.29493621E-05 0.31789043E+03 0.75467711E-02 0.92831587E-01
        1 -1    0    0  501    0 0.00000000E+00 0.00000000E+00 0.19641601E+03 0.19641627E+03 0.32000000E+00 0.0000E+00 0.9000E+01
       -2 -1    0    0    0  501 0.00000000E+00 0.00000000E+00 -.57670973E+03 0.57670982E+03 0.32000000E+00 0.0000E+00 0.9000E+01
       25  2    1    2    0    0 -.19778070E+03 0.17248489E+03 -.21219306E+03 0.45126697E+03 0.29957927E+03 0.0000E+00 0.0000E+00
       23  2    3    3    0    0 -.13883472E+03 -.69642871E+00 -.17937174E+03 0.24424309E+03 0.90580909E+02 0.0000E+00 0.0000E+00
      -24  1    1    2    0    0 0.19778070E+03 -.17248489E+03 -.16810067E+03 0.32185912E+03 0.80419002E+02 0.0000E+00 0.9000E+01
      -11  1    4    4    0    0 -.46140668E+02 -.35158391E+02 -.30556054E+02 0.65564824E+02 0.51099893E-03 0.0000E+00 0.9000E+01
       11  1    4    4    0    0 -.92694047E+02 0.34461962E+02 -.14881568E+03 0.17867826E+03 0.51099893E-03 0.0000E+00 0.9000E+01
       23  1    3    3    0    0 -.58945990E+02 0.17318132E+03 -.32821321E+02 0.20702389E+03 0.91188000E+02 0.0000E+00 0.9000E+01
#aMCatNLO 1  0  0  2  2 0.41117785D+03 0.00000000D+00  -5  7  0 0.00000000D+00 0.00000000D+00 0.00000000D+00 0.00000000D+00 0.00000000D+00
  <mgrwgt>
 0.9005058140D-03    3    2    0
 0.336563752564903D+03 0.000000000000000D+00 0.000000000000000D+00 0.336563752564903D+03
 0.336563752564903D+03 0.000000000000000D+00 0.000000000000000D+00 -.336563752564903D+03
 0.274702868968137D+03 0.197780704806331D+03 -.172484889921986D+03 -.112341363649525D+02
 0.580419017808994D+02 -.461406682834364D+02 -.351583905895665D+02 0.194644903682170D+01
 0.121146669299399D+03 -.926940469336094D+02 0.344619618826438D+02 -.699764412399404D+02
 0.219236065081371D+03 -.589459895892847D+02 0.173181318628908D+03 0.792641285680713D+02
 0.000000000000000D+00 -.000000000000000D+00 -.000000000000000D+00 0.000000000000000D+00
 0.126573574136900D+04 0.000000000000000D+00 0.000000000000000D+00 0.126573574136900D+04
 0.442895484278122D+03 0.000000000000000D+00 0.000000000000000D+00 -.442895484278122D+03
 0.216839343829632D+03 0.198126137726809D+03 -.342332120562177D+02 -.112341363649525D+02
 0.464672147075858D+02 -.460672241551698D+02 -.576404696938476D+01 0.194644903682170D+01
 0.162870075851985D+03 -.924944532238772D+02 0.114344809249219D+03 -.699764412399404D+02
 0.362599543369230D+03 -.585371026855105D+02 0.336829011575761D+03 0.792641285680713D+02
 0.919855047888694D+03 -.102735766225118D+01 -.411176561799378D+03 0.822840257090882D+03
0.462557738539D-04 0.000000000000D+00 0.000000000000D+00 0.175121604410D-05 0.000000000000D+00  7 1 -2 -24 -11 11 23 21 0 0.30217874D-01 0.88724601D-01 0.10105432D+06 0.10105432D+06 0.10105432D+06 0.11213485D+01  1  2  2  2  7  2       -2 0.890470193969D-03 0.100000000000D+01
-.255958503166D-05 0.000000000000D+00 -.177634351024D-06 0.175121604410D-05 0.000000000000D+00  7 1 -2 -24 -11 11 23 21 2 0.30217874D-01 0.88724601D-01 0.10105432D+06 0.10105432D+06 0.10105432D+06 0.11213485D+01  1  2  3  2  7  2       -2 -.619589679248D-04 0.100000000000D+01
0.297416622376D-05 0.000000000000D+00 0.000000000000D+00 0.175121604410D-05 0.000000000000D+00  7 1 -2 -24 -11 11 23 21 2 0.30217874D-01 0.88724601D-01 0.10105432D+06 0.10105432D+06 0.10105432D+06 0.11213485D+01  1  2 15  2  7  2       -2 0.719945879436D-04 0.100000000000D+01
  </mgrwgt>
  </event>
  <event>
  8     66 0.29493621E-05 0.29425707E+03 0.75467711E-02 0.84044143E-01
        1 -1    0    0  501    0 0.00000000E+00 0.00000000E+00 0.48780141E+03 0.48780151E+03 0.32000000E+00 0.0000E+00 0.9000E+01
       -2 -1    0    0    0  501 0.00000000E+00 0.00000000E+00 -.19477458E+03 0.19477485E+03 0.32000000E+00 0.0000E+00 0.9000E+01
       25  2    1    2    0    0 0.75995030E+02 -.19676578E+03 0.26941733E+03 0.45560358E+03 0.30082704E+03 0.0000E+00 0.0000E+00
       23  2    3    3    0    0 0.92144780E+02 0.20469217E+02 0.90041583E+02 0.15905212E+03 0.90996931E+02 0.0000E+00 0.0000E+00
      -24  1    1    2    0    0 -.75995030E+02 0.19676578E+03 0.23609493E+02 0.22697278E+03 0.80419002E+02 0.0000E+00 0.9000E+01
      -13  1    4    4    0    0 0.10665127E+03 0.70887416E+01 0.58508506E+02 0.12185237E+03 0.10565837E+00 0.0000E+00 0.9000E+01
       13  1    4    4    0    0 -.14506491E+02 0.13380476E+02 0.31533076E+02 0.37199751E+02 0.10565837E+00 0.0000E+00 0.9000E+01
       23  1    3    3    0    0 -.16149750E+02 -.21723500E+03 0.17937575E+03 0.29655146E+03 0.91188000E+02 0.0000E+00 0.9000E+01
#aMCatNLO 1  0  0  2  2 0.13762997D+04 0.00000000D+00  -5  7  0 0.00000000D+00 0.00000000D+00 0.00000000D+00 0.00000000D+00 0.00000000D+00
  <mgrwgt>
 0.1138698811D-02    3    2    0
 0.308239258920707D+03 0.000000000000000D+00 0.000000000000000D+00 0.308239258920707D+03
 0.308239258920707D+03 0.000000000000000D+00 0.000000000000000D+00 -.308239258920707D+03
 0.240086282934076D+03 -.759950303109147D+02 0.196765780906794D+03 -.817446642351241D+02
 0.107106817410010D+03 0.106651432882385D+03 0.708873217375679D+01 0.686236664745349D+01
 0.261997219259730D+02 -.145066538110875D+02 0.133804835430361D+02 0.172320946015889D+02
 0.243085695571355D+03 -.161497487603831D+02 -.217234996623587D+03 0.576502029860817D+02
 0.000000000000000D+00 0.000000000000000D+00 -.000000000000000D+00 0.000000000000000D+00
 0.151444666115571D+04 0.000000000000000D+00 0.000000000000000D+00 0.151444666115571D+04
 0.137678147396161D+04 0.000000000000000D+00 0.000000000000000D+00 -.137678147396161D+04
 0.105135058822351D+04 -.240207739314009D+03 0.101709827216759D+04 -.817446642351241D+02
 0.230792399583562D+03 0.636858439079878D+02 0.221725399797276D+03 0.686236664745349D+01
 0.997390765746684D+02 -.305204069663988D+02 0.933779581604506D+02 0.172320946015889D+02
 0.126178486525789D+03 -.631035511755416D+02 0.173249831930077D+02 0.576502029860817D+02
 0.138316758420980D+04 0.270145853547961D+03 -.134952661331832D+04 0.137665187194095D+03
0.223214311741D-04 0.000000000000D+00 0.000000000000D+00 0.108140670373D-05 0.000000000000D+00  7 1 -2 -24 -13 13 23 21 0 0.75046398D-01 0.29965349D-01 0.86587222D+05 0.86587222D+05 0.86587222D+05 0.11268911D+01  1  2  2  2  7  2       -2 0.112434343000D-02 0.100000000000D+01
-.123683021861D-05 0.000000000000D+00 -.857201730765D-07 0.108140670373D-05 0.000000000000D+00  7 1 -2 -24 -13 13 23 21 2 0.75046398D-01 0.29965349D-01 0.86587222D+05 0.86587222D+05 0.86587222D+05 0.11268911D+01  1  2  3  2  7  2       -2 -.791135619704D-04 0.100000000000D+01
0.146125657687D-05 0.000000000000D+00 0.000000000000D+00 0.108140670373D-05 0.000000000000D+00  7 1 -2 -24 -13 13 23 21 2 0.75046398D-01 0.29965349D-01 0.86587222D+05 0.86587222D+05 0.86587222D+05 0.11268911D+01  1  2 15  2  7  2       -2 0.934689426317D-04 0.100000000000D+01
  </mgrwgt>
  </event>
  <event>
  9     66 0.29493621E-05 0.19154795E+03 0.75467711E-02 0.10310210E+00
        1 -1    0    0  502    0 0.00000000E+00 0.00000000E+00 0.19784226E+04 0.19784227E+04 0.32000000E+00 0.0000E+00 0.9000E+01
       -2 -1    0    0    0  501 0.00000000E+00 0.00000000E+00 -.12995518E+03 0.12995558E+03 0.32000000E+00 0.0000E+00 0.9000E+01
       25  2    1    2    0    0 0.56667798E+02 0.81763239E+02 0.11796389E+04 0.12212221E+04 0.29989828E+03 0.0000E+00 0.0000E+00
       23  2    3    3    0    0 0.11939616E+03 0.12990469E+03 0.69093560E+03 0.71783494E+03 0.82245568E+02 0.0000E+00 0.0000E+00
      -24  1    1    2    0    0 -.19303678E+02 0.25373508E+02 -.87099321E+02 0.12275974E+03 0.80419002E+02 0.0000E+00 0.9000E+01
      -11  1    4    4    0    0 0.22778946E+02 0.15767290E+01 0.19974090E+03 0.20104177E+03 0.51099893E-03 0.0000E+00 0.9000E+01
       11  1    4    4    0    0 0.96617216E+02 0.12832796E+03 0.49119469E+03 0.51679317E+03 0.51099893E-03 0.0000E+00 0.9000E+01
       23  1    3    3    0    0 -.62728364E+02 -.48141448E+02 0.48870329E+03 0.50338714E+03 0.91188000E+02 0.0000E+00 0.9000E+01
       21  1    1    2  502  501 -.37364120E+02 -.10713675E+03 0.75592789E+03 0.76439643E+03 0.75000000E+00 0.0000E+00 0.9000E+01
#aMCatNLO 2  0  0  1  2 0.11346524D+03 0.00000000D+00  -5  7  0 0.00000000D+00 0.00000000D+00 0.00000000D+00 0.00000000D+00 0.00000000D+00
  <mgrwgt>
 0.1182369311D-02    2    2    0
 0.387224114613959D+03 0.000000000000000D+00 0.000000000000000D+00 0.387224114613959D+03
 0.387224114613959D+03 0.000000000000000D+00 0.000000000000000D+00 -.387224114613959D+03
 0.333332994340595D+03 -.352770516648119D+02 -.204280607696559D+02 -.320907920003115D+03
 0.657908501423009D+02 0.196070506854994D+02 -.751826652982303D+01 0.623496206423863D+02
 0.181487051722841D+03 0.874215129638515D+02 0.101960477348017D+03 0.122061828894723D+03
 0.193837333022182D+03 -.717515119845389D+02 -.740141500485385D+02 0.136496470466006D+03
 0.000000000000000D+00 -.000000000000000D+00 -.000000000000000D+00 0.000000000000000D+00
 0.635554156950454D+03 0.000000000000000D+00 0.000000000000000D+00 0.635554156950454D+03
 0.404538374670462D+03 0.000000000000000D+00 0.000000000000000D+00 -.404538374670462D+03
 0.332363589976898D+03 -.193036777559969D+02 0.253735076867157D+02 -.320907920003115D+03
 0.663991086774484D+02 0.227789456432954D+02 0.157672898428958D+01 0.623496206423863D+02
 0.201747469629347D+03 0.966172163045865D+02 0.128327958536993D+03 0.122061828894723D+03
 0.182205884819771D+03 -.627283638026658D+02 -.481414482947797D+02 0.136496470466006D+03
 0.257376478517451D+03 -.373641203892192D+02 -.107136746913219D+03 0.231015782279992D+03
-.840998535600D-04 0.000000000000D+00 0.000000000000D+00 0.217501535282D-06 0.000000000000D+00  7 1 -2 -24 -11 11 23 21 2 0.30625122D+00 0.19137405D-01 0.63538414D+05 0.63538414D+05 0.63538414D+05 0.11382527D+01  1  2 13  1  7  1        1 -.859703931950D-03 0.100000000000D+01
0.210723457087D-03 0.000000000000D+00 0.000000000000D+00 0.217501535282D-06 0.129602871113D-09  7 1 -2 -24 -11 11 23 21 2 0.30437235D+00 0.19993111D-01 0.63538414D+05 0.63538414D+05 0.63538414D+05 0.11382527D+01  1  2  1  1  7  1        1 0.204207324343D-02 0.100000000000D+01
  </mgrwgt>
  </event>
  <event>
  8     66 0.29493621E-05 0.49890650E+03 0.75467711E-02 0.90064574E-01
        1 -1    0    0  501    0 0.00000000E+00 0.00000000E+00 0.68286196E+03 0.68286203E+03 0.32000000E+00 0.0000E+00 0.9000E+01
       -2 -1    0    0    0  501 0.00000000E+00 0.00000000E+00 -.73562286E+03 0.73562293E+03 0.32000000E+00 0.0000E+00 0.9000E+01
       25  2    1    2    0    0 0.65477404E+03 -.16292375E+02 0.13281947E+03 0.73299114E+03 0.30106563E+03 0.0000E+00 0.0000E+00
       23  2    3    3    0    0 0.53539650E+03 -.94314158E+02 0.91577281E+02 0.55876552E+03 0.91038116E+02 0.0000E+00 0.0000E+00
      -24  1    1    2    0    0 -.65477404E+03 0.16292375E+02 -.18558037E+03 0.68549382E+03 0.80419002E+02 0.0000E+00 0.9000E+01
      -11  1    4    4    0    0 0.49799466E+02 -.24024262E+02 -.13648612E+02 0.56951178E+02 0.51099893E-03 0.0000E+00 0.9000E+01
       11  1    4    4    0    0 0.48559703E+03 -.70289895E+02 0.10522589E+03 0.50181434E+03 0.51099893E-03 0.0000E+00 0.9000E+01
       23  1    3    3    0    0 0.11937754E+03 0.78021783E+02 0.41242193E+02 0.17422562E+03 0.91188000E+02 0.0000E+00 0.9000E+01
#aMCatNLO 1  0  0  1  2 0.14391394D+03 0.00000000D+00  -5  7  0 0.00000000D+00 0.00000000D+00 0.00000000D+00 0.00000000D+00 0.00000000D+00
  <mgrwgt>
 0.1383934023D-02    9    2    0
 0.708751695327945D+03 0.000000000000000D+00 0.000000000000000D+00 0.708751695327945D+03
 0.708751695327945D+03 0.000000000000000D+00 0.000000000000000D+00 -.708751695327945D+03
 0.679061009071465D+03 -.654774039492274D+03 0.162923745806144D+02 -.160194112951383D+03
 0.564825991080436D+02 0.497994663316201D+02 -.240242623547039D+02 -.115382829484351D+02
 0.506078445461323D+03 0.485597033171415D+03 -.702898951779124D+02 0.123976792068302D+03
 0.175881337015058D+03 0.119377539989238D+03 0.780217829520019D+02 0.477556038315167D+02
 0.000000000000000D+00 -.000000000000000D+00 0.000000000000000D+00 0.000000000000000D+00
 0.868701183490744D+03 0.000000000000000D+00 0.000000000000000D+00 0.868701183490744D+03
 0.745521158171489D+03 0.000000000000000D+00 0.000000000000000D+00 -.745521158171489D+03
 0.680248235140613D+03 -.654101567490556D+03 -.525302868797142D+02 -.160194112951383D+03
 0.592613317483058D+02 0.498567267035341D+02 -.298844486245557D+02 -.115382829484351D+02
 0.516297621176340D+03 0.486102818946777D+03 -.122053423027774D+03 0.123976792068302D+03
 0.168983001453531D+03 0.119548149887610D+03 0.605610897968388D+02 0.477556038315167D+02
 0.189432152143444D+03 -.140612804736619D+01 0.143907068735205D+03 0.123180025319255D+03
0.511118360801D-03 0.000000000000D+00 0.000000000000D+00 0.549173909689D-05 0.000000000000D+00  7 1 -2 -24 -11 11 23 21 0 0.10505570D+00 0.11317276D+00 0.47273772D+06 0.47273772D+06 0.47273772D+06 0.10702356D+01  1  2  2  1  7  1        1 0.955133866884D-03 0.100000000000D+01
-.283636477844D-04 0.000000000000D+00 -.196282908603D-05 0.549173909689D-05 0.000000000000D+00  7 1 -2 -24 -11 11 23 21 2 0.10505570D+00 0.11317276D+00 0.47273772D+06 0.47273772D+06 0.47273772D+06 0.10702356D+01  1  2  3  1  7  1        1 -.607104718875D-04 0.100000000000D+01
0.325441897224D-04 0.000000000000D+00 0.000000000000D+00 0.549173909689D-05 0.000000000000D+00  7 1 -2 -24 -11 11 23 21 2 0.10505570D+00 0.11317276D+00 0.47273772D+06 0.47273772D+06 0.47273772D+06 0.10702356D+01  1  2 15  1  7  1        1 0.696586394762D-04 0.100000000000D+01
0.834455181268D-03 0.000000000000D+00 0.000000000000D+00 0.549173909689D-05 0.000000000000D+00  7 1 -2 -24 -11 11 23 21 2 0.13104748D+00 0.11317276D+00 0.58250796D+06 0.58250796D+06 0.58250796D+06 0.10638538D+01  1  2 12  1  7  1        1 0.123166665358D-02 0.100000000000D+01
-.852373393383D-03 0.000000000000D+00 0.000000000000D+00 0.549173909689D-05 0.000000000000D+00  7 1 -2 -24 -11 11 23 21 2 0.10505570D+00 0.11317276D+00 0.47273772D+06 0.47273772D+06 0.47273772D+06 0.10702356D+01  1  2  4  1  7  1        1 -.182444766378D-02 0.100000000000D+01
-.144970269438D-02 0.000000000000D+00 -.312362796909D-03 0.549173909689D-05 0.000000000000D+00  7 1 -2 -24 -11 11 23 21 2 0.13280306D+00 0.11317276D+00 0.47273772D+06 0.47273772D+06 0.47273772D+06 0.10702356D+01  1  2  5  1  7  1        1 -.213990801408D-02 0.100000000000D+01
0.149018319486D-02 0.000000000000D+00 0.303975455397D-03 0.549173909689D-05 0.000000000000D+00  7 1 -2 -24 -11 11 23 21 2 0.10505570D+00 0.11317276D+00 0.47273772D+06 0.47273772D+06 0.47273772D+06 0.10702356D+01  1  2  6  1  7  1        1 0.318963645460D-02 0.100000000000D+01
0.257678142437D-04 0.000000000000D+00 0.000000000000D+00 0.549173909689D-05 0.000000000000D+00  7 21 -2 -24 -11 11 23 -1 2 0.13104748D+00 0.11317276D+00 0.58250796D+06 0.58250796D+06 0.58250796D+06 0.10638538D+01  1  2 12  3  7  1        1 0.599347926264D-04 0.100000000000D+01
-.420647732305D-04 0.000000000000D+00 -.100774623221D-04 0.549173909689D-05 0.000000000000D+00  7 21 -2 -24 -11 11 23 -1 2 0.13280306D+00 0.11317276D+00 0.47273772D+06 0.47273772D+06 0.47273772D+06 0.10702356D+01  1  2  5  3  7  1        1 -.970302344892D-04 0.100000000000D+01
  </mgrwgt>
  </event>
  <event>
  8     66 -.29493621E-05 0.13415340E+03 0.75467711E-02 0.11240640E+00
        1 -1    0    0  501    0 0.00000000E+00 0.00000000E+00 0.33051148E+03 0.33051163E+03 0.32000000E+00 0.0000E+00 0.9000E+01
       -2 -1    0    0    0  501 0.00000000E+00 0.00000000E+00 -.25271425E+03 0.25271445E+03 0.32000000E+00 0.0000E+00 0.9000E+01
       25  2    1    2    0    0 -.89156604E+01 -.38379236E+02 -.14732908E+03 0.34094211E+03 0.30493148E+03 0.0000E+00 0.0000E+00
       23  2    3    3    0    0 0.11907321E+00 -.34935172E+02 0.58867882E+02 0.11527437E+03 0.92748439E+02 0.0000E+00 0.0000E+00
      -24  1    1    2    0    0 0.89156604E+01 0.38379236E+02 0.22512631E+03 0.24228398E+03 0.80419002E+02 0.0000E+00 0.9000E+01
      -13  1    4    4    0    0 0.39925296E+02 -.18028844E+02 0.20308419E+01 0.43854349E+02 0.10565837E+00 0.0000E+00 0.9000E+01
       13  1    4    4    0    0 -.39806223E+02 -.16906328E+02 0.56837040E+02 0.71420023E+02 0.10565837E+00 0.0000E+00 0.9000E+01
       23  1    3    3    0    0 -.90347336E+01 -.34440645E+01 -.20619696E+03 0.22566773E+03 0.91188000E+02 0.0000E+00 0.9000E+01
#aMCatNLO 1  0  0  2  1 0.31945174D+01 0.00000000D+00  -5  7  0 0.00000000D+00 0.00000000D+00 0.00000000D+00 0.00000000D+00 0.00000000D+00
  <mgrwgt>
 -.4609007975D-04    1    2    0
 0.289007030649009D+03 0.000000000000000D+00 0.000000000000000D+00 0.289007030649009D+03
 0.289007030649009D+03 0.000000000000000D+00 0.000000000000000D+00 -.289007030649009D+03
 0.214168092026865D+03 0.891566349066001D+01 0.383792494606377D+02 0.194546395092319D+03
 0.439764237166311D+02 0.399253965360399D+02 -.180288446648585D+02 -.385348081545181D+01
 0.644140840472843D+02 -.398063263051917D+02 -.169063182109271D+02 0.477368517425069D+02
 0.255455461507238D+03 -.903473372150819D+01 -.344408658485218D+01 -.238429766019374D+03
 0.000000000000000D+00 -.000000000000000D+00 -.000000000000000D+00 0.000000000000000D+00
 0.132133863551672D+04 0.000000000000000D+00 0.000000000000000D+00 0.132133863551672D+04
 0.635872382298005D+03 0.000000000000000D+00 0.000000000000000D+00 -.635872382298005D+03
 0.396808352911945D+03 0.182393454135022D+03 0.282619852507922D+03 0.194546395092319D+03
 0.826875967522444D+02 0.758897853551103D+02 0.326056716082034D+02 -.385348081545181D+01
 0.576361671090181D+02 -.515194953898882D+01 0.318838228680358D+02 0.477368517425069D+02
 0.406790435619057D+03 0.179000265088092D+03 0.261291712347487D+03 -.238429766019374D+03
 0.101328846542246D+04 -.432131555039235D+03 -.608401059331648D+03 0.685466253218710D+03
-.609455967235D-06 0.000000000000D+00 0.000000000000D+00 0.210879452401D-07 0.000000000000D+00  7 1 -2 -24 -13 13 23 21 2 0.50847947D-01 0.38879143D-01 0.17997136D+05 0.17997136D+05 0.17997136D+05 0.11885035D+01  1  2 14  2  7  2       -2 -.460900797463D-04 0.100000000000D+01
  </mgrwgt>
  </event>
  <event>
  8     66 0.29493621E-05 0.30215973E+03 0.75467711E-02 0.98110093E-01
        1 -1    0    0  501    0 0.00000000E+00 0.00000000E+00 0.56473005E+03 0.56473014E+03 0.32000000E+00 0.0000E+00 0.9000E+01
       -2 -1    0    0    0  501 0.00000000E+00 0.00000000E+00 -.16794278E+03 0.16794308E+03 0.32000000E+00 0.0000E+00 0.9000E+01
       25  2    1    2    0    0 -.74428655E+02 -.21193269E+03 0.21324103E+03 0.43165574E+03 0.30066568E+03 0.0000E+00 0.0000E+00
       23  2    3    3    0    0 0.52347002E+02 -.69207202E+01 0.20774974E+02 0.11000312E+03 0.94238962E+02 0.0000E+00 0.0000E+00
      -24  1    1    2    0    0 0.74428655E+02 0.21193269E+03 0.18354624E+03 0.30101748E+03 0.80419002E+02 0.0000E+00 0.9000E+01
      -13  1    4    4    0    0 -.27592161E+02 -.51026440E+01 0.57814416E+01 0.28649617E+02 0.10565837E+00 0.0000E+00 0.9000E+01
       13  1    4    4    0    0 0.79939163E+02 -.18180763E+01 0.14993533E+02 0.81353503E+02 0.10565837E+00 0.0000E+00 0.9000E+01
       23  1    3    3    0    0 -.12677566E+03 -.20501197E+03 0.19246606E+03 0.32165262E+03 0.91188000E+02 0.0000E+00 0.9000E+01
#aMCatNLO 1  0  0  1  1 0.12581582D+03 0.00000000D+00  -5  7  0 0.00000000D+00 0.00000000D+00 0.00000000D+00 0.00000000D+00 0.00000000D+00
  <mgrwgt>
 0.1213025263D-02    3    2    0
 0.307965060613220D+03 0.000000000000000D+00 0.000000000000000D+00 0.307965060613220D+03
 0.307965060613220D+03 0.000000000000000D+00 0.000000000000000D+00 -.307965060613220D+03
 0.239830192896955D+03 0.744286555644811D+02 0.211932686615362D+03 0.244175560914420D+02
 0.303553238931973D+02 -.275922919640092D+02 -.510264630796329D+01 -.115790376754556D+02
 0.871143185389824D+02 0.799392961385606D+02 -.181807001061196D+01 -.345732273416776D+02
 0.258630285897306D+03 -.126775659739033D+03 -.205011970296787D+03 0.217347089256912D+02
 0.000000000000000D+00 -.000000000000000D+00 -.000000000000000D+00 -.000000000000000D+00
 0.328563919992318D+03 0.000000000000000D+00 0.000000000000000D+00 0.328563919992318D+03
 0.592243257393897D+03 0.000000000000000D+00 0.000000000000000D+00 -.592243257393897D+03
 0.260746837710282D+03 0.125024658448556D+03 0.212824611255101D+03 0.244175560914420D+02
 0.253283929009978D+02 -.219640403199067D+02 -.500342945220639D+01 -.115790376754556D+02
 0.105233303588299D+03 0.993809010242089D+02 -.147534636753478D+01 -.345732273416776D+02
 0.237340442274387D+03 -.766452405255285D+02 -.204128253134398D+03 0.217347089256912D+02
 0.292158200912250D+03 -.125796278627330D+03 -.221758230096203D+01 -.263679337401579D+03
0.225543398951D-04 0.000000000000D+00 0.000000000000D+00 0.226173753696D-06 0.000000000000D+00  7 1 -2 -24 -13 13 23 21 0 0.86881576D-01 0.25837381D-01 0.91300504D+05 0.91300504D+05 0.91300504D+05 0.11249802D+01  1  2  2  1  7  1        1 0.119729256043D-02 0.100000000000D+01
-.125246713422D-05 0.000000000000D+00 -.866146038911D-07 0.226173753696D-06 0.000000000000D+00  7 1 -2 -24 -13 13 23 21 2 0.86881576D-01 0.25837381D-01 0.91300504D+05 0.91300504D+05 0.91300504D+05 0.11249802D+01  1  2  3  1  7  1        1 -.841445986578D-04 0.100000000000D+01
0.148664369718D-05 0.000000000000D+00 0.000000000000D+00 0.226173753696D-06 0.000000000000D+00  7 1 -2 -24 -13 13 23 21 2 0.86881576D-01 0.25837381D-01 0.91300504D+05 0.91300504D+05 0.91300504D+05 0.11249802D+01  1  2 15  1  7  1        1 0.998773012309D-04 0.100000000000D+01
  </mgrwgt>
  </event>
  <event>
  8     66 0.29493621E-05 0.49013079E+03 0.75467711E-02 0.94455778E-01
        1 -1    0    0  501    0 0.00000000E+00 0.00000000E+00 0.15603709E+03 0.15603741E+03 0.32000000E+00 0.0000E+00 0.9000E+01
       -2 -1    0    0    0  501 0.00000000E+00 0.00000000E+00 -.16885057E+04 0.16885057E+04 0.32000000E+00 0.0000E+00 0.9000E+01
       25  2    1    2    0    0 0.38637193E+03 -.26004317E+03 -.82905959E+03 0.99710159E+03 0.29994343E+03 0.0000E+00 0.0000E+00
       23  2    3    3    0    0 0.49500104E+02 -.54415937E+02 -.67775851E+02 0.13475980E+03 0.90306604E+02 0.0000E+00 0.0000E+00
      -24  1    1    2    0    0 -.38637193E+03 0.26004317E+03 -.70340901E+03 0.84744154E+03 0.80419002E+02 0.0000E+00 0.9000E+01
      -11  1    4    4    0    0 -.46358996E+00 -.52569864E+02 -.26276558E+01 0.52637535E+02 0.51099893E-03 0.0000E+00 0.9000E+01
       11  1    4    4    0    0 0.49963694E+02 -.18460724E+01 -.65148195E+02 0.82122263E+02 0.51099893E-03 0.0000E+00 0.9000E+01
       23  1    3    3    0    0 0.33687182E+03 -.20562723E+03 -.76128374E+03 0.86234179E+03 0.91188000E+02 0.0000E+00 0.9000E+01
#aMCatNLO 1  0  0  2  1 0.33542057D+02 0.00000000D+00  -5  7  0 0.00000000D+00 0.00000000D+00 0.00000000D+00 0.00000000D+00 0.00000000D+00
  <mgrwgt>
 0.8341591901D-03    4    2    0
 0.513293130691998D+03 0.000000000000000D+00 0.000000000000000D+00 0.513293130691998D+03
 0.513293130691998D+03 0.000000000000000D+00 0.000000000000000D+00 -.513293130691998D+03
 0.472624923396520D+03 -.386371927205451D+03 0.260043166605546D+03 0.117797729236242D+01
 0.906552206149760D+02 -.463589958518966D+00 -.525698643017107D+02 0.738550165960313D+02
 0.503031206000304D+02 0.499636943028466D+02 -.184607242786340D+01 0.553400490639235D+01
 0.413002996772470D+03 0.336871822861124D+03 -.205627229875972D+03 -.805669987947861D+02
 0.000000000000000D+00 -.000000000000000D+00 0.000000000000000D+00 0.000000000000000D+00
 0.612870834845855D+03 0.000000000000000D+00 0.000000000000000D+00 0.612870834845855D+03
 0.516399434018867D+03 0.000000000000000D+00 0.000000000000000D+00 -.516399434018867D+03
 0.457908245160134D+03 -.372443211400430D+03 0.253963406187775D+03 0.117797729236242D+01
 0.913768424857704D+02 0.226116286062540D+01 -.537591946441440D+02 0.738550165960313D+02
 0.518502589913311D+02 0.514927804664893D+02 -.251350492223048D+01 0.553400490639235D+01
 0.425998734984702D+03 0.349430447396446D+03 -.211108957654779D+03 -.805669987947861D+02
 0.102136187242784D+03 -.307411793231311D+02 0.134182510333782D+02 0.964714008269876D+02
0.760914094330D-03 0.000000000000D+00 0.000000000000D+00 0.914007390017D-05 0.000000000000D+00  7 1 -2 -24 -11 11 23 21 0 0.24005733D-01 0.25977013D+00 0.24022819D+06 0.24022819D+06 0.24022819D+06 0.10917642D+01  1  2  2  2  7  2       -2 0.907024222336D-03 0.100000000000D+01
-.421634192924D-04 0.000000000000D+00 -.292211047551D-05 0.914007390017D-05 0.000000000000D+00  7 1 -2 -24 -11 11 23 21 2 0.24005733D-01 0.25977013D+00 0.24022819D+06 0.24022819D+06 0.24022819D+06 0.10917642D+01  1  2  3  2  7  2       -2 -.599068886038D-04 0.100000000000D+01
0.485398610706D-04 0.000000000000D+00 0.000000000000D+00 0.914007390017D-05 0.000000000000D+00  7 1 -2 -24 -11 11 23 21 2 0.24005733D-01 0.25977013D+00 0.24022819D+06 0.24022819D+06 0.24022819D+06 0.10917642D+01  1  2 15  2  7  2       -2 0.689667038110D-04 0.100000000000D+01
-.576600083024D-04 0.000000000000D+00 0.000000000000D+00 0.914007390017D-05 0.000000000000D+00  7 1 -2 -24 -11 11 23 21 2 0.24005733D-01 0.25977013D+00 0.24022819D+06 0.24022819D+06 0.24022819D+06 0.10917642D+01  1  2  4  2  7  2       -2 -.819248474682D-04 0.100000000000D+01
  </mgrwgt>
  </event>
  <event>
  8     66 0.29493621E-05 0.21805667E+03 0.75467711E-02 0.96710074E-01
        1 -1    0    0  501    0 0.00000000E+00 0.00000000E+00 0.99588035E+03 0.99588041E+03 0.32000000E+00 0.0000E+00 0.9000E+01
       -2 -1    0    0    0  501 0.00000000E+00 0.00000000E+00 -.30415420E+03 0.30415437E+03 0.32000000E+00 0.0000E+00 0.9000E+01
       25  2    1    2    0    0 0.13405936E+03 0.25239904E+03 0.86286449E+03 0.95735018E+03 0.30051133E+03 0.0000E+00 0.0000E+00
       23  2    3    3    0    0 0.16889656E+03 0.82911524E+02 0.34489335E+03 0.40368151E+03 0.92773750E+02 0.0000E+00 0.0000E+00
      -24  1    1    2    0    0 -.13405936E+03 -.25239904E+03 -.17113834E+03 0.34268460E+03 0.80419002E+02 0.0000E+00 0.9000E+01
      -11  1    4    4    0    0 0.16427637E+03 0.95694727E+02 0.28731218E+03 0.34451777E+03 0.51099893E-03 0.0000E+00 0.9000E+01
       11  1    4    4    0    0 0.46201898E+01 -.12783203E+02 0.57581175E+02 0.59163740E+02 0.51099893E-03 0.0000E+00 0.9000E+01
       23  1    3    3    0    0 -.34837200E+02 0.16948751E+03 0.51797113E+03 0.55366867E+03 0.91188000E+02 0.0000E+00 0.9000E+01
#aMCatNLO 1  0  0  2  1 0.13914947D+03 0.00000000D+00  -5  7  0 0.00000000D+00 0.00000000D+00 0.00000000D+00 0.00000000D+00 0.00000000D+00
  <mgrwgt>
 0.1506225263D-02    9    2    0
 0.550364732806281D+03 0.000000000000000D+00 0.000000000000000D+00 0.550364732806281D+03
 0.550364732806281D+03 0.000000000000000D+00 0.000000000000000D+00 -.550364732806281D+03
 0.512280968141656D+03 -.134059363486789D+03 -.252399037341012D+03 -.417477409420712D+03
 0.226344206922612D+03 0.164276373687076D+03 0.956947269800940D+02 0.122831153555829D+03
 0.336908536039030D+02 0.462018976143748D+01 -.127832033734847D+02 0.308272148375434D+02
 0.328413436944391D+03 -.348371999617253D+02 0.169487513734403D+03 0.263819041027339D+03
 0.000000000000000D+00 0.000000000000000D+00 -.000000000000000D+00 -.000000000000000D+00
 0.603996169722790D+03 0.000000000000000D+00 0.000000000000000D+00 0.603996169722790D+03
 0.653029759673604D+03 0.000000000000000D+00 0.000000000000000D+00 -.653029759673604D+03
 0.485151980916861D+03 -.136563086933902D+03 -.189653274539721D+03 -.417477409420712D+03
 0.239405324130289D+03 0.163107264502865D+03 0.124993748661544D+03 0.122831153555829D+03
 0.323209924585484D+02 0.445448899234839D+01 -.863057974197191D+01 0.308272148375434D+02
 0.352611644375815D+03 -.365466867656084D+02 0.212328928041583D+03 0.263819041027339D+03
 0.147535987514880D+03 0.554802020429681D+01 -.139038822421434D+03 -.490335899508142D+02
0.159610321106D-03 0.000000000000D+00 0.000000000000D+00 0.516798172656D-05 0.000000000000D+00  7 1 -2 -24 -11 11 23 21 0 0.15321238D+00 0.46792971D-01 0.12116966D+06 0.12116966D+06 0.12116966D+06 0.11149422D+01  1  2  2  2  7  2       -2 0.119221201776D-02 0.100000000000D+01
-.660465349851D-05 0.000000000000D+00 -.612945659409D-06 0.516798172656D-05 0.000000000000D+00  7 1 -2 -24 -11 11 23 21 2 0.15321238D+00 0.46792971D-01 0.12116966D+06 0.12116966D+06 0.12116966D+06 0.11149422D+01  1  2  3  2  7  2       -2 -.613263695399D-04 0.100000000000D+01
0.100444926075D-04 0.000000000000D+00 0.000000000000D+00 0.516798172656D-05 0.000000000000D+00  7 1 -2 -24 -11 11 23 21 2 0.15321238D+00 0.46792971D-01 0.12116966D+06 0.12116966D+06 0.12116966D+06 0.11149422D+01  1  2 15  2  7  2       -2 0.932664015798D-04 0.100000000000D+01
0.119453295269D-03 0.000000000000D+00 0.000000000000D+00 0.516798172656D-05 0.000000000000D+00  7 1 -2 -24 -11 11 23 21 2 0.15321238D+00 0.57464659D-01 0.17449954D+06 0.17449954D+06 0.17449954D+06 0.11024040D+01  1  2 12  2  7  2       -2 0.711515825862D-03 0.100000000000D+01
-.140064660909D-03 0.000000000000D+00 0.000000000000D+00 0.516798172656D-05 0.000000000000D+00  7 1 -2 -24 -11 11 23 21 2 0.15321238D+00 0.46792971D-01 0.12116966D+06 0.12116966D+06 0.12116966D+06 0.11149422D+01  1  2  4  2  7  2       -2 -.130054622189D-02 0.100000000000D+01
-.232328462215D-03 0.000000000000D+00 -.921980410651D-04 0.516798172656D-05 0.000000000000D+00  7 1 -2 -24 -11 11 23 21 2 0.15321238D+00 0.60307021D-01 0.12116966D+06 0.12116966D+06 0.12116966D+06 0.11149422D+01  1  2  5  2  7  2       -2 -.130061827751D-02 0.100000000000D+01
0.250504417154D-03 0.000000000000D+00 0.893081360790D-04 0.516798172656D-05 0.000000000000D+00  7 1 -2 -24 -11 11 23 21 2 0.15321238D+00 0.46792971D-01 0.12116966D+06 0.12116966D+06 0.12116966D+06 0.11149422D+01  1  2  6  2  7  2       -2 0.232601550728D-02 0.100000000000D+01
0.348924458297D-05 0.000000000000D+00 0.000000000000D+00 0.516798172656D-05 0.000000000000D+00  7 1 21 -24 -11 11 23 2 2 0.15321238D+00 0.57464659D-01 0.17449954D+06 0.17449954D+06 0.17449954D+06 0.11024040D+01  1  2 12  4  7  2       -2 0.214700100829D-03 0.100000000000D+01
-.636582858840D-05 0.000000000000D+00 -.315438633009D-05 0.516798172656D-05 0.000000000000D+00  7 1 21 -24 -11 11 23 2 2 0.15321238D+00 0.60307021D-01 0.12116966D+06 0.12116966D+06 0.12116966D+06 0.11149422D+01  1  2  5  4  7  2       -2 -.368993721049D-03 0.100000000000D+01
  </mgrwgt>
  </event>
  <event>
  8     66 0.29493621E-05 0.35360697E+03 0.75467711E-02 0.82682271E-01
        3 -1    0    0  501    0 0.00000000E+00 0.00000000E+00 0.27302912E+03 0.27302958E+03 0.50000000E+00 0.0000E+00 0.9000E+01
       -4 -1    0    0    0  501 0.00000000E+00 0.00000000E+00 -.73033500E+03 0.73033665E+03 0.15500000E+01 0.0000E+00 0.9000E+01
       25  2    1    2    0    0 0.28685105E+03 0.13769930E+03 0.38698528E+01 0.43733187E+03 0.29999929E+03 0.0000E+00 0.0000E+00
       23  2    3    3    0    0 0.17581149E+02 0.74295379E+02 -.60544178E+02 0.13901869E+03 0.99154927E+02 0.0000E+00 0.0000E+00
      -24  1    1    2    0    0 -.28685105E+03 -.13769930E+03 -.46117573E+03 0.56603435E+03 0.80419002E+02 0.0000E+00 0.9000E+01
      -13  1    4    4    0    0 0.31591041E+02 0.42124511E+02 0.15819183E+02 0.54979323E+02 0.10565837E+00 0.0000E+00 0.9000E+01
       13  1    4    4    0    0 -.14009892E+02 0.32170868E+02 -.76363360E+02 0.84039370E+02 0.10565837E+00 0.0000E+00 0.9000E+01
       23  1    3    3    0    0 0.26926990E+03 0.63403925E+02 0.64414031E+02 0.29831318E+03 0.91188000E+02 0.0000E+00 0.9000E+01
#aMCatNLO 1  0  0  1  1 0.16262497D+04 0.00000000D+00  -5  7  0 0.00000000D+00 0.00000000D+00 0.00000000D+00 0.00000000D+00 0.00000000D+00
  <mgrwgt>
 0.1605808223D-03    5    2    0
 0.446546505005896D+03 0.000000000000000D+00 0.000000000000000D+00 0.446546505005896D+03
 0.446546505005896D+03 0.000000000000000D+00 0.000000000000000D+00 -.446546505005896D+03
 0.399780740018540D+03 -.286851046185477D+03 -.137699303890195D+03 -.228282288287668D+03
 0.698679804934217D+02 0.315910841747063D+02 0.421245192306588D+02 0.459245356915194D+02
 0.553143257918636D+02 -.140099449688032D+02 0.321708582154826D+02 -.427601679306671D+02
 0.368129963707967D+03 0.269269906979573D+03 0.634039264440537D+02 0.225117920526816D+03
 0.000000000000000D+00 0.000000000000000D+00 0.000000000000000D+00 0.000000000000000D+00
 0.352649119588183D+04 0.000000000000000D+00 0.000000000000000D+00 0.352649119588183D+04
 0.118208472976418D+04 0.000000000000000D+00 0.000000000000000D+00 -.118208472976418D+04
 0.133232966266137D+04 -.865357972403299D+03 -.983706201314794D+03 -.228282288287668D+03
 0.493586881234776D+02 -.822938770632282D+01 -.161088265484520D+02 0.459245356915194D+02
 0.809559227317893D+02 -.595227959316442D+02 -.343870066795066D+02 -.427601679306671D+02
 0.392700205327429D+03 0.151605143095315D+02 -.308204932769996D+03 0.225117920526816D+03
 0.285323144680194D+04 0.917949641731734D+03 0.134240696731275D+04 0.234440646611766D+04
0.174311653175D-03 0.000000000000D+00 0.000000000000D+00 0.323467324578D-06 0.000000000000D+00  7 3 -4 -24 -13 13 23 21 0 0.42004642D-01 0.11235939D+00 0.12503789D+06 0.12503789D+06 0.12503789D+06 0.11138446D+01  1  2  2  1  7  1        3 0.158094365672D-03 0.100000000000D+01
-.904280227844D-05 0.000000000000D+00 -.669402645505D-06 0.323467324578D-06 0.000000000000D+00  7 3 -4 -24 -13 13 23 21 2 0.42004642D-01 0.11235939D+00 0.12503789D+06 0.12503789D+06 0.12503789D+06 0.11138446D+01  1  2  3  1  7  1        3 -.101751824001D-04 0.100000000000D+01
0.110300867083D-04 0.000000000000D+00 0.000000000000D+00 0.323467324578D-06 0.000000000000D+00  7 3 -4 -24 -13 13 23 21 2 0.42004642D-01 0.11235939D+00 0.12503789D+06 0.12503789D+06 0.12503789D+06 0.11138446D+01  1  2 15  1  7  1        3 0.124113234692D-04 0.100000000000D+01
0.325530807455D-03 0.000000000000D+00 -.154387851035D-03 0.323467324578D-06 0.000000000000D+00  7 3 -4 -24 -13 13 23 21 2 0.50984418D+00 0.11235939D+00 0.12503789D+06 0.12503789D+06 0.12503789D+06 0.11138446D+01  1  2  5  1  7  1        3 0.106052555096D-06 0.100000000000D+01
0.649585444294D-04 0.000000000000D+00 -.447890431085D-04 0.323467324578D-06 0.000000000000D+00  7 21 -4 -24 -13 13 23 -3 2 0.50984418D+00 0.11235939D+00 0.12503789D+06 0.12503789D+06 0.12503789D+06 0.11138446D+01  1  2  5  3  7  1        3 0.144263027237D-06 0.100000000000D+01
  </mgrwgt>
  </event>
  <event>
  8     66 0.29493621E-05 0.11260566E+03 0.75467711E-02 0.10570431E+00
        1 -1    0    0  501    0 0.00000000E+00 0.00000000E+00 0.23175759E+04 0.23175759E+04 0.32000000E+00 0.0000E+00 0.9000E+01
       -2 -1    0    0    0  501 0.00000000E+00 0.00000000E+00 -.57864926E+02 0.57865811E+02 0.32000000E+00 0.0000E+00 0.9000E+01
       25  2    1    2    0    0 0.13526271E+03 -.44060714E+02 0.21570156E+04 0.21824368E+04 0.30012792E+03 0.0000E+00 0.0000E+00
       23  2    3    3    0    0 0.32246169E+02 -.33988743E+02 0.24780992E+03 0.26825410E+03 0.91408181E+02 0.0000E+00 0.0000E+00
      -24  1    1    2    0    0 -.13526271E+03 0.44060714E+02 0.10269539E+03 0.19300494E+03 0.80419002E+02 0.0000E+00 0.9000E+01
      -13  1    4    4    0    0 0.63249451E+02 -.24641487E+02 0.19304920E+03 0.20463553E+03 0.10565837E+00 0.0000E+00 0.9000E+01
       13  1    4    4    0    0 -.31003282E+02 -.93472560E+01 0.54760725E+02 0.63618573E+02 0.10565837E+00 0.0000E+00 0.9000E+01
       23  1    3    3    0    0 0.10301654E+03 -.10071972E+02 0.19092057E+04 0.19141827E+04 0.91188000E+02 0.0000E+00 0.9000E+01
#aMCatNLO 1  0  0  2  1 0.16427436D+02 0.00000000D+00  -5  7  0 0.00000000D+00 0.00000000D+00 0.00000000D+00 0.00000000D+00 0.00000000D+00
  <mgrwgt>
 0.1052157293D-02    6    2    0
 0.366206821389390D+03 0.000000000000000D+00 0.000000000000000D+00 0.366206821389390D+03
 0.366206821389390D+03 0.000000000000000D+00 0.000000000000000D+00 -.366206821389390D+03
 0.309128727510664D+03 -.135262714059064D+03 0.440607143547376D+02 -.262404279412357D+03
 0.680823141272096D+02 0.632495767995597D+02 -.246415070619475D+02 -.524296302758581D+01
 0.373815708253183D+02 -.310034076461966D+02 -.934723561923608D+01 -.186761810328163D+02
 0.317821030315588D+03 0.103016544905701D+03 -.100719716735541D+02 0.286323423472759D+03
 0.000000000000000D+00 0.000000000000000D+00 0.000000000000000D+00 0.000000000000000D+00
 0.376700211196931D+03 0.000000000000000D+00 0.000000000000000D+00 0.376700211196931D+03
 0.372785154715311D+03 0.000000000000000D+00 0.000000000000000D+00 -.372785154715311D+03
 0.310133571688252D+03 -.139239021551257D+03 0.383680251938049D+02 -.262404279412357D+03
 0.677401794920913D+02 0.623774552451145D+02 -.258900817583849D+02 -.524296302758581D+01
 0.379610448123883D+02 -.314871855339013D+02 -.100398372711563D+02 -.186761810328163D+02
 0.316763050558430D+03 0.989418556529085D+02 -.159055092933399D+02 0.286323423472759D+03
 0.168875193610801D+02 0.940689618713486D+01 0.134674031290763D+02 0.391505648161943D+01
0.351828636890D-04 0.000000000000D+00 0.000000000000D+00 0.695383280674D-05 0.000000000000D+00  7 1 -2 -24 -13 13 23 21 0 0.35655021D+00 0.89023661D-02 0.40325316D+05 0.40325316D+05 0.40325316D+05 0.11556019D+01  1  2  2  2  7  2       -2 0.571926810633D-03 0.100000000000D+01
-.109668769559D-05 0.000000000000D+00 -.135111460427D-06 0.695383280674D-05 0.000000000000D+00  7 1 -2 -24 -13 13 23 21 2 0.35655021D+00 0.89023661D-02 0.40325316D+05 0.40325316D+05 0.40325316D+05 0.11556019D+01  1  2  3  2  7  2       -2 -.238072211462D-04 0.100000000000D+01
0.220795891368D-05 0.000000000000D+00 0.000000000000D+00 0.695383280674D-05 0.000000000000D+00  7 1 -2 -24 -13 13 23 21 2 0.35655021D+00 0.89023661D-02 0.40325316D+05 0.40325316D+05 0.40325316D+05 0.11556019D+01  1  2 15  2  7  2       -2 0.479310257162D-04 0.100000000000D+01
0.392172556128D-04 0.000000000000D+00 0.000000000000D+00 0.695383280674D-05 0.000000000000D+00  7 1 -2 -24 -13 13 23 21 2 0.35655021D+00 0.91869236D-02 0.43641811D+05 0.43641811D+05 0.43641811D+05 0.11525274D+01  1  2 12  2  7  2       -2 0.805317289323D-03 0.100000000000D+01
-.239186568489D-04 0.000000000000D+00 0.000000000000D+00 0.695383280674D-05 0.000000000000D+00  7 1 -2 -24 -13 13 23 21 2 0.35655021D+00 0.89023661D-02 0.40325316D+05 0.40325316D+05 0.40325316D+05 0.11556019D+01  1  2  4  2  7  2       -2 -.519233283472D-03 0.100000000000D+01
0.550399760052D-06 0.000000000000D+00 0.000000000000D+00 0.695383280674D-05 0.000000000000D+00  7 1 21 -24 -13 13 23 2 2 0.35655021D+00 0.91869236D-02 0.43641811D+05 0.43641811D+05 0.43641811D+05 0.11525274D+01  1  2 12  4  7  2       -2 0.170022672415D-03 0.100000000000D+01
  </mgrwgt>
  </event>
  <event>
  8     66 0.29493621E-05 0.86929212E+02 0.75467711E-02 0.10318974E+00
        1 -1    0    0  501    0 0.00000000E+00 0.00000000E+00 0.26807709E+03 0.26807728E+03 0.32000000E+00 0.0000E+00 0.9000E+01
       -2 -1    0    0    0  501 0.00000000E+00 0.00000000E+00 -.28277430E+03 0.28277448E+03 0.32000000E+00 0.0000E+00 0.9000E+01
       25  2    1    2    0    0 -.96136749E+02 -.12168805E+03 0.74747323E+02 0.35459224E+03 0.30999716E+03 0.0000E+00 0.0000E+00
       23  2    3    3    0    0 -.57733195E+02 -.18305780E+03 -.73956759E+01 0.21210083E+03 0.89937685E+02 0.0000E+00 0.0000E+00
      -24  1    1    2    0    0 0.96136749E+02 0.12168805E+03 -.89444534E+02 0.19625951E+03 0.80419002E+02 0.0000E+00 0.9000E+01
      -13  1    4    4    0    0 -.39866898E+02 -.16858087E+03 0.22171675E+02 0.17464385E+03 0.10565837E+00 0.0000E+00 0.9000E+01
       13  1    4    4    0    0 -.17866297E+02 -.14476924E+02 -.29567351E+02 0.37456979E+02 0.10565837E+00 0.0000E+00 0.9000E+01
       23  1    3    3    0    0 -.38403554E+02 0.61369748E+02 0.82142999E+02 0.14249141E+03 0.91188000E+02 0.0000E+00 0.9000E+01
#aMCatNLO 1  0  0  2  1 0.13649138D+02 0.00000000D+00  -5  7  0 0.00000000D+00 0.00000000D+00 0.00000000D+00 0.00000000D+00 0.00000000D+00
  <mgrwgt>
 0.8038587910D-03    9    2    0
 0.275327826418139D+03 0.000000000000000D+00 0.000000000000000D+00 0.275327826418139D+03
 0.275327826418139D+03 0.000000000000000D+00 0.000000000000000D+00 -.275327826418139D+03
 0.193942481571189D+03 0.961369797192831D+02 0.121688340300305D+03 -.842383473783274D+02
 0.175297935121375D+03 -.398670262022572D+02 -.168580954322864D+03 0.268411646393914D+02
 0.366808842545306D+02 -.178662928508629D+02 -.144766313010795D+02 -.285781384214243D+02
 0.144734351889183D+03 -.384036606661630D+02 0.613692453236385D+02 0.859753211603603D+02
 0.000000000000000D+00 -.000000000000000D+00 0.000000000000000D+00 -.000000000000000D+00
 0.280696668941116D+03 0.000000000000000D+00 0.000000000000000D+00 0.280696668941116D+03
 0.284226231905266D+03 0.000000000000000D+00 0.000000000000000D+00 -.284226231905266D+03
 0.195934337308515D+03 0.100919602287290D+03 0.121004889518150D+03 -.842383473783274D+02
 0.174964662442623D+03 -.355703516560456D+02 -.169194961708460D+03 0.268411646393914D+02
 0.363045142087975D+02 -.169709802882214D+02 -.146045740903148D+02 -.285781384214243D+02
 0.143621273948384D+03 -.348663995186411D+02 0.608637603384480D+02 0.859753211603603D+02
 0.140981129380633D+02 -.135118708243822D+02 0.193088594217711D+01 -.352956296414999D+01
0.825496184108D-05 0.000000000000D+00 0.000000000000D+00 0.422062250307D-08 0.000000000000D+00  7 1 -2 -24 -13 13 23 21 0 0.41242657D-01 0.43503767D-01 0.59377565D+05 0.59377565D+05 0.59377565D+05 0.11407863D+01  1  2  2  2  7  2       -2 0.468470267761D-03 0.100000000000D+01
-.450292412027D-06 0.000000000000D+00 -.317012270511D-07 0.422062250307D-08 0.000000000000D+00  7 1 -2 -24 -13 13 23 21 2 0.41242657D-01 0.43503767D-01 0.59377565D+05 0.59377565D+05 0.59377565D+05 0.11407863D+01  1  2  3  2  7  2       -2 -.332560147099D-04 0.100000000000D+01
0.525492101334D-06 0.000000000000D+00 0.000000000000D+00 0.422062250307D-08 0.000000000000D+00  7 1 -2 -24 -13 13 23 21 2 0.41242657D-01 0.43503767D-01 0.59377565D+05 0.59377565D+05 0.59377565D+05 0.11407863D+01  1  2 15  2  7  2       -2 0.388098324224D-04 0.100000000000D+01
0.174150141057D-04 0.000000000000D+00 0.000000000000D+00 0.422062250307D-08 0.000000000000D+00  7 1 -2 -24 -13 13 23 21 2 0.41242657D-01 0.45322898D-01 0.62719946D+05 0.62719946D+05 0.62719946D+05 0.11387364D+01  1  2 12  2  7  2       -2 0.118556080066D-02 0.100000000000D+01
-.155804838363D-04 0.000000000000D+00 0.000000000000D+00 0.422062250307D-08 0.000000000000D+00  7 1 -2 -24 -13 13 23 21 2 0.41242657D-01 0.43503767D-01 0.59377565D+05 0.59377565D+05 0.59377565D+05 0.11407863D+01  1  2  4  2  7  2       -2 -.115068516770D-02 0.100000000000D+01
-.139548367789D-03 0.000000000000D+00 -.217473361699D-04 0.422062250307D-08 0.000000000000D+00  7 1 -2 -24 -13 13 23 21 2 0.41242657D-01 0.45688406D-01 0.59377565D+05 0.59377565D+05 0.59377565D+05 0.11407863D+01  1  2  5  2  7  2       -2 -.939223832030D-02 0.100000000000D+01
0.140471352308D-03 0.000000000000D+00 0.217212577201D-04 0.422062250307D-08 0.000000000000D+00  7 1 -2 -24 -13 13 23 21 2 0.41242657D-01 0.43503767D-01 0.59377565D+05 0.59377565D+05 0.59377565D+05 0.11407863D+01  1  2  6  2  7  2       -2 0.103744083486D-01 0.100000000000D+01
0.253496553072D-06 0.000000000000D+00 0.000000000000D+00 0.422062250307D-08 0.000000000000D+00  7 1 21 -24 -13 13 23 2 2 0.41242657D-01 0.45322898D-01 0.62719946D+05 0.62719946D+05 0.62719946D+05 0.11387364D+01  1  2 12  4  7  2       -2 0.191880332663D-03 0.100000000000D+01
-.117447014844D-05 0.000000000000D+00 -.185898004692D-06 0.422062250307D-08 0.000000000000D+00  7 1 21 -24 -13 13 23 2 2 0.41242657D-01 0.45688406D-01 0.59377565D+05 0.59377565D+05 0.59377565D+05 0.11407863D+01  1  2  5  4  7  2       -2 -.879091288419D-03 0.100000000000D+01
  </mgrwgt>
  </event>
  <event>
  9     66 -.29493621E-05 0.18917396E+03 0.75467711E-02 0.10550818E+00
        1 -1    0    0  502    0 0.00000000E+00 0.00000000E+00 0.15259750E+03 0.15259783E+03 0.32000000E+00 0.0000E+00 0.9000E+01
       -2 -1    0    0    0  501 0.00000000E+00 0.00000000E+00 -.50822877E+03 0.50822887E+03 0.32000000E+00 0.0000E+00 0.9000E+01
       25  2    1    2    0    0 0.21944598E+02 0.49095018E+02 -.58555817E+02 0.31053547E+03 0.30018595E+03 0.0000E+00 0.0000E+00
       23  2    3    3    0    0 0.76783464E+02 -.74342279E+02 -.12559030E+02 0.14119846E+03 0.91415536E+02 0.0000E+00 0.0000E+00
      -24  1    1    2    0    0 0.10388628E+02 -.70267958E+02 -.29226335E+03 0.31133678E+03 0.80419002E+02 0.0000E+00 0.9000E+01
      -11  1    4    4    0    0 0.69047394E+02 -.40609149E+02 0.30711822E+02 0.85789636E+02 0.51099893E-03 0.0000E+00 0.9000E+01
       11  1    4    4    0    0 0.77360704E+01 -.33733130E+02 -.43270852E+02 0.55408822E+02 0.51099893E-03 0.0000E+00 0.9000E+01
       23  1    3    3    0    0 -.54838867E+02 0.12343730E+03 -.45996787E+02 0.16933701E+03 0.91188000E+02 0.0000E+00 0.9000E+01
       21  1    1    2  502  501 -.32333226E+02 0.21172940E+02 -.48121068E+01 0.38954457E+02 0.75000000E+00 0.0000E+00 0.9000E+01
#aMCatNLO 2  0  0  1  2 0.38648815D+02 0.00000000D+00  -5  7  0 0.00000000D+00 0.00000000D+00 0.00000000D+00 0.00000000D+00 0.00000000D+00
  <mgrwgt>
 -.8277786509D-04    2    2    0
 0.256006482733501D+03 0.000000000000000D+00 0.000000000000000D+00 0.256006482733501D+03
 0.256006482733501D+03 0.000000000000000D+00 0.000000000000000D+00 -.256006482733501D+03
 0.174324575117498D+03 -.700589661808639D+00 -.630063455584941D+02 -.141249959748720D+03
 0.119200399250250D+03 0.613514479616949D+02 -.355695713137326D+02 0.958099191680060D+02
 0.357658961982040D+02 0.542467167666450D+01 -.322195447053537D+02 -.145489933342761D+02
 0.182722094901050D+03 -.660755299765508D+02 0.130795461577580D+03 0.599890339149900D+02
 0.000000000000000D+00 -.000000000000000D+00 0.000000000000000D+00 0.000000000000000D+00
 0.289070197318169D+03 0.000000000000000D+00 0.000000000000000D+00 0.289070197318169D+03
 0.268283513565978D+03 0.000000000000000D+00 0.000000000000000D+00 -.268283513565978D+03
 0.177381725478314D+03 0.103886281796246D+02 -.702679575256307D+02 -.141249959748720D+03
 0.124884691710805D+03 0.690473940989346D+02 -.406091489798698D+02 0.958099191680060D+02
 0.375425634581763D+02 0.773607035610915D+01 -.337331302937589D+02 -.145489933342761D+02
 0.173660597507361D+03 -.548388665891209D+02 0.123437297053120D+03 0.599890339149900D+02
 0.438841327294924D+02 -.323332260455475D+02 0.211729397461393D+02 0.207866837521909D+02
-.223623970202D-04 0.000000000000D+00 0.000000000000D+00 0.235882614407D-05 0.000000000000D+00  7 1 -2 -24 -11 11 23 21 2 0.23927755D-01 0.74610160D-01 0.44865441D+05 0.44865441D+05 0.44865441D+05 0.11514577D+01  1  2 13  1  7  1        1 -.114581689141D-02 0.100000000000D+01
0.224196064463D-04 0.000000000000D+00 0.000000000000D+00 0.235882614407D-05 0.112506383120D-07  7 1 -2 -24 -11 11 23 21 2 0.23476297D-01 0.78188161D-01 0.44865441D+05 0.44865441D+05 0.44865441D+05 0.11514577D+01  1  2  1  1  7  1        1 0.106303902632D-02 0.100000000000D+01
  </mgrwgt>
  </event>
  <event>
  8     66 0.29493621E-05 0.79369079E+03 0.75467711E-02 0.87052490E-01
        1 -1    0    0  501    0 0.00000000E+00 0.00000000E+00 0.27035208E+04 0.27035208E+04 0.32000000E+00 0.0000E+00 0.9000E+01
       -2 -1    0    0    0  501 0.00000000E+00 0.00000000E+00 -.31666054E+03 0.31666070E+03 0.32000000E+00 0.0000E+00 0.9000E+01
       25  2    1    2    0    0 0.17469799E+03 0.76267561E+03 0.19455265E+04 0.21182746E+04 0.29969998E+03 0.0000E+00 0.0000E+00
       23  2    3    3    0    0 0.11167148E+03 0.49975676E+03 0.15149808E+04 0.16017636E+04 0.90843358E+02 0.0000E+00 0.0000E+00
      -24  1    1    2    0    0 -.17469799E+03 -.76267561E+03 0.44133367E+03 0.90190693E+03 0.80419002E+02 0.0000E+00 0.9000E+01
      -13  1    4    4    0    0 0.11896514E+03 0.47653211E+03 0.14781541E+04 0.15576184E+04 0.10565837E+00 0.0000E+00 0.9000E+01
       13  1    4    4    0    0 -.72936600E+01 0.23224656E+02 0.36826681E+02 0.44145189E+02 0.10565837E+00 0.0000E+00 0.9000E+01
       23  1    3    3    0    0 0.63026504E+02 0.26291885E+03 0.43054575E+03 0.51651095E+03 0.91188000E+02 0.0000E+00 0.9000E+01
#aMCatNLO 1  0  0  1  2 0.42784532D+03 0.00000000D+00  -5  7  0 0.00000000D+00 0.00000000D+00 0.00000000D+00 0.00000000D+00 0.00000000D+00
  <mgrwgt>
 0.1610232207D-02    3    2    0
 0.925255977324412D+03 0.000000000000000D+00 0.000000000000000D+00 0.925255977324412D+03
 0.925255977324412D+03 0.000000000000000D+00 0.000000000000000D+00 -.925255977324412D+03
 0.902734408574680D+03 -.174697986777171D+03 -.762675613372802D+03 -.443022255256697D+03
 0.635577950386370D+03 0.118965313338435D+03 0.476532719763324D+03 0.403389578738218D+03
 0.245471599648996D+02 -.729383083681062D+01 0.232240425516674D+02 0.316337503699730D+01
 0.287652435722874D+03 0.630265042755461D+02 0.262918851057811D+03 0.364693014814820D+02
 0.000000000000000D+00 -.000000000000000D+00 0.000000000000000D+00 -.000000000000000D+00
 0.970651147624341D+03 0.000000000000000D+00 0.000000000000000D+00 0.970651147624341D+03
 0.313017416033528D+04 0.000000000000000D+00 0.000000000000000D+00 -.313017416033528D+04
 0.990934579521824D+03 0.494771524716234D+01 -.882717920062138D+03 -.443022255256697D+03
 0.614000607581776D+03 0.237508426570906D+03 0.397320199818742D+03 0.403389578738218D+03
 0.208093273335951D+02 -.299102076107177D+01 0.203488318401535D+02 0.316337503699730D+01
 0.273583290143549D+03 0.116268959323488D+03 0.227341339067613D+03 0.364693014814820D+02
 0.220149750337887D+04 -.355734080380484D+03 0.237707549335629D+03 -.215952301271094D+04
0.372545150024D-02 0.000000000000D+00 0.000000000000D+00 0.491770918550D-04 0.000000000000D+00  7 1 -2 -24 -13 13 23 21 0 0.41592628D+00 0.48717021D-01 0.62994507D+06 0.62994507D+06 0.62994507D+06 0.10614909D+01  1  2  2  1  7  1        1 0.159200073692D-02 0.100000000000D+01
-.201049749350D-03 0.000000000000D+00 -.143067146948D-04 0.491770918550D-04 0.000000000000D+00  7 1 -2 -24 -13 13 23 21 2 0.41592628D+00 0.48717021D-01 0.62994507D+06 0.62994507D+06 0.62994507D+06 0.10614909D+01  1  2  3  1  7  1        1 -.968055813407D-04 0.100000000000D+01
0.238913603560D-03 0.000000000000D+00 0.000000000000D+00 0.491770918550D-04 0.000000000000D+00  7 1 -2 -24 -13 13 23 21 2 0.41592628D+00 0.48717021D-01 0.62994507D+06 0.62994507D+06 0.62994507D+06 0.10614909D+01  1  2 15  1  7  1        1 0.115037051066D-03 0.100000000000D+01
  </mgrwgt>
  </event>
  <event>
  8     66 0.29493621E-05 0.20413509E+03 0.75467711E-02 0.10175837E+00
        1 -1    0    0  501    0 0.00000000E+00 0.00000000E+00 0.89984629E+02 0.89985198E+02 0.32000000E+00 0.0000E+00 0.9000E+01
       -2 -1    0    0    0  501 0.00000000E+00 0.00000000E+00 -.65842979E+03 0.65842987E+03 0.32000000E+00 0.0000E+00 0.9000E+01
       25  2    1    2    0    0 0.11054257E+03 0.77782525E+02 -.35680658E+03 0.48473366E+03 0.29897492E+03 0.0000E+00 0.0000E+00
       23  2    3    3    0    0 0.50357635E+02 0.11026194E+03 -.54394641E+02 0.16155356E+03 0.91908592E+02 0.0000E+00 0.0000E+00
      -24  1    1    2    0    0 -.11054257E+03 -.77782525E+02 -.21163858E+03 0.26368141E+03 0.80419002E+02 0.0000E+00 0.9000E+01
      -13  1    4    4    0    0 0.62354040E+02 0.64558419E+02 -.67746156E+02 0.11245163E+03 0.10565837E+00 0.0000E+00 0.9000E+01
       13  1    4    4    0    0 -.11996405E+02 0.45703526E+02 0.13351516E+02 0.49101936E+02 0.10565837E+00 0.0000E+00 0.9000E+01
       23  1    3    3    0    0 0.60184937E+02 -.32479420E+02 -.30241194E+03 0.32318009E+03 0.91188000E+02 0.0000E+00 0.9000E+01
#aMCatNLO 1  0  0  1  2 0.12539858D+03 0.00000000D+00  -5  7  0 0.00000000D+00 0.00000000D+00 0.00000000D+00 0.00000000D+00 0.00000000D+00
  <mgrwgt>
 0.5874269892D-03    4    2    0
 0.243410769149744D+03 0.000000000000000D+00 0.000000000000000D+00 0.243410769149744D+03
 0.243410769149744D+03 0.000000000000000D+00 0.000000000000000D+00 -.243410769149744D+03
 0.158247341094482D+03 -.110542573389322D+03 -.777825261440077D+02 -.174706354843155D+02
 0.937725955692456D+02 0.623541370973212D+02 0.645584435234119D+02 0.271563737725825D+02
 0.910769708315413D+02 -.119965015321354D+02 0.457035013666197D+02 0.778606995195285D+02
 0.143724630804219D+03 0.601849378241367D+02 -.324794187460239D+02 -.875464378077955D+02
 0.000000000000000D+00 -.000000000000000D+00 -.000000000000000D+00 -.000000000000000D+00
 0.289344377211007D+03 0.000000000000000D+00 0.000000000000000D+00 0.289344377211007D+03
 0.354841524044823D+03 0.000000000000000D+00 0.000000000000000D+00 -.354841524044823D+03
 0.129345266488521D+03 -.770507056234958D+02 -.634109428041523D+02 -.174706354843155D+02
 0.118151170370519D+03 0.870339186985993D+02 0.751487020474260D+02 0.271563737725825D+02
 0.958525724376201D+02 0.977255434629230D+01 0.550447481126735D+02 0.778606995195285D+02
 0.159363645562016D+03 0.954813682808916D+02 -.173334855464950D+02 -.875464378077955D+02
 0.141473246397153D+03 -.115237135702287D+03 -.494490218094523D+02 -.654971468338162D+02
0.190869761789D-04 0.000000000000D+00 0.000000000000D+00 0.223514929796D-06 0.000000000000D+00  7 1 -2 -24 -13 13 23 21 0 0.13843839D-01 0.10129694D+00 0.41671135D+05 0.41671135D+05 0.41671135D+05 0.11543218D+01  1  2  2  1  7  1        1 0.749181478903D-03 0.100000000000D+01
-.102046525037D-05 0.000000000000D+00 -.732990142431D-07 0.223514929796D-06 0.000000000000D+00  7 1 -2 -24 -13 13 23 21 2 0.13843839D-01 0.10129694D+00 0.41671135D+05 0.41671135D+05 0.41671135D+05 0.11543218D+01  1  2  3  1  7  1        1 -.533705769291D-04 0.100000000000D+01
0.124849966696D-05 0.000000000000D+00 0.000000000000D+00 0.223514929796D-06 0.000000000000D+00  7 1 -2 -24 -13 13 23 21 2 0.13843839D-01 0.10129694D+00 0.41671135D+05 0.41671135D+05 0.41671135D+05 0.11543218D+01  1  2 15  1  7  1        1 0.652968315166D-04 0.100000000000D+01
-.332084032766D-05 0.000000000000D+00 0.000000000000D+00 0.223514929796D-06 0.000000000000D+00  7 1 -2 -24 -13 13 23 21 2 0.13843839D-01 0.10129694D+00 0.41671135D+05 0.41671135D+05 0.41671135D+05 0.11543218D+01  1  2  4  1  7  1        1 -.173680744262D-03 0.100000000000D+01
  </mgrwgt>
  </event>
  <event>
  8     66 0.29493621E-05 0.28202885E+03 0.75467711E-02 0.87684877E-01
        1 -1    0    0  501    0 0.00000000E+00 0.00000000E+00 0.11042390E+04 0.11042390E+04 0.32000000E+00 0.0000E+00 0.9000E+01
       -2 -1    0    0    0  501 0.00000000E+00 0.00000000E+00 -.22727963E+03 0.22727985E+03 0.32000000E+00 0.0000E+00 0.9000E+01
       25  2    1    2    0    0 -.95057768E+02 0.17693141E+03 -.63573838E+02 0.36642272E+03 0.29980539E+03 0.0000E+00 0.0000E+00
       23  2    3    3    0    0 0.67754186E+02 0.16765888E+02 -.17958606E+02 0.11630929E+03 0.91288632E+02 0.0000E+00 0.0000E+00
      -24  1    1    2    0    0 0.95057768E+02 -.17693141E+03 0.94053320E+03 0.96509617E+03 0.80419002E+02 0.0000E+00 0.9000E+01
      -11  1    4    4    0    0 0.63331029E+02 0.42114809E+02 -.36727708E+02 0.84459463E+02 0.51099893E-03 0.0000E+00 0.9000E+01
       11  1    4    4    0    0 0.44231567E+01 -.25348922E+02 0.18769102E+02 0.31849825E+02 0.51099893E-03 0.0000E+00 0.9000E+01
       23  1    3    3    0    0 -.16281195E+03 0.16016552E+03 -.45615233E+02 0.25011343E+03 0.91188000E+02 0.0000E+00 0.9000E+01
#aMCatNLO 1  0  0  1  1 0.92163200D+03 0.00000000D+00  -5  7  0 0.00000000D+00 0.00000000D+00 0.00000000D+00 0.00000000D+00 0.00000000D+00
  <mgrwgt>
 0.1380887483D-02    3    2    0
 0.500970266769958D+03 0.000000000000000D+00 0.000000000000000D+00 0.500970266769958D+03
 0.500970266769958D+03 0.000000000000000D+00 0.000000000000000D+00 -.500970266769958D+03
 0.459343017595276D+03 0.950577677059230D+02 -.176931412415999D+03 0.405201293135165D+03
 0.144387888322122D+03 0.633310294033263D+02 0.421148094063373D+02 -.122732985939007D+03
 0.258986463848117D+02 0.442315673365731D+01 -.253489216961053D+02 -.293389466745899D+01
 0.372310981237706D+03 -.162811953842907D+03 0.160165524705767D+03 -.279534412528700D+03
 0.000000000000000D+00 -.000000000000000D+00 0.000000000000000D+00 -.000000000000000D+00
 0.893173851979257D+03 0.000000000000000D+00 0.000000000000000D+00 0.893173851979257D+03
 0.167999837324087D+04 0.000000000000000D+00 0.000000000000000D+00 -.167999837324087D+04
 0.793176674397404D+03 0.480138432947374D+03 -.477431689461628D+03 0.405201293135165D+03
 0.218276173877645D+03 0.174830209195758D+03 -.448943225556056D+02 -.122732985939007D+03
 0.527414141143201D+02 0.286006343455707D+02 -.442159783323791D+02 -.293389466745899D+01
 0.297161817368690D+03 0.430139763173305D+02 -.452118866506993D+00 -.279534412528700D+03
 0.121181614546207D+04 -.726583252806033D+03 0.566994109216120D+03 -.786824521261609D+03
0.122835703393D-03 0.000000000000D+00 0.000000000000D+00 0.152380960577D-04 0.000000000000D+00  7 1 -2 -24 -11 11 23 21 0 0.16988294D+00 0.34966118D-01 0.79540272D+05 0.79540272D+05 0.79540272D+05 0.11299725D+01  1  2  2  1  7  1        1 0.133265208963D-02 0.100000000000D+01
-.408534343712D-05 0.000000000000D+00 -.471721444412D-06 0.152380960577D-04 0.000000000000D+00  7 1 -2 -24 -11 11 23 21 2 0.16988294D+00 0.34966118D-01 0.79540272D+05 0.79540272D+05 0.79540272D+05 0.11299725D+01  1  2  3  1  7  1        1 -.565921858809D-04 0.100000000000D+01
0.756741688028D-05 0.000000000000D+00 0.000000000000D+00 0.152380960577D-04 0.000000000000D+00  7 1 -2 -24 -11 11 23 21 2 0.16988294D+00 0.34966118D-01 0.79540272D+05 0.79540272D+05 0.79540272D+05 0.11299725D+01  1  2 15  1  7  1        1 0.104827579203D-03 0.100000000000D+01
  </mgrwgt>
  </event>
  <event>
  8     66 0.29493621E-05 0.78148784E+03 0.75467711E-02 0.86901602E-01
        1 -1    0    0  501    0 0.00000000E+00 0.00000000E+00 0.74814031E+03 0.74814038E+03 0.32000000E+00 0.0000E+00 0.9000E+01
       -2 -1    0    0    0  501 0.00000000E+00 0.00000000E+00 -.83850364E+03 0.83850370E+03 0.32000000E+00 0.0000E+00 0.9000E+01
       25  2    1    2    0    0 0.75864199E+03 0.33397358E+02 0.11029456E+02 0.81631898E+03 0.29933590E+03 0.0000E+00 0.0000E+00
       23  2    3    3    0    0 0.56739356E+03 0.96720903E+02 0.71231102E+02 0.58713495E+03 0.91450486E+02 0.0000E+00 0.0000E+00
      -24  1    1    2    0    0 -.75864199E+03 -.33397358E+02 -.10139278E+03 0.77032510E+03 0.80419002E+02 0.0000E+00 0.9000E+01
      -11  1    4    4    0    0 0.51182420E+03 0.70108354E+02 0.40244680E+02 0.51816873E+03 0.51099893E-03 0.0000E+00 0.9000E+01
       11  1    4    4    0    0 0.55569363E+02 0.26612549E+02 0.30986422E+02 0.68966225E+02 0.51099893E-03 0.0000E+00 0.9000E+01
       23  1    3    3    0    0 0.19124842E+03 -.63323545E+02 -.60201646E+02 0.22918403E+03 0.91188000E+02 0.0000E+00 0.9000E+01
#aMCatNLO 1  0  0  1  2 0.47189471D+03 0.00000000D+00  -5  7  0 0.00000000D+00 0.00000000D+00 0.00000000D+00 0.00000000D+00 0.00000000D+00
  <mgrwgt>
 0.9605256940D-03    7    2    0
 0.792034391944273D+03 0.000000000000000D+00 0.000000000000000D+00 0.792034391944273D+03
 0.792034391944273D+03 0.000000000000000D+00 0.000000000000000D+00 -.792034391944273D+03
 0.765793496086320D+03 -.758641986735664D+03 -.333973582216475D+02 -.576143655637946D+02
 0.521306899473450D+03 0.511824201826368D+03 0.701083538123806D+02 0.698690817825799D+02
 0.708459696265817D+02 0.555693626344278D+02 0.266125489645886D+02 0.349709820614373D+02
 0.226122418702195D+03 0.191248422274868D+03 -.633235445553218D+02 -.472256982802226D+02
 0.000000000000000D+00 0.000000000000000D+00 -.000000000000000D+00 0.000000000000000D+00
 0.107957740903462D+04 0.000000000000000D+00 0.000000000000000D+00 0.107957740903462D+04
 0.104634944378345D+04 0.000000000000000D+00 0.000000000000000D+00 -.104634944378345D+04
 0.947060942760499D+03 -.930167141370318D+03 0.148077301919260D+03 -.576143655637946D+02
 0.454391216018765D+03 0.414117843165082D+03 0.173482277418103D+03 0.698690817825799D+02
 0.683132410642831D+02 0.416339664961214D+02 0.413562831038444D+02 0.349709820614373D+02
 0.183098335480313D+03 0.150269077183454D+03 -.199671474186952D+02 -.472256982802226D+02
 0.473063117494208D+03 0.324146254525660D+03 -.342948715022512D+03 0.332279652511687D+02
0.740604903078D-03 0.000000000000D+00 0.000000000000D+00 0.114098816030D-04 0.000000000000D+00  7 1 -2 -24 -11 11 23 21 0 0.11509852D+00 0.12900057D+00 0.61072325D+06 0.61072325D+06 0.61072325D+06 0.10624242D+01  1  2  2  1  7  1        1 0.847249813006D-03 0.100000000000D+01
-.411357271722D-04 0.000000000000D+00 -.284411783357D-05 0.114098816030D-04 0.000000000000D+00  7 1 -2 -24 -11 11 23 21 2 0.11509852D+00 0.12900057D+00 0.61072325D+06 0.61072325D+06 0.61072325D+06 0.10624242D+01  1  2  3  1  7  1        1 -.531177897757D-04 0.100000000000D+01
0.472091246115D-04 0.000000000000D+00 0.000000000000D+00 0.114098816030D-04 0.000000000000D+00  7 1 -2 -24 -11 11 23 21 2 0.11509852D+00 0.12900057D+00 0.61072325D+06 0.61072325D+06 0.61072325D+06 0.10624242D+01  1  2 15  1  7  1        1 0.609602535069D-04 0.100000000000D+01
-.247190535991D-03 0.000000000000D+00 0.000000000000D+00 0.114098816030D-04 0.000000000000D+00  7 1 -2 -24 -11 11 23 21 2 0.11509852D+00 0.12900057D+00 0.61072325D+06 0.61072325D+06 0.61072325D+06 0.10624242D+01  1  2  4  1  7  1        1 -.319192483710D-03 0.100000000000D+01
-.398947637394D-03 0.000000000000D+00 -.258057937288D-03 0.114098816030D-04 0.000000000000D+00  7 1 -2 -24 -11 11 23 21 2 0.19165821D+00 0.12900057D+00 0.61072325D+06 0.61072325D+06 0.61072325D+06 0.10624242D+01  1  2  5  1  7  1        1 -.209030861828D-03 0.100000000000D+01
0.495034154315D-03 0.000000000000D+00 0.227794612715D-03 0.114098816030D-04 0.000000000000D+00  7 1 -2 -24 -11 11 23 21 2 0.11509852D+00 0.12900057D+00 0.61072325D+06 0.61072325D+06 0.61072325D+06 0.10624242D+01  1  2  6  1  7  1        1 0.639228280337D-03 0.100000000000D+01
-.109510031710D-04 0.000000000000D+00 -.147794925022D-04 0.114098816030D-04 0.000000000000D+00  7 21 -2 -24 -11 11 23 -1 2 0.19165821D+00 0.12900057D+00 0.61072325D+06 0.61072325D+06 0.61072325D+06 0.10624242D+01  1  2  5  3  7  1        1 -.557151752599D-05 0.100000000000D+01
  </mgrwgt>
  </event>
  <event>
  9     66 0.29493621E-05 0.46646366E+03 0.75467711E-02 0.93547686E-01
        1 -1    0    0  502    0 0.00000000E+00 0.00000000E+00 0.53896225E+03 0.53896234E+03 0.32000000E+00 0.0000E+00 0.9000E+01
       -2 -1    0    0    0  501 0.00000000E+00 0.00000000E+00 -.75630847E+03 0.75630854E+03 0.32000000E+00 0.0000E+00 0.9000E+01
       25  2    1    2    0    0 0.34042802E+03 0.16382334E+03 -.13936733E+03 0.50248782E+03 0.30056852E+03 0.0000E+00 0.0000E+00
       23  2    3    3    0    0 0.20464677E+03 0.61631184E+02 0.42892121E+02 0.23713232E+03 0.93345065E+02 0.0000E+00 0.0000E+00
      -24  1    1    2    0    0 -.49432568E+03 -.11529649E+03 -.23725660E+03 0.56604688E+03 0.80419002E+02 0.0000E+00 0.9000E+01
      -13  1    4    4    0    0 0.58928731E+01 0.31167375E+02 0.97555551E+00 0.31734746E+02 0.10565837E+00 0.0000E+00 0.9000E+01
       13  1    4    4    0    0 0.19875389E+03 0.30463809E+02 0.41916566E+02 0.20539757E+03 0.10565837E+00 0.0000E+00 0.9000E+01
       23  1    3    3    0    0 0.13578125E+03 0.10219216E+03 -.18225945E+03 0.26535550E+03 0.91188000E+02 0.0000E+00 0.9000E+01
       21  1    1    2  502  501 0.15389767E+03 -.48526853E+02 0.15927770E+03 0.22673618E+03 0.75000000E+00 0.0000E+00 0.9000E+01
#aMCatNLO 2  0  0  1  2 0.16136712D+03 0.00000000D+00  -5  7  0 0.00000000D+00 0.00000000D+00 0.00000000D+00 0.00000000D+00 0.00000000D+00
  <mgrwgt>
 0.5402497187D-04    2    2    0
 0.493427166894643D+03 0.000000000000000D+00 0.000000000000000D+00 0.493427166894643D+03
 0.493427166894643D+03 0.000000000000000D+00 0.000000000000000D+00 -.493427166894643D+03
 0.450931420989650D+03 -.419466033231065D+03 -.138901154337544D+03 -.403317092430633D+02
 0.341197707419928D+02 0.111906978394215D+02 0.294967930764101D+02 0.129948541954250D+02
 0.267892585965755D+03 0.237728920360998D+03 0.181743208886412D+02 0.122151922210216D+03
 0.233910556091888D+03 0.170546415030646D+03 0.912300403724929D+02 -.948150671625775D+02
 0.000000000000000D+00 0.000000000000000D+00 -.000000000000000D+00 0.000000000000000D+00
 0.778916227315704D+03 0.000000000000000D+00 0.000000000000000D+00 0.778916227315704D+03
 0.523318305226031D+03 0.000000000000000D+00 0.000000000000000D+00 -.523318305226031D+03
 0.515504628043983D+03 -.494325680913799D+03 -.115296487366426D+03 -.403317092430633D+02
 0.342781939393168D+02 0.589262608042740D+01 0.311673756042649D+02 0.129948541954250D+02
 0.235270788291018D+03 0.198754139814078D+03 0.304638085306547D+02 0.122151922210216D+03
 0.214906800467923D+03 0.135781249534637D+03 0.102192156534287D+03 -.948150671625775D+02
 0.302274121799494D+03 0.153897665484657D+03 -.485268533027803D+02 0.255597922089673D+03
-.241503931013D-03 0.000000000000D+00 0.000000000000D+00 0.148222128518D-05 0.000000000000D+00  7 1 -2 -24 -13 13 23 21 2 0.83746491D-01 0.10970904D+00 0.30302081D+06 0.30302081D+06 0.30302081D+06 0.10842301D+01  1  2 13  1  7  1        1 -.815241007521D-03 0.100000000000D+01
0.294206715836D-03 0.000000000000D+00 0.000000000000D+00 0.148222128518D-05 0.405321178985D-09  7 1 -2 -24 -13 13 23 21 2 0.82917210D-01 0.11635506D+00 0.30302081D+06 0.30302081D+06 0.30302081D+06 0.10842301D+01  1  2  1  1  7  1        1 0.869265979395D-03 0.100000000000D+01
  </mgrwgt>
  </event>
  <event>
  9     66 0.29493621E-05 0.28821808E+03 0.75467711E-02 0.95034336E-01
        3 -1    0    0  501    0 0.00000000E+00 0.00000000E+00 0.35477169E+03 0.35477205E+03 0.50000000E+00 0.0000E+00 0.9000E+01
       21 -1    0    0  502  501 0.00000000E+00 0.00000000E+00 -.10987343E+04 0.10987345E+04 0.75000000E+00 0.0000E+00 0.9000E+01
       25  2    1    2    0    0 0.18294893E+03 -.22808350E+03 -.15316215E+03 0.44287641E+03 0.29527695E+03 0.0000E+00 0.0000E+00
       23  2    3    3    0    0 0.11068424E+03 -.44124881E+02 0.36583751E+02 0.15411748E+03 0.90641172E+02 0.0000E+00 0.0000E+00
      -24  1    1    2    0    0 -.27284784E+03 -.65010782E+02 0.53923089E+02 0.29672759E+03 0.80419002E+02 0.0000E+00 0.9000E+01
      -11  1    4    4    0    0 0.11493218E+03 -.61841959E+02 0.37742556E+02 0.13586145E+03 0.51099893E-03 0.0000E+00 0.9000E+01
       11  1    4    4    0    0 -.42479397E+01 0.17717079E+02 -.11588052E+01 0.18256032E+02 0.51099893E-03 0.0000E+00 0.9000E+01
       23  1    3    3    0    0 0.72264692E+02 -.18395862E+03 -.18974591E+03 0.28875893E+03 0.91188000E+02 0.0000E+00 0.9000E+01
        4  1    1    2  502    0 0.89898915E+02 0.29309428E+03 -.64472351E+03 0.71390257E+03 0.15500000E+01 0.0000E+00 0.9000E+01
#aMCatNLO 2  0  0  2  1 0.30657148D+03 0.00000000D+00  -5  7  0 0.00000000D+00 0.00000000D+00 0.00000000D+00 0.00000000D+00 0.00000000D+00
  <mgrwgt>
 0.6795603225D-04    1    2    0
 0.332858683690986D+03 0.000000000000000D+00 0.000000000000000D+00 0.332858683690986D+03
 0.332858683690986D+03 0.000000000000000D+00 0.000000000000000D+00 -.332858683690986D+03
 0.272231408059319D+03 -.235633938674419D+03 0.563164061731962D+02 0.945929855755953D+02
 0.144860214761994D+03 0.133384084386349D+03 -.168384794479655D+01 0.564830285077311D+02
 0.273361126686614D+02 -.131682443830447D+01 0.272732911531862D+02 0.130254324533580D+01
 0.221289631891997D+03 0.103566678726374D+03 -.819058493815859D+02 -.152378557328662D+03
 0.000000000000000D+00 0.000000000000000D+00 0.000000000000000D+00 -.000000000000000D+00
 0.406045767133435D+03 0.000000000000000D+00 0.000000000000000D+00 0.406045767133435D+03
 0.959986812506323D+03 0.000000000000000D+00 0.000000000000000D+00 -.959986812506323D+03
 0.306736688486114D+03 -.272847842961936D+03 -.650107820286037D+02 0.945929855755953D+02
 0.142211692409832D+03 0.114932175652740D+03 -.618419594481868D+02 0.564830285077311D+02
 0.182657191086722D+02 -.424793966420883D+01 0.177170788862099D+02 0.130254324533580D+01
 0.265701779882551D+03 0.722646918038544D+02 -.183958620547353D+03 -.152378557328662D+03
 0.633116699752589D+03 0.898989151695505D+02 0.293094283137933D+03 -.553941045372889D+03
0.150002270925D-04 0.000000000000D+00 0.000000000000D+00 0.450035892269D-07 0.787773680001D-12  7 3 21 -24 -11 11 23 4 2 0.54580190D-01 0.16903572D+00 0.23268884D+06 0.23268884D+06 0.23268884D+06 0.10928114D+01  1  2  1  4  7  2       -4 0.679560322531D-04 0.100000000000D+01
  </mgrwgt>
  </event>
  <event>
  8     66 0.29493621E-05 0.18511022E+03 0.75467711E-02 0.10676098E+00
        1 -1    0    0  501    0 0.00000000E+00 0.00000000E+00 0.41585664E+03 0.41585677E+03 0.32000000E+00 0.0000E+00 0.9000E+01
       -2 -1    0    0    0  501 0.00000000E+00 0.00000000E+00 -.13302198E+03 0.13302237E+03 0.32000000E+00 0.0000E+00 0.9000E+01
       25  2    1    2    0    0 0.67504145E+02 -.44731577E+02 0.87526308E+02 0.32267062E+03 0.29982954E+03 0.0000E+00 0.0000E+00
       23  2    3    3    0    0 0.81516846E+02 0.48876229E+02 -.43762546E+02 0.13689982E+03 0.88275239E+02 0.0000E+00 0.0000E+00
      -24  1    1    2    0    0 -.67504145E+02 0.44731577E+02 0.19530835E+03 0.22620851E+03 0.80419002E+02 0.0000E+00 0.9000E+01
      -11  1    4    4    0    0 0.59663370E+02 0.71556867E+02 -.48524068E+02 0.10504612E+03 0.51099893E-03 0.0000E+00 0.9000E+01
       11  1    4    4    0    0 0.21853475E+02 -.22680638E+02 0.47615229E+01 0.31853694E+02 0.51099893E-03 0.0000E+00 0.9000E+01
       23  1    3    3    0    0 -.14012700E+02 -.93607806E+02 0.13128885E+03 0.18577080E+03 0.91188000E+02 0.0000E+00 0.9000E+01
#aMCatNLO 1  0  0  1  1 0.15850280D+02 0.00000000D+00  -5  7  0 0.00000000D+00 0.00000000D+00 0.00000000D+00 0.00000000D+00 0.00000000D+00
  <mgrwgt>
 0.1341086678D-02    4    2    0
 0.235198246187602D+03 0.000000000000000D+00 0.000000000000000D+00 0.235198246187602D+03
 0.235198246187602D+03 0.000000000000000D+00 0.000000000000000D+00 -.235198246187602D+03
 0.146517168491395D+03 -.675041453688480D+02 0.447315765328281D+02 0.918822133346513D+02
 0.151748397543309D+03 0.596633702013807D+02 0.715568669120658D+02 -.119780938428884D+03
 0.343053241007152D+02 0.218534753530633D+02 -.226806375137419D+02 -.135966745426375D+02
 0.137825602239784D+03 -.140127001855960D+02 -.936078059311520D+02 0.414953996368702D+02
 0.000000000000000D+00 -.000000000000000D+00 -.000000000000000D+00 -.000000000000000D+00
 0.235953770039244D+03 0.000000000000000D+00 0.000000000000000D+00 0.235953770039244D+03
 0.336302373586485D+03 0.000000000000000D+00 0.000000000000000D+00 -.336302373586485D+03
 0.147598312857075D+03 -.664676796134402D+02 0.495757243357598D+02 0.918822133346513D+02
 0.154612932038651D+03 0.607429904425086D+02 0.766027065761104D+02 -.119780938428884D+03
 0.337315386268079D+02 0.220932379048309D+02 -.215600551574890D+02 -.135966745426375D+02
 0.134720675247351D+03 -.130522445098726D+02 -.891189077431567D+02 0.414953996368702D+02
 0.101592684855844D+03 -.331630422402672D+01 -.154994680112244D+02 -.100348603547242D+03
0.114080017735D-04 0.000000000000D+00 0.000000000000D+00 0.308063608540D-06 0.000000000000D+00  7 1 -2 -24 -11 11 23 21 0 0.63977984D-01 0.20464960D-01 0.34265792D+05 0.34265792D+05 0.34265792D+05 0.11620164D+01  1  2  2  1  7  1        1 0.135968825410D-02 0.100000000000D+01
-.589585487270D-06 0.000000000000D+00 -.438097306059D-07 0.308063608540D-06 0.000000000000D+00  7 1 -2 -24 -11 11 23 21 2 0.63977984D-01 0.20464960D-01 0.34265792D+05 0.34265792D+05 0.34265792D+05 0.11620164D+01  1  2  3  1  7  1        1 -.948857592017D-04 0.100000000000D+01
0.719025676352D-06 0.000000000000D+00 0.000000000000D+00 0.308063608540D-06 0.000000000000D+00  7 1 -2 -24 -11 11 23 21 2 0.63977984D-01 0.20464960D-01 0.34265792D+05 0.34265792D+05 0.34265792D+05 0.11620164D+01  1  2 15  1  7  1        1 0.115717395796D-03 0.100000000000D+01
-.245023593482D-06 0.000000000000D+00 0.000000000000D+00 0.308063608540D-06 0.000000000000D+00  7 1 -2 -24 -11 11 23 21 2 0.63977984D-01 0.20464960D-01 0.34265792D+05 0.34265792D+05 0.34265792D+05 0.11620164D+01  1  2  4  1  7  1        1 -.394332123023D-04 0.100000000000D+01
  </mgrwgt>
  </event>
  <event>
  8     66 0.29493621E-05 0.21020234E+03 0.75467711E-02 0.98227174E-01
        1 -1    0    0  501    0 0.00000000E+00 0.00000000E+00 0.96761645E+02 0.96762174E+02 0.32000000E+00 0.0000E+00 0.9000E+01
       -2 -1    0    0    0  501 0.00000000E+00 0.00000000E+00 -.15992189E+04 0.15992189E+04 0.32000000E+00 0.0000E+00 0.9000E+01
       25  2    1    2    0    0 -.90922902E+02 0.80877360E+02 -.15154601E+04 0.15495420E+04 0.29942093E+03 0.0000E+00 0.0000E+00
       23  2    3    3    0    0 0.16211079E+02 -.28452251E+02 -.19942278E+03 0.22149825E+03 0.90662560E+02 0.0000E+00 0.0000E+00
      -24  1    1    2    0    0 0.90922902E+02 -.80877360E+02 0.13002870E+02 0.14643911E+03 0.80419002E+02 0.0000E+00 0.9000E+01
      -11  1    4    4    0    0 0.53896757E+02 -.21613870E+02 -.11768643E+03 0.13123306E+03 0.51099893E-03 0.0000E+00 0.9000E+01
       11  1    4    4    0    0 -.37685678E+02 -.68383808E+01 -.81736343E+02 0.90265184E+02 0.51099893E-03 0.0000E+00 0.9000E+01
       23  1    3    3    0    0 -.10713398E+03 0.10932961E+03 -.13160373E+04 0.13280437E+04 0.91188000E+02 0.0000E+00 0.9000E+01
#aMCatNLO 1  0  0  1  2 0.26117949D+03 0.00000000D+00  -5  7  0 0.00000000D+00 0.00000000D+00 0.00000000D+00 0.00000000D+00 0.00000000D+00
  <mgrwgt>
 0.1992202106D-02    4    2    0
 0.393374536827537D+03 0.000000000000000D+00 0.000000000000000D+00 0.393374536827537D+03
 0.393374536827537D+03 0.000000000000000D+00 0.000000000000000D+00 -.393374536827537D+03
 0.340507822394163D+03 0.909229019197325D+02 -.808773599022991D+02 0.307685293309533D+03
 0.581506334274390D+02 0.538967574029097D+02 -.216138698060436D+02 -.307836668895761D+01
 0.384909080658885D+02 -.376856784908874D+02 -.683838084623355D+01 -.381787739719541D+01
 0.349599709767584D+03 -.107133980831755D+03 0.109329610554576D+03 -.300789049223380D+03
 0.000000000000000D+00 -.000000000000000D+00 0.000000000000000D+00 -.000000000000000D+00
 0.503342125456196D+03 0.000000000000000D+00 0.000000000000000D+00 0.503342125456196D+03
 0.606405179205861D+03 0.000000000000000D+00 0.000000000000000D+00 -.606405179205861D+03
 0.396625040146588D+03 0.202034146991660D+03 -.123920015523286D+03 0.307685293309533D+03
 0.805472128062333D+02 0.748032875102499D+02 -.297127132224548D+02 -.307836668895761D+01
 0.297106062998623D+02 -.274053673528793D+02 -.108208030727457D+02 -.381787739719541D+01
 0.322085674540647D+03 -.588791904329710D+01 0.701085635064520D+02 -.300789049223380D+03
 0.280778770868726D+03 -.243544148105733D+03 0.943449683120345D+02 -.103063053749665D+03
0.824944152923D-03 0.000000000000D+00 0.000000000000D+00 0.424929572704D-05 0.000000000000D+00  7 1 -2 -24 -11 11 23 21 0 0.14886450D-01 0.24603372D+00 0.44185022D+05 0.44185022D+05 0.44185022D+05 0.11520485D+01  1  2  2  1  7  1        1 0.240486897221D-02 0.100000000000D+01
-.239454954639D-04 0.000000000000D+00 -.316800276001D-05 0.424929572704D-05 0.000000000000D+00  7 1 -2 -24 -11 11 23 21 2 0.14886450D-01 0.24603372D+00 0.44185022D+05 0.44185022D+05 0.44185022D+05 0.11520485D+01  1  2  3  1  7  1        1 -.926471887913D-04 0.100000000000D+01
0.514296394369D-04 0.000000000000D+00 0.000000000000D+00 0.424929572704D-05 0.000000000000D+00  7 1 -2 -24 -11 11 23 21 2 0.14886450D-01 0.24603372D+00 0.44185022D+05 0.44185022D+05 0.44185022D+05 0.11520485D+01  1  2 15  1  7  1        1 0.198985714101D-03 0.100000000000D+01
-.134141590452D-03 0.000000000000D+00 0.000000000000D+00 0.424929572704D-05 0.000000000000D+00  7 1 -2 -24 -11 11 23 21 2 0.14886450D-01 0.24603372D+00 0.44185022D+05 0.44185022D+05 0.44185022D+05 0.11520485D+01  1  2  4  1  7  1        1 -.519005391812D-03 0.100000000000D+01
  </mgrwgt>
  </event>
  <event>
  8     66 0.29493621E-05 0.30115942E+03 0.75467711E-02 0.86777025E-01
        1 -1    0    0  501    0 0.00000000E+00 0.00000000E+00 0.17864472E+04 0.17864472E+04 0.32000000E+00 0.0000E+00 0.9000E+01
       -2 -1    0    0    0  501 0.00000000E+00 0.00000000E+00 -.15967614E+03 0.15967646E+03 0.32000000E+00 0.0000E+00 0.9000E+01
       25  2    1    2    0    0 0.17652736E+03 0.13786795E+03 0.82282023E+02 0.38340711E+03 0.30010199E+03 0.0000E+00 0.0000E+00
       23  2    3    3    0    0 -.42605003E+02 0.80459725E+02 0.37862445E+02 0.13520750E+03 0.92512431E+02 0.0000E+00 0.0000E+00
      -24  1    1    2    0    0 -.17652736E+03 -.13786795E+03 0.15444890E+04 0.15627165E+04 0.80419002E+02 0.0000E+00 0.9000E+01
      -11  1    4    4    0    0 -.38264796E+02 -.12806494E+01 -.11053342E+02 0.39849857E+02 0.51099893E-03 0.0000E+00 0.9000E+01
       11  1    4    4    0    0 -.43402070E+01 0.81740374E+02 0.48915786E+02 0.95357645E+02 0.51099893E-03 0.0000E+00 0.9000E+01
       23  1    3    3    0    0 0.21913236E+03 0.57408223E+02 0.44419578E+02 0.24819961E+03 0.91188000E+02 0.0000E+00 0.9000E+01
#aMCatNLO 1  0  0  2  1 0.98833068D+03 0.00000000D+00  -5  7  0 0.00000000D+00 0.00000000D+00 0.00000000D+00 0.00000000D+00 0.00000000D+00
  <mgrwgt>
 0.1215253551D-02    5    2    0
 0.534091113826564D+03 0.000000000000000D+00 0.000000000000000D+00 0.534091113826564D+03
 0.534091113826564D+03 0.000000000000000D+00 0.000000000000000D+00 -.534091113826564D+03
 0.494962029128692D+03 -.176527357137606D+03 -.137867947643062D+03 0.433993911846150D+03
 0.894360538825971D+02 -.382647964158047D+02 -.128064938686139D+01 -.808268088352854D+02
 0.992367965968216D+02 -.434020696156565D+01 0.817403744996241D+02 -.561036146695641D+02
 0.384547348045017D+03 0.219132360514976D+03 0.574082225302998D+02 -.297063488341300D+03
 0.000000000000000D+00 0.000000000000000D+00 -.000000000000000D+00 -.000000000000000D+00
 0.987618471321697D+03 0.000000000000000D+00 0.000000000000000D+00 0.987618471321697D+03
 0.166692314571443D+04 0.000000000000000D+00 0.000000000000000D+00 -.166692314571443D+04
 0.742362456249680D+03 -.583667061890452D+03 0.124967379100832D+03 0.433993911846150D+03
 0.150947884540442D+03 -.117362758893250D+03 0.497822623602402D+02 -.808268088352854D+02
 0.179591158646242D+03 -.960881136069156D+02 0.140969653146956D+03 -.561036146695641D+02
 0.382368513626275D+03 -.332201154773184D+02 0.220318262272873D+03 -.297063488341300D+03
 0.119927160397349D+04 0.830338049867935D+03 -.536037556880901D+03 -.679304674392734D+03
0.155670753227D-03 0.000000000000D+00 0.000000000000D+00 0.864082539439D-05 0.000000000000D+00  7 1 -2 -24 -11 11 23 21 0 0.27483805D+00 0.24565586D-01 0.90696994D+05 0.90696994D+05 0.90696994D+05 0.11252187D+01  1  2  2  2  7  2       -2 0.108494727393D-02 0.100000000000D+01
-.519682530635D-05 0.000000000000D+00 -.597816681444D-06 0.864082539439D-05 0.000000000000D+00  7 1 -2 -24 -11 11 23 21 2 0.27483805D+00 0.24565586D-01 0.90696994D+05 0.90696994D+05 0.90696994D+05 0.11252187D+01  1  2  3  2  7  2       -2 -.458578442651D-04 0.100000000000D+01
0.933028096059D-05 0.000000000000D+00 0.000000000000D+00 0.864082539439D-05 0.000000000000D+00  7 1 -2 -24 -11 11 23 21 2 0.27483805D+00 0.24565586D-01 0.90696994D+05 0.90696994D+05 0.90696994D+05 0.11252187D+01  1  2 15  2  7  2       -2 0.823322982817D-04 0.100000000000D+01
0.182360916648D-03 0.000000000000D+00 -.754282959164D-04 0.864082539439D-05 0.000000000000D+00  7 1 -2 -24 -11 11 23 21 2 0.27483805D+00 0.15145792D+00 0.90696994D+05 0.90696994D+05 0.90696994D+05 0.11252187D+01  1  2  5  2  7  2       -2 0.344540823034D-04 0.100000000000D+01
0.354283712194D-04 0.000000000000D+00 -.168150300712D-04 0.864082539439D-05 0.000000000000D+00  7 1 21 -24 -11 11 23 2 2 0.27483805D+00 0.15145792D+00 0.90696994D+05 0.90696994D+05 0.90696994D+05 0.11252187D+01  1  2  5  4  7  2       -2 0.593777406988D-04 0.100000000000D+01
  </mgrwgt>
  </event>
  <event>
  8     66 0.29493621E-05 0.22546434E+03 0.75467711E-02 0.91575644E-01
        1 -1    0    0  501    0 0.00000000E+00 0.00000000E+00 0.31084322E+03 0.31084339E+03 0.32000000E+00 0.0000E+00 0.9000E+01
       -2 -1    0    0    0  501 0.00000000E+00 0.00000000E+00 -.64220107E+03 0.64220115E+03 0.32000000E+00 0.0000E+00 0.9000E+01
       25  2    1    2    0    0 0.15062482E+03 0.36076213E+03 -.20778319E+03 0.53522273E+03 0.30075300E+03 0.0000E+00 0.0000E+00
       23  2    3    3    0    0 0.16723492E+03 0.14691991E+03 -.32066061E+02 0.24333893E+03 0.92911932E+02 0.0000E+00 0.0000E+00
      -24  1    1    2    0    0 -.15062482E+03 -.36076213E+03 -.12357466E+03 0.41782181E+03 0.80419002E+02 0.0000E+00 0.9000E+01
      -11  1    4    4    0    0 0.94648884E+02 0.39488647E+02 0.18429093E+02 0.10419883E+03 0.51099893E-03 0.0000E+00 0.9000E+01
       11  1    4    4    0    0 0.72586033E+02 0.10743126E+03 -.50495154E+02 0.13914010E+03 0.51099893E-03 0.0000E+00 0.9000E+01
       23  1    3    3    0    0 -.16610097E+02 0.21384222E+03 -.17571712E+03 0.29188380E+03 0.91188000E+02 0.0000E+00 0.9000E+01
#aMCatNLO 1  0  0  1  2 0.37639399D+03 0.00000000D+00  -5  7  0 0.00000000D+00 0.00000000D+00 0.00000000D+00 0.00000000D+00 0.00000000D+00
  <mgrwgt>
 0.6720192272D-03    7    2    0
 0.446792980991052D+03 0.000000000000000D+00 0.000000000000000D+00 0.446792980991052D+03
 0.446792980991052D+03 0.000000000000000D+00 0.000000000000000D+00 -.446792980991052D+03
 0.399799655988498D+03 -.150624821249426D+03 -.360762130557698D+03 0.231386549565896D+02
 0.117965986991179D+03 0.946488844601736D+02 0.394886470392119D+02 0.582941636209004D+02
 0.129673870063098D+03 0.725860334811210D+02 0.107431259174846D+03 -.225939654021322D+01
 0.246146448939329D+03 -.166100966918683D+02 0.213842224343640D+03 -.791734220372768D+02
 0.000000000000000D+00 -.000000000000000D+00 0.000000000000000D+00 0.000000000000000D+00
 0.883380078058587D+03 0.000000000000000D+00 0.000000000000000D+00 0.883380078058587D+03
 0.573674630133091D+03 0.000000000000000D+00 0.000000000000000D+00 -.573674630133091D+03
 0.419348235947346D+03 0.709105308844349D+01 -.410852828456464D+03 0.231386549565896D+02
 0.160966394587113D+03 0.148353551071475D+03 0.224319985421955D+02 0.582941636209004D+02
 0.156150374268869D+03 0.127617635278013D+03 0.899531749168975D+02 -.225939654021322D+01
 0.233157760132887D+03 0.756734618106128D+02 0.184532886463876D+03 -.791734220372768D+02
 0.487431943255464D+03 -.358735701248544D+03 0.113934768533495D+03 0.309705447925496D+03
0.943719657733D-04 0.000000000000D+00 0.000000000000D+00 0.945079982171D-06 0.000000000000D+00  7 1 -2 -24 -11 11 23 21 0 0.47822053D-01 0.98800184D-01 0.18679926D+06 0.18679926D+06 0.18679926D+06 0.11001102D+01  1  2  2  1  7  1        1 0.763901502711D-03 0.100000000000D+01
-.523586047943D-05 0.000000000000D+00 -.362413197279D-06 0.945079982171D-06 0.000000000000D+00  7 1 -2 -24 -11 11 23 21 2 0.47822053D-01 0.98800184D-01 0.18679926D+06 0.18679926D+06 0.18679926D+06 0.11001102D+01  1  2  3  1  7  1        1 -.512926152252D-04 0.100000000000D+01
0.605118008544D-05 0.000000000000D+00 0.000000000000D+00 0.945079982171D-06 0.000000000000D+00  7 1 -2 -24 -11 11 23 21 2 0.47822053D-01 0.98800184D-01 0.18679926D+06 0.18679926D+06 0.18679926D+06 0.11001102D+01  1  2 15  1  7  1        1 0.592798171380D-04 0.100000000000D+01
0.145192485471D-05 0.000000000000D+00 0.000000000000D+00 0.945079982171D-06 0.000000000000D+00  7 1 -2 -24 -11 11 23 21 2 0.95698635D-01 0.98800184D-01 0.43598354D+06 0.43598354D+06 0.43598354D+06 0.10727411D+01  1  2 12  1  7  1        1 0.503947927455D-05 0.100000000000D+01
-.339332791318D-04 0.000000000000D+00 -.301246990330D-04 0.945079982171D-06 0.000000000000D+00  7 1 -2 -24 -11 11 23 21 2 0.11410902D+00 0.98800184D-01 0.18679926D+06 0.18679926D+06 0.18679926D+06 0.11001102D+01  1  2  5  1  7  1        1 -.983227645484D-04 0.100000000000D+01
0.108981279497D-06 0.000000000000D+00 0.000000000000D+00 0.945079982171D-06 0.000000000000D+00  7 21 -2 -24 -11 11 23 -1 2 0.95698635D-01 0.98800184D-01 0.43598354D+06 0.43598354D+06 0.43598354D+06 0.10727411D+01  1  2 12  3  7  1        1 0.863239887628D-06 0.100000000000D+01
-.133036763840D-05 0.000000000000D+00 -.286407617216D-05 0.945079982171D-06 0.000000000000D+00  7 21 -2 -24 -11 11 23 -1 2 0.11410902D+00 0.98800184D-01 0.18679926D+06 0.18679926D+06 0.18679926D+06 0.11001102D+01  1  2  5  3  7  1        1 -.744943204237D-05 0.100000000000D+01
  </mgrwgt>
  </event>
  <event>
  7     66 0.29493621E-05 0.31496804E+03 0.75467711E-02 0.88533510E-01
        3 -1    0    0  501    0 0.00000000E+00 0.00000000E+00 0.54767945E+03 0.54767968E+03 0.50000000E+00 0.0000E+00 0.9000E+01
       -4 -1    0    0    0  501 0.00000000E+00 0.00000000E+00 -.24464207E+03 0.24464698E+03 0.15500000E+01 0.0000E+00 0.9000E+01
       23  2    1    2    0    0 0.17716552E+03 0.16082196E+03 0.18158162E+03 0.31694819E+03 0.10115803E+03 0.0000E+00 0.0000E+00
      -24  1    1    2    0    0 -.20934040E+03 -.62171380E+02 -.66583461E+02 0.24205218E+03 0.80419002E+02 0.0000E+00 0.9000E+01
      -11  1    3    3    0    0 0.12155383E+03 0.16311330E+03 0.15182072E+03 0.25383226E+03 0.51099893E-03 0.0000E+00 0.9000E+01
       11  1    3    3    0    0 0.55611689E+02 -.22913421E+01 0.29760897E+02 0.63115934E+02 0.51099893E-03 0.0000E+00 0.9000E+01
       23  1    1    2    0    0 0.32174877E+02 -.98650580E+02 0.18803922E+03 0.23332629E+03 0.91188000E+02 0.0000E+00 0.9000E+01
#aMCatNLO 1  0  0  2  2 0.77345138D+03 0.00000000D+00  -5  7  0 0.00000000D+00 0.00000000D+00 0.00000000D+00 0.00000000D+00 0.00000000D+00
  <mgrwgt>
 0.1849134921D-03    3    2    0
 0.366042991947429D+03 0.000000000000000D+00 0.000000000000000D+00 0.366042991947429D+03
 0.366042991947429D+03 0.000000000000000D+00 0.000000000000000D+00 -.366042991947429D+03
 0.289531121446733D+03 -.209340403734935D+03 -.621713813719460D+02 -.172256695179696D+03
 0.211874988382815D+03 0.121553831591872D+03 0.163113296054612D+03 0.592429690153447D+02
 0.559903823011582D+02 0.556116895894217D+02 -.229134299271886D+01 0.608380132231288D+01
 0.174689491764153D+03 0.321748825536406D+02 -.986505716899476D+02 0.106929924842038D+03
 0.000000000000000D+00 0.000000000000000D+00 0.000000000000000D+00 0.000000000000000D+00
 0.427779656065611D+04 0.000000000000000D+00 0.000000000000000D+00 0.427779656065611D+04
 0.572420479778369D+03 0.000000000000000D+00 0.000000000000000D+00 -.572420479778369D+03
 0.651514261362146D+03 -.590266996719185D+03 -.199790190834723D+03 -.172256695179696D+03
 0.128882248645082D+03 -.163815918287488D+02 0.113280837246270D+03 0.592429690153447D+02
 0.270142889965445D+02 0.220121552663963D+02 -.144299754673218D+02 0.608380132231288D+01
 0.257566627807420D+03 -.142798454474498D+03 -.161863859428400D+03 0.106929924842038D+03
 0.378523961362329D+04 0.727434887756035D+03 0.262803188484176D+03 0.370537608087775D+04
0.604630904448D-04 0.000000000000D+00 0.000000000000D+00 0.256800961993D-10 0.000000000000D+00  7 3 -4 -24 -11 11 23 21 0 0.84258773D-01 0.37637637D-01 0.99204863D+05 0.99204863D+05 0.99204863D+05 0.11220067D+01  1  2  2  2  7  2       -4 0.182635502850D-03 0.100000000000D+01
-.326682476582D-05 0.000000000000D+00 -.232194187605D-06 0.256800961993D-10 0.000000000000D+00  7 3 -4 -24 -11 11 23 21 2 0.84258773D-01 0.37637637D-01 0.99204863D+05 0.99204863D+05 0.99204863D+05 0.11220067D+01  1  2  3  2  7  2       -4 -.124225735435D-04 0.100000000000D+01
0.386587870582D-05 0.000000000000D+00 0.000000000000D+00 0.256800961993D-10 0.000000000000D+00  7 3 -4 -24 -11 11 23 21 2 0.84258773D-01 0.37637637D-01 0.99204863D+05 0.99204863D+05 0.99204863D+05 0.11220067D+01  1  2 15  2  7  2       -4 0.147005627714D-04 0.100000000000D+01
  </mgrwgt>
  </event>
  <event>
  8     66 0.29493621E-05 0.10836866E+03 0.75467711E-02 0.10520883E+00
        1 -1    0    0  501    0 0.00000000E+00 0.00000000E+00 0.74790972E+02 0.74791657E+02 0.32000000E+00 0.0000E+00 0.9000E+01
       -2 -1    0    0    0  501 0.00000000E+00 0.00000000E+00 -.75458166E+03 0.75458173E+03 0.32000000E+00 0.0000E+00 0.9000E+01
       25  2    1    2    0    0 -.91253487E+02 -.38682328E+02 -.60193151E+03 0.67986490E+03 0.30011866E+03 0.0000E+00 0.0000E+00
       23  2    3    3    0    0 -.13862041E+03 -.39662130E+02 -.19153755E+03 0.25680102E+03 0.92040355E+02 0.0000E+00 0.0000E+00
      -24  1    1    2    0    0 0.91253487E+02 0.38682328E+02 -.77859175E+02 0.14950849E+03 0.80419002E+02 0.0000E+00 0.9000E+01
      -11  1    4    4    0    0 -.14305668E+02 -.11188736E+02 -.95341030E+02 0.97055407E+02 0.51099893E-03 0.0000E+00 0.9000E+01
       11  1    4    4    0    0 -.12431475E+03 -.28473394E+02 -.96196517E+02 0.15974561E+03 0.51099893E-03 0.0000E+00 0.9000E+01
       23  1    3    3    0    0 0.47366927E+02 0.97980139E+00 -.41039397E+03 0.42306388E+03 0.91188000E+02 0.0000E+00 0.9000E+01
#aMCatNLO 1  0  0  2  1 0.53087647D+02 0.00000000D+00  -5  7  0 0.00000000D+00 0.00000000D+00 0.00000000D+00 0.00000000D+00 0.00000000D+00
  <mgrwgt>
 0.1235010123D-02    9    2    0
 0.237563061185088D+03 0.000000000000000D+00 0.000000000000000D+00 0.237563061185088D+03
 0.237563061185088D+03 0.000000000000000D+00 0.000000000000000D+00 -.237563061185088D+03
 0.149582220064303D+03 0.912534873958749D+02 0.386823281562373D+02 0.780006610965509D+02
 0.330085548594826D+02 -.143056678407930D+02 -.111887358585924D+02 -.275631048945329D+02
 0.141215686709465D+03 -.124314746498517D+03 -.284733936865898D+02 0.606381054107377D+02
 0.151319660736925D+03 0.473669269434354D+02 0.979801388944878D+00 -.111075661612756D+03
 0.000000000000000D+00 -.000000000000000D+00 -.000000000000000D+00 -.000000000000000D+00
 0.256437679104151D+03 0.000000000000000D+00 0.000000000000000D+00 0.256437679104151D+03
 0.279542794961426D+03 0.000000000000000D+00 0.000000000000000D+00 -.279542794961426D+03
 0.159013545744742D+03 0.991003079875081D+02 0.539733045238717D+02 0.780006610965509D+02
 0.313719261590343D+02 -.126686327932416D+02 -.799867130534047D+01 -.275631048945329D+02
 0.132922250363432D+03 -.117344102543206D+03 -.148898090049790D+02 0.606381054107377D+02
 0.154775043017072D+03 0.551501517654278D+02 0.161468496764986D+02 -.111075661612756D+03
 0.578977087812968D+02 -.242377244164883D+02 -.472316738900508D+02 -.231051158572752D+02
0.216965352883D-04 0.000000000000D+00 0.000000000000D+00 0.150558750509D-05 0.000000000000D+00  7 1 -2 -24 -11 11 23 21 0 0.11506361D-01 0.11608954D+00 0.35361226D+05 0.35361226D+05 0.35361226D+05 0.11607682D+01  1  2  2  2  7  2       -2 0.779133636711D-03 0.100000000000D+01
-.112528872819D-05 0.000000000000D+00 -.833204083358D-07 0.150558750509D-05 0.000000000000D+00  7 1 -2 -24 -11 11 23 21 2 0.11506361D-01 0.11608954D+00 0.35361226D+05 0.35361226D+05 0.35361226D+05 0.11607682D+01  1  2  3  2  7  2       -2 -.544473201042D-04 0.100000000000D+01
0.139636582844D-05 0.000000000000D+00 0.000000000000D+00 0.150558750509D-05 0.000000000000D+00  7 1 -2 -24 -11 11 23 21 2 0.11506361D-01 0.11608954D+00 0.35361226D+05 0.35361226D+05 0.35361226D+05 0.11607682D+01  1  2 15  2  7  2       -2 0.675634397990D-04 0.100000000000D+01
0.223016720364D-04 0.000000000000D+00 0.000000000000D+00 0.150558750509D-05 0.000000000000D+00  7 1 -2 -24 -11 11 23 21 2 0.11506361D-01 0.14058869D+00 0.46809066D+05 0.46809066D+05 0.46809066D+05 0.11498231D+01  1  2 12  2  7  2       -2 0.647064436685D-03 0.100000000000D+01
-.227462474329D-04 0.000000000000D+00 0.000000000000D+00 0.150558750509D-05 0.000000000000D+00  7 1 -2 -24 -11 11 23 21 2 0.11506361D-01 0.11608954D+00 0.35361226D+05 0.35361226D+05 0.35361226D+05 0.11607682D+01  1  2  4  2  7  2       -2 -.110058172994D-02 0.100000000000D+01
-.461379705979D-04 0.000000000000D+00 -.133493476356D-04 0.150558750509D-05 0.000000000000D+00  7 1 -2 -24 -11 11 23 21 2 0.11506361D-01 0.14391595D+00 0.35361226D+05 0.35361226D+05 0.35361226D+05 0.11607682D+01  1  2  5  2  7  2       -2 -.128479499252D-02 0.100000000000D+01
0.481919006024D-04 0.000000000000D+00 0.130470093998D-04 0.150558750509D-05 0.000000000000D+00  7 1 -2 -24 -11 11 23 21 2 0.11506361D-01 0.11608954D+00 0.35361226D+05 0.35361226D+05 0.35361226D+05 0.11607682D+01  1  2  6  2  7  2       -2 0.233177474615D-02 0.100000000000D+01
0.617152440940D-06 0.000000000000D+00 0.000000000000D+00 0.150558750509D-05 0.000000000000D+00  7 1 21 -24 -11 11 23 2 2 0.11506361D-01 0.14058869D+00 0.46809066D+05 0.46809066D+05 0.46809066D+05 0.11498231D+01  1  2 12  4  7  2       -2 0.165477977910D-03 0.100000000000D+01
-.122068364060D-05 0.000000000000D+00 -.403465566165D-06 0.150558750509D-05 0.000000000000D+00  7 1 21 -24 -11 11 23 2 2 0.11506361D-01 0.14391595D+00 0.35361226D+05 0.35361226D+05 0.35361226D+05 0.11607682D+01  1  2  5  4  7  2       -2 -.316180071324D-03 0.100000000000D+01
  </mgrwgt>
  </event>
  <event>
  8     66 0.29493621E-05 0.39952601E+03 0.75467711E-02 0.97212166E-01
        1 -1    0    0  501    0 0.00000000E+00 0.00000000E+00 0.70746235E+03 0.70746242E+03 0.32000000E+00 0.0000E+00 0.9000E+01
       -2 -1    0    0    0  501 0.00000000E+00 0.00000000E+00 -.31848132E+03 0.31848148E+03 0.32000000E+00 0.0000E+00 0.9000E+01
       25  2    1    2    0    0 -.35160215E+03 -.13764395E+03 0.70677081E+01 0.48290161E+03 0.30095528E+03 0.0000E+00 0.0000E+00
       23  2    3    3    0    0 -.10405714E+03 0.17617396E+02 -.83844853E+02 0.16358208E+03 0.92686977E+02 0.0000E+00 0.0000E+00
      -24  1    1    2    0    0 0.35160215E+03 0.13764395E+03 0.38191332E+03 0.54304229E+03 0.80419002E+02 0.0000E+00 0.9000E+01
      -13  1    4    4    0    0 -.23392954E+02 0.11311113E+02 -.78280682E+02 0.82480591E+02 0.10565837E+00 0.0000E+00 0.9000E+01
       13  1    4    4    0    0 -.80664185E+02 0.63062830E+01 -.55641717E+01 0.81101487E+02 0.10565837E+00 0.0000E+00 0.9000E+01
       23  1    3    3    0    0 -.24754501E+03 -.15526134E+03 0.90912562E+02 0.31931953E+03 0.91188000E+02 0.0000E+00 0.9000E+01
#aMCatNLO 1  0  0  2  2 0.18926514D+01 0.00000000D+00  -5  7  0 0.00000000D+00 0.00000000D+00 0.00000000D+00 0.00000000D+00 0.00000000D+00
  <mgrwgt>
 0.6417184805D-03    6    2    0
 0.474672161269769D+03 0.000000000000000D+00 0.000000000000000D+00 0.474672161269769D+03
 0.474672161269769D+03 0.000000000000000D+00 0.000000000000000D+00 -.474672161269769D+03
 0.430374816314779D+03 0.351602150623833D+03 0.137643946980261D+03 0.190224441384380D+03
 0.121210181664420D+03 -.233928799275237D+02 0.113111199032275D+02 -.118392313409077D+03
 0.899251114009346D+02 -.806642592922551D+02 0.630627651786231D+01 -.392432645148516D+02
 0.307834213159404D+03 -.247545011404054D+03 -.155261343401351D+03 -.325888634604518D+02
 0.000000000000000D+00 0.000000000000000D+00 0.000000000000000D+00 0.000000000000000D+00
 0.476418025309161D+03 0.000000000000000D+00 0.000000000000000D+00 0.476418025309161D+03
 0.475186326961357D+03 0.000000000000000D+00 0.000000000000000D+00 -.475186326961357D+03
 0.429625538192524D+03 0.350832788901430D+03 0.137265812365973D+03 0.190224441384380D+03
 0.121242330611426D+03 -.236097794688645D+02 0.112045156597150D+02 -.118392313409077D+03
 0.900640701247044D+02 -.808252787453131D+02 0.622713685312194D+01 -.392432645148516D+02
 0.308414270242422D+03 -.248096311170541D+03 -.155532302455444D+03 -.325888634604518D+02
 0.225814309944156D+01 0.169858048328881D+01 0.834837576634553D+00 0.123169834780470D+01
0.492953631455D-04 0.000000000000D+00 0.000000000000D+00 0.119707350990D-05 0.000000000000D+00  7 1 -2 -24 -13 13 23 21 0 0.10884038D+00 0.48997144D-01 0.15962104D+06 0.15962104D+06 0.15962104D+06 0.11054276D+01  1  2  2  2  7  2       -2 0.579993913885D-03 0.100000000000D+01
-.263972703638D-05 0.000000000000D+00 -.189307174246D-06 0.119707350990D-05 0.000000000000D+00  7 1 -2 -24 -13 13 23 21 2 0.10884038D+00 0.48997144D-01 0.15962104D+06 0.15962104D+06 0.15962104D+06 0.11054276D+01  1  2  3  2  7  2       -2 -.379522024827D-04 0.100000000000D+01
0.306288810247D-05 0.000000000000D+00 0.000000000000D+00 0.119707350990D-05 0.000000000000D+00  7 1 -2 -24 -13 13 23 21 2 0.10884038D+00 0.48997144D-01 0.15962104D+06 0.15962104D+06 0.15962104D+06 0.11054276D+01  1  2 15  2  7  2       -2 0.440361248891D-04 0.100000000000D+01
-.516683251199D-03 0.000000000000D+00 0.000000000000D+00 0.119707350990D-05 0.000000000000D+00  7 1 -2 -24 -13 13 23 21 2 0.10884038D+00 0.48997144D-01 0.15962104D+06 0.15962104D+06 0.15962104D+06 0.11054276D+01  1  2  4  2  7  2       -2 -.742852086551D-02 0.100000000000D+01
0.516689686095D-03 0.000000000000D+00 0.000000000000D+00 0.119707350990D-05 0.217727941840D-05  7 1 -2 -24 -13 13 23 21 2 0.10924070D+00 0.49050218D-01 0.16039885D+06 0.16039885D+06 0.16039885D+06 0.11052620D+01  1  2 11  2  7  2       -2 0.736847843123D-02 0.100000000000D+01
0.761001148475D-06 0.000000000000D+00 0.000000000000D+00 0.119707350990D-05 0.442632250722D-09  7 1 21 -24 -13 13 23 2 2 0.10924070D+00 0.49050218D-01 0.16039885D+06 0.16039885D+06 0.16039885D+06 0.11052620D+01  1  2 11  4  7  2       -2 0.115683078535D-03 0.100000000000D+01
  </mgrwgt>
  </event>
  <event>
  8     66 0.29493621E-05 0.31137652E+03 0.75467711E-02 0.99417781E-01
        1 -1    0    0  501    0 0.00000000E+00 0.00000000E+00 0.12948996E+04 0.12948997E+04 0.32000000E+00 0.0000E+00 0.9000E+01
       -2 -1    0    0    0  501 0.00000000E+00 0.00000000E+00 -.11757228E+03 0.11757271E+03 0.32000000E+00 0.0000E+00 0.9000E+01
       25  2    1    2    0    0 -.20039542E+03 -.12758564E+03 0.26336410E+03 0.46472112E+03 0.30028095E+03 0.0000E+00 0.0000E+00
       23  2    3    3    0    0 0.31034930E+02 -.89781902E+02 0.81772636E+02 0.15443119E+03 0.90212367E+02 0.0000E+00 0.0000E+00
      -24  1    1    2    0    0 0.20039542E+03 0.12758564E+03 0.91396326E+03 0.94775127E+03 0.80419002E+02 0.0000E+00 0.9000E+01
      -13  1    4    4    0    0 -.21284286E+02 -.50860934E+02 0.68419036E+02 0.87869398E+02 0.10565837E+00 0.0000E+00 0.9000E+01
       13  1    4    4    0    0 0.52319216E+02 -.38920968E+02 0.13353599E+02 0.66561790E+02 0.10565837E+00 0.0000E+00 0.9000E+01
       23  1    3    3    0    0 -.23143035E+03 -.37803733E+02 0.18159146E+03 0.31028993E+03 0.91188000E+02 0.0000E+00 0.9000E+01
#aMCatNLO 1  0  0  2  2 0.46014009D+02 0.00000000D+00  -5  7  0 0.00000000D+00 0.00000000D+00 0.00000000D+00 0.00000000D+00 0.00000000D+00
  <mgrwgt>
 0.8928379931D-03    4    2    0
 0.390185384697301D+03 0.000000000000000D+00 0.000000000000000D+00 0.390185384697301D+03
 0.390185384697301D+03 0.000000000000000D+00 0.000000000000000D+00 -.390185384697301D+03
 0.336556112605357D+03 0.200395419072233D+03 0.127585635269817D+03 0.224424558962073D+03
 0.558214753621776D+02 -.212843870950499D+02 -.508609502704449D+02 -.872787002570540D+01
 0.100330744210002D+03 0.523193166501257D+02 -.389209515630179D+02 -.762502909399434D+02
 0.287662437217065D+03 -.231430348627309D+03 -.378037334363540D+02 -.139446397996424D+03
 0.000000000000000D+00 0.000000000000000D+00 -.000000000000000D+00 0.000000000000000D+00
 0.444045864479265D+03 0.000000000000000D+00 0.000000000000000D+00 0.444045864479265D+03
 0.400815981387181D+03 0.000000000000000D+00 0.000000000000000D+00 -.400815981387181D+03
 0.336910502157069D+03 0.189467702555161D+03 0.144142559754243D+03 0.224424558962073D+03
 0.541067880138721D+02 -.230680908051607D+02 -.481584050877658D+02 -.872787002570540D+01
 0.968902829224121D+02 0.491191944340171D+02 -.340723464779323D+02 -.762502909399434D+02
 0.293818610895687D+03 -.240865500889559D+03 -.235082396558282D+02 -.139446397996424D+03
 0.631356618774065D+02 0.253466947055412D+02 -.384035685327171D+02 0.432298830920834D+02
0.513809773487D-04 0.000000000000D+00 0.000000000000D+00 0.429788004942D-05 0.000000000000D+00  7 1 -2 -24 -13 13 23 21 0 0.19921537D+00 0.18088079D-01 0.96955339D+05 0.96955339D+05 0.96955339D+05 0.11228257D+01  1  2  2  2  7  2       -2 0.125819567307D-02 0.100000000000D+01
-.267782862061D-05 0.000000000000D+00 -.197316481941D-06 0.429788004942D-05 0.000000000000D+00  7 1 -2 -24 -13 13 23 21 2 0.19921537D+00 0.18088079D-01 0.96955339D+05 0.96955339D+05 0.96955339D+05 0.11228257D+01  1  2  3  2  7  2       -2 -.826710133252D-04 0.100000000000D+01
0.327111768887D-05 0.000000000000D+00 0.000000000000D+00 0.429788004942D-05 0.000000000000D+00  7 1 -2 -24 -13 13 23 21 2 0.19921537D+00 0.18088079D-01 0.96955339D+05 0.96955339D+05 0.96955339D+05 0.11228257D+01  1  2 15  2  7  2       -2 0.100987274527D-03 0.100000000000D+01
-.124277303427D-04 0.000000000000D+00 0.000000000000D+00 0.429788004942D-05 0.000000000000D+00  7 1 -2 -24 -13 13 23 21 2 0.19921537D+00 0.18088079D-01 0.96955339D+05 0.96955339D+05 0.96955339D+05 0.11228257D+01  1  2  4  2  7  2       -2 -.383673941214D-03 0.100000000000D+01
  </mgrwgt>
  </event>
  <event>
  8     66 0.29493621E-05 0.27417173E+03 0.75467711E-02 0.97830580E-01
        1 -1    0    0  501    0 0.00000000E+00 0.00000000E+00 0.49377587E+03 0.49377597E+03 0.32000000E+00 0.0000E+00 0.9000E+01
       -2 -1    0    0    0  501 0.00000000E+00 0.00000000E+00 -.39759412E+03 0.39759425E+03 0.32000000E+00 0.0000E+00 0.9000E+01
       25  2    1    2    0    0 0.59353743E+02 0.21990472E+03 0.36848924E+03 0.52736536E+03 0.30074732E+03 0.0000E+00 0.0000E+00
       23  2    3    3    0    0 0.78113871E+02 0.10971786E+03 0.34465899E+03 0.38115928E+03 0.91393578E+02 0.0000E+00 0.0000E+00
      -24  1    1    2    0    0 -.59353743E+02 -.21990472E+03 -.27230750E+03 0.36400487E+03 0.80419002E+02 0.0000E+00 0.9000E+01
      -13  1    4    4    0    0 0.56632407E+02 0.12428781E+03 0.28191957E+03 0.31326242E+03 0.10565837E+00 0.0000E+00 0.9000E+01
       13  1    4    4    0    0 0.21481464E+02 -.14569947E+02 0.62739421E+02 0.67896854E+02 0.10565837E+00 0.0000E+00 0.9000E+01
       23  1    3    3    0    0 -.18760128E+02 0.11018686E+03 0.23830248E+02 0.14620608E+03 0.91188000E+02 0.0000E+00 0.9000E+01
#aMCatNLO 1  0  0  2  1 0.17490431D+03 0.00000000D+00  -5  7  0 0.00000000D+00 0.00000000D+00 0.00000000D+00 0.00000000D+00 0.00000000D+00
  <mgrwgt>
 0.7205159459D-03    4    2    0
 0.443082934497368D+03 0.000000000000000D+00 0.000000000000000D+00 0.443082934497368D+03
 0.443082934497368D+03 0.000000000000000D+00 0.000000000000000D+00 -.443082934497368D+03
 0.395698051722950D+03 -.593537432040990D+02 -.219904719407635D+03 -.313414708864915D+03
 0.284503783067646D+03 0.566324536345463D+02 0.124287991380646D+03 0.249574964637276D+03
 0.614857613111741D+02 0.214814172869573D+02 -.145701328277363D+02 0.557383062600614D+02
 0.144478272892966D+03 -.187601277174045D+02 0.110186860854725D+03 0.810143796757728D+01
 0.000000000000000D+00 -.000000000000000D+00 0.000000000000000D+00 0.000000000000000D+00
 0.562104926821882D+03 0.000000000000000D+00 0.000000000000000D+00 0.562104926821882D+03
 0.520858559593488D+03 0.000000000000000D+00 0.000000000000000D+00 -.520858559593488D+03
 0.405475419845239D+03 0.151910227271660D+02 -.243892503451676D+03 -.313414708864915D+03
 0.293118334201241D+03 0.110377000922475D+03 0.106993516338947D+03 0.249574964637276D+03
 0.675888424458620D+02 0.334910961719878D+02 -.184347312329151D+02 0.557383062600614D+02
 0.137078973270415D+03 0.743721874542631D+01 0.101756808367113D+03 0.810143796757728D+01
 0.179701916652613D+03 -.166496338567055D+03 0.535769099785312D+02 0.412463672283942D+02
0.857061621902D-04 0.000000000000D+00 0.000000000000D+00 0.426008339408D-05 0.000000000000D+00  7 1 -2 -24 -13 13 23 21 0 0.75965536D-01 0.61168345D-01 0.75170140D+05 0.75170140D+05 0.75170140D+05 0.11320381D+01  1  2  2  2  7  2       -2 0.110406475191D-02 0.100000000000D+01
-.342760141796D-05 0.000000000000D+00 -.329134229761D-06 0.426008339408D-05 0.000000000000D+00  7 1 -2 -24 -13 13 23 21 2 0.75965536D-01 0.61168345D-01 0.75170140D+05 0.75170140D+05 0.75170140D+05 0.11320381D+01  1  2  3  2  7  2       -2 -.565841676236D-04 0.100000000000D+01
0.538577345627D-05 0.000000000000D+00 0.000000000000D+00 0.426008339408D-05 0.000000000000D+00  7 1 -2 -24 -13 13 23 21 2 0.75965536D-01 0.61168345D-01 0.75170140D+05 0.75170140D+05 0.75170140D+05 0.11320381D+01  1  2 15  2  7  2       -2 0.889104276932D-04 0.100000000000D+01
-.251917457861D-04 0.000000000000D+00 0.000000000000D+00 0.426008339408D-05 0.000000000000D+00  7 1 -2 -24 -13 13 23 21 2 0.75965536D-01 0.61168345D-01 0.75170140D+05 0.75170140D+05 0.75170140D+05 0.11320381D+01  1  2  4  2  7  2       -2 -.415875066110D-03 0.100000000000D+01
  </mgrwgt>
  </event>
  <event>
  8     66 0.29493621E-05 0.48504146E+03 0.75467711E-02 0.87435006E-01
        3 -1    0    0  501    0 0.00000000E+00 0.00000000E+00 0.15028711E+04 0.15028712E+04 0.50000000E+00 0.0000E+00 0.9000E+01
       -4 -1    0    0    0  501 0.00000000E+00 0.00000000E+00 -.45854747E+03 0.45855009E+03 0.15500000E+01 0.0000E+00 0.9000E+01
       25  2    1    2    0    0 -.48294880E+03 0.62138241E+03 0.36271975E+03 0.91719587E+03 0.30054451E+03 0.0000E+00 0.0000E+00
       23  2    3    3    0    0 -.30397198E+03 0.42655361E+03 0.35591411E+03 0.63728064E+03 0.71448037E+02 0.0000E+00 0.0000E+00
      -24  1    1    2    0    0 0.48294880E+03 -.62138241E+03 0.68160390E+03 0.10442254E+04 0.80419002E+02 0.0000E+00 0.9000E+01
      -13  1    4    4    0    0 -.29985592E+03 0.42798641E+03 0.34681037E+03 0.62718688E+03 0.10565837E+00 0.0000E+00 0.9000E+01
       13  1    4    4    0    0 -.41160593E+01 -.14328004E+01 0.91037377E+01 0.10093764E+02 0.10565837E+00 0.0000E+00 0.9000E+01
       23  1    3    3    0    0 -.17897682E+03 0.19482880E+03 0.68056367E+01 0.27991523E+03 0.91188000E+02 0.0000E+00 0.9000E+01
#aMCatNLO 1  0  0  1  2 0.35746602D+03 0.00000000D+00  -5  7  0 0.00000000D+00 0.00000000D+00 0.00000000D+00 0.00000000D+00 0.00000000D+00
  <mgrwgt>
 0.1156931356D-03    9    2    0
 0.830144806839828D+03 0.000000000000000D+00 0.000000000000000D+00 0.830144806839828D+03
 0.830144806839828D+03 0.000000000000000D+00 0.000000000000000D+00 -.830144806839828D+03
 0.804890240387311D+03 0.482948800439666D+03 -.621382408375278D+03 0.148409709358922D+03
 0.522798730115649D+03 -.299856564621011D+03 0.427987346266274D+03 0.152113214473181D+02
 0.619711079991175D+01 -.411541255416039D+01 -.143373950520433D+01 0.440589977265230D+01
 0.326403532376785D+03 -.178976823264495D+03 0.194828801614209D+03 -.168026930578893D+03
 0.000000000000000D+00 -.000000000000000D+00 0.000000000000000D+00 0.000000000000000D+00
 0.137322952167263D+04 0.000000000000000D+00 0.000000000000000D+00 0.137322952167263D+04
 0.910125250642776D+03 0.000000000000000D+00 0.000000000000000D+00 -.910125250642776D+03
 0.969581222091915D+03 0.507673080238553D+03 -.808618038413676D+03 0.148409709358922D+03
 0.434972936305308D+03 -.286511624922205D+03 0.326926841666948D+03 0.152113214473181D+02
 0.652915468017303D+01 -.393809341706651D+01 -.277656771381942D+01 0.440589977265230D+01
 0.287252211856673D+03 -.170426561036313D+03 0.130078129468880D+03 -.168026930578893D+03
 0.585019247381342D+03 -.467968008629682D+02 0.354389634991667D+03 0.463104271029858D+03
0.283884987553D-02 0.000000000000D+00 0.000000000000D+00 0.701602650500D-07 0.000000000000D+00  7 3 -4 -24 -13 13 23 21 0 0.23121115D+00 0.70545973D-01 0.63828718D+06 0.63828718D+06 0.63828718D+06 0.10610954D+01  1  2  2  1  7  1        3 0.979428830881D-04 0.100000000000D+01
-.157432178724D-03 0.000000000000D+00 -.109019310084D-04 0.701602650500D-07 0.000000000000D+00  7 3 -4 -24 -13 13 23 21 2 0.23121115D+00 0.70545973D-01 0.63828718D+06 0.63828718D+06 0.63828718D+06 0.10610954D+01  1  2  3  1  7  1        3 -.611551171799D-05 0.100000000000D+01
0.181430910046D-03 0.000000000000D+00 0.000000000000D+00 0.701602650500D-07 0.000000000000D+00  7 3 -4 -24 -13 13 23 21 2 0.23121115D+00 0.70545973D-01 0.63828718D+06 0.63828718D+06 0.63828718D+06 0.10610954D+01  1  2 15  1  7  1        3 0.704775138973D-05 0.100000000000D+01
0.208129187644D-02 0.000000000000D+00 0.000000000000D+00 0.701602650500D-07 0.000000000000D+00  7 3 -4 -24 -13 13 23 21 2 0.38745379D+00 0.70545973D-01 0.98816467D+06 0.98816467D+06 0.98816467D+06 0.10482083D+01  1  2 12  1  7  1        3 0.407053148777D-05 0.100000000000D+01
-.269809653794D-02 0.000000000000D+00 0.000000000000D+00 0.701602650500D-07 0.000000000000D+00  7 3 -4 -24 -13 13 23 21 2 0.23121115D+00 0.70545973D-01 0.63828718D+06 0.63828718D+06 0.63828718D+06 0.10610954D+01  1  2  4  1  7  1        3 -.104808566633D-03 0.100000000000D+01
-.311193026759D-02 0.000000000000D+00 -.841863252410D-03 0.701602650500D-07 0.000000000000D+00  7 3 -4 -24 -13 13 23 21 2 0.39312062D+00 0.70545973D-01 0.63828718D+06 0.63828718D+06 0.63828718D+06 0.10610954D+01  1  2  5  1  7  1        3 -.599296661562D-05 0.100000000000D+01
0.320299225232D-02 0.000000000000D+00 0.735762691429D-03 0.701602650500D-07 0.000000000000D+00  7 3 -4 -24 -13 13 23 21 2 0.23121115D+00 0.70545973D-01 0.63828718D+06 0.63828718D+06 0.63828718D+06 0.10610954D+01  1  2  6  1  7  1        3 0.124421429027D-03 0.100000000000D+01
0.120387956325D-03 0.000000000000D+00 0.000000000000D+00 0.701602650500D-07 0.000000000000D+00  7 21 -4 -24 -13 13 23 -3 2 0.38745379D+00 0.70545973D-01 0.98816467D+06 0.98816467D+06 0.98816467D+06 0.10482083D+01  1  2 12  3  7  1        3 0.514624468514D-05 0.100000000000D+01
-.143574259925D-03 0.000000000000D+00 -.498039195859D-04 0.701602650500D-07 0.000000000000D+00  7 21 -4 -24 -13 13 23 -3 2 0.39312062D+00 0.70545973D-01 0.63828718D+06 0.63828718D+06 0.63828718D+06 0.10610954D+01  1  2  5  3  7  1        3 -.601865913797D-05 0.100000000000D+01
  </mgrwgt>
  </event>
  <event>
  9     66 0.29493621E-05 0.29648453E+03 0.75467711E-02 0.10059064E+00
        1 -1    0    0  502    0 0.00000000E+00 0.00000000E+00 0.11747372E+03 0.11747416E+03 0.32000000E+00 0.0000E+00 0.9000E+01
       -2 -1    0    0    0  501 0.00000000E+00 0.00000000E+00 -.92087701E+03 0.92087707E+03 0.32000000E+00 0.0000E+00 0.9000E+01
       25  2    1    2    0    0 -.22016958E+03 0.18155175E+01 -.33804940E+03 0.50246380E+03 0.29952385E+03 0.0000E+00 0.0000E+00
       23  2    3    3    0    0 -.17313866E+03 0.10245917E+03 -.24915818E+03 0.33347282E+03 0.93002384E+02 0.0000E+00 0.0000E+00
      -24  1    1    2    0    0 0.23422721E+03 0.80212692E+01 -.42369247E+03 0.49082507E+03 0.80419002E+02 0.0000E+00 0.9000E+01
      -13  1    4    4    0    0 -.12731403E+02 0.49707120E+01 0.74283212E+01 0.15555954E+02 0.10565837E+00 0.0000E+00 0.9000E+01
       13  1    4    4    0    0 -.16040726E+03 0.97488461E+02 -.25658650E+03 0.31791686E+03 0.10565837E+00 0.0000E+00 0.9000E+01
       23  1    3    3    0    0 -.47030915E+02 -.10064366E+03 -.88891224E+02 0.16899099E+03 0.91188000E+02 0.0000E+00 0.9000E+01
       21  1    1    2  502  501 -.14057631E+02 -.98367867E+01 -.41661419E+02 0.45062354E+02 0.75000000E+00 0.0000E+00 0.9000E+01
#aMCatNLO 2  0  0  1  2 0.17157487D+02 0.00000000D+00  -5  7  0 0.00000000D+00 0.00000000D+00 0.00000000D+00 0.00000000D+00 0.00000000D+00
  <mgrwgt>
 0.4040081677D-03    2    2    0
 0.318621143160299D+03 0.000000000000000D+00 0.000000000000000D+00 0.318621143160299D+03
 0.318621143160299D+03 0.000000000000000D+00 0.000000000000000D+00 -.318621143160299D+03
 0.253302722038035D+03 0.228583022239284D+03 0.407176555200084D+01 -.736768329039194D+02
 0.333310693556769D+02 -.134639824839924D+02 0.445783919758462D+01 0.301630407908780D+02
 0.190864147729851D+03 -.164593988776488D+03 0.945590629320476D+02 -.199129446516826D+02
 0.159744347197034D+03 -.505250509788035D+02 -.103088667681633D+03 0.634267367647241D+02
 0.000000000000000D+00 -.000000000000000D+00 -.000000000000000D+00 -.000000000000000D+00
 0.323411344965463D+03 0.000000000000000D+00 0.000000000000000D+00 0.323411344965463D+03
 0.334479721684042D+03 0.000000000000000D+00 0.000000000000000D+00 -.334479721684042D+03
 0.258499938071741D+03 0.234227209269018D+03 0.802126922743891D+01 -.736768329039194D+02
 0.331149451354234D+02 -.127312122926695D+02 0.497059303593810D+01 0.301630407908780D+02
 0.188762017119837D+03 -.160407451185353D+03 0.974885805962283D+02 -.199129446516826D+02
 0.157096323287997D+03 -.470309151678243D+02 -.100643656175947D+03 0.634267367647241D+02
 0.204178430345052D+02 -.140576306231716D+02 -.983678668365791D+01 -.110683767185786D+02
-.113231680684D-04 0.000000000000D+00 0.000000000000D+00 0.853803564195D-06 0.000000000000D+00  7 1 -2 -24 -13 13 23 21 2 0.17804856D-01 0.13495346D+00 0.87903078D+05 0.87903078D+05 0.87903078D+05 0.11263463D+01  1  2  8  1  7  1        1 -.196559617417D-03 0.100000000000D+01
0.403202476079D-04 0.000000000000D+00 0.000000000000D+00 0.853803564195D-06 0.195775690844D-07  7 1 -2 -24 -13 13 23 21 2 0.18072537D-01 0.14167043D+00 0.93035489D+05 0.93035489D+05 0.93035489D+05 0.11243039D+01  1  2  1  1  7  1        1 0.600567785131D-03 0.100000000000D+01
  </mgrwgt>
  </event>
  <event>
  8     66 0.29493621E-05 0.18724372E+03 0.75467711E-02 0.10272542E+00
        1 -1    0    0  501    0 0.00000000E+00 0.00000000E+00 0.11527675E+04 0.11527675E+04 0.32000000E+00 0.0000E+00 0.9000E+01
       -2 -1    0    0    0  501 0.00000000E+00 0.00000000E+00 -.32921688E+02 0.32923243E+02 0.32000000E+00 0.0000E+00 0.9000E+01
       25  2    1    2    0    0 0.84686582E+01 0.16492976E+02 0.77056537E+03 0.82679278E+03 0.29911799E+03 0.0000E+00 0.0000E+00
       23  2    3    3    0    0 -.11125453E+03 0.29146946E+01 0.31243257E+03 0.34438328E+03 0.92734392E+02 0.0000E+00 0.0000E+00
      -24  1    1    2    0    0 -.84686582E+01 -.16492976E+02 0.34928045E+03 0.35889801E+03 0.80419002E+02 0.0000E+00 0.9000E+01
      -11  1    4    4    0    0 0.78962973E+01 -.18205296E+02 0.21339734E+02 0.29140497E+02 0.51099893E-03 0.0000E+00 0.9000E+01
       11  1    4    4    0    0 -.11915083E+03 0.21119991E+02 0.29109284E+03 0.31524278E+03 0.51099893E-03 0.0000E+00 0.9000E+01
       23  1    3    3    0    0 0.11972319E+03 0.13578281E+02 0.45813280E+03 0.48240950E+03 0.91188000E+02 0.0000E+00 0.9000E+01
#aMCatNLO 1  0  0  1  2 0.12366469D+03 0.00000000D+00  -5  7  0 0.00000000D+00 0.00000000D+00 0.00000000D+00 0.00000000D+00 0.00000000D+00
  <mgrwgt>
 0.1249636260D-02    4    2    0
 0.194812730223674D+03 0.000000000000000D+00 0.000000000000000D+00 0.194812730223674D+03
 0.194812730223674D+03 0.000000000000000D+00 0.000000000000000D+00 -.194812730223674D+03
 0.882945921437652D+02 -.846865919907121D+01 -.164929778478857D+02 0.313844314994304D+02
 0.273452541803586D+02 0.789629758713653D+01 -.182052958349502D+02 -.188143193915100D+02
 0.122685437493777D+03 -.119150824098893D+03 0.211199914477560D+02 -.202174095976883D+02
 0.151300176629447D+03 0.119723185710828D+03 0.135782822350800D+02 0.764729748976793D+01
 0.000000000000000D+00 -.000000000000000D+00 0.000000000000000D+00 -.000000000000000D+00
 0.251569945325085D+03 0.000000000000000D+00 0.000000000000000D+00 0.251569945325085D+03
 0.285425038128893D+03 0.000000000000000D+00 0.000000000000000D+00 -.285425038128893D+03
 0.913027186045230D+02 0.185120393754251D+02 -.232656899280126D+02 0.313844314994304D+02
 0.325272088098450D+02 0.168908692214268D+02 -.204631189152135D+02 -.188143193915100D+02
 0.904049688672534D+02 -.871384960791172D+02 0.130842365508288D+02 -.202174095976883D+02
 0.194544941428368D+03 0.171679102227067D+03 0.536275096087165D+00 0.764729748976793D+01
 0.128215145743988D+03 -.119943514744801D+03 0.301082971963101D+02 -.338550928038073D+02
0.788944300295D-05 0.000000000000D+00 0.000000000000D+00 0.993173934268D-07 0.000000000000D+00  7 1 -2 -24 -11 11 23 21 0 0.17734897D+00 0.50649981D-02 0.35060210D+05 0.35060210D+05 0.35060210D+05 0.11611069D+01  1  2  2  1  7  1        1 0.172233832745D-02 0.100000000000D+01
-.437465530151D-06 0.000000000000D+00 -.302975384694D-07 0.993173934268D-07 0.000000000000D+00  7 1 -2 -24 -11 11 23 21 2 0.17734897D+00 0.50649981D-02 0.35060210D+05 0.35060210D+05 0.35060210D+05 0.11611069D+01  1  2  3  1  7  1        1 -.128753883247D-03 0.100000000000D+01
0.489673402244D-06 0.000000000000D+00 0.000000000000D+00 0.993173934268D-07 0.000000000000D+00  7 1 -2 -24 -11 11 23 21 2 0.17734897D+00 0.50649981D-02 0.35060210D+05 0.35060210D+05 0.35060210D+05 0.11611069D+01  1  2 15  1  7  1        1 0.144119588210D-03 0.100000000000D+01
-.165830203682D-05 0.000000000000D+00 0.000000000000D+00 0.993173934268D-07 0.000000000000D+00  7 1 -2 -24 -11 11 23 21 2 0.17734897D+00 0.50649981D-02 0.35060210D+05 0.35060210D+05 0.35060210D+05 0.11611069D+01  1  2  4  1  7  1        1 -.488067772477D-03 0.100000000000D+01
  </mgrwgt>
  </event>
  <event>
  8     66 0.29493621E-05 0.16913061E+03 0.75467711E-02 0.97839376E-01
        1 -1    0    0  501    0 0.00000000E+00 0.00000000E+00 0.14601444E+04 0.14601444E+04 0.32000000E+00 0.0000E+00 0.9000E+01
       -2 -1    0    0    0  501 0.00000000E+00 0.00000000E+00 -.11866161E+03 0.11866205E+03 0.32000000E+00 0.0000E+00 0.9000E+01
       25  2    1    2    0    0 0.35181931E+01 0.77047422E+02 0.89459864E+02 0.32183500E+03 0.29937605E+03 0.0000E+00 0.0000E+00
       23  2    3    3    0    0 0.70958129E+02 0.17200616E+01 -.49731135E+02 0.12712563E+03 0.93003895E+02 0.0000E+00 0.0000E+00
      -24  1    1    2    0    0 -.35181931E+01 -.77047422E+02 0.12520229E+04 0.12569715E+04 0.80419002E+02 0.0000E+00 0.9000E+01
      -13  1    4    4    0    0 0.29727382E+02 -.27220863E+02 -.63220187E+02 0.74976635E+02 0.10565837E+00 0.0000E+00 0.9000E+01
       13  1    4    4    0    0 0.41230748E+02 0.28940924E+02 0.13489052E+02 0.52148992E+02 0.10565837E+00 0.0000E+00 0.9000E+01
       23  1    3    3    0    0 -.67439936E+02 0.75327360E+02 0.13919100E+03 0.19470938E+03 0.91188000E+02 0.0000E+00 0.9000E+01
#aMCatNLO 1  0  0  1  2 0.33127123D+03 0.00000000D+00  -5  7  0 0.00000000D+00 0.00000000D+00 0.00000000D+00 0.00000000D+00 0.00000000D+00
  <mgrwgt>
 0.1393244091D-02    5    2    0
 0.416249277161401D+03 0.000000000000000D+00 0.000000000000000D+00 0.416249277161401D+03
 0.416249277161401D+03 0.000000000000000D+00 0.000000000000000D+00 -.416249277161401D+03
 0.366303962982502D+03 -.351819310435191D+01 -.770474217310583D+02 0.348945116693431D+03
 0.244063570192570D+03 0.297273670893307D+02 -.272209349498601D+02 -.240712132310640D+03
 0.771624829783529D+02 0.412307621806333D+02 0.289409963545021D+02 -.584507635484547D+02
 0.144968538169377D+03 -.674399361656121D+02 0.753273603264164D+02 -.497822208343367D+02
 0.000000000000000D+00 0.000000000000000D+00 -.000000000000000D+00 0.000000000000000D+00
 0.135395563057368D+04 0.000000000000000D+00 0.000000000000000D+00 0.135395563057368D+04
 0.478276904614238D+03 0.000000000000000D+00 0.000000000000000D+00 -.478276904614238D+03
 0.363617588807250D+03 -.650984906775622D+01 0.628129153642018D+02 0.348945116693431D+03
 0.251594402574218D+03 0.276958636676263D+02 0.677521357659421D+02 -.240712132310640D+03
 0.942100018670504D+02 0.405283750336939D+02 0.617776942716425D+02 -.584507635484547D+02
 0.186565991845308D+03 -.687987633592481D+02 0.138852722761431D+03 -.497822208343367D+02
 0.936244550094096D+03 0.708437372568403D+01 -.331195468163218D+03 0.875678725959446D+03
0.668713080210D-04 0.000000000000D+00 0.000000000000D+00 0.179134894613D-05 0.000000000000D+00  7 1 -2 -24 -13 13 23 21 0 0.22463764D+00 0.18255669D-01 0.28605163D+05 0.28605163D+05 0.28605163D+05 0.11692592D+01  1  2  2  1  7  1        1 0.128924642890D-02 0.100000000000D+01
-.513272694232D-07 0.000000000000D+00 -.256803430420D-06 0.179134894613D-05 0.000000000000D+00  7 1 -2 -24 -13 13 23 21 2 0.22463764D+00 0.18255669D-01 0.28605163D+05 0.28605163D+05 0.28605163D+05 0.11692592D+01  1  2  3  1  7  1        1 -.135290058831D-05 0.100000000000D+01
0.409225930302D-05 0.000000000000D+00 0.000000000000D+00 0.179134894613D-05 0.000000000000D+00  7 1 -2 -24 -13 13 23 21 2 0.22463764D+00 0.18255669D-01 0.28605163D+05 0.28605163D+05 0.28605163D+05 0.11692592D+01  1  2 15  1  7  1        1 0.107865079923D-03 0.100000000000D+01
-.442268183358D-04 0.000000000000D+00 -.185870464304D-04 0.179134894613D-05 0.000000000000D+00  7 1 -2 -24 -13 13 23 21 2 0.73918104D+00 0.18255669D-01 0.28605163D+05 0.28605163D+05 0.28605163D+05 0.11692592D+01  1  2  5  1  7  1        1 -.250055758855D-05 0.100000000000D+01
-.535465723595D-05 0.000000000000D+00 -.256245804458D-05 0.179134894613D-05 0.000000000000D+00  7 21 -2 -24 -13 13 23 -1 2 0.73918104D+00 0.18255669D-01 0.28605163D+05 0.28605163D+05 0.28605163D+05 0.11692592D+01  1  2  5  3  7  1        1 -.139595938712D-07 0.100000000000D+01
  </mgrwgt>
  </event>
  <event>
  8     66 0.29493621E-05 0.48016372E+03 0.75467711E-02 0.93415457E-01
        1 -1    0    0  501    0 0.00000000E+00 0.00000000E+00 0.90250204E+03 0.90250209E+03 0.32000000E+00 0.0000E+00 0.9000E+01
       -2 -1    0    0    0  501 0.00000000E+00 0.00000000E+00 -.38330903E+03 0.38330917E+03 0.32000000E+00 0.0000E+00 0.9000E+01
       25  2    1    2    0    0 -.25538382E+03 -.37820553E+03 -.60403892E+02 0.54374650E+03 0.28939818E+03 0.0000E+00 0.0000E+00
       23  2    3    3    0    0 -.10824573E+03 -.60631167E+02 -.91756452E+02 0.18070197E+03 0.94024894E+02 0.0000E+00 0.0000E+00
      -24  1    1    2    0    0 0.25538382E+03 0.37820553E+03 0.57959690E+03 0.74206475E+03 0.80419002E+02 0.0000E+00 0.9000E+01
      -11  1    4    4    0    0 -.56626563E+02 -.13441625E+01 -.84540404E+02 0.10176175E+03 0.51099893E-03 0.0000E+00 0.9000E+01
       11  1    4    4    0    0 -.51619166E+02 -.59287004E+02 -.72160480E+01 0.78940221E+02 0.51099893E-03 0.0000E+00 0.9000E+01
       23  1    3    3    0    0 -.14713809E+03 -.31757437E+03 0.31352560E+02 0.36304453E+03 0.91188000E+02 0.0000E+00 0.9000E+01
#aMCatNLO 1  0  0  2  2 0.13915009D+03 0.00000000D+00  -5  7  0 0.00000000D+00 0.00000000D+00 0.00000000D+00 0.00000000D+00 0.00000000D+00
  <mgrwgt>
 0.1526772998D-02    4    2    0
 0.588164351385963D+03 0.000000000000000D+00 0.000000000000000D+00 0.588164351385963D+03
 0.588164351385963D+03 0.000000000000000D+00 0.000000000000000D+00 -.588164351385963D+03
 0.555314650202675D+03 0.255383823759237D+03 0.378205532057864D+03 0.306017683897986D+03
 0.148546229884353D+03 -.566265632573379D+02 -.134416251839076D+01 -.137323005988225D+03
 0.894722256090083D+02 -.516191664905878D+02 -.592870041474399D+02 -.427292867418555D+02
 0.382995597075890D+03 -.147138094011311D+03 -.317574365392033D+03 -.125965391167906D+03
 0.000000000000000D+00 -.000000000000000D+00 -.000000000000000D+00 0.000000000000000D+00
 0.677255550609673D+03 0.000000000000000D+00 0.000000000000000D+00 0.677255550609673D+03
 0.649220816363846D+03 0.000000000000000D+00 0.000000000000000D+00 -.649220816363846D+03
 0.604979720447280D+03 0.257836563722556D+03 0.446549806569833D+03 0.306017683897986D+03
 0.149182779192517D+03 -.559971955233608D+02 0.161928295081481D+02 -.137323005988225D+03
 0.828683887919166D+02 -.512548566025658D+02 -.491357058578685D+02 -.427292867418555D+02
 0.347499383279810D+03 -.145593904642954D+03 -.274546362559373D+03 -.125965391167906D+03
 0.141946095261995D+03 -.499060695367570D+01 -.139060567660739D+03 0.280347342458263D+02
0.599415680971D-03 0.000000000000D+00 0.000000000000D+00 0.940411160594D-08 0.000000000000D+00  7 1 -2 -24 -11 11 23 21 0 0.13884648D+00 0.58970635D-01 0.23055720D+06 0.23055720D+06 0.23055720D+06 0.10931142D+01  1  2  2  2  7  2       -2 0.326203482452D-02 0.100000000000D+01
-.316343436548D-04 0.000000000000D+00 -.230191404470D-05 0.940411160594D-08 0.000000000000D+00  7 1 -2 -24 -11 11 23 21 2 0.13884648D+00 0.58970635D-01 0.23055720D+06 0.23055720D+06 0.23055720D+06 0.10931142D+01  1  2  3  2  7  2       -2 -.205707619094D-03 0.100000000000D+01
0.388205725583D-04 0.000000000000D+00 0.000000000000D+00 0.940411160594D-08 0.000000000000D+00  7 1 -2 -24 -11 11 23 21 2 0.13884648D+00 0.58970635D-01 0.23055720D+06 0.23055720D+06 0.23055720D+06 0.10931142D+01  1  2 15  2  7  2       -2 0.252437276397D-03 0.100000000000D+01
-.274040073175D-03 0.000000000000D+00 0.000000000000D+00 0.940411160594D-08 0.000000000000D+00  7 1 -2 -24 -11 11 23 21 2 0.13884648D+00 0.58970635D-01 0.23055720D+06 0.23055720D+06 0.23055720D+06 0.10931142D+01  1  2  4  2  7  2       -2 -.178199148383D-02 0.100000000000D+01
  </mgrwgt>
  </event>
  <event>
  8     66 0.29493621E-05 0.30933157E+03 0.75467711E-02 0.95546493E-01
        1 -1    0    0  501    0 0.00000000E+00 0.00000000E+00 0.12220505E+04 0.12220505E+04 0.32000000E+00 0.0000E+00 0.9000E+01
       -2 -1    0    0    0  501 0.00000000E+00 0.00000000E+00 -.15798829E+03 0.15798861E+03 0.32000000E+00 0.0000E+00 0.9000E+01
       25  2    1    2    0    0 -.25019009E+03 0.44683008E+02 0.13826816E+03 0.41663192E+03 0.29978729E+03 0.0000E+00 0.0000E+00
       23  2    3    3    0    0 -.37219783E+01 0.28579522E+02 -.37532816E+02 0.10004530E+03 0.88145948E+02 0.0000E+00 0.0000E+00
      -24  1    1    2    0    0 0.25019009E+03 -.44683008E+02 0.92579406E+03 0.96340724E+03 0.80419002E+02 0.0000E+00 0.9000E+01
      -11  1    4    4    0    0 -.43806876E+02 0.17895301E+02 -.34281430E+02 0.58433728E+02 0.51099893E-03 0.0000E+00 0.9000E+01
       11  1    4    4    0    0 0.40084897E+02 0.10684221E+02 -.32513856E+01 0.41611574E+02 0.51099893E-03 0.0000E+00 0.9000E+01
       23  1    3    3    0    0 -.24646811E+03 0.16103487E+02 0.17580097E+03 0.31658662E+03 0.91188000E+02 0.0000E+00 0.9000E+01
#aMCatNLO 1  0  0  2  2 0.25489414D+03 0.00000000D+00  -5  7  0 0.00000000D+00 0.00000000D+00 0.00000000D+00 0.00000000D+00 0.00000000D+00
  <mgrwgt>
 0.9841469746D-03    4    2    0
 0.439397222666923D+03 0.000000000000000D+00 0.000000000000000D+00 0.439397222666923D+03
 0.439397222666923D+03 0.000000000000000D+00 0.000000000000000D+00 -.439397222666923D+03
 0.391942891916040D+03 0.250190091003710D+03 -.446830081976676D+02 0.287333189365762D+03
 0.133271674657836D+03 -.438068757911520D+02 0.178953008169358D+02 -.124587539939570D+03
 0.692827297238970D+02 0.400848974804323D+02 0.106842208756801D+02 -.554900446589970D+02
 0.284297149036073D+03 -.246468112692990D+03 0.161034865050517D+02 -.107255604767194D+03
 0.000000000000000D+00 -.000000000000000D+00 0.000000000000000D+00 0.000000000000000D+00
 0.625900423573747D+03 0.000000000000000D+00 0.000000000000000D+00 0.625900423573747D+03
 0.553964219092625D+03 0.000000000000000D+00 0.000000000000000D+00 -.553964219092625D+03
 0.445096964387123D+03 0.290873374431410D+03 -.156449385067649D+03 0.287333189365762D+03
 0.129540917822508D+03 -.310331958908080D+02 -.171969484184415D+02 -.124587539939570D+03
 0.732030404385099D+02 0.470102415106834D+02 -.834129883722266D+01 -.554900446589970D+02
 0.267173120729404D+03 -.219664584619778D+03 -.575319963683889D+02 -.107255604767194D+03
 0.264850599288827D+03 -.871858354315074D+02 0.239519628691702D+03 0.719362044811223D+02
0.762383605842D-04 0.000000000000D+00 0.000000000000D+00 0.129400904341D-05 0.000000000000D+00  7 1 -2 -24 -11 11 23 21 0 0.18800780D+00 0.24305919D-01 0.95686019D+05 0.95686019D+05 0.95686019D+05 0.11232970D+01  1  2  2  2  7  2       -2 0.128226372127D-02 0.100000000000D+01
-.360105116915D-05 0.000000000000D+00 -.292775378665D-06 0.129400904341D-05 0.000000000000D+00  7 1 -2 -24 -11 11 23 21 2 0.18800780D+00 0.24305919D-01 0.95686019D+05 0.95686019D+05 0.95686019D+05 0.11232970D+01  1  2  3  2  7  2       -2 -.764226916850D-04 0.100000000000D+01
0.494628160922D-05 0.000000000000D+00 0.000000000000D+00 0.129400904341D-05 0.000000000000D+00  7 1 -2 -24 -11 11 23 21 2 0.18800780D+00 0.24305919D-01 0.95686019D+05 0.95686019D+05 0.95686019D+05 0.11232970D+01  1  2 15  2  7  2       -2 0.104971614302D-03 0.100000000000D+01
-.153925459081D-04 0.000000000000D+00 0.000000000000D+00 0.129400904341D-05 0.000000000000D+00  7 1 -2 -24 -11 11 23 21 2 0.18800780D+00 0.24305919D-01 0.95686019D+05 0.95686019D+05 0.95686019D+05 0.11232970D+01  1  2  4  2  7  2       -2 -.326665669252D-03 0.100000000000D+01
  </mgrwgt>
  </event>
  <event>
  8     66 0.29493621E-05 0.23066328E+03 0.75467711E-02 0.10427878E+00
        3 -1    0    0  501    0 0.00000000E+00 0.00000000E+00 0.10687272E+03 0.10687389E+03 0.50000000E+00 0.0000E+00 0.9000E+01
       -4 -1    0    0    0  501 0.00000000E+00 0.00000000E+00 -.56968087E+03 0.56968297E+03 0.15500000E+01 0.0000E+00 0.9000E+01
       25  2    1    2    0    0 0.10604946E+03 0.41930198E+02 -.20557072E+03 0.38390871E+03 0.30351597E+03 0.0000E+00 0.0000E+00
       23  2    3    3    0    0 -.56765150E+02 -.49207679E+02 -.66903107E+02 0.13419153E+03 0.88812515E+02 0.0000E+00 0.0000E+00
      -24  1    1    2    0    0 -.10604946E+03 -.41930198E+02 -.25723743E+03 0.29264815E+03 0.80419002E+02 0.0000E+00 0.9000E+01
      -11  1    4    4    0    0 0.22388086E+02 -.19076201E+02 -.63868433E+01 0.30098499E+02 0.51099893E-03 0.0000E+00 0.9000E+01
       11  1    4    4    0    0 -.79153236E+02 -.30131478E+02 -.60516264E+02 0.10409303E+03 0.51099893E-03 0.0000E+00 0.9000E+01
       23  1    3    3    0    0 0.16281461E+03 0.91137878E+02 -.13866762E+03 0.24971718E+03 0.91188000E+02 0.0000E+00 0.9000E+01
#aMCatNLO 1  0  0  2  2 0.11984403D+01 0.00000000D+00  -5  7  0 0.00000000D+00 0.00000000D+00 0.00000000D+00 0.00000000D+00 0.00000000D+00
  <mgrwgt>
 0.2183993382D-03    6    2    0
 0.246747745887799D+03 0.000000000000000D+00 0.000000000000000D+00 0.246747745887799D+03
 0.246747745887799D+03 0.000000000000000D+00 0.000000000000000D+00 -.246747745887799D+03
 0.159964046887859D+03 -.106049463750154D+03 -.419301982684610D+02 -.782090151698830D+02
 0.352738029450554D+02 0.223880862430681D+02 -.190762013969847D+02 0.194708322585662D+02
 0.859530311337761D+02 -.791532359147099D+02 -.301314776537878D+02 0.146554720058230D+02
 0.212304610808908D+03 0.162814613421796D+03 0.911378773192334D+02 0.440827109054938D+02
 0.000000000000000D+00 0.000000000000000D+00 -.000000000000000D+00 0.000000000000000D+00
 0.249203630136624D+03 0.000000000000000D+00 0.000000000000000D+00 0.249203630136624D+03
 0.246894722727509D+03 0.000000000000000D+00 0.000000000000000D+00 -.246894722727509D+03
 0.160187256707160D+03 -.106425157244334D+03 -.418303371809384D+02 -.782090151698830D+02
 0.352094621556055D+02 0.223053750254359D+02 -.190542163685745D+02 0.194708322585662D+02
 0.861202583439803D+02 -.793551617374474D+02 -.300778048258846D+02 0.146554720058230D+02
 0.211979969756532D+03 0.162316720847849D+03 0.912702194935696D+02 0.440827109054938D+02
 0.260140590085524D+01 0.115822310849636D+01 -.307861118172165D+00 0.230890740911525D+01
0.162462171004D-04 0.000000000000D+00 0.000000000000D+00 0.110347456958D-07 0.000000000000D+00  7 3 -4 -24 -11 11 23 21 0 0.16442208D-01 0.87643462D-01 0.53205547D+05 0.53205547D+05 0.53205547D+05 0.11449292D+01  1  2  2  2  7  2       -4 0.158901444099D-03 0.100000000000D+01
-.897581314219D-06 0.000000000000D+00 -.623897513928D-07 0.110347456958D-07 0.000000000000D+00  7 3 -4 -24 -11 11 23 21 2 0.16442208D-01 0.87643462D-01 0.53205547D+05 0.53205547D+05 0.53205547D+05 0.11449292D+01  1  2  3  2  7  2       -4 -.115081797428D-04 0.100000000000D+01
0.105270089729D-05 0.000000000000D+00 0.000000000000D+00 0.110347456958D-07 0.000000000000D+00  7 3 -4 -24 -11 11 23 21 2 0.16442208D-01 0.87643462D-01 0.53205547D+05 0.53205547D+05 0.53205547D+05 0.11449292D+01  1  2 15  2  7  2       -4 0.134970179855D-04 0.100000000000D+01
-.276656602875D-04 0.000000000000D+00 0.000000000000D+00 0.110347456958D-07 0.000000000000D+00  7 3 -4 -24 -11 11 23 21 2 0.16442208D-01 0.87643462D-01 0.53205547D+05 0.53205547D+05 0.53205547D+05 0.11449292D+01  1  2  4  2  7  2       -4 -.354710360219D-03 0.100000000000D+01
0.276672625780D-04 0.000000000000D+00 0.000000000000D+00 0.110347456958D-07 0.536981599071D-07  7 3 -4 -24 -11 11 23 21 2 0.16605858D-01 0.87695668D-01 0.53486147D+05 0.53486147D+05 0.53486147D+05 0.11447296D+01  1  2 11  2  7  2       -4 0.348175787849D-03 0.100000000000D+01
0.213701947419D-06 0.000000000000D+00 0.000000000000D+00 0.110347456958D-07 0.602602750979D-11  7 3 21 -24 -11 11 23 4 2 0.16605858D-01 0.87695668D-01 0.53486147D+05 0.53486147D+05 0.53486147D+05 0.11447296D+01  1  2 11  4  7  2       -4 0.640436281862D-04 0.100000000000D+01
  </mgrwgt>
  </event>
  <event>
  8     66 0.29493621E-05 0.20867539E+03 0.75467711E-02 0.96973132E-01
        1 -1    0    0  501    0 0.00000000E+00 0.00000000E+00 0.87891410E+03 0.87891415E+03 0.32000000E+00 0.0000E+00 0.9000E+01
       -2 -1    0    0    0  501 0.00000000E+00 0.00000000E+00 -.66027761E+02 0.66028537E+02 0.32000000E+00 0.0000E+00 0.9000E+01
       25  2    1    2    0    0 0.97607557E+02 0.46041727E+02 0.69966896E+03 0.76906641E+03 0.30046533E+03 0.0000E+00 0.0000E+00
       23  2    3    3    0    0 0.11791343E+03 -.66535658E+02 0.27548675E+03 0.32036629E+03 0.91711740E+02 0.0000E+00 0.0000E+00
      -24  1    1    2    0    0 -.97607557E+02 -.46041727E+02 0.11321738E+03 0.17587628E+03 0.80419002E+02 0.0000E+00 0.9000E+01
      -11  1    4    4    0    0 0.67022191E+01 -.91028609E+01 0.12105172E+03 0.12157838E+03 0.51099893E-03 0.0000E+00 0.9000E+01
       11  1    4    4    0    0 0.11121121E+03 -.57432797E+02 0.15443502E+03 0.19878792E+03 0.51099893E-03 0.0000E+00 0.9000E+01
       23  1    3    3    0    0 -.20305870E+02 0.11257739E+03 0.42418221E+03 0.44870012E+03 0.91188000E+02 0.0000E+00 0.9000E+01
#aMCatNLO 1  0  0  1  1 0.30468188D+03 0.00000000D+00  -5  7  0 0.00000000D+00 0.00000000D+00 0.00000000D+00 0.00000000D+00 0.00000000D+00
  <mgrwgt>
 0.1062663412D-02    5    2    0
 0.240900651906714D+03 0.000000000000000D+00 0.000000000000000D+00 0.240900651906714D+03
 0.240900651906714D+03 0.000000000000000D+00 0.000000000000000D+00 -.240900651906714D+03
 0.153922680320867D+03 -.976075573578958D+02 -.460417273250228D+02 -.746853376128304D+02
 0.342118337798648D+02 0.670221911294433D+01 -.910286093875454D+01 0.322903662455674D+02
 0.129316935303947D+03 0.111211207977804D+03 -.574327974001339D+02 -.325024731261805D+02
 0.164349854408749D+03 -.203058697328527D+02 0.112577385663911D+03 0.748974444934435D+02
 0.000000000000000D+00 0.000000000000000D+00 -.000000000000000D+00 0.000000000000000D+00
 0.445491481761075D+03 0.000000000000000D+00 0.000000000000000D+00 0.445491481761075D+03
 0.429657309986476D+03 0.000000000000000D+00 0.000000000000000D+00 -.429657309986476D+03
 0.200193682242934D+03 -.164376187506452D+03 0.318255209244924D+02 -.746853376128304D+02
 0.333497939334434D+02 -.603652388205529D+01 0.575338009796307D+01 0.322903662455674D+02
 0.796546407050792D+02 0.718096232300961D+02 -.114816827202647D+02 -.325024731261805D+02
 0.256857622477634D+03 -.997245275898918D+02 0.205197412961731D+03 0.748974444934435D+02
 0.305093052388461D+03 0.198327615748303D+03 -.231294631263922D+03 0.158341717745994D+02
0.841166697352D-05 0.000000000000D+00 0.000000000000D+00 0.106675981399D-05 0.000000000000D+00  7 1 -2 -24 -11 11 23 21 0 0.13521762D+00 0.10158181D-01 0.43545420D+05 0.43545420D+05 0.43545420D+05 0.11526131D+01  1  2  2  1  7  1        1 0.103522445172D-02 0.100000000000D+01
-.455597507008D-06 0.000000000000D+00 -.323030160211D-07 0.106675981399D-05 0.000000000000D+00  7 1 -2 -24 -11 11 23 21 2 0.13521762D+00 0.10158181D-01 0.43545420D+05 0.43545420D+05 0.43545420D+05 0.11526131D+01  1  2  3  1  7  1        1 -.744905016316D-04 0.100000000000D+01
0.541570485154D-06 0.000000000000D+00 0.000000000000D+00 0.106675981399D-05 0.000000000000D+00  7 1 -2 -24 -11 11 23 21 2 0.13521762D+00 0.10158181D-01 0.43545420D+05 0.43545420D+05 0.43545420D+05 0.11526131D+01  1  2 15  1  7  1        1 0.885471419125D-04 0.100000000000D+01
0.621951869832D-06 0.000000000000D+00 -.244867178776D-05 0.106675981399D-05 0.000000000000D+00  7 1 -2 -24 -11 11 23 21 2 0.35083386D+00 0.10158181D-01 0.43545420D+05 0.43545420D+05 0.43545420D+05 0.11526131D+01  1  2  5  1  7  1        1 0.115979889902D-04 0.100000000000D+01
0.213415861113D-06 0.000000000000D+00 -.258578215035D-06 0.106675981399D-05 0.000000000000D+00  7 21 -2 -24 -11 11 23 -1 2 0.35083386D+00 0.10158181D-01 0.43545420D+05 0.43545420D+05 0.43545420D+05 0.11526131D+01  1  2  5  3  7  1        1 0.178433131328D-05 0.100000000000D+01
  </mgrwgt>
  </event>
  <event>
  9     66 0.29493621E-05 0.18310672E+03 0.75467711E-02 0.10636370E+00
        1 -1    0    0  501    0 0.00000000E+00 0.00000000E+00 0.14541763E+04 0.14541764E+04 0.32000000E+00 0.0000E+00 0.9000E+01
       21 -1    0    0  502  501 0.00000000E+00 0.00000000E+00 -.61639432E+02 0.61643994E+02 0.75000000E+00 0.0000E+00 0.9000E+01
       25  2    1    2    0    0 -.32181365E+02 -.53863819E+02 0.11825512E+04 0.12216631E+04 0.30016090E+03 0.0000E+00 0.0000E+00
       23  2    3    3    0    0 -.17005852E+01 0.45757529E+02 0.88564427E+03 0.89406207E+03 0.11351024E+03 0.0000E+00 0.0000E+00
      -24  1    1    2    0    0 0.91926639E+01 0.72995822E+02 0.31887122E+02 0.11356452E+03 0.80419002E+02 0.0000E+00 0.9000E+01
      -13  1    4    4    0    0 0.97944390E+01 -.36900532E+02 0.32643227E+03 0.32865730E+03 0.10565837E+00 0.0000E+00 0.9000E+01
       13  1    4    4    0    0 -.11495024E+02 0.82658061E+02 0.55921200E+03 0.56540477E+03 0.10565837E+00 0.0000E+00 0.9000E+01
       23  1    3    3    0    0 -.30480780E+02 -.99621348E+02 0.29690693E+03 0.32760108E+03 0.91188000E+02 0.0000E+00 0.9000E+01
        2  1    1    2  502    0 0.22988701E+02 -.19132002E+02 0.17809860E+03 0.18059271E+03 0.32000000E+00 0.0000E+00 0.9000E+01
#aMCatNLO 2  0  0  2  1 0.29908425D+02 0.00000000D+00  -5  7  0 0.00000000D+00 0.00000000D+00 0.00000000D+00 0.00000000D+00 0.00000000D+00
  <mgrwgt>
 0.2610982843D-03    1    2    0
 0.277073086211392D+03 0.000000000000000D+00 0.000000000000000D+00 0.277073086211392D+03
 0.277073086211392D+03 0.000000000000000D+00 0.000000000000000D+00 -.277073086211392D+03
 0.201615241059351D+03 0.175887654976328D+02 0.660082920654331D+02 -.171799389346771D+03
 0.781949254977271D+02 0.129988425653684D+02 -.395669937027510D+02 0.661810356135526D+02
 0.133484625487316D+03 -.589644286769373D+01 0.779987475617085D+02 0.108164562504555D+03
 0.140851380378390D+03 -.246911651953075D+02 -.104440045924391D+03 -.254620877133640D+01
 0.000000000000000D+00 0.000000000000000D+00 -.000000000000000D+00 0.000000000000000D+00
 0.316511558119189D+03 0.000000000000000D+00 0.000000000000000D+00 0.316511558119189D+03
 0.283205238988805D+03 0.000000000000000D+00 0.000000000000000D+00 -.283205238988805D+03
 0.203457959357389D+03 0.919266397067566D+01 0.729958219400337D+02 -.171799389346771D+03
 0.764034192849200D+02 0.979442569118556D+01 -.369001657032162D+02 0.661810356135526D+02
 0.136616438569341D+03 -.114949271762724D+02 0.826580023638420D+02 0.108164562504555D+03
 0.138474878344095D+03 -.304808635139479D+02 -.996216561232984D+02 -.254620877133640D+01
 0.447641015522488D+02 0.229887010283591D+02 -.191320024773611D+02 0.333063191303845D+02
0.242648193043D-06 0.000000000000D+00 0.000000000000D+00 0.126126491694D-07 0.437934121148D-12  7 1 21 -24 -13 13 23 2 2 0.22371935D+00 0.94833243D-02 0.39797692D+05 0.39797692D+05 0.39797692D+05 0.11561166D+01  1  2  1  4  7  2       -2 0.261098284333D-03 0.100000000000D+01
  </mgrwgt>
  </event>
  <event>
  8     66 0.29493621E-05 0.22191552E+03 0.75467711E-02 0.94298420E-01
        1 -1    0    0  501    0 0.00000000E+00 0.00000000E+00 0.14611699E+04 0.14611699E+04 0.32000000E+00 0.0000E+00 0.9000E+01
       -2 -1    0    0    0  501 0.00000000E+00 0.00000000E+00 -.83639386E+02 0.83639998E+02 0.32000000E+00 0.0000E+00 0.9000E+01
       25  2    1    2    0    0 0.61601649E+01 0.10388542E+03 0.13770502E+04 0.14132897E+04 0.30048346E+03 0.0000E+00 0.0000E+00
       23  2    3    3    0    0 0.41715549E+02 -.66255059E+02 0.49697441E+03 0.51159093E+03 0.92799766E+02 0.0000E+00 0.0000E+00
      -24  1    1    2    0    0 -.61601649E+01 -.10388542E+03 0.48029316E+00 0.13152024E+03 0.80419002E+02 0.0000E+00 0.9000E+01
      -13  1    4    4    0    0 0.42812260E+01 -.76971090E+02 0.25157078E+03 0.26311736E+03 0.10565837E+00 0.0000E+00 0.9000E+01
       13  1    4    4    0    0 0.37434323E+02 0.10716031E+02 0.24540363E+03 0.24847357E+03 0.10565837E+00 0.0000E+00 0.9000E+01
       23  1    3    3    0    0 -.35555384E+02 0.17014048E+03 0.88007580E+03 0.90169875E+03 0.91188000E+02 0.0000E+00 0.9000E+01
#aMCatNLO 1  0  0  2  1 0.44335222D+03 0.00000000D+00  -5  7  0 0.00000000D+00 0.00000000D+00 0.00000000D+00 0.00000000D+00 0.00000000D+00
  <mgrwgt>
 0.1863946128D-02    3    2    0
 0.349588117670517D+03 0.000000000000000D+00 0.000000000000000D+00 0.349588117670517D+03
 0.349588117670517D+03 0.000000000000000D+00 0.000000000000000D+00 -.349588117670517D+03
 0.289643937691961D+03 -.616016488657257D+01 -.103885417886489D+03 -.258062525381842D+03
 0.857007191836579D+02 0.428118349831718D+01 -.769712030616500D+02 0.374395330592164D+02
 0.654962627032827D+02 0.374343652618888D+02 0.107161434523892D+02 0.526649123709964D+02
 0.258335315762133D+03 -.355553838736334D+02 0.170140477495750D+03 0.167958079951629D+03
 0.000000000000000D+00 -.000000000000000D+00 -.000000000000000D+00 0.000000000000000D+00
 0.100819558641604D+04 0.000000000000000D+00 0.000000000000000D+00 0.100819558641604D+04
 0.496640206551511D+03 0.000000000000000D+00 0.000000000000000D+00 -.496640206551511D+03
 0.278520436038419D+03 0.387804561760539D+02 0.548290666433754D+02 -.258062525381842D+03
 0.552561312324549D+02 0.154305773949116D+02 -.375954609540270D+02 0.374395330592164D+02
 0.905592809893146D+02 0.497780344148217D+02 0.543096461786830D+02 0.526649123709964D+02
 0.403558223916272D+03 0.167990194043933D+02 0.355037836113940D+03 0.167958079951629D+03
 0.676941720791088D+03 -.120788087390181D+03 -.426581087981972D+03 0.511555379864525D+03
0.548049544794D-04 0.000000000000D+00 0.000000000000D+00 0.174225995607D-05 0.000000000000D+00  7 1 -2 -24 -13 13 23 21 0 0.22479542D+00 0.12867648D-01 0.49246500D+05 0.49246500D+05 0.49246500D+05 0.11478759D+01  1  2  2  2  7  2       -2 0.181365400347D-02 0.100000000000D+01
-.228014841937D-05 0.000000000000D+00 -.210465455677D-06 0.174225995607D-05 0.000000000000D+00  7 1 -2 -24 -13 13 23 21 2 0.22479542D+00 0.12867648D-01 0.49246500D+05 0.49246500D+05 0.49246500D+05 0.11478759D+01  1  2  3  2  7  2       -2 -.994231710847D-04 0.100000000000D+01
0.343353657212D-05 0.000000000000D+00 0.000000000000D+00 0.174225995607D-05 0.000000000000D+00  7 1 -2 -24 -13 13 23 21 2 0.22479542D+00 0.12867648D-01 0.49246500D+05 0.49246500D+05 0.49246500D+05 0.11478759D+01  1  2 15  2  7  2       -2 0.149715295344D-03 0.100000000000D+01
  </mgrwgt>
  </event>
  <event>
  8     66 0.29493621E-05 0.28581826E+03 0.75467711E-02 0.98532289E-01
        1 -1    0    0  501    0 0.00000000E+00 0.00000000E+00 0.12816859E+03 0.12816899E+03 0.32000000E+00 0.0000E+00 0.9000E+01
       -2 -1    0    0    0  501 0.00000000E+00 0.00000000E+00 -.78784748E+03 0.78784754E+03 0.32000000E+00 0.0000E+00 0.9000E+01
       25  2    1    2    0    0 0.13132642E+03 -.14670806E+03 -.58581482E+03 0.69086547E+03 0.30878183E+03 0.0000E+00 0.0000E+00
       23  2    3    3    0    0 0.16510035E+03 -.18136910E+03 -.44540885E+03 0.51659226E+03 0.91244979E+02 0.0000E+00 0.0000E+00
      -24  1    1    2    0    0 -.13132642E+03 0.14670806E+03 -.73864072E+02 0.22515106E+03 0.80419002E+02 0.0000E+00 0.9000E+01
      -13  1    4    4    0    0 0.36709614E+02 -.92630185E+02 -.22934819E+03 0.25005709E+03 0.10565837E+00 0.0000E+00 0.9000E+01
       13  1    4    4    0    0 0.12839073E+03 -.88738913E+02 -.21606066E+03 0.26653516E+03 0.10565837E+00 0.0000E+00 0.9000E+01
       23  1    3    3    0    0 -.33773924E+02 0.34661038E+02 -.14040597E+03 0.17427321E+03 0.91188000E+02 0.0000E+00 0.9000E+01
#aMCatNLO 1  0  0  2  1 0.13052057D+03 0.00000000D+00  -5  7  0 0.00000000D+00 0.00000000D+00 0.00000000D+00 0.00000000D+00 0.00000000D+00
  <mgrwgt>
 0.7696344061D-03    4    2    0
 0.317769593502672D+03 0.000000000000000D+00 0.000000000000000D+00 0.317769593502672D+03
 0.317769593502672D+03 0.000000000000000D+00 0.000000000000000D+00 -.317769593502672D+03
 0.247845609975555D+03 -.131326488330500D+03 0.146708131747643D+03 0.127241141034179D+03
 0.122353176963705D+03 0.367094784317238D+02 -.926301781661962D+02 -.710096063873135D+02
 0.159895680167448D+03 0.128390826991860D+03 -.887388762274036D+02 -.347539339709149D+02
 0.105444719898635D+03 -.337738170930839D+02 0.346609226459569D+02 -.214776006759503D+02
 0.000000000000000D+00 0.000000000000000D+00 0.000000000000000D+00 0.000000000000000D+00
 0.529440723356359D+03 0.000000000000000D+00 0.000000000000000D+00 0.529440723356359D+03
 0.345172817471101D+03 0.000000000000000D+00 0.000000000000000D+00 -.345172817471101D+03
 0.275211383146681D+03 -.183891522357596D+03 0.138808103122494D+03 0.127241141034179D+03
 0.120278760104948D+03 0.123259863920841D+02 -.962947869438666D+02 -.710096063873135D+02
 0.139866550716109D+03 0.982659800370847D+02 -.932663564749817D+02 -.347539339709149D+02
 0.113446571646640D+03 -.557714738295524D+02 0.313548824022710D+02 -.214776006759503D+02
 0.225810275213081D+03 0.129071029757979D+03 0.193981578940833D+02 0.184267905885259D+03
0.529239135855D-04 0.000000000000D+00 0.000000000000D+00 0.150707147910D-07 0.000000000000D+00  7 1 -2 -24 -13 13 23 21 0 0.19718281D-01 0.12120734D+00 0.81692075D+05 0.81692075D+05 0.81692075D+05 0.11290007D+01  1  2  2  2  7  2       -2 0.837574615909D-03 0.100000000000D+01
-.290007252339D-05 0.000000000000D+00 -.203241763355D-06 0.150707147910D-07 0.000000000000D+00  7 1 -2 -24 -13 13 23 21 2 0.19718281D-01 0.12120734D+00 0.81692075D+05 0.81692075D+05 0.81692075D+05 0.11290007D+01  1  2  3  2  7  2       -2 -.585017507213D-04 0.100000000000D+01
0.337982606147D-05 0.000000000000D+00 0.000000000000D+00 0.150707147910D-07 0.000000000000D+00  7 1 -2 -24 -13 13 23 21 2 0.19718281D-01 0.12120734D+00 0.81692075D+05 0.81692075D+05 0.81692075D+05 0.11290007D+01  1  2 15  2  7  2       -2 0.681795852122D-04 0.100000000000D+01
-.384771318478D-05 0.000000000000D+00 0.000000000000D+00 0.150707147910D-07 0.000000000000D+00  7 1 -2 -24 -13 13 23 21 2 0.19718281D-01 0.12120734D+00 0.81692075D+05 0.81692075D+05 0.81692075D+05 0.11290007D+01  1  2  4  2  7  2       -2 -.776180442965D-04 0.100000000000D+01
  </mgrwgt>
  </event>
  <event>
  8     66 0.29493621E-05 0.19178028E+03 0.75467711E-02 0.98293839E-01
        1 -1    0    0  501    0 0.00000000E+00 0.00000000E+00 0.55461175E+03 0.55461184E+03 0.32000000E+00 0.0000E+00 0.9000E+01
       -2 -1    0    0    0  501 0.00000000E+00 0.00000000E+00 -.24236613E+03 0.24236634E+03 0.32000000E+00 0.0000E+00 0.9000E+01
       25  2    1    2    0    0 0.19291666E+02 0.24173194E+03 0.37054418E+03 0.53492391E+03 0.30005683E+03 0.0000E+00 0.0000E+00
       23  2    3    3    0    0 -.13405334E+01 0.26161538E+03 0.32282336E+03 0.42808962E+03 0.10296307E+03 0.0000E+00 0.0000E+00
      -24  1    1    2    0    0 -.19291666E+02 -.24173194E+03 -.58298573E+02 0.26205427E+03 0.80419002E+02 0.0000E+00 0.9000E+01
      -13  1    4    4    0    0 -.35673050E+02 0.38689674E+02 0.87651499E+02 0.10223626E+03 0.10565837E+00 0.0000E+00 0.9000E+01
       13  1    4    4    0    0 0.34332516E+02 0.22292570E+03 0.23517186E+03 0.32585335E+03 0.10565837E+00 0.0000E+00 0.9000E+01
       23  1    3    3    0    0 0.20632200E+02 -.19883436E+02 0.47720822E+02 0.10683430E+03 0.91188000E+02 0.0000E+00 0.9000E+01
#aMCatNLO 1  0  0  2  1 0.97543233D+02 0.00000000D+00  -5  7  0 0.00000000D+00 0.00000000D+00 0.00000000D+00 0.00000000D+00 0.00000000D+00
  <mgrwgt>
 0.1029585367D-02    9    2    0
 0.366632275038791D+03 0.000000000000000D+00 0.000000000000000D+00 0.366632275038791D+03
 0.366632275038791D+03 0.000000000000000D+00 0.000000000000000D+00 -.366632275038791D+03
 0.309649509005547D+03 -.192916663486936D+02 -.241731941576252D+03 -.174954572687518D+03
 0.737948300644851D+02 -.356731030582501D+02 0.386894965691556D+02 0.517322869943617D+02
 0.254023968373796D+03 0.343325656089475D+02 0.222925896517278D+03 0.116848175463062D+03
 0.957962426337546D+02 0.206322037979962D+02 -.198834515101814D+02 0.637411023009412D+01
 0.000000000000000D+00 -.000000000000000D+00 0.000000000000000D+00 -.000000000000000D+00
 0.386221264889594D+03 0.000000000000000D+00 0.000000000000000D+00 0.386221264889594D+03
 0.515264000326210D+03 0.000000000000000D+00 0.000000000000000D+00 -.515264000326210D+03
 0.326798943841192D+03 0.167900507548457D+02 -.263513425526529D+03 -.174954572687518D+03
 0.677224622330370D+02 -.276501643848998D+02 0.338462816676536D+02 0.517322869943617D+02
 0.244845824296629D+03 0.626146340940289D+02 0.205852833751980D+03 0.116848175463062D+03
 0.100356760521801D+03 0.317525657648007D+02 -.265964908316240D+02 0.637411023009412D+01
 0.161761274323145D+03 -.835070862287754D+02 0.504108009385199D+02 -.129042735436616D+03
0.304542883960D-04 0.000000000000D+00 0.000000000000D+00 0.784233852085D-07 0.000000000000D+00  7 1 -2 -24 -13 13 23 21 0 0.85324907D-01 0.37287121D-01 0.98989162D+05 0.98989162D+05 0.98989162D+05 0.11220843D+01  1  2  2  2  7  2       -2 0.866274081746D-03 0.100000000000D+01
-.164376479178D-05 0.000000000000D+00 -.116952486239D-06 0.784233852085D-07 0.000000000000D+00  7 1 -2 -24 -13 13 23 21 2 0.85324907D-01 0.37287121D-01 0.98989162D+05 0.98989162D+05 0.98989162D+05 0.11220843D+01  1  2  3  2  7  2       -2 -.588704718805D-04 0.100000000000D+01
0.194931277360D-05 0.000000000000D+00 0.000000000000D+00 0.784233852085D-07 0.000000000000D+00  7 1 -2 -24 -13 13 23 21 2 0.85324907D-01 0.37287121D-01 0.98989162D+05 0.98989162D+05 0.98989162D+05 0.11220843D+01  1  2 15  2  7  2       -2 0.698134936327D-04 0.100000000000D+01
0.476266336163D-04 0.000000000000D+00 0.000000000000D+00 0.784233852085D-07 0.000000000000D+00  7 1 -2 -24 -13 13 23 21 2 0.85324907D-01 0.53089555D-01 0.13417190D+06 0.13417190D+06 0.13417190D+06 0.11113941D+01  1  2 12  2  7  2       -2 0.846951801484D-03 0.100000000000D+01
-.509467103633D-04 0.000000000000D+00 0.000000000000D+00 0.784233852085D-07 0.000000000000D+00  7 1 -2 -24 -13 13 23 21 2 0.85324907D-01 0.37287121D-01 0.98989162D+05 0.98989162D+05 0.98989162D+05 0.11220843D+01  1  2  4  2  7  2       -2 -.182462654928D-02 0.100000000000D+01
-.616077973919D-04 0.000000000000D+00 -.131227419412D-04 0.784233852085D-07 0.000000000000D+00  7 1 -2 -24 -13 13 23 21 2 0.85324907D-01 0.54450237D-01 0.98989162D+05 0.98989162D+05 0.98989162D+05 0.11220843D+01  1  2  5  2  7  2       -2 -.106941612295D-02 0.100000000000D+01
0.629010563565D-04 0.000000000000D+00 0.122351507159D-04 0.784233852085D-07 0.000000000000D+00  7 1 -2 -24 -13 13 23 21 2 0.85324907D-01 0.37287121D-01 0.98989162D+05 0.98989162D+05 0.98989162D+05 0.11220843D+01  1  2  6  2  7  2       -2 0.225276443930D-02 0.100000000000D+01
0.207152778497D-05 0.000000000000D+00 0.000000000000D+00 0.784233852085D-07 0.000000000000D+00  7 1 21 -24 -13 13 23 2 2 0.85324907D-01 0.53089555D-01 0.13417190D+06 0.13417190D+06 0.13417190D+06 0.11113941D+01  1  2 12  4  7  2       -2 0.389051017783D-03 0.100000000000D+01
-.240203364584D-05 0.000000000000D+00 -.600099097418D-06 0.784233852085D-07 0.000000000000D+00  7 1 21 -24 -13 13 23 2 2 0.85324907D-01 0.54450237D-01 0.98989162D+05 0.98989162D+05 0.98989162D+05 0.11220843D+01  1  2  5  4  7  2       -2 -.442356322542D-03 0.100000000000D+01
  </mgrwgt>
  </event>
  <event>
  8     66 0.29493621E-05 0.45784148E+03 0.75467711E-02 0.89744022E-01
        1 -1    0    0  501    0 0.00000000E+00 0.00000000E+00 0.57560443E+03 0.57560452E+03 0.32000000E+00 0.0000E+00 0.9000E+01
       -2 -1    0    0    0  501 0.00000000E+00 0.00000000E+00 -.10492611E+04 0.10492611E+04 0.32000000E+00 0.0000E+00 0.9000E+01
       25  2    1    2    0    0 -.42361397E+03 -.11295182E+03 0.38583161E+03 0.65667445E+03 0.30024722E+03 0.0000E+00 0.0000E+00
       23  2    3    3    0    0 -.10609610E+03 -.69492125E+02 0.25493214E+03 0.29868525E+03 0.90205016E+02 0.0000E+00 0.0000E+00
      -24  1    1    2    0    0 0.42361397E+03 0.11295182E+03 -.85948824E+03 0.96819118E+03 0.80419002E+02 0.0000E+00 0.9000E+01
      -13  1    4    4    0    0 -.37145080E+02 -.54886209E+02 0.53168981E+02 0.84965903E+02 0.10565837E+00 0.0000E+00 0.9000E+01
       13  1    4    4    0    0 -.68951021E+02 -.14605916E+02 0.20176316E+03 0.21371935E+03 0.10565837E+00 0.0000E+00 0.9000E+01
       23  1    3    3    0    0 -.31751787E+03 -.43459697E+02 0.13089946E+03 0.35798920E+03 0.91188000E+02 0.0000E+00 0.9000E+01
#aMCatNLO 1  0  0  2  1 0.51233500D+03 0.00000000D+00  -5  7  0 0.00000000D+00 0.00000000D+00 0.00000000D+00 0.00000000D+00 0.00000000D+00
  <mgrwgt>
 0.1038932784D-02    5    2    0
 0.777148265238240D+03 0.000000000000000D+00 0.000000000000000D+00 0.777148265238240D+03
 0.777148265238240D+03 0.000000000000000D+00 0.000000000000000D+00 -.777148265238240D+03
 0.750228956344840D+03 0.423613971910110D+03 0.112951822334016D+03 -.603464464254411D+03
 0.105026053834811D+03 -.371450359144254D+02 -.548862643855582D+02 0.814752494493095D+02
 0.284908356878220D+03 -.689510648210103D+02 -.146058604825333D+02 0.276052877758340D+03
 0.414133163418610D+03 -.317517871174674D+03 -.434596974659242D+02 0.245936337046762D+03
 0.000000000000000D+00 -.000000000000000D+00 0.000000000000000D+00 -.000000000000000D+00
 0.905285156275040D+03 0.000000000000000D+00 0.000000000000000D+00 0.905285156275040D+03
 0.157250314519975D+04 0.000000000000000D+00 0.000000000000000D+00 -.157250314519975D+04
 0.826038160327413D+03 0.547846025530908D+03 -.107550913779710D+03 -.603464464254411D+03
 0.120336944059359D+03 -.193832569986545D+02 -.864121124660322D+02 0.814752494493095D+02
 0.293025642876939D+03 -.234017243015925D+02 -.954525817591906D+02 0.276052877758340D+03
 0.397158098785536D+03 -.253576691077604D+03 -.156950578046394D+03 0.245936337046762D+03
 0.841229455425538D+03 -.251484353153057D+03 0.446366186051327D+03 -.667217988924705D+03
0.108379432315D-02 0.000000000000D+00 0.000000000000D+00 0.234704761298D-04 0.000000000000D+00  7 1 -2 -24 -13 13 23 21 0 0.88554538D-01 0.16142479D+00 0.20961882D+06 0.20961882D+06 0.20961882D+06 0.10962620D+01  1  2  2  2  7  2       -2 0.104996486127D-02 0.100000000000D+01
-.397159447208D-04 0.000000000000D+00 -.416205557049D-05 0.234704761298D-04 0.000000000000D+00  7 1 -2 -24 -13 13 23 21 2 0.88554538D-01 0.16142479D+00 0.20961882D+06 0.20961882D+06 0.20961882D+06 0.10962620D+01  1  2  3  2  7  2       -2 -.462403939959D-04 0.100000000000D+01
0.656706491547D-04 0.000000000000D+00 0.000000000000D+00 0.234704761298D-04 0.000000000000D+00  7 1 -2 -24 -13 13 23 21 2 0.88554538D-01 0.16142479D+00 0.20961882D+06 0.20961882D+06 0.20961882D+06 0.10962620D+01  1  2 15  2  7  2       -2 0.764588809917D-04 0.100000000000D+01
-.445185980960D-03 0.000000000000D+00 -.292793355430D-03 0.234704761298D-04 0.000000000000D+00  7 1 -2 -24 -13 13 23 21 2 0.88554538D-01 0.34430888D+00 0.20961882D+06 0.20961882D+06 0.20961882D+06 0.10962620D+01  1  2  5  2  7  2       -2 -.317958437694D-04 0.100000000000D+01
-.182270539843D-04 0.000000000000D+00 -.239984044546D-04 0.234704761298D-04 0.000000000000D+00  7 1 21 -24 -13 13 23 2 2 0.88554538D-01 0.34430888D+00 0.20961882D+06 0.20961882D+06 0.20961882D+06 0.10962620D+01  1  2  5  4  7  2       -2 -.945472083546D-05 0.100000000000D+01
  </mgrwgt>
  </event>
  <event>
  9     66 0.29493621E-05 0.27992680E+03 0.75467711E-02 0.96294522E-01
        1 -1    0    0  502    0 0.00000000E+00 0.00000000E+00 0.68149447E+03 0.68149454E+03 0.32000000E+00 0.0000E+00 0.9000E+01
       -2 -1    0    0    0  501 0.00000000E+00 0.00000000E+00 -.10093259E+04 0.10093259E+04 0.32000000E+00 0.0000E+00 0.9000E+01
       25  2    1    2    0    0 -.20641181E+03 -.15620363E+03 0.42953731E+03 0.58445544E+03 0.30013407E+03 0.0000E+00 0.0000E+00
       23  2    3    3    0    0 -.13784937E+02 -.99645944E+02 0.48518341E+02 0.14423438E+03 0.91269863E+02 0.0000E+00 0.0000E+00
      -24  1    1    2    0    0 0.21567136E+03 -.10509598E+03 -.80213233E+03 0.84109618E+03 0.80419002E+02 0.0000E+00 0.9000E+01
      -13  1    4    4    0    0 -.47327651E+02 -.39969081E+02 0.43296203E+02 0.75577816E+02 0.10565837E+00 0.0000E+00 0.9000E+01
       13  1    4    4    0    0 0.33542714E+02 -.59676863E+02 0.52221385E+01 0.68656562E+02 0.10565837E+00 0.0000E+00 0.9000E+01
       23  1    3    3    0    0 -.19262687E+03 -.56557682E+02 0.38101897E+03 0.44022107E+03 0.91188000E+02 0.0000E+00 0.9000E+01
       21  1    1    2  502  501 -.92595520E+01 0.26129961E+03 0.44763594E+02 0.26526885E+03 0.75000000E+00 0.0000E+00 0.9000E+01
#aMCatNLO 2  0  0  1  2 0.26146362D+03 0.00000000D+00  -5  7  0 0.00000000D+00 0.00000000D+00 0.00000000D+00 0.00000000D+00 0.00000000D+00
  <mgrwgt>
 0.4761529214D-03    2    2    0
 0.675464129951960D+03 0.000000000000000D+00 0.000000000000000D+00 0.675464129951960D+03
 0.675464129951960D+03 0.000000000000000D+00 0.000000000000000D+00 -.675464129951960D+03
 0.644517540366453D+03 0.211261486506990D+03 0.193482148153455D+02 -.603266006657070D+03
 0.842875221570756D+02 -.479196496140699D+02 -.232662250346089D+02 0.653205660177805D+02
 0.621165813365257D+02 0.330855717801914D+02 -.467735236230120D+02 0.240010854921720D+02
 0.560006616043866D+03 -.196427408673112D+03 0.506915338422754D+02 0.513944355147117D+03
 0.000000000000000D+00 -.000000000000000D+00 0.000000000000000D+00 0.000000000000000D+00
 0.890572797140492D+03 0.000000000000000D+00 0.000000000000000D+00 0.890572797140492D+03
 0.772367266979086D+03 0.000000000000000D+00 0.000000000000000D+00 -.772367266979086D+03
 0.654183758688426D+03 0.215671357286178D+03 -.105095980112068D+03 -.603266006657070D+03
 0.900234328753711D+02 -.473277592481719D+02 -.399690546089133D+02 0.653205660177805D+02
 0.725431194336709D+02 0.335428223273286D+02 -.596768895191644D+02 0.240010854921720D+02
 0.559247649374976D+03 -.192626868330891D+03 -.565576820324491D+02 0.513944355147117D+03
 0.286942103747134D+03 -.925955203444291D+01 0.261299606272595D+03 0.118205530161406D+03
-.296067217938D-05 0.000000000000D+00 0.000000000000D+00 0.432903296826D-04 0.000000000000D+00  7 1 -2 -24 -13 13 23 21 2 0.10911216D+00 0.13579890D+00 0.18722949D+06 0.18722949D+06 0.18722949D+06 0.11000330D+01  1  2 13  1  7  1        1 -.411827213297D-05 0.100000000000D+01
0.467969382121D-03 0.000000000000D+00 0.000000000000D+00 0.432903296826D-04 0.420904063343D-08  7 1 -2 -24 -13 13 23 21 2 0.10484525D+00 0.15528082D+00 0.18722949D+06 0.18722949D+06 0.18722949D+06 0.11000330D+01  1  2  1  1  7  1        1 0.480271193566D-03 0.100000000000D+01
  </mgrwgt>
  </event>
  <event>
  8     66 0.29493621E-05 0.26464250E+03 0.75467711E-02 0.91647694E-01
        3 -1    0    0  501    0 0.00000000E+00 0.00000000E+00 0.42188251E+03 0.42188280E+03 0.50000000E+00 0.0000E+00 0.9000E+01
       -4 -1    0    0    0  501 0.00000000E+00 0.00000000E+00 -.25049467E+03 0.25049947E+03 0.15500000E+01 0.0000E+00 0.9000E+01
       25  2    1    2    0    0 -.32809108E+02 -.17818216E+03 0.27809142E+03 0.44726411E+03 0.29980831E+03 0.0000E+00 0.0000E+00
       23  2    3    3    0    0 0.80791243E+02 -.42978792E+02 0.42618566E+02 0.13912825E+03 0.95738846E+02 0.0000E+00 0.0000E+00
      -24  1    1    2    0    0 0.32809108E+02 0.17818216E+03 -.10670358E+03 0.22511817E+03 0.80419002E+02 0.0000E+00 0.9000E+01
      -11  1    4    4    0    0 -.14818103E+02 -.33014787E+02 0.14368945E+02 0.38936088E+02 0.51099893E-03 0.0000E+00 0.9000E+01
       11  1    4    4    0    0 0.95609346E+02 -.99640049E+01 0.28249621E+02 0.10019216E+03 0.51099893E-03 0.0000E+00 0.9000E+01
       23  1    3    3    0    0 -.11360035E+03 -.13520336E+03 0.23547285E+03 0.30813585E+03 0.91188000E+02 0.0000E+00 0.9000E+01
#aMCatNLO 1  0  0  2  2 0.56437102D+03 0.00000000D+00  -5  7  0 0.00000000D+00 0.00000000D+00 0.00000000D+00 0.00000000D+00 0.00000000D+00
  <mgrwgt>
 0.1689836484D-03    3    2    0
 0.325086193045681D+03 0.000000000000000D+00 0.000000000000000D+00 0.325086193045681D+03
 0.325086193045681D+03 0.000000000000000D+00 0.000000000000000D+00 -.325086193045681D+03
 0.260935660780568D+03 0.328091083350092D+02 0.178182156887460D+03 -.169690555099025D+03
 0.364784378040944D+02 -.148181033748381D+02 -.330147872674797D+02 0.459609167476625D+01
 0.961680233084949D+02 0.956093463646676D+02 -.996400485997583D+01 0.280360516739035D+01
 0.256590264198205D+03 -.113600351324839D+03 -.135203364760004D+03 0.162290858256868D+03
 0.000000000000000D+00 -.000000000000000D+00 0.000000000000000D+00 0.000000000000000D+00
 0.812814998589659D+03 0.000000000000000D+00 0.000000000000000D+00 0.812814998589659D+03
 0.638743366214447D+03 0.000000000000000D+00 0.000000000000000D+00 -.638743366214447D+03
 0.221989111563976D+03 0.116918246931430D+03 0.186330014559869D+02 -.169690555099025D+03
 0.676571224485432D+02 0.331878413164104D+01 -.674191948277483D+02 0.459609167476625D+01
 0.173698064727526D+03 0.142610878489223D+03 -.991226251906465D+02 0.280360516739035D+01
 0.397607952810668D+03 0.338820270760337D+00 -.351338007225754D+03 0.162290858256868D+03
 0.590606113253393D+03 -.263186729823054D+03 0.499246825788162D+03 0.174071632375213D+03
0.329021561076D-04 0.000000000000D+00 0.000000000000D+00 0.421239094567D-06 0.000000000000D+00  7 3 -4 -24 -11 11 23 21 0 0.64905393D-01 0.38538034D-01 0.70035655D+05 0.70035655D+05 0.70035655D+05 0.11346408D+01  1  2  2  2  7  2       -4 0.166310831519D-03 0.100000000000D+01
-.173385028798D-05 0.000000000000D+00 -.126352942790D-06 0.421239094567D-06 0.000000000000D+00  7 3 -4 -24 -11 11 23 21 2 0.64905393D-01 0.38538034D-01 0.70035655D+05 0.70035655D+05 0.70035655D+05 0.11346408D+01  1  2  3  2  7  2       -4 -.112829997713D-04 0.100000000000D+01
0.214458008909D-05 0.000000000000D+00 0.000000000000D+00 0.421239094567D-06 0.000000000000D+00  7 3 -4 -24 -11 11 23 21 2 0.64905393D-01 0.38538034D-01 0.70035655D+05 0.70035655D+05 0.70035655D+05 0.11346408D+01  1  2 15  2  7  2       -4 0.139558166138D-04 0.100000000000D+01
  </mgrwgt>
  </event>
  <event>
  8     66 0.29493621E-05 0.91105074E+02 0.75467711E-02 0.10187956E+00
        1 -1    0    0  501    0 0.00000000E+00 0.00000000E+00 0.22840483E+03 0.22840506E+03 0.32000000E+00 0.0000E+00 0.9000E+01
       -2 -1    0    0    0  501 0.00000000E+00 0.00000000E+00 -.41817577E+03 0.41817589E+03 0.32000000E+00 0.0000E+00 0.9000E+01
       25  2    1    2    0    0 -.50955734E+02 0.61716425E+02 -.33832663E+03 0.45965473E+03 0.30068615E+03 0.0000E+00 0.0000E+00
       23  2    3    3    0    0 -.13758820E+03 0.73522163E+02 -.22167215E+03 0.28770102E+03 0.96422571E+02 0.0000E+00 0.0000E+00
      -24  1    1    2    0    0 0.50955734E+02 -.61716425E+02 0.14855569E+03 0.18692622E+03 0.80419002E+02 0.0000E+00 0.9000E+01
      -11  1    4    4    0    0 -.95003951E+02 0.92197715E+02 -.13345900E+03 0.18798264E+03 0.51099893E-03 0.0000E+00 0.9000E+01
       11  1    4    4    0    0 -.42584253E+02 -.18675553E+02 -.88213146E+02 0.99718373E+02 0.51099893E-03 0.0000E+00 0.9000E+01
       23  1    3    3    0    0 0.86632470E+02 -.11805737E+02 -.11665448E+03 0.17195371E+03 0.91188000E+02 0.0000E+00 0.9000E+01
#aMCatNLO 1  0  0  2  1 0.12997184D+03 0.00000000D+00  -5  7  0 0.00000000D+00 0.00000000D+00 0.00000000D+00 0.00000000D+00 0.00000000D+00
  <mgrwgt>
 0.8075744963D-03    9    2    0
 0.309052550416793D+03 0.000000000000000D+00 0.000000000000000D+00 0.309052550416793D+03
 0.309052550416793D+03 0.000000000000000D+00 0.000000000000000D+00 -.309052550416793D+03
 0.241147477134009D+03 0.509557343454776D+02 -.617164252779277D+02 0.212789768931577D+03
 0.155668277666315D+03 -.950039513446858D+02 0.921977152185866D+02 -.818928764238127D+02
 0.772291135669425D+02 -.425842528626389D+02 -.186755526033068D+02 -.616615044045121D+02
 0.144060232466321D+03 0.866324698618472D+02 -.118057373373521D+02 -.692353881032519D+02
 0.000000000000000D+00 0.000000000000000D+00 -.000000000000000D+00 -.000000000000000D+00
 0.347110250615587D+03 0.000000000000000D+00 0.000000000000000D+00 0.347110250615587D+03
 0.450740292455642D+03 0.000000000000000D+00 0.000000000000000D+00 -.450740292455642D+03
 0.231216242193816D+03 0.389344080139670D+02 -.140840622871058D+02 0.212789768931577D+03
 0.182758405261762D+03 -.103616673762399D+03 0.126324092726895D+03 -.818928764238127D+02
 0.773015789676353D+02 -.465169509238616D+02 -.309293747252500D+01 -.616615044045121D+02
 0.140345966440170D+03 0.793945309857951D+02 0.168733054190036D+02 -.692353881032519D+02
 0.166228350207846D+03 0.318046856864983D+02 -.126020398386268D+03 -.103630041840055D+03
0.289354865807D-04 0.000000000000D+00 0.000000000000D+00 0.110235605967D-06 0.000000000000D+00  7 1 -2 -24 -11 11 23 21 0 0.35139232D-01 0.64334761D-01 0.43822307D+05 0.43822307D+05 0.43822307D+05 0.11523676D+01  1  2  2  2  7  2       -2 0.934487644190D-03 0.100000000000D+01
-.131091183134D-05 0.000000000000D+00 -.111119887358D-06 0.110235605967D-06 0.000000000000D+00  7 1 -2 -24 -11 11 23 21 2 0.35139232D-01 0.64334761D-01 0.43822307D+05 0.43822307D+05 0.43822307D+05 0.11523676D+01  1  2  3  2  7  2       -2 -.562209684561D-04 0.100000000000D+01
0.180568785232D-05 0.000000000000D+00 0.000000000000D+00 0.110235605967D-06 0.000000000000D+00  7 1 -2 -24 -11 11 23 21 2 0.35139232D-01 0.64334761D-01 0.43822307D+05 0.43822307D+05 0.43822307D+05 0.11523676D+01  1  2 15  2  7  2       -2 0.774403871869D-04 0.100000000000D+01
0.833247527495D-05 0.000000000000D+00 0.000000000000D+00 0.110235605967D-06 0.000000000000D+00  7 1 -2 -24 -11 11 23 21 2 0.35139232D-01 0.96349549D-01 0.76315780D+05 0.76315780D+05 0.76315780D+05 0.11314841D+01  1  2 12  2  7  2       -2 0.140110338409D-03 0.100000000000D+01
-.232554062397D-04 0.000000000000D+00 0.000000000000D+00 0.110235605967D-06 0.000000000000D+00  7 1 -2 -24 -11 11 23 21 2 0.35139232D-01 0.64334761D-01 0.43822307D+05 0.43822307D+05 0.43822307D+05 0.11523676D+01  1  2  4  2  7  2       -2 -.997352704718D-03 0.100000000000D+01
-.226644911956D-04 0.000000000000D+00 -.106851874473D-04 0.110235605967D-06 0.000000000000D+00  7 1 -2 -24 -11 11 23 21 2 0.35139232D-01 0.10201215D+00 0.43822307D+05 0.43822307D+05 0.43822307D+05 0.11523676D+01  1  2  5  2  7  2       -2 -.349184040831D-03 0.100000000000D+01
0.258386185474D-04 0.000000000000D+00 0.964234952459D-05 0.110235605967D-06 0.000000000000D+00  7 1 -2 -24 -11 11 23 21 2 0.35139232D-01 0.64334761D-01 0.43822307D+05 0.43822307D+05 0.43822307D+05 0.11523676D+01  1  2  6  2  7  2       -2 0.110813871961D-02 0.100000000000D+01
0.399448826082D-06 0.000000000000D+00 0.000000000000D+00 0.110235605967D-06 0.000000000000D+00  7 1 21 -24 -11 11 23 2 2 0.35139232D-01 0.96349549D-01 0.76315780D+05 0.76315780D+05 0.76315780D+05 0.11314841D+01  1  2 12  4  7  2       -2 0.651595840831D-04 0.100000000000D+01
-.761552308052D-06 0.000000000000D+00 -.565557425115D-06 0.110235605967D-06 0.000000000000D+00  7 1 21 -24 -11 11 23 2 2 0.35139232D-01 0.10201215D+00 0.43822307D+05 0.43822307D+05 0.43822307D+05 0.11523676D+01  1  2  5  4  7  2       -2 -.115004463180D-03 0.100000000000D+01
  </mgrwgt>
  </event>
  <event>
  8     66 0.29493621E-05 0.24228170E+03 0.75467711E-02 0.84458327E-01
        1 -1    0    0  501    0 0.00000000E+00 0.00000000E+00 0.59483844E+03 0.59483853E+03 0.32000000E+00 0.0000E+00 0.9000E+01
       -2 -1    0    0    0  501 0.00000000E+00 0.00000000E+00 -.99835604E+02 0.99836117E+02 0.32000000E+00 0.0000E+00 0.9000E+01
       25  2    1    2    0    0 -.81230220E+02 -.10766965E+03 0.32799122E+03 0.46543416E+03 0.30142929E+03 0.0000E+00 0.0000E+00
       23  2    3    3    0    0 -.82505696E+02 -.17679285E+03 0.20488872E+03 0.29735941E+03 0.91544163E+02 0.0000E+00 0.0000E+00
      -24  1    1    2    0    0 0.81230220E+02 0.10766965E+03 0.16701161E+03 0.22924048E+03 0.80419002E+02 0.0000E+00 0.9000E+01
      -13  1    4    4    0    0 -.78044377E+02 -.18663420E+03 0.18229097E+03 0.27231096E+03 0.10565837E+00 0.0000E+00 0.9000E+01
       13  1    4    4    0    0 -.44613192E+01 0.98413567E+01 0.22597743E+02 0.25048449E+02 0.10565837E+00 0.0000E+00 0.9000E+01
       23  1    3    3    0    0 0.12754761E+01 0.69123196E+02 0.12310251E+03 0.16807475E+03 0.91188000E+02 0.0000E+00 0.9000E+01
#aMCatNLO 1  0  0  2  1 0.13267776D+04 0.00000000D+00  -5  7  0 0.00000000D+00 0.00000000D+00 0.00000000D+00 0.00000000D+00 0.00000000D+00
  <mgrwgt>
 0.1300615512D-02    5    2    0
 0.243692968091656D+03 0.000000000000000D+00 0.000000000000000D+00 0.243692968091656D+03
 0.243692968091656D+03 0.000000000000000D+00 0.000000000000000D+00 -.243692968091656D+03
 0.157116426779346D+03 0.812302364152404D+02 0.107669671909604D+03 0.521977512363418D+01
 0.202987172634466D+03 -.780444780163910D+02 -.186634458066190D+03 -.167460672285527D+02
 0.127505779343752D+02 -.446122238969959D+01 0.984161825674802D+01 0.676884647031258D+01
 0.114531758835126D+03 0.127546399085011D+01 0.691231678998381D+02 0.475744563460597D+01
 0.000000000000000D+00 -.000000000000000D+00 0.000000000000000D+00 -.000000000000000D+00
 0.769038594286599D+03 0.000000000000000D+00 0.000000000000000D+00 0.769038594286599D+03
 0.777001322740273D+04 0.000000000000000D+00 0.000000000000000D+00 -.777001322740273D+04
 0.236671974864974D+03 0.158622602171660D+03 -.156070598640701D+03 0.521977512363418D+01
 0.101636768374768D+04 0.161598834579771D+03 -.100329888590662D+04 -.167460672285527D+02
 0.785114418070219D+01 -.412306762717003D+00 -.395641068911313D+01 0.676884647031258D+01
 0.152574401237573D+03 0.537706049087138D+02 -.109771514191017D+03 0.475744563460597D+01
 0.712558661765840D+04 -.373579734897427D+03 0.127309740942745D+04 -.700097463311614D+04
0.110580020178D-04 0.000000000000D+00 0.000000000000D+00 0.254223947503D-06 0.000000000000D+00  7 1 -2 -24 -13 13 23 21 0 0.91513652D-01 0.15359370D-01 0.58700420D+05 0.58700420D+05 0.58700420D+05 0.11412171D+01  1  2  2  2  7  2       -2 0.128668748554D-02 0.100000000000D+01
-.614308248774D-06 0.000000000000D+00 -.424656393870D-07 0.254223947503D-06 0.000000000000D+00  7 1 -2 -24 -13 13 23 21 2 0.91513652D-01 0.15359370D-01 0.58700420D+05 0.58700420D+05 0.58700420D+05 0.11412171D+01  1  2  3  2  7  2       -2 -.930934881042D-04 0.100000000000D+01
0.706469196222D-06 0.000000000000D+00 0.000000000000D+00 0.254223947503D-06 0.000000000000D+00  7 1 -2 -24 -13 13 23 21 2 0.91513652D-01 0.15359370D-01 0.58700420D+05 0.58700420D+05 0.58700420D+05 0.11412171D+01  1  2 15  2  7  2       -2 0.107059740522D-03 0.100000000000D+01
-.229318977414D-04 0.000000000000D+00 -.323938436261D-04 0.254223947503D-06 0.000000000000D+00  7 1 -2 -24 -13 13 23 21 2 0.91513652D-01 0.67871527D+00 0.58700420D+05 0.58700420D+05 0.58700420D+05 0.11412171D+01  1  2  5  2  7  2       -2 -.953886775551D-08 0.100000000000D+01
-.183327219112D-04 0.000000000000D+00 -.113417766494D-04 0.254223947503D-06 0.000000000000D+00  7 1 21 -24 -13 13 23 2 2 0.91513652D-01 0.67871527D+00 0.58700420D+05 0.58700420D+05 0.58700420D+05 0.11412171D+01  1  2  5  4  7  2       -2 -.286871595865D-07 0.100000000000D+01
  </mgrwgt>
  </event>
  <event>
  8     66 0.29493621E-05 0.18989719E+03 0.75467711E-02 0.97039188E-01
        1 -1    0    0  501    0 0.00000000E+00 0.00000000E+00 0.18996148E+04 0.18996149E+04 0.32000000E+00 0.0000E+00 0.9000E+01
       -2 -1    0    0    0  501 0.00000000E+00 0.00000000E+00 -.41031169E+02 0.41032417E+02 0.32000000E+00 0.0000E+00 0.9000E+01
       25  2    1    2    0    0 -.10912608E+03 0.41775786E+02 0.67371630E+03 0.74731932E+03 0.30156061E+03 0.0000E+00 0.0000E+00
       23  2    3    3    0    0 -.98068653E+02 0.84237760E+02 0.17018126E+03 0.23371630E+03 0.94594840E+02 0.0000E+00 0.0000E+00
      -24  1    1    2    0    0 0.10912608E+03 -.41775786E+02 0.11848674E+04 0.11933280E+04 0.80419002E+02 0.0000E+00 0.9000E+01
      -13  1    4    4    0    0 -.19650581E+02 -.25122375E+01 0.89446187E+02 0.91613799E+02 0.10565837E+00 0.0000E+00 0.9000E+01
       13  1    4    4    0    0 -.78418072E+02 0.86749997E+02 0.80735078E+02 0.14210250E+03 0.10565837E+00 0.0000E+00 0.9000E+01
       23  1    3    3    0    0 -.11057429E+02 -.42461973E+02 0.50353504E+03 0.51360303E+03 0.91188000E+02 0.0000E+00 0.9000E+01
#aMCatNLO 1  0  0  1  1 0.33464694D+03 0.00000000D+00  -5  7  0 0.00000000D+00 0.00000000D+00 0.00000000D+00 0.00000000D+00 0.00000000D+00
  <mgrwgt>
 0.1528336093D-02    5    2    0
 0.279185700140371D+03 0.000000000000000D+00 0.000000000000000D+00 0.279185700140371D+03
 0.279185700140371D+03 0.000000000000000D+00 0.000000000000000D+00 -.279185700140371D+03
 0.203544670229663D+03 0.109126088180087D+03 -.417757883990935D+02 0.145977728461151D+03
 0.206792539330183D+02 -.196505061643303D+02 -.251234722772326D+01 0.593104224561078D+01
 0.225151343788559D+03 -.784181490195067D+02 0.867501062577357D+02 -.192400989026616D+03
 0.108996132329502D+03 -.110574329962500D+02 -.424619706309189D+02 0.404922183198538D+02
 0.000000000000000D+00 -.000000000000000D+00 0.000000000000000D+00 0.000000000000000D+00
 0.621161553839844D+03 0.000000000000000D+00 0.000000000000000D+00 0.621161553839844D+03
 0.420176080335628D+03 0.000000000000000D+00 0.000000000000000D+00 -.420176080335628D+03
 0.305489199170902D+03 0.248689999824187D+03 -.608294471163139D+02 0.145977728461151D+03
 0.126436305404070D+02 -.105142337393691D+02 -.375965689884140D+01 0.593104224561078D+01
 0.208892428623535D+03 0.405854190022603D+02 0.705034036215951D+02 -.192400989026616D+03
 0.123948779262206D+03 0.528100324390307D+02 -.511813370860591D+02 0.404922183198538D+02
 0.390363596578423D+03 -.331571217526109D+03 0.452670374796193D+02 0.200985473504217D+03
0.293866830123D-04 0.000000000000D+00 0.000000000000D+00 0.591525448258D-07 0.000000000000D+00  7 1 -2 -24 -13 13 23 21 0 0.29224854D+00 0.63125856D-02 0.36060943D+05 0.36060943D+05 0.36060943D+05 0.11599930D+01  1  2  2  1  7  1        1 0.149872342294D-02 0.100000000000D+01
-.133776450048D-05 0.000000000000D+00 -.112852600459D-06 0.591525448258D-07 0.000000000000D+00  7 1 -2 -24 -13 13 23 21 2 0.29224854D+00 0.63125856D-02 0.36060943D+05 0.36060943D+05 0.36060943D+05 0.11599930D+01  1  2  3  1  7  1        1 -.918039458797D-04 0.100000000000D+01
0.176985363274D-05 0.000000000000D+00 0.000000000000D+00 0.591525448258D-07 0.000000000000D+00  7 1 -2 -24 -13 13 23 21 2 0.29224854D+00 0.63125856D-02 0.36060943D+05 0.36060943D+05 0.36060943D+05 0.11599930D+01  1  2 15  1  7  1        1 0.121456016404D-03 0.100000000000D+01
-.950184743412D-07 0.000000000000D+00 -.697222604674D-05 0.591525448258D-07 0.000000000000D+00  7 1 -2 -24 -13 13 23 21 2 0.69927885D+00 0.63125856D-02 0.36060943D+05 0.36060943D+05 0.36060943D+05 0.11599930D+01  1  2  5  1  7  1        1 -.529195606736D-07 0.100000000000D+01
0.429396194963D-06 0.000000000000D+00 -.665245090320D-06 0.591525448258D-07 0.000000000000D+00  7 21 -2 -24 -13 13 23 -1 2 0.69927885D+00 0.63125856D-02 0.36060943D+05 0.36060943D+05 0.36060943D+05 0.11599930D+01  1  2  5  3  7  1        1 0.135194883994D-07 0.100000000000D+01
  </mgrwgt>
  </event>
  <event>
  8     66 0.29493621E-05 0.22999728E+03 0.75467711E-02 0.95121723E-01
        1 -1    0    0  501    0 0.00000000E+00 0.00000000E+00 0.30852363E+03 0.30852379E+03 0.32000000E+00 0.0000E+00 0.9000E+01
       -2 -1    0    0    0  501 0.00000000E+00 0.00000000E+00 -.20730646E+03 0.20730671E+03 0.32000000E+00 0.0000E+00 0.9000E+01
       25  2    1    2    0    0 0.89149302E+02 -.98545741E+02 0.14014259E+03 0.35570160E+03 0.29870524E+03 0.0000E+00 0.0000E+00
       23  2    3    3    0    0 0.61864977E+02 0.63593203E+02 0.10021496E+03 0.16349614E+03 0.93896634E+02 0.0000E+00 0.0000E+00
      -24  1    1    2    0    0 -.89149302E+02 0.98545741E+02 -.38925422E+02 0.16012890E+03 0.80419002E+02 0.0000E+00 0.9000E+01
      -13  1    4    4    0    0 0.66550435E+02 0.15495266E+02 0.91806497E+02 0.11444434E+03 0.10565837E+00 0.0000E+00 0.9000E+01
       13  1    4    4    0    0 -.46854577E+01 0.48097937E+02 0.84084621E+01 0.49051793E+02 0.10565837E+00 0.0000E+00 0.9000E+01
       23  1    3    3    0    0 0.27284325E+02 -.16213894E+03 0.39927632E+02 0.19220546E+03 0.91188000E+02 0.0000E+00 0.9000E+01
#aMCatNLO 1  0  0  2  2 0.37352792D+03 0.00000000D+00  -5  7  0 0.00000000D+00 0.00000000D+00 0.00000000D+00 0.00000000D+00 0.00000000D+00
  <mgrwgt>
 0.7559642290D-03    5    2    0
 0.252901259573006D+03 0.000000000000000D+00 0.000000000000000D+00 0.252901259573006D+03
 0.252901259573006D+03 0.000000000000000D+00 0.000000000000000D+00 -.252901259573006D+03
 0.171093046356334D+03 -.891493032228151D+02 0.985457426816010D+02 -.717408732267627D+02
 0.983417755583233D+02 0.665505190688547D+02 0.154952334576405D+02 0.707250377993738D+02
 0.483415877260070D+02 -.468554271656152D+01 0.480979758138403D+02 -.124077231341444D+01
 0.188026109505348D+03 0.272843268705219D+02 -.162138951953082D+03 0.225660774080334D+01
 0.000000000000000D+00 -.000000000000000D+00 0.000000000000000D+00 -.000000000000000D+00
 0.487866483745249D+03 0.000000000000000D+00 0.000000000000000D+00 0.487866483745249D+03
 0.515454903759737D+03 0.000000000000000D+00 0.000000000000000D+00 -.515454903759737D+03
 0.129607677649125D+03 -.719936553979235D+02 0.104634713911095D+01 -.717408732267627D+02
 0.119498120198550D+03 0.789787715985965D+02 -.551373140082201D+02 0.707250377993738D+02
 0.245127711456129D+02 -.529038845666004D+00 0.244756317835359D+02 -.124077231341444D+01
 0.355157459203468D+03 0.582741624948187D+02 -.338261140527396D+03 0.225660774080334D+01
 0.374545359308230D+03 -.647302398498257D+02 0.367876475612969D+03 -.275884200144878D+02
0.829942216172D-05 0.000000000000D+00 0.000000000000D+00 0.437717959805D-07 0.000000000000D+00  7 1 -2 -24 -13 13 23 21 0 0.47465205D-01 0.31893333D-01 0.52898750D+05 0.52898750D+05 0.52898750D+05 0.11451487D+01  1  2  2  2  7  2       -2 0.690606574713D-03 0.100000000000D+01
-.456026829026D-06 0.000000000000D+00 -.318719663891D-07 0.437717959805D-07 0.000000000000D+00  7 1 -2 -24 -13 13 23 21 2 0.47465205D-01 0.31893333D-01 0.52898750D+05 0.52898750D+05 0.52898750D+05 0.11451487D+01  1  2  3  2  7  2       -2 -.497619110402D-04 0.100000000000D+01
0.538814282614D-06 0.000000000000D+00 0.000000000000D+00 0.437717959805D-07 0.000000000000D+00  7 1 -2 -24 -13 13 23 21 2 0.47465205D-01 0.31893333D-01 0.52898750D+05 0.52898750D+05 0.52898750D+05 0.11451487D+01  1  2 15  2  7  2       -2 0.587957258040D-04 0.100000000000D+01
0.272340226319D-05 0.000000000000D+00 -.284291148694D-05 0.437717959805D-07 0.000000000000D+00  7 1 -2 -24 -13 13 23 21 2 0.47465205D-01 0.11529116D+00 0.52898750D+05 0.52898750D+05 0.52898750D+05 0.11451487D+01  1  2  5  2  7  2       -2 0.207559889823D-04 0.100000000000D+01
0.489452024920D-06 0.000000000000D+00 -.429660058460D-06 0.437717959805D-07 0.000000000000D+00  7 1 21 -24 -13 13 23 2 2 0.47465205D-01 0.11529116D+00 0.52898750D+05 0.52898750D+05 0.52898750D+05 0.11451487D+01  1  2  5  4  7  2       -2 0.355678505677D-04 0.100000000000D+01
  </mgrwgt>
  </event>
  <event>
  7     66 0.29493621E-05 0.22936518E+03 0.75467711E-02 0.87118555E-01
        1 -1    0    0  501    0 0.00000000E+00 0.00000000E+00 0.42968144E+03 0.42968156E+03 0.32000000E+00 0.0000E+00 0.9000E+01
       -2 -1    0    0    0  501 0.00000000E+00 0.00000000E+00 -.17693768E+03 0.17693797E+03 0.32000000E+00 0.0000E+00 0.9000E+01
       23  2    1    2    0    0 0.69048623E+01 0.54336920E+02 -.14643520E+02 0.11190568E+03 0.96479376E+02 0.0000E+00 0.0000E+00
      -24  1    1    2    0    0 0.14408232E+03 0.20193875E+01 -.52935533E+01 0.16510309E+03 0.80419002E+02 0.0000E+00 0.9000E+01
      -13  1    3    3    0    0 -.35745805E+02 0.55335021E+02 0.25084025E+01 0.65924429E+02 0.10565837E+00 0.0000E+00 0.9000E+01
       13  1    3    3    0    0 0.42650667E+02 -.99810113E+00 -.17151923E+02 0.45981249E+02 0.10565837E+00 0.0000E+00 0.9000E+01
       23  1    1    2    0    0 -.15098719E+03 -.56356308E+02 0.27268084E+03 0.32961076E+03 0.91188000E+02 0.0000E+00 0.9000E+01
#aMCatNLO 1  0  0  2  2 0.97861021D+03 0.00000000D+00  -5  7  0 0.00000000D+00 0.00000000D+00 0.00000000D+00 0.00000000D+00 0.00000000D+00
  <mgrwgt>
 0.1417099610D-02    3    2    0
 0.275729870696839D+03 0.000000000000000D+00 0.000000000000000D+00 0.275729870696839D+03
 0.275729870696839D+03 0.000000000000000D+00 0.000000000000000D+00 -.275729870696839D+03
 0.184046859311416D+03 0.144085410982371D+03 0.201943073995678D+01 -.814944581524000D+02
 0.713687112902339D+02 -.357472644481147D+02 0.553346145614845D+02 -.274537149951926D+02
 0.584393985824206D+02 0.426494490603971D+02 -.999044800043752D+00 -.399398261264008D+02
 0.237604772209608D+03 -.150987595594654D+03 -.563550005013975D+02 0.148887999273993D+03
 0.000000000000000D+00 0.000000000000000D+00 -.000000000000000D+00 0.000000000000000D+00
 0.178184369787930D+04 0.000000000000000D+00 0.000000000000000D+00 0.178184369787930D+04
 0.757859905912887D+03 0.000000000000000D+00 0.000000000000000D+00 -.757859905912887D+03
 0.246771636783921D+03 0.149151005369451D+02 0.218094515825283D+03 -.814944581524000D+02
 0.262207579740836D+03 -.135761895807354D+03 0.222638307695021D+03 -.274537149951926D+02
 0.786814766370740D+02 0.153713336090789D+01 0.677733153668468D+02 -.399398261264008D+02
 0.535631691580156D+03 -.382823496282968D+03 0.331458281005153D+03 0.148887999273993D+03
 0.141641121905020D+04 0.502133158192469D+03 -.839964419892304D+03 0.102398379196641D+04
0.197383428887D-04 0.000000000000D+00 0.000000000000D+00 0.525826350787D-10 0.000000000000D+00  7 1 -2 -24 -13 13 23 21 0 0.66104869D-01 0.27221213D-01 0.52608386D+05 0.52608386D+05 0.52608386D+05 0.11453579D+01  1  2  2  2  7  2       -2 0.139830804002D-02 0.100000000000D+01
-.105138310543D-05 0.000000000000D+00 -.758004339177D-07 0.525826350787D-10 0.000000000000D+00  7 1 -2 -24 -13 13 23 21 2 0.66104869D-01 0.27221213D-01 0.52608386D+05 0.52608386D+05 0.52608386D+05 0.11453579D+01  1  2  3  2  7  2       -2 -.977092227495D-04 0.100000000000D+01
0.125358652353D-05 0.000000000000D+00 0.000000000000D+00 0.525826350787D-10 0.000000000000D+00  7 1 -2 -24 -13 13 23 21 2 0.66104869D-01 0.27221213D-01 0.52608386D+05 0.52608386D+05 0.52608386D+05 0.11453579D+01  1  2 15  2  7  2       -2 0.116500792366D-03 0.100000000000D+01
  </mgrwgt>
  </event>
  <event>
  8     66 0.29493621E-05 0.98013998E+02 0.75467711E-02 0.10056099E+00
        1 -1    0    0  501    0 0.00000000E+00 0.00000000E+00 0.26167371E+04 0.26167371E+04 0.32000000E+00 0.0000E+00 0.9000E+01
       -2 -1    0    0    0  501 0.00000000E+00 0.00000000E+00 -.52882583E+02 0.52883551E+02 0.32000000E+00 0.0000E+00 0.9000E+01
       25  2    1    2    0    0 -.34109629E+02 0.13168980E+03 0.24566827E+04 0.24786791E+04 0.30009087E+03 0.0000E+00 0.0000E+00
       23  2    3    3    0    0 -.11925922E+03 0.10518847E+02 0.13706530E+04 0.13788115E+04 0.89990338E+02 0.0000E+00 0.0000E+00
      -24  1    1    2    0    0 0.34109629E+02 -.13168980E+03 0.10717183E+03 0.19094158E+03 0.80419002E+02 0.0000E+00 0.9000E+01
      -11  1    4    4    0    0 -.26415234E+02 0.22824705E+02 0.12927975E+03 0.13391036E+03 0.51099893E-03 0.0000E+00 0.9000E+01
       11  1    4    4    0    0 -.92843983E+02 -.12305858E+02 0.12413732E+04 0.12449012E+04 0.51099893E-03 0.0000E+00 0.9000E+01
       23  1    3    3    0    0 0.85149588E+02 0.12117095E+03 0.10860297E+04 0.10998675E+04 0.91188000E+02 0.0000E+00 0.9000E+01
#aMCatNLO 1  0  0  1  2 0.15487225D+03 0.00000000D+00  -5  7  0 0.00000000D+00 0.00000000D+00 0.00000000D+00 0.00000000D+00 0.00000000D+00
  <mgrwgt>
 0.3428843706D-02    8    2    0
 0.371996146668465D+03 0.000000000000000D+00 0.000000000000000D+00 0.371996146668465D+03
 0.371996146668465D+03 0.000000000000000D+00 0.000000000000000D+00 -.371996146668465D+03
 0.315821293641306D+03 0.341096285181600D+02 -.131689800891043D+03 -.273441407154309D+03
 0.349941846729031D+02 -.264152337583230D+02 0.228247052746366D+02 0.242099474191384D+01
 0.189133068218215D+03 -.928439825826720D+02 -.123058580278693D+02 0.164316396777749D+03
 0.204043746804504D+03 0.851495878228350D+02 0.121170953644276D+03 0.106704015634646D+03
 0.000000000000000D+00 0.000000000000000D+00 -.000000000000000D+00 0.000000000000000D+00
 0.736885632838139D+03 0.000000000000000D+00 0.000000000000000D+00 0.736885632838139D+03
 0.396770871260731D+03 0.000000000000000D+00 0.000000000000000D+00 -.396770871260731D+03
 0.294699817407624D+03 0.291016903844404D+02 -.690192356952488D+02 -.273441407154309D+03
 0.409185095982823D+02 -.270379248816830D+02 0.306172146070934D+02 0.242099474191384D+01
 0.192173364235920D+03 -.959717352339093D+02 0.268356052274076D+02 0.164316396777749D+03
 0.232149060016496D+03 0.815716172147752D+02 0.165946554754687D+03 0.106704015634646D+03
 0.373715752840548D+03 0.123363525163766D+02 -.154380138893939D+03 0.340114761577408D+03
0.126870861683D-03 0.000000000000D+00 0.000000000000D+00 0.503503751574D-05 0.000000000000D+00  7 1 -2 -24 -11 11 23 21 0 0.40257501D+00 0.81358579D-02 0.53018341D+05 0.53018341D+05 0.53018341D+05 0.11450630D+01  1  2  2  1  7  1        1 0.147118946865D-02 0.100000000000D+01
-.507647342219D-05 0.000000000000D+00 -.487217514727D-06 0.503503751574D-05 0.000000000000D+00  7 1 -2 -24 -11 11 23 21 2 0.40257501D+00 0.81358579D-02 0.53018341D+05 0.53018341D+05 0.53018341D+05 0.11450630D+01  1  2  3  1  7  1        1 -.771840546865D-04 0.100000000000D+01
0.801348536598D-05 0.000000000000D+00 0.000000000000D+00 0.503503751574D-05 0.000000000000D+00  7 1 -2 -24 -11 11 23 21 2 0.40257501D+00 0.81358579D-02 0.53018341D+05 0.53018341D+05 0.53018341D+05 0.11450630D+01  1  2 15  1  7  1        1 0.121839166933D-03 0.100000000000D+01
0.409746548429D-04 0.000000000000D+00 0.000000000000D+00 0.503503751574D-05 0.000000000000D+00  7 1 -2 -24 -11 11 23 21 2 0.79833397D+00 0.81358579D-02 0.93466052D+05 0.93466052D+05 0.93466052D+05 0.11241382D+01  1  2 12  1  7  1        1 0.192385927294D-05 0.100000000000D+01
-.133835694673D-03 0.000000000000D+00 -.263616458787D-04 0.503503751574D-05 0.000000000000D+00  7 1 -2 -24 -11 11 23 21 2 0.80127024D+00 0.81358579D-02 0.53018341D+05 0.53018341D+05 0.53018341D+05 0.11450630D+01  1  2  5  1  7  1        1 -.644428234863D-05 0.100000000000D+01
0.126117755587D-03 0.000000000000D+00 0.211503685185D-04 0.503503751574D-05 0.000000000000D+00  7 1 -2 -24 -11 11 23 21 2 0.40257501D+00 0.81358579D-02 0.53018341D+05 0.53018341D+05 0.53018341D+05 0.11450630D+01  1  2  6  1  7  1        1 0.191752796373D-02 0.100000000000D+01
0.303666862110D-05 0.000000000000D+00 0.000000000000D+00 0.503503751574D-05 0.000000000000D+00  7 21 -2 -24 -11 11 23 -1 2 0.79833397D+00 0.81358579D-02 0.93466052D+05 0.93466052D+05 0.93466052D+05 0.11241382D+01  1  2 12  3  7  1        1 0.460262204877D-08 0.100000000000D+01
-.839446894481D-05 0.000000000000D+00 -.196378355375D-05 0.503503751574D-05 0.000000000000D+00  7 21 -2 -24 -11 11 23 -1 2 0.80127024D+00 0.81358579D-02 0.53018341D+05 0.53018341D+05 0.53018341D+05 0.11450630D+01  1  2  5  3  7  1        1 -.130184134865D-07 0.100000000000D+01
  </mgrwgt>
  </event>
  <event>
  8     66 0.29493621E-05 0.96650433E+02 0.75467711E-02 0.10622127E+00
        1 -1    0    0  501    0 0.00000000E+00 0.00000000E+00 0.12471140E+04 0.12471140E+04 0.32000000E+00 0.0000E+00 0.9000E+01
       -2 -1    0    0    0  501 0.00000000E+00 0.00000000E+00 -.74448678E+02 0.74449366E+02 0.32000000E+00 0.0000E+00 0.9000E+01
       25  2    1    2    0    0 -.11060983E+03 -.15665078E+01 0.30335530E+03 0.44156107E+03 0.30118889E+03 0.0000E+00 0.0000E+00
       23  2    3    3    0    0 0.16262686E+02 -.43887024E+02 0.25148334E+03 0.27157985E+03 0.91220619E+02 0.0000E+00 0.0000E+00
      -24  1    1    2    0    0 0.11060983E+03 0.15665078E+01 0.86931000E+03 0.88000232E+03 0.80419002E+02 0.0000E+00 0.9000E+01
      -11  1    4    4    0    0 0.17861776E+02 0.26198194E+02 0.64131967E+02 0.71542279E+02 0.51099893E-03 0.0000E+00 0.9000E+01
       11  1    4    4    0    0 -.15990897E+01 -.70085218E+02 0.18735137E+03 0.20003757E+03 0.51099893E-03 0.0000E+00 0.9000E+01
       23  1    3    3    0    0 -.12687251E+03 0.42320516E+02 0.51871961E+02 0.16998121E+03 0.91188000E+02 0.0000E+00 0.9000E+01
#aMCatNLO 1  0  0  1  2 0.25998849D+01 0.00000000D+00  -5  7  0 0.00000000D+00 0.00000000D+00 0.00000000D+00 0.00000000D+00 0.00000000D+00
  <mgrwgt>
 0.2525602548D-02   11    2    0
 0.304707185015364D+03 0.000000000000000D+00 0.000000000000000D+00 0.304707185015364D+03
 0.304707185015364D+03 0.000000000000000D+00 0.000000000000000D+00 -.304707185015364D+03
 0.235585469746277D+03 0.110609828879743D+03 0.156650776169165D+01 0.191823641425737D+03
 0.317391980310082D+02 0.178617755427971D+02 0.261981944211955D+02 0.141006211903383D+01
 0.732865587482084D+02 -.159908973499723D+01 -.700852181957971D+02 0.213641006274902D+02
 0.268803143505235D+03 -.126872514687543D+03 0.423205160129100D+02 -.214597804172261D+03
 0.000000000000000D+00 -.000000000000000D+00 0.000000000000000D+00 0.000000000000000D+00
 0.307209505832009D+03 0.000000000000000D+00 0.000000000000000D+00 0.307209505832009D+03
 0.305386020332331D+03 0.000000000000000D+00 0.000000000000000D+00 -.305386020332331D+03
 0.235894673329333D+03 0.111274938695716D+03 0.812132511881545D+00 0.191823641425737D+03
 0.317060463758101D+02 0.179512767772638D+02 0.260966810853709D+02 0.141006211903383D+01
 0.735069898331776D+02 -.139201032451322D+01 -.703200900594545D+02 0.213641006274902D+02
 0.268312206284606D+03 -.126114814290821D+03 0.414611234549724D+02 -.214597804172261D+03
 0.317561034141449D+01 -.171939085764614D+01 0.195015300722965D+01 0.182348549967766D+01
0.148844665335D-04 0.000000000000D+00 0.000000000000D+00 0.839711355671D-06 0.000000000000D+00  7 1 -2 -24 -11 11 23 21 0 0.19186374D+00 0.11453699D-01 0.40089604D+05 0.40089604D+05 0.40089604D+05 0.11558309D+01  1  2  2  1  7  1        1 0.822432484176D-03 0.100000000000D+01
-.649632557486D-06 0.000000000000D+00 -.571602706587D-07 0.839711355671D-06 0.000000000000D+00  7 1 -2 -24 -11 11 23 21 2 0.19186374D+00 0.11453699D-01 0.40089604D+05 0.40089604D+05 0.40089604D+05 0.11558309D+01  1  2  3  1  7  1        1 -.479538381488D-04 0.100000000000D+01
0.897821885249D-06 0.000000000000D+00 0.000000000000D+00 0.839711355671D-06 0.000000000000D+00  7 1 -2 -24 -11 11 23 21 2 0.19186374D+00 0.11453699D-01 0.40089604D+05 0.40089604D+05 0.40089604D+05 0.11558309D+01  1  2 15  1  7  1        1 0.662743960036D-04 0.100000000000D+01
0.397534229298D-07 0.000000000000D+00 0.000000000000D+00 0.839711355671D-06 0.000000000000D+00  7 1 -2 -24 -11 11 23 21 2 0.19365197D+00 0.11453699D-01 0.40594244D+05 0.40594244D+05 0.40594244D+05 0.11553423D+01  1  2 12  1  7  1        1 0.287879219347D-05 0.100000000000D+01
-.464325126166D-03 0.000000000000D+00 0.000000000000D+00 0.839711355671D-06 0.000000000000D+00  7 1 -2 -24 -11 11 23 21 2 0.19186374D+00 0.11453699D-01 0.40089604D+05 0.40089604D+05 0.40089604D+05 0.11558309D+01  1  2  4  1  7  1        1 -.342750246920D-01 0.100000000000D+01
-.182132534291D-02 0.000000000000D+00 -.179454892139D-03 0.839711355671D-06 0.000000000000D+00  7 1 -2 -24 -11 11 23 21 2 0.19366622D+00 0.11453699D-01 0.40089604D+05 0.40089604D+05 0.40089604D+05 0.11558309D+01  1  2  5  1  7  1        1 -.132003805656D+00 0.100000000000D+01
0.182293152532D-02 0.000000000000D+00 0.179447047016D-03 0.839711355671D-06 0.000000000000D+00  7 1 -2 -24 -11 11 23 21 2 0.19186374D+00 0.11453699D-01 0.40089604D+05 0.40089604D+05 0.40089604D+05 0.11558309D+01  1  2  6  1  7  1        1 0.134563088494D+00 0.100000000000D+01
0.464296091268D-03 0.000000000000D+00 0.000000000000D+00 0.839711355671D-06 0.884406145265D-06  7 1 -2 -24 -11 11 23 21 2 0.19343937D+00 0.11479216D-01 0.40594244D+05 0.40594244D+05 0.40594244D+05 0.11553423D+01  1  2 11  1  7  1        1 0.335797017406D-01 0.100000000000D+01
0.518474139550D-08 0.000000000000D+00 0.000000000000D+00 0.839711355671D-06 0.000000000000D+00  7 21 -2 -24 -11 11 23 -1 2 0.19365197D+00 0.11453699D-01 0.40594244D+05 0.40594244D+05 0.40594244D+05 0.11553423D+01  1  2 12  3  7  1        1 0.403769588561D-06 0.100000000000D+01
-.314311745403D-05 0.000000000000D+00 -.310263857505D-06 0.839711355671D-06 0.000000000000D+00  7 21 -2 -24 -11 11 23 -1 2 0.19366622D+00 0.11453699D-01 0.40089604D+05 0.40089604D+05 0.40089604D+05 0.11558309D+01  1  2  5  3  7  1        1 -.245099014454D-03 0.100000000000D+01
0.805062715717D-06 0.000000000000D+00 0.000000000000D+00 0.839711355671D-06 0.134291320777D-08  7 21 -2 -24 -11 11 23 -1 2 0.19343937D+00 0.11479216D-01 0.40594244D+05 0.40594244D+05 0.40594244D+05 0.11553423D+01  1  2 11  3  7  1        1 0.627060712885D-04 0.100000000000D+01
  </mgrwgt>
  </event>
  <event>
  8     66 0.29493621E-05 0.24384481E+03 0.75467711E-02 0.98184252E-01
        1 -1    0    0  501    0 0.00000000E+00 0.00000000E+00 0.14870127E+04 0.14870127E+04 0.32000000E+00 0.0000E+00 0.9000E+01
       -2 -1    0    0    0  501 0.00000000E+00 0.00000000E+00 -.22658594E+03 0.22658617E+03 0.32000000E+00 0.0000E+00 0.9000E+01
       25  2    1    2    0    0 -.17413474E+02 -.14431020E+03 -.96237087E+02 0.34680241E+03 0.29980272E+03 0.0000E+00 0.0000E+00
       23  2    3    3    0    0 -.55240926E+02 0.48475568E+02 -.15025353E+02 0.11548473E+03 0.87803883E+02 0.0000E+00 0.0000E+00
      -24  1    1    2    0    0 0.17413474E+02 0.14431020E+03 0.13566638E+04 0.13667965E+04 0.80419002E+02 0.0000E+00 0.9000E+01
      -13  1    4    4    0    0 -.10727280E+02 -.20353522E+02 -.23732880E+02 0.33054518E+02 0.10565837E+00 0.0000E+00 0.9000E+01
       13  1    4    4    0    0 -.44513646E+02 0.68829090E+02 0.87075267E+01 0.82430216E+02 0.10565837E+00 0.0000E+00 0.9000E+01
       23  1    3    3    0    0 0.37827452E+02 -.19278577E+03 -.81211734E+02 0.23131767E+03 0.91188000E+02 0.0000E+00 0.9000E+01
#aMCatNLO 1  0  0  1  1 0.21169801D+03 0.00000000D+00  -5  7  0 0.00000000D+00 0.00000000D+00 0.00000000D+00 0.00000000D+00 0.00000000D+00
  <mgrwgt>
 0.2917007465D-02    3    2    0
 0.580462221000491D+03 0.000000000000000D+00 0.000000000000000D+00 0.580462221000491D+03
 0.580462221000491D+03 0.000000000000000D+00 0.000000000000000D+00 -.580462221000491D+03
 0.544536345729390D+03 0.174134743667758D+02 0.144310200868842D+03 0.518578781576743D+03
 0.745575448241339D+02 -.107272311403337D+02 -.203536514583687D+02 -.709188471041079D+02
 0.112218490666214D+03 -.445136947547887D+02 0.688292194482167D+02 -.766424110843982D+02
 0.429612060781243D+03 0.378274515283465D+02 -.192785768858691D+03 -.371017523388237D+03
 0.000000000000000D+00 0.000000000000000D+00 -.000000000000000D+00 -.000000000000000D+00
 0.600606628604838D+03 0.000000000000000D+00 0.000000000000000D+00 0.600606628604838D+03
 0.164977667934264D+04 0.000000000000000D+00 0.000000000000000D+00 -.164977667934264D+04
 0.575500820914366D+03 -.286956042445507D+02 0.234492192863982D+03 0.518578781576743D+03
 0.733728786290218D+02 -.168171500529780D+02 -.844274290908714D+01 -.709188471041079D+02
 0.128939488605391D+03 -.544415547893832D+02 0.882465277339812D+02 -.766424110843982D+02
 0.402255286986463D+03 0.358159069914353D+01 -.125806335736659D+03 -.371017523388237D+03
 0.107031483281224D+04 0.963727183877684D+02 -.188489641952218D+03 -.104917005073780D+04
0.449554043673D-03 0.000000000000D+00 0.000000000000D+00 0.376658229364D-05 0.000000000000D+00  7 1 -2 -24 -13 13 23 21 0 0.22877120D+00 0.34859396D-01 0.59460294D+05 0.59460294D+05 0.59460294D+05 0.11407341D+01  1  2  2  1  7  1        1 0.271693838093D-02 0.100000000000D+01
-.213384741886D-05 0.000000000000D+00 -.172640589800D-05 0.376658229364D-05 0.000000000000D+00  7 1 -2 -24 -13 13 23 21 2 0.22877120D+00 0.34859396D-01 0.59460294D+05 0.59460294D+05 0.59460294D+05 0.11407341D+01  1  2  3  1  7  1        1 -.167814724385D-04 0.100000000000D+01
0.275736233344D-04 0.000000000000D+00 0.000000000000D+00 0.376658229364D-05 0.000000000000D+00  7 1 -2 -24 -13 13 23 21 2 0.22877120D+00 0.34859396D-01 0.59460294D+05 0.59460294D+05 0.59460294D+05 0.11407341D+01  1  2 15  1  7  1        1 0.216850556383D-03 0.100000000000D+01
  </mgrwgt>
  </event>
  <event>
  8     66 0.29493621E-05 0.26768852E+03 0.75467711E-02 0.10192352E+00
        1 -1    0    0  501    0 0.00000000E+00 0.00000000E+00 0.67542475E+03 0.67542483E+03 0.32000000E+00 0.0000E+00 0.9000E+01
       -2 -1    0    0    0  501 0.00000000E+00 0.00000000E+00 -.44561744E+03 0.44561756E+03 0.32000000E+00 0.0000E+00 0.9000E+01
       25  2    1    2    0    0 -.18357111E+03 -.58977608E+01 0.60118759E+03 0.69899540E+03 0.30567125E+03 0.0000E+00 0.0000E+00
       23  2    3    3    0    0 0.37770639E+02 -.24988633E+01 0.77382378E+02 0.12306930E+03 0.87892855E+02 0.0000E+00 0.0000E+00
      -24  1    1    2    0    0 0.18357111E+03 0.58977608E+01 -.37138028E+03 0.42204699E+03 0.80419002E+02 0.0000E+00 0.9000E+01
      -13  1    4    4    0    0 0.49525238E+02 -.35169103E+02 0.53329584E+02 0.80831125E+02 0.10565837E+00 0.0000E+00 0.9000E+01
       13  1    4    4    0    0 -.11754599E+02 0.32670239E+02 0.24052794E+02 0.42238172E+02 0.10565837E+00 0.0000E+00 0.9000E+01
       23  1    3    3    0    0 -.22134175E+03 -.33988975E+01 0.52380521E+03 0.57592610E+03 0.91188000E+02 0.0000E+00 0.9000E+01
#aMCatNLO 1  0  0  2  1 0.15753141D+02 0.00000000D+00  -5  7  0 0.00000000D+00 0.00000000D+00 0.00000000D+00 0.00000000D+00 0.00000000D+00
  <mgrwgt>
 0.8626474648D-03    4    2    0
 0.548617497443081D+03 0.000000000000000D+00 0.000000000000000D+00 0.548617497443081D+03
 0.548617497443081D+03 0.000000000000000D+00 0.000000000000000D+00 -.548617497443081D+03
 0.508987112484217D+03 0.183571110497279D+03 0.589776079589680D+01 -.467832799757607D+03
 0.714155499291483D+02 0.495253242140228D+02 -.351692006549941D+02 0.375572943443395D+02
 0.381169234610494D+02 -.117546893169805D+02 0.326703373890802D+02 0.157281972291940D+02
 0.478715409011748D+03 -.221341745394321D+03 -.339889752998300D+01 0.414547308184073D+03
 0.000000000000000D+00 0.000000000000000D+00 -.000000000000000D+00 0.000000000000000D+00
 0.561862867336535D+03 0.000000000000000D+00 0.000000000000000D+00 0.561862867336535D+03
 0.553378044803410D+03 0.000000000000000D+00 0.000000000000000D+00 -.553378044803410D+03
 0.507323943214522D+03 0.178649217132595D+03 0.112825570342540D+02 -.467832799757607D+03
 0.705704943593018D+02 0.488376999228745D+02 -.344169054665313D+02 0.375572943443395D+02
 0.385809283549871D+02 -.121261293852766D+02 0.330767113054450D+02 0.157281972291940D+02
 0.480872708041873D+03 -.225988935208574D+03 0.168535935584811D+01 0.414547308184073D+03
 0.178928381692612D+02 0.106281475383815D+02 -.116277222290158D+02 0.848482253312461D+01
0.211518755096D-03 0.000000000000D+00 0.000000000000D+00 0.272608586965D-07 0.000000000000D+00  7 1 -2 -24 -13 13 23 21 0 0.10391152D+00 0.68556544D-01 0.71657145D+05 0.71657145D+05 0.71657145D+05 0.11337968D+01  1  2  2  2  7  2       -2 0.137849095656D-02 0.100000000000D+01
-.439413300012D-05 0.000000000000D+00 -.812287713737D-06 0.272608586965D-07 0.000000000000D+00  7 1 -2 -24 -13 13 23 21 2 0.10391152D+00 0.68556544D-01 0.71657145D+05 0.71657145D+05 0.71657145D+05 0.11337968D+01  1  2  3  2  7  2       -2 -.368127868492D-04 0.100000000000D+01
0.129785541151D-04 0.000000000000D+00 0.000000000000D+00 0.272608586965D-07 0.000000000000D+00  7 1 -2 -24 -13 13 23 21 2 0.10391152D+00 0.68556544D-01 0.71657145D+05 0.71657145D+05 0.71657145D+05 0.11337968D+01  1  2 15  2  7  2       -2 0.108730606523D-03 0.100000000000D+01
-.701577249548D-04 0.000000000000D+00 0.000000000000D+00 0.272608586965D-07 0.000000000000D+00  7 1 -2 -24 -13 13 23 21 2 0.10391152D+00 0.68556544D-01 0.71657145D+05 0.71657145D+05 0.71657145D+05 0.11337968D+01  1  2  4  2  7  2       -2 -.587761311393D-03 0.100000000000D+01
  </mgrwgt>
  </event>
  <event>
  8     66 0.29493621E-05 0.14828416E+03 0.75467711E-02 0.10427795E+00
        1 -1    0    0  501    0 0.00000000E+00 0.00000000E+00 0.48902520E+03 0.48902530E+03 0.32000000E+00 0.0000E+00 0.9000E+01
       -2 -1    0    0    0  501 0.00000000E+00 0.00000000E+00 -.11135588E+03 0.11135634E+03 0.32000000E+00 0.0000E+00 0.9000E+01
       25  2    1    2    0    0 0.10946103E+03 -.47174275E+02 0.26530251E+03 0.41789700E+03 0.30007558E+03 0.0000E+00 0.0000E+00
       23  2    3    3    0    0 0.92119528E+02 -.42322229E+02 0.28937708E+03 0.32188083E+03 0.97933613E+02 0.0000E+00 0.0000E+00
      -24  1    1    2    0    0 -.10946103E+03 0.47174275E+02 0.11236680E+03 0.18248464E+03 0.80419002E+02 0.0000E+00 0.9000E+01
      -13  1    4    4    0    0 0.94599757E+01 0.23783764E+02 0.11566848E+03 0.11846673E+03 0.10565837E+00 0.0000E+00 0.9000E+01
       13  1    4    4    0    0 0.82659553E+02 -.66105992E+02 0.17370860E+03 0.20341410E+03 0.10565837E+00 0.0000E+00 0.9000E+01
       23  1    3    3    0    0 0.17341505E+02 -.48520468E+01 -.24074569E+02 0.96016178E+02 0.91188000E+02 0.0000E+00 0.9000E+01
#aMCatNLO 1  0  0  1  2 0.82966600D+02 0.00000000D+00  -5  7  0 0.00000000D+00 0.00000000D+00 0.00000000D+00 0.00000000D+00 0.00000000D+00
  <mgrwgt>
 0.4661873737D-03    7    2    0
 0.233358098443088D+03 0.000000000000000D+00 0.000000000000000D+00 0.233358098443088D+03
 0.233358098443088D+03 0.000000000000000D+00 0.000000000000000D+00 -.233358098443088D+03
 0.143819600701047D+03 -.109461036050662D+03 0.471742767835941D+02 -.311942111596046D+01
 0.587954162540783D+02 0.945992869899705D+01 0.237838034492118D+02 0.529314784886034D+02
 0.121105075644603D+03 0.826596023685777D+02 -.661060347039165D+02 0.588542407892424D+02
 0.142996104286448D+03 0.173415049830869D+02 -.485204552888947D+01 -.108666298161885D+03
 0.000000000000000D+00 0.000000000000000D+00 -.000000000000000D+00 0.000000000000000D+00
 0.119758632192233D+04 0.000000000000000D+00 0.000000000000000D+00 0.119758632192233D+04
 0.238808098650895D+03 0.000000000000000D+00 0.000000000000000D+00 -.238808098650895D+03
 0.155057008330351D+03 -.110274664600412D+03 0.735202518844715D+02 -.311942111596046D+01
 0.638912322535090D+02 0.912594016699910D+01 0.345986323421997D+02 0.529314784886034D+02
 0.110804286808803D+03 0.820282780275464D+02 -.456632228403226D+02 0.588542407892424D+02
 0.144280662574337D+03 0.165594545578117D+02 0.204714034064525D+02 -.108666298161885D+03
 0.962361230606228D+03 0.256099184805453D+01 -.829270647928010D+02 0.958778223271439D+03
0.490274144776D-05 0.000000000000D+00 0.000000000000D+00 0.395686617136D-07 0.000000000000D+00  7 1 -2 -24 -13 13 23 21 0 0.75234689D-01 0.17131718D-01 0.33887894D+05 0.33887894D+05 0.33887894D+05 0.11624572D+01  1  2  2  1  7  1        1 0.627155122962D-03 0.100000000000D+01
-.253746845431D-06 0.000000000000D+00 -.188278180809D-07 0.395686617136D-07 0.000000000000D+00  7 1 -2 -24 -13 13 23 21 2 0.75234689D-01 0.17131718D-01 0.33887894D+05 0.33887894D+05 0.33887894D+05 0.11624572D+01  1  2  3  1  7  1        1 -.438622187861D-04 0.100000000000D+01
0.321175447442D-06 0.000000000000D+00 0.000000000000D+00 0.395686617136D-07 0.000000000000D+00  7 1 -2 -24 -13 13 23 21 2 0.75234689D-01 0.17131718D-01 0.33887894D+05 0.33887894D+05 0.33887894D+05 0.11624572D+01  1  2 15  1  7  1        1 0.555178044499D-04 0.100000000000D+01
0.789679607554D-04 0.000000000000D+00 0.000000000000D+00 0.395686617136D-07 0.000000000000D+00  7 1 -2 -24 -13 13 23 21 2 0.38161863D+00 0.17131718D-01 0.53492568D+05 0.53492568D+05 0.53492568D+05 0.11447250D+01  1  2 12  1  7  1        1 0.466795088383D-03 0.100000000000D+01
-.106316364354D-03 0.000000000000D+00 -.208625552763D-05 0.395686617136D-07 0.000000000000D+00  7 1 -2 -24 -13 13 23 21 2 0.38713699D+00 0.17131718D-01 0.33887894D+05 0.33887894D+05 0.33887894D+05 0.11624572D+01  1  2  5  1  7  1        1 -.626797384926D-03 0.100000000000D+01
0.156408264955D-04 0.000000000000D+00 0.000000000000D+00 0.395686617136D-07 0.000000000000D+00  7 21 -2 -24 -13 13 23 -1 2 0.38161863D+00 0.17131718D-01 0.53492568D+05 0.53492568D+05 0.53492568D+05 0.11447250D+01  1  2 12  3  7  1        1 0.350485737486D-04 0.100000000000D+01
-.213303089655D-04 0.000000000000D+00 -.417178376690D-06 0.395686617136D-07 0.000000000000D+00  7 21 -2 -24 -13 13 23 -1 2 0.38713699D+00 0.17131718D-01 0.33887894D+05 0.33887894D+05 0.33887894D+05 0.11624572D+01  1  2  5  3  7  1        1 -.476696121408D-04 0.100000000000D+01
  </mgrwgt>
  </event>
  <event>
  8     66 0.29493621E-05 0.78017731E+02 0.75467711E-02 0.11090849E+00
        1 -1    0    0  501    0 0.00000000E+00 0.00000000E+00 0.14724621E+03 0.14724656E+03 0.32000000E+00 0.0000E+00 0.9000E+01
       -2 -1    0    0    0  501 0.00000000E+00 0.00000000E+00 -.29607003E+03 0.29607021E+03 0.32000000E+00 0.0000E+00 0.9000E+01
       25  2    1    2    0    0 -.66262310E+00 0.72743383E+02 -.12138210E+03 0.33145836E+03 0.29973153E+03 0.0000E+00 0.0000E+00
       23  2    3    3    0    0 -.11841917E+02 -.12339133E+02 0.60508513E+02 0.11063387E+03 0.91027948E+02 0.0000E+00 0.0000E+00
      -24  1    1    2    0    0 0.66262310E+00 -.72743383E+02 -.27441725E+02 0.11185841E+03 0.80419002E+02 0.0000E+00 0.9000E+01
      -13  1    4    4    0    0 -.26716539E+02 0.10739347E+02 -.13422315E+02 0.31769116E+02 0.10565837E+00 0.0000E+00 0.9000E+01
       13  1    4    4    0    0 0.14874622E+02 -.23078480E+02 0.73930828E+02 0.78864752E+02 0.10565837E+00 0.0000E+00 0.9000E+01
       23  1    3    3    0    0 0.11179294E+02 0.85082516E+02 -.18189061E+03 0.22082449E+03 0.91188000E+02 0.0000E+00 0.9000E+01
#aMCatNLO 1  0  0  2  1 0.56235462D+01 0.00000000D+00  -5  7  0 0.00000000D+00 0.00000000D+00 0.00000000D+00 0.00000000D+00 0.00000000D+00
  <mgrwgt>
 0.1115264174D-02    8    2    0
 0.208794890896902D+03 0.000000000000000D+00 0.000000000000000D+00 0.208794890896902D+03
 0.208794890896902D+03 0.000000000000000D+00 0.000000000000000D+00 -.208794890896902D+03
 0.108969932433015D+03 0.662623281310444D+00 -.727434028027619D+02 0.107325905142892D+02
 0.289427002233424D+02 -.267165935344273D+02 0.107393958098254D+02 -.292726899590226D+01
 0.110071600969557D+03 0.148746774617721D+02 -.230785166911076D+02 0.106592135628047D+03
 0.169605548167890D+03 0.111792927913447D+02 0.850825236840440D+02 -.114397457146433D+03
 0.000000000000000D+00 0.000000000000000D+00 -.000000000000000D+00 0.000000000000000D+00
 0.211945420705285D+03 0.000000000000000D+00 0.000000000000000D+00 0.211945420705285D+03
 0.211338433993620D+03 0.000000000000000D+00 0.000000000000000D+00 -.211338433993620D+03
 0.108738450887595D+03 -.761259870005207D+00 -.723952120746004D+02 0.107325905142892D+02
 0.293291641971755D+02 -.270977103507785D+02 0.108325926017653D+02 -.292726899590226D+01
 0.109813177773236D+03 0.134365599813738D+02 -.227268451566710D+02 0.106592135628047D+03
 0.169746852455779D+03 0.895981847328422D+01 0.856252651149171D+02 -.114397457146433D+03
 0.565620938511892D+01 0.546259176612572D+01 -.133580048541101D+01 0.606986711665529D+00
0.687238553815D-05 0.000000000000D+00 0.000000000000D+00 0.891991893577D-06 0.000000000000D+00  7 1 -2 -24 -13 13 23 21 0 0.22653303D-01 0.45549276D-01 0.21011667D+05 0.21011667D+05 0.21011667D+05 0.11819635D+01  1  2  2  2  7  2       -2 0.768562357159D-03 0.100000000000D+01
-.319976275505D-06 0.000000000000D+00 -.263917700072D-07 0.891991893577D-06 0.000000000000D+00  7 1 -2 -24 -13 13 23 21 2 0.22653303D-01 0.45549276D-01 0.21011667D+05 0.21011667D+05 0.21011667D+05 0.11819635D+01  1  2  3  2  7  2       -2 -.499916517676D-04 0.100000000000D+01
0.445594377006D-06 0.000000000000D+00 0.000000000000D+00 0.891991893577D-06 0.000000000000D+00  7 1 -2 -24 -13 13 23 21 2 0.22653303D-01 0.45549276D-01 0.21011667D+05 0.21011667D+05 0.21011667D+05 0.11819635D+01  1  2 15  2  7  2       -2 0.696176580272D-04 0.100000000000D+01
0.320039858321D-05 0.000000000000D+00 0.000000000000D+00 0.891991893577D-06 0.000000000000D+00  7 1 -2 -24 -13 13 23 21 2 0.22653303D-01 0.46443169D-01 0.21730249D+05 0.21730249D+05 0.21730249D+05 0.11805580D+01  1  2 12  2  7  2       -2 0.481036402034D-03 0.100000000000D+01
-.121928886000D-04 0.000000000000D+00 0.000000000000D+00 0.891991893577D-06 0.000000000000D+00  7 1 -2 -24 -13 13 23 21 2 0.22653303D-01 0.45549276D-01 0.21011667D+05 0.21011667D+05 0.21011667D+05 0.11819635D+01  1  2  4  2  7  2       -2 -.190496198498D-02 0.100000000000D+01
0.999226840537D-05 0.000000000000D+00 0.000000000000D+00 0.891991893577D-06 0.209698641344D-06  7 1 -2 -24 -13 13 23 21 2 0.22995122D-01 0.46104158D-01 0.21730249D+05 0.21730249D+05 0.21730249D+05 0.11805580D+01  1  2 11  2  7  2       -2 0.149405528250D-02 0.100000000000D+01
0.965322736437D-07 0.000000000000D+00 0.000000000000D+00 0.891991893577D-06 0.000000000000D+00  7 1 21 -24 -13 13 23 2 2 0.22653303D-01 0.46443169D-01 0.21730249D+05 0.21730249D+05 0.21730249D+05 0.11805580D+01  1  2 12  4  7  2       -2 0.165691299032D-03 0.100000000000D+01
0.533763570735D-07 0.000000000000D+00 0.000000000000D+00 0.891991893577D-06 0.471529676374D-09  7 1 21 -24 -13 13 23 2 2 0.22995122D-01 0.46104158D-01 0.21730249D+05 0.21730249D+05 0.21730249D+05 0.11805580D+01  1  2 11  4  7  2       -2 0.912548121888D-04 0.100000000000D+01
  </mgrwgt>
  </event>
  <event>
  8     66 0.29493621E-05 0.10038593E+03 0.75467711E-02 0.10090905E+00
        1 -1    0    0  501    0 0.00000000E+00 0.00000000E+00 0.70652326E+03 0.70652333E+03 0.32000000E+00 0.0000E+00 0.9000E+01
       -2 -1    0    0    0  501 0.00000000E+00 0.00000000E+00 -.16391473E+03 0.16391504E+03 0.32000000E+00 0.0000E+00 0.9000E+01
       25  2    1    2    0    0 -.95400267E+01 -.20436414E+03 0.54011584E+03 0.65059947E+03 0.29949764E+03 0.0000E+00 0.0000E+00
       23  2    3    3    0    0 -.46524585E+02 -.17380745E+03 0.50104728E+03 0.54040341E+03 0.92811081E+02 0.0000E+00 0.0000E+00
      -24  1    1    2    0    0 0.95400267E+01 0.20436414E+03 0.24926947E+01 0.21983890E+03 0.80419002E+02 0.0000E+00 0.9000E+01
      -11  1    4    4    0    0 -.48073600E+01 0.88534263E+00 -.27080257E+01 0.55881970E+01 0.51099893E-03 0.0000E+00 0.9000E+01
       11  1    4    4    0    0 -.41717225E+02 -.17469279E+03 0.50375531E+03 0.53481521E+03 0.51099893E-03 0.0000E+00 0.9000E+01
       23  1    3    3    0    0 0.36984558E+02 -.30556686E+02 0.39068555E+02 0.11019606E+03 0.91188000E+02 0.0000E+00 0.9000E+01
#aMCatNLO 1  0  0  2  1 0.81451996D+02 0.00000000D+00  -5  7  0 0.00000000D+00 0.00000000D+00 0.00000000D+00 0.00000000D+00 0.00000000D+00
  <mgrwgt>
 0.1193103504D-02    9    2    0
 0.340308293413236D+03 0.000000000000000D+00 0.000000000000000D+00 0.340308293413236D+03
 0.340308293413236D+03 0.000000000000000D+00 0.000000000000000D+00 -.340308293413236D+03
 0.279164012854454D+03 0.954002667056192D+01 0.204364137647105D+03 -.172074452646263D+03
 0.930564884379914D+01 -.480736003543759D+01 0.885342638038964D+00 -.791836841192983D+01
 0.282364192370756D+03 -.417172246233776D+02 -.174692794526475D+03 0.217879870211644D+03
 0.109782732757463D+03 0.369845579882532D+02 -.305566857586696D+02 -.378870491534508D+02
 0.000000000000000D+00 -.000000000000000D+00 0.000000000000000D+00 -.000000000000000D+00
 0.365382760239469D+03 0.000000000000000D+00 0.000000000000000D+00 0.365382760239469D+03
 0.415976475632497D+03 0.000000000000000D+00 0.000000000000000D+00 -.415976475632497D+03
 0.270814679390521D+03 0.385852259971389D+02 0.189142638504011D+03 -.172074452646263D+03
 0.881328827359001D+01 -.385047180034598D+01 0.383873418058214D+00 -.791836841192983D+01
 0.289661248980053D+03 -.115077034215873D+02 -.190524471077084D+03 0.217879870211644D+03
 0.116183879807463D+03 0.489181935920417D+02 -.368106564088505D+02 -.378870491534508D+02
 0.958861394203393D+02 -.721452443672473D+02 0.378086155638654D+02 -.505937153930283D+02
0.239420074828D-04 0.000000000000D+00 0.000000000000D+00 0.156473402852D-05 0.000000000000D+00  7 1 -2 -24 -11 11 23 21 0 0.10869592D+00 0.25217680D-01 0.64352469D+05 0.64352469D+05 0.64352469D+05 0.11377784D+01  1  2  2  2  7  2       -2 0.960267503589D-03 0.100000000000D+01
-.119052814799D-05 0.000000000000D+00 -.919436128092D-07 0.156473402852D-05 0.000000000000D+00  7 1 -2 -24 -11 11 23 21 2 0.10869592D+00 0.25217680D-01 0.64352469D+05 0.64352469D+05 0.64352469D+05 0.11377784D+01  1  2  3  2  7  2       -2 -.618139824469D-04 0.100000000000D+01
0.152294620484D-05 0.000000000000D+00 0.000000000000D+00 0.156473402852D-05 0.000000000000D+00  7 1 -2 -24 -11 11 23 21 2 0.10869592D+00 0.25217680D-01 0.64352469D+05 0.64352469D+05 0.64352469D+05 0.11377784D+01  1  2 15  2  7  2       -2 0.790736196638D-04 0.100000000000D+01
0.259636174624D-04 0.000000000000D+00 0.000000000000D+00 0.156473402852D-05 0.000000000000D+00  7 1 -2 -24 -11 11 23 21 2 0.10869592D+00 0.31599883D-01 0.88549589D+05 0.88549589D+05 0.88549589D+05 0.11260819D+01  1  2 12  2  7  2       -2 0.888959470726D-03 0.100000000000D+01
-.282958269393D-04 0.000000000000D+00 0.000000000000D+00 0.156473402852D-05 0.000000000000D+00  7 1 -2 -24 -11 11 23 21 2 0.10869592D+00 0.25217680D-01 0.64352469D+05 0.64352469D+05 0.64352469D+05 0.11377784D+01  1  2  4  2  7  2       -2 -.146916118926D-02 0.100000000000D+01
-.443786651966D-04 0.000000000000D+00 -.136407140669D-04 0.156473402852D-05 0.000000000000D+00  7 1 -2 -24 -11 11 23 21 2 0.10869592D+00 0.32879325D-01 0.64352469D+05 0.64352469D+05 0.64352469D+05 0.11377784D+01  1  2  5  2  7  2       -2 -.145387664991D-02 0.100000000000D+01
0.468069814104D-04 0.000000000000D+00 0.131743602220D-04 0.156473402852D-05 0.000000000000D+00  7 1 -2 -24 -11 11 23 21 2 0.10869592D+00 0.25217680D-01 0.64352469D+05 0.64352469D+05 0.64352469D+05 0.11377784D+01  1  2  6  2  7  2       -2 0.243028771068D-02 0.100000000000D+01
0.814092845973D-06 0.000000000000D+00 0.000000000000D+00 0.156473402852D-05 0.000000000000D+00  7 1 21 -24 -11 11 23 2 2 0.10869592D+00 0.31599883D-01 0.88549589D+05 0.88549589D+05 0.88549589D+05 0.11260819D+01  1  2 12  4  7  2       -2 0.328498534753D-03 0.100000000000D+01
-.131712006848D-05 0.000000000000D+00 -.482232879740D-06 0.156473402852D-05 0.000000000000D+00  7 1 21 -24 -11 11 23 2 2 0.10869592D+00 0.32879325D-01 0.64352469D+05 0.64352469D+05 0.64352469D+05 0.11377784D+01  1  2  5  4  7  2       -2 -.509131513840D-03 0.100000000000D+01
  </mgrwgt>
  </event>
  <event>
  8     66 0.29493621E-05 0.23043740E+03 0.75467711E-02 0.97728354E-01
        1 -1    0    0  501    0 0.00000000E+00 0.00000000E+00 0.87261111E+03 0.87261117E+03 0.32000000E+00 0.0000E+00 0.9000E+01
       -2 -1    0    0    0  501 0.00000000E+00 0.00000000E+00 -.12641457E+03 0.12641498E+03 0.32000000E+00 0.0000E+00 0.9000E+01
       25  2    1    2    0    0 0.10929253E+03 -.38945766E+02 0.78867156E+03 0.85160508E+03 0.29961101E+03 0.0000E+00 0.0000E+00
       23  2    3    3    0    0 -.39279967E+02 -.95657359E+02 0.32866233E+03 0.35641447E+03 0.91209135E+02 0.0000E+00 0.0000E+00
      -24  1    1    2    0    0 -.10929253E+03 0.38945766E+02 -.42475016E+02 0.14742107E+03 0.80419002E+02 0.0000E+00 0.9000E+01
      -13  1    4    4    0    0 -.68070542E+02 -.72420325E+02 0.26123856E+03 0.27950652E+03 0.10565837E+00 0.0000E+00 0.9000E+01
       13  1    4    4    0    0 0.28790574E+02 -.23237034E+02 0.67423771E+02 0.76907952E+02 0.10565837E+00 0.0000E+00 0.9000E+01
       23  1    3    3    0    0 0.14857249E+03 0.56711593E+02 0.46000923E+03 0.49519060E+03 0.91188000E+02 0.0000E+00 0.9000E+01
#aMCatNLO 1  0  0  2  1 0.27035920D+03 0.00000000D+00  -5  7  0 0.00000000D+00 0.00000000D+00 0.00000000D+00 0.00000000D+00 0.00000000D+00
  <mgrwgt>
 0.1130104861D-02    3    2    0
 0.332130985620006D+03 0.000000000000000D+00 0.000000000000000D+00 0.332130985620006D+03
 0.332130985620006D+03 0.000000000000000D+00 0.000000000000000D+00 -.332130985620006D+03
 0.269430167202581D+03 -.109292526570844D+03 0.389457659292473D+02 -.229485881910818D+03
 0.126906400290313D+03 -.680706713684785D+02 -.724203907368708D+02 0.789107415983954D+02
 0.399264045318403D+02 0.287907042428385D+02 -.232369681914404D+02 0.150085454762128D+02
 0.227998999215278D+03 0.148572493696484D+03 0.567115929990640D+02 0.135566594836210D+03
 0.000000000000000D+00 -.000000000000000D+00 0.000000000000000D+00 0.000000000000000D+00
 0.497537187718972D+03 0.000000000000000D+00 0.000000000000000D+00 0.497537187718972D+03
 0.490098003956125D+03 0.000000000000000D+00 0.000000000000000D+00 -.490098003956125D+03
 0.246081192868522D+03 -.297962979209648D+02 -.231764570856573D+02 -.229485881910818D+03
 0.133334159083859D+03 -.279393675517632D+02 -.103780945167206D+03 0.789107415983954D+02
 0.581633662378786D+02 0.439169797224870D+02 -.350573762119288D+02 0.150085454762128D+02
 0.279594945099849D+03 0.226847789614315D+03 -.445653374291525D+01 0.135566594836210D+03
 0.270461528384988D+03 -.213029103864074D+03 0.166471312207707D+03 0.743918376284756D+01
0.247864485140D-04 0.000000000000D+00 0.000000000000D+00 0.531712143587D-05 0.000000000000D+00  7 1 -2 -24 -13 13 23 21 0 0.13424790D+00 0.19448431D-01 0.53101395D+05 0.53101395D+05 0.53101395D+05 0.11450036D+01  1  2  2  2  7  2       -2 0.110704375344D-02 0.100000000000D+01
-.115329847146D-05 0.000000000000D+00 -.951864887157D-07 0.531712143587D-05 0.000000000000D+00  7 1 -2 -24 -13 13 23 21 2 0.13424790D+00 0.19448431D-01 0.53101395D+05 0.53101395D+05 0.53101395D+05 0.11450036D+01  1  2  3  2  7  2       -2 -.675314181096D-04 0.100000000000D+01
0.154713501042D-05 0.000000000000D+00 0.000000000000D+00 0.531712143587D-05 0.000000000000D+00  7 1 -2 -24 -13 13 23 21 2 0.13424790D+00 0.19448431D-01 0.53101395D+05 0.53101395D+05 0.53101395D+05 0.11450036D+01  1  2 15  2  7  2       -2 0.905925255660D-04 0.100000000000D+01
  </mgrwgt>
  </event>
  <event>
  8     66 0.29493621E-05 0.19190809E+03 0.75467711E-02 0.10014993E+00
        1 -1    0    0  501    0 0.00000000E+00 0.00000000E+00 0.30287141E+03 0.30287158E+03 0.32000000E+00 0.0000E+00 0.9000E+01
       -2 -1    0    0    0  501 0.00000000E+00 0.00000000E+00 -.33121057E+03 0.33121073E+03 0.32000000E+00 0.0000E+00 0.9000E+01
       25  2    1    2    0    0 -.91275396E+02 0.21944830E+03 -.28110912E+02 0.38317192E+03 0.29923527E+03 0.0000E+00 0.0000E+00
       23  2    3    3    0    0 0.57302942E+02 0.16694224E+03 -.13312578E+02 0.20050651E+03 0.94192886E+02 0.0000E+00 0.0000E+00
      -24  1    1    2    0    0 0.91275396E+02 -.21944830E+03 -.22824861E+00 0.25091038E+03 0.80419002E+02 0.0000E+00 0.9000E+01
      -11  1    4    4    0    0 0.74683056E+02 0.14876482E+03 -.31573602E+02 0.16942675E+03 0.51099893E-03 0.0000E+00 0.9000E+01
       11  1    4    4    0    0 -.17380113E+02 0.18177413E+02 0.18261024E+02 0.31079763E+02 0.51099893E-03 0.0000E+00 0.9000E+01
       23  1    3    3    0    0 -.14857834E+03 0.52506059E+02 -.14798334E+02 0.18266541E+03 0.91188000E+02 0.0000E+00 0.9000E+01
#aMCatNLO 1  0  0  1  2 0.67305935D+01 0.00000000D+00  -5  7  0 0.00000000D+00 0.00000000D+00 0.00000000D+00 0.00000000D+00 0.00000000D+00
  <mgrwgt>
 0.1233513746D-02   11    2    0
 0.316724352054086D+03 0.000000000000000D+00 0.000000000000000D+00 0.316724352054086D+03
 0.316724352054086D+03 0.000000000000000D+00 0.000000000000000D+00 -.316724352054086D+03
 0.251151142642666D+03 0.912753957245708D+02 -.219448296112964D+03 0.109967251846224D+02
 0.168183681889142D+03 0.746830556375864D+02 0.148764823874767D+03 -.240253872378933D+02
 0.319278099958218D+02 -.173801132300272D+02 0.181774132446773D+02 0.196697321530559D+02
 0.182186069580544D+03 -.148578338132130D+03 0.525060589935193D+02 -.664107009978497D+01
 0.000000000000000D+00 0.000000000000000D+00 -.000000000000000D+00 0.000000000000000D+00
 0.320325748984554D+03 0.000000000000000D+00 0.000000000000000D+00 0.320325748984554D+03
 0.319902593851859D+03 0.000000000000000D+00 0.000000000000000D+00 -.319902593851859D+03
 0.248882813353007D+03 0.893038521918325D+02 -.217667941707203D+03 0.109967251846224D+02
 0.168663609555651D+03 0.733549276354670D+02 0.149964157544414D+03 -.240253872378933D+02
 0.321961132015047D+02 -.176329422720505D+02 0.184057243579729D+02 0.196697321530559D+02
 0.183741924335207D+03 -.150021126089232D+03 0.538089335450318D+02 -.664107009978497D+01
 0.674388239104330D+01 0.499528853398256D+01 -.451087374021488D+01 0.423155132694920D+00
0.166400216026D-04 0.000000000000D+00 0.000000000000D+00 0.215676738582D-06 0.000000000000D+00  7 1 -2 -24 -11 11 23 21 0 0.46595626D-01 0.50955497D-01 0.97526092D+05 0.97526092D+05 0.97526092D+05 0.11226159D+01  1  2  2  1  7  1        1 0.591770334115D-03 0.100000000000D+01
-.924222366809D-06 0.000000000000D+00 -.639020643723D-07 0.215676738582D-06 0.000000000000D+00  7 1 -2 -24 -11 11 23 21 2 0.46595626D-01 0.50955497D-01 0.97526092D+05 0.97526092D+05 0.97526092D+05 0.11226159D+01  1  2  3  1  7  1        1 -.414226765148D-04 0.100000000000D+01
0.108230096093D-05 0.000000000000D+00 0.000000000000D+00 0.215676738582D-06 0.000000000000D+00  7 1 -2 -24 -11 11 23 21 2 0.46595626D-01 0.50955497D-01 0.97526092D+05 0.97526092D+05 0.97526092D+05 0.11226159D+01  1  2 15  1  7  1        1 0.485075932006D-04 0.100000000000D+01
0.935796253057D-05 0.000000000000D+00 0.000000000000D+00 0.215676738582D-06 0.000000000000D+00  7 1 -2 -24 -11 11 23 21 2 0.47356748D-01 0.50955497D-01 0.99674365D+05 0.99674365D+05 0.99674365D+05 0.11218383D+01  1  2 12  1  7  1        1 0.409923040235D-03 0.100000000000D+01
-.158786151133D-04 0.000000000000D+00 0.000000000000D+00 0.215676738582D-06 0.000000000000D+00  7 1 -2 -24 -11 11 23 21 2 0.46595626D-01 0.50955497D-01 0.97526092D+05 0.97526092D+05 0.97526092D+05 0.11226159D+01  1  2  4  1  7  1        1 -.711662864874D-03 0.100000000000D+01
-.890184374131D-03 0.000000000000D+00 -.109426552602D-03 0.215676738582D-06 0.000000000000D+00  7 1 -2 -24 -11 11 23 21 2 0.47553066D-01 0.50955497D-01 0.97526092D+05 0.97526092D+05 0.97526092D+05 0.11226159D+01  1  2  5  1  7  1        1 -.388463382698D-01 0.100000000000D+01
0.892248128111D-03 0.000000000000D+00 0.109403921697D-03 0.215676738582D-06 0.000000000000D+00  7 1 -2 -24 -11 11 23 21 2 0.46595626D-01 0.50955497D-01 0.97526092D+05 0.97526092D+05 0.97526092D+05 0.11226159D+01  1  2  6  1  7  1        1 0.399896246932D-01 0.100000000000D+01
0.846110234581D-05 0.000000000000D+00 0.000000000000D+00 0.215676738582D-06 0.319623693388D-07  7 1 -2 -24 -11 11 23 21 2 0.47125454D-01 0.51466822D-01 0.99674365D+05 0.99674365D+05 0.99674365D+05 0.11218383D+01  1  2 11  1  7  1        1 0.365756673072D-03 0.100000000000D+01
0.417358897119D-06 0.000000000000D+00 0.000000000000D+00 0.215676738582D-06 0.000000000000D+00  7 21 -2 -24 -11 11 23 -1 2 0.47356748D-01 0.50955497D-01 0.99674365D+05 0.99674365D+05 0.99674365D+05 0.11218383D+01  1  2 12  3  7  1        1 0.851586462883D-04 0.100000000000D+01
-.327707762856D-05 0.000000000000D+00 -.404871256253D-06 0.215676738582D-06 0.000000000000D+00  7 21 -2 -24 -11 11 23 -1 2 0.47553066D-01 0.50955497D-01 0.97526092D+05 0.97526092D+05 0.97526092D+05 0.11226159D+01  1  2  5  3  7  1        1 -.664359874977D-03 0.100000000000D+01
0.324337728702D-07 0.000000000000D+00 0.000000000000D+00 0.215676738582D-06 0.669565120233D-10  7 21 -2 -24 -11 11 23 -1 2 0.47125454D-01 0.51466822D-01 0.99674365D+05 0.99674365D+05 0.99674365D+05 0.11218383D+01  1  2 11  3  7  1        1 0.655645238899D-05 0.100000000000D+01
  </mgrwgt>
  </event>
  <event>
  8     66 0.29493621E-05 0.19083697E+03 0.75467711E-02 0.91069603E-01
        1 -1    0    0  501    0 0.00000000E+00 0.00000000E+00 0.75157062E+03 0.75157069E+03 0.32000000E+00 0.0000E+00 0.9000E+01
       -2 -1    0    0    0  501 0.00000000E+00 0.00000000E+00 -.34418329E+03 0.34418344E+03 0.32000000E+00 0.0000E+00 0.9000E+01
       25  2    1    2    0    0 -.40661744E+03 -.10476994E+03 0.42377274E+03 0.66791048E+03 0.30034413E+03 0.0000E+00 0.0000E+00
       23  2    3    3    0    0 -.26460315E+03 -.36448589E+02 0.10806715E+03 0.30346414E+03 0.95229449E+02 0.0000E+00 0.0000E+00
      -24  1    1    2    0    0 0.40661744E+03 0.10476994E+03 -.16385407E+02 0.42784364E+03 0.80419002E+02 0.0000E+00 0.9000E+01
      -11  1    4    4    0    0 -.21980809E+03 -.66206192E+02 0.82713808E+02 0.24400908E+03 0.51099893E-03 0.0000E+00 0.9000E+01
       11  1    4    4    0    0 -.44795059E+02 0.29757602E+02 0.25353338E+02 0.59455059E+02 0.51099893E-03 0.0000E+00 0.9000E+01
       23  1    3    3    0    0 -.14201429E+03 -.68321349E+02 0.31570560E+03 0.36444635E+03 0.91188000E+02 0.0000E+00 0.9000E+01
#aMCatNLO 1  0  0  1  2 0.40712955D+03 0.00000000D+00  -5  7  0 0.00000000D+00 0.00000000D+00 0.00000000D+00 0.00000000D+00 0.00000000D+00
  <mgrwgt>
 0.1221001343D-02    7    2    0
 0.508604135420610D+03 0.000000000000000D+00 0.000000000000000D+00 0.508604135420610D+03
 0.508604135420610D+03 0.000000000000000D+00 0.000000000000000D+00 -.508604135420610D+03
 0.467442761879676D+03 0.406617442297022D+03 0.104769938768923D+03 -.189000093199748D+03
 0.229724240354591D+03 -.219808090551684D+03 -.662061917461884D+02 -.862381058370306D+01
 0.538921070573910D+02 -.447950593495331D+02 0.297576024572018D+02 0.349956525246171D+01
 0.266149161549562D+03 -.142014292395805D+03 -.683213494799367D+02 0.194124338530989D+03
 0.000000000000000D+00 0.000000000000000D+00 -.000000000000000D+00 0.000000000000000D+00
 0.171841404122231D+04 0.000000000000000D+00 0.000000000000000D+00 0.171841404122231D+04
 0.583229081423633D+03 0.000000000000000D+00 0.000000000000000D+00 -.583229081423633D+03
 0.343824555101759D+03 0.250625757476562D+03 0.114951307936613D+03 -.189000093199748D+03
 0.333505041044510D+03 -.328106653437921D+03 -.591376890221868D+02 -.862381058370306D+01
 0.767149379890875D+02 -.699083759835965D+02 0.313967151315137D+02 0.349956525246171D+01
 0.341613777901292D+03 -.258875853205536D+03 -.606939513049269D+02 0.194124338530989D+03
 0.120598481060930D+04 0.406265125150491D+03 -.265163827410128D+02 0.113518495979868D+04
0.144097611369D-03 0.000000000000D+00 0.000000000000D+00 0.804242092625D-06 0.000000000000D+00  7 1 -2 -24 -11 11 23 21 0 0.11562627D+00 0.52951292D-01 0.19933766D+06 0.19933766D+06 0.19933766D+06 0.10979360D+01  1  2  2  1  7  1        1 0.131650855685D-02 0.100000000000D+01
-.784018748930D-05 0.000000000000D+00 -.553372769429D-06 0.804242092625D-06 0.000000000000D+00  7 1 -2 -24 -11 11 23 21 2 0.11562627D+00 0.52951292D-01 0.19933766D+06 0.19933766D+06 0.19933766D+06 0.10979360D+01  1  2  3  1  7  1        1 -.863470369654D-04 0.100000000000D+01
0.891098139079D-05 0.000000000000D+00 0.000000000000D+00 0.804242092625D-06 0.000000000000D+00  7 1 -2 -24 -11 11 23 21 2 0.11562627D+00 0.52951292D-01 0.19933766D+06 0.19933766D+06 0.19933766D+06 0.10979360D+01  1  2 15  1  7  1        1 0.981401070572D-04 0.100000000000D+01
0.313933835368D-05 0.000000000000D+00 0.000000000000D+00 0.804242092625D-06 0.000000000000D+00  7 1 -2 -24 -11 11 23 21 2 0.37581389D+00 0.52951292D-01 0.47988433D+06 0.47988433D+06 0.47988433D+06 0.10697731D+01  1  2 12  1  7  1        1 0.202112230164D-05 0.100000000000D+01
-.192629813697D-03 0.000000000000D+00 -.467929609848D-04 0.804242092625D-06 0.000000000000D+00  7 1 -2 -24 -11 11 23 21 2 0.40283584D+00 0.52951292D-01 0.19933766D+06 0.19933766D+06 0.19933766D+06 0.10979360D+01  1  2  5  1  7  1        1 -.104860377858D-03 0.100000000000D+01
0.427368490479D-06 0.000000000000D+00 0.000000000000D+00 0.804242092625D-06 0.000000000000D+00  7 21 -2 -24 -11 11 23 -1 2 0.37581389D+00 0.52951292D-01 0.47988433D+06 0.47988433D+06 0.47988433D+06 0.10697731D+01  1  2 12  3  7  1        1 0.954320903973D-07 0.100000000000D+01
-.265830649523D-04 0.000000000000D+00 -.682772225611D-05 0.804242092625D-06 0.000000000000D+00  7 21 -2 -24 -11 11 23 -1 2 0.40283584D+00 0.52951292D-01 0.19933766D+06 0.19933766D+06 0.19933766D+06 0.10979360D+01  1  2  5  3  7  1        1 -.455646082416D-05 0.100000000000D+01
  </mgrwgt>
  </event>
  <event>
  8     66 0.29493621E-05 0.16177191E+03 0.75467711E-02 0.97861837E-01
        1 -1    0    0  501    0 0.00000000E+00 0.00000000E+00 0.31509814E+03 0.31509830E+03 0.32000000E+00 0.0000E+00 0.9000E+01
       -2 -1    0    0    0  501 0.00000000E+00 0.00000000E+00 -.18426575E+03 0.18426603E+03 0.32000000E+00 0.0000E+00 0.9000E+01
       25  2    1    2    0    0 0.74277635E+02 -.48569680E+02 -.13527694E+02 0.31179240E+03 0.29858888E+03 0.0000E+00 0.0000E+00
       23  2    3    3    0    0 0.17394637E+02 -.18359802E+02 -.12332348E+03 0.15520799E+03 0.90780966E+02 0.0000E+00 0.0000E+00
      -24  1    1    2    0    0 -.74277635E+02 0.48569680E+02 0.14436008E+03 0.18757193E+03 0.80419002E+02 0.0000E+00 0.9000E+01
      -11  1    4    4    0    0 0.29401857E+02 0.30181410E+02 -.40398189E+02 0.58372943E+02 0.51099893E-03 0.0000E+00 0.9000E+01
       11  1    4    4    0    0 -.12007221E+02 -.48541213E+02 -.82925287E+02 0.96835045E+02 0.51099893E-03 0.0000E+00 0.9000E+01
       23  1    3    3    0    0 0.56882998E+02 -.30209877E+02 0.10979578E+03 0.15658441E+03 0.91188000E+02 0.0000E+00 0.9000E+01
#aMCatNLO 1  0  0  2  2 0.31462930D+03 0.00000000D+00  -5  7  0 0.00000000D+00 0.00000000D+00 0.00000000D+00 0.00000000D+00 0.00000000D+00
  <mgrwgt>
 0.7666243365D-03    5    2    0
 0.240960381870827D+03 0.000000000000000D+00 0.000000000000000D+00 0.240960381870827D+03
 0.240960381870827D+03 0.000000000000000D+00 0.000000000000000D+00 -.240960381870827D+03
 0.155170237061819D+03 -.742776349373761D+02 0.485696797301235D+02 0.986630917540776D+02
 0.714531514996863D+02 0.294018573435108D+02 0.301814103756535D+02 -.577075914566304D+02
 0.122852729633991D+03 -.120072205552942D+02 -.485412127015767D+02 -.112215731974261D+03
 0.132444645546158D+03 0.568829981491595D+02 -.302098774042003D+02 0.712602316768140D+02
 0.000000000000000D+00 -.000000000000000D+00 -.000000000000000D+00 -.000000000000000D+00
 0.393629807785282D+03 0.000000000000000D+00 0.000000000000000D+00 0.393629807785282D+03
 0.521540075061483D+03 0.000000000000000D+00 0.000000000000000D+00 -.521540075061483D+03
 0.142951224433132D+03 0.131189013577092D+02 0.637285286606734D+02 0.986630917540776D+02
 0.107613415823314D+03 0.818965609176981D+02 0.392865684845321D+02 -.577075914566304D+02
 0.133577205345336D+03 0.631671329018007D+02 -.355022901559478D+02 -.112215731974261D+03
 0.191392008967171D+03 0.151818135619403D+03 -.137434650254143D+02 0.712602316768140D+02
 0.339636028277812D+03 -.310000730796611D+03 -.537693419638434D+02 -.127910267276201D+03
0.668183715809D-05 0.000000000000D+00 0.000000000000D+00 0.204726773590D-06 0.000000000000D+00  7 1 -2 -24 -11 11 23 21 0 0.48476671D-01 0.28348611D-01 0.26170150D+05 0.26170150D+05 0.26170150D+05 0.11728796D+01  1  2  2  2  7  2       -2 0.662620485887D-03 0.100000000000D+01
-.299558919637D-06 0.000000000000D+00 -.256600140552D-07 0.204726773590D-06 0.000000000000D+00  7 1 -2 -24 -11 11 23 21 2 0.48476671D-01 0.28348611D-01 0.26170150D+05 0.26170150D+05 0.26170150D+05 0.11728796D+01  1  2  3  2  7  2       -2 -.408656190870D-04 0.100000000000D+01
0.431785405500D-06 0.000000000000D+00 0.000000000000D+00 0.204726773590D-06 0.000000000000D+00  7 1 -2 -24 -11 11 23 21 2 0.48476671D-01 0.28348611D-01 0.26170150D+05 0.26170150D+05 0.26170150D+05 0.11728796D+01  1  2 15  2  7  2       -2 0.589038641544D-04 0.100000000000D+01
0.238704975973D-05 0.000000000000D+00 -.220995368016D-05 0.204726773590D-06 0.000000000000D+00  7 1 -2 -24 -11 11 23 21 2 0.48476671D-01 0.93817033D-01 0.26170150D+05 0.26170150D+05 0.26170150D+05 0.11728796D+01  1  2  5  2  7  2       -2 0.310272690788D-04 0.100000000000D+01
0.417743388168D-06 0.000000000000D+00 -.306444442210D-06 0.204726773590D-06 0.000000000000D+00  7 1 21 -24 -11 11 23 2 2 0.48476671D-01 0.93817033D-01 0.26170150D+05 0.26170150D+05 0.26170150D+05 0.11728796D+01  1  2  5  4  7  2       -2 0.549383365160D-04 0.100000000000D+01
  </mgrwgt>
  </event>
  <event>
  7     66 0.29493621E-05 0.17759097E+03 0.75467711E-02 0.98911519E-01
        1 -1    0    0  501    0 0.00000000E+00 0.00000000E+00 0.51311973E+02 0.51312970E+02 0.32000000E+00 0.0000E+00 0.9000E+01
       -2 -1    0    0    0  501 0.00000000E+00 0.00000000E+00 -.96246140E+03 0.96246145E+03 0.32000000E+00 0.0000E+00 0.9000E+01
       25  2    1    2    0    0 0.14630886E+02 0.64399201E+02 -.47558877E+03 0.56595568E+03 0.29959947E+03 0.0000E+00 0.0000E+00
      -24  1    1    2    0    0 -.14630886E+02 -.64399201E+02 -.43556066E+03 0.44781874E+03 0.80419002E+02 0.0000E+00 0.9000E+01
      -11  1    3    3    0    0 0.54773517E+01 0.81953844E+02 -.32400732E+02 0.88296328E+02 0.51099893E-03 0.0000E+00 0.9000E+01
       11  1    3    3    0    0 0.83269227E+01 0.53022332E+02 -.77877361E+02 0.94581122E+02 0.51099893E-03 0.0000E+00 0.9000E+01
       23  1    3    3    0    0 0.82661181E+00 -.70576976E+02 -.36531067E+03 0.38307823E+03 0.91188000E+02 0.0000E+00 0.9000E+01
#aMCatNLO 1  0  0  1  1 0.25550491D+03 0.00000000D+00  -5  7  0 0.00000000D+00 0.00000000D+00 0.00000000D+00 0.00000000D+00 0.00000000D+00
  <mgrwgt>
 0.1930750679D-02    3    2    0
 0.222230344066683D+03 0.000000000000000D+00 0.000000000000000D+00 0.222230344066683D+03
 0.222230344066683D+03 0.000000000000000D+00 0.000000000000000D+00 -.222230344066683D+03
 0.128529567029669D+03 -.146308862058709D+02 -.643992006045500D+02 -.754407965015578D+02
 0.134974029309229D+03 0.547735171105985D+01 0.819538445236198D+02 0.107105343349435D+03
 0.560814727338261D+02 0.832692268609280D+01 0.530223322046215D+02 0.162611878458332D+02
 0.124875619060641D+03 0.826611808718253D+00 -.705769761236914D+02 -.479257346937103D+02
 0.000000000000000D+00 0.000000000000000D+00 -.000000000000000D+00 -.000000000000000D+00
 0.350246020207656D+03 0.000000000000000D+00 0.000000000000000D+00 0.350246020207656D+03
 0.430120431280024D+03 0.000000000000000D+00 0.000000000000000D+00 -.430120431280024D+03
 0.147150227556833D+03 -.858904862616670D+02 -.460161287876563D+02 -.754407965015578D+02
 0.164406665286328D+03 -.719086191879128D+02 0.101917356240525D+03 0.107105343349435D+03
 0.676665524070548D+02 -.236603137831610D+02 0.612741840923368D+02 0.162611878458332D+02
 0.133444147541562D+03 -.659456494017550D+02 -.533515177679414D+02 -.479257346937103D+02
 0.267698858695902D+03 0.247405068634496D+03 -.638238937772641D+02 -.798744110723679D+02
0.603576949165D-04 0.000000000000D+00 0.000000000000D+00 0.614577913350D-09 0.000000000000D+00  7 1 -2 -24 -11 11 23 21 0 0.78942305D-02 0.14807107D+00 0.31538553D+05 0.31538553D+05 0.31538553D+05 0.11653260D+01  1  2  2  1  7  1        1 0.189988876788D-02 0.100000000000D+01
-.314821434452D-05 0.000000000000D+00 -.231789441026D-06 0.614577913350D-09 0.000000000000D+00  7 1 -2 -24 -11 11 23 21 2 0.78942305D-02 0.14807107D+00 0.31538553D+05 0.31538553D+05 0.31538553D+05 0.11653260D+01  1  2  3  1  7  1        1 -.134571997375D-03 0.100000000000D+01
0.387020638927D-05 0.000000000000D+00 0.000000000000D+00 0.614577913350D-09 0.000000000000D+00  7 1 -2 -24 -11 11 23 21 2 0.78942305D-02 0.14807107D+00 0.31538553D+05 0.31538553D+05 0.31538553D+05 0.11653260D+01  1  2 15  1  7  1        1 0.165433908579D-03 0.100000000000D+01
  </mgrwgt>
  </event>
  <event>
  8     66 0.29493621E-05 0.26011249E+03 0.75467711E-02 0.91808160E-01
        1 -1    0    0  501    0 0.00000000E+00 0.00000000E+00 0.13608866E+04 0.13608867E+04 0.32000000E+00 0.0000E+00 0.9000E+01
       -2 -1    0    0    0  501 0.00000000E+00 0.00000000E+00 -.32653683E+03 0.32653698E+03 0.32000000E+00 0.0000E+00 0.9000E+01
       25  2    1    2    0    0 -.31652970E+03 -.41999479E+03 0.10199795E+03 0.61395550E+03 0.29991850E+03 0.0000E+00 0.0000E+00
       23  2    3    3    0    0 -.19180063E+02 -.19027533E+03 0.77501103E+02 0.22652398E+03 0.93456506E+02 0.0000E+00 0.0000E+00
      -24  1    1    2    0    0 0.31652970E+03 0.41999479E+03 0.93235184E+03 0.10734681E+04 0.80419002E+02 0.0000E+00 0.9000E+01
      -13  1    4    4    0    0 0.26242038E+02 -.79074032E+02 -.47055039E+00 0.83316143E+02 0.10565837E+00 0.0000E+00 0.9000E+01
       13  1    4    4    0    0 -.45422101E+02 -.11120129E+03 0.77971654E+02 0.14320784E+03 0.10565837E+00 0.0000E+00 0.9000E+01
       23  1    3    3    0    0 -.29734964E+03 -.22971946E+03 0.24496848E+02 0.38743152E+03 0.91188000E+02 0.0000E+00 0.9000E+01
#aMCatNLO 1  0  0  2  1 0.15899690D+03 0.00000000D+00  -5  7  0 0.00000000D+00 0.00000000D+00 0.00000000D+00 0.00000000D+00 0.00000000D+00
  <mgrwgt>
 0.1283520555D-02    9    2    0
 0.666618151854723D+03 0.000000000000000D+00 0.000000000000000D+00 0.666618151854723D+03
 0.666618151854723D+03 0.000000000000000D+00 0.000000000000000D+00 -.666618151854723D+03
 0.635309414933511D+03 0.316529698008883D+03 0.419994785607258D+03 0.347223511718185D+03
 0.105814937974929D+03 0.262421292935915D+02 -.790739907961046D+02 -.652338541583596D+02
 0.120760552127796D+03 -.454221918889312D+02 -.111201334386118D+03 -.124176755055808D+02
 0.471351398673209D+03 -.297349635413543D+03 -.229719460425035D+03 -.269571982054245D+03
 0.000000000000000D+00 0.000000000000000D+00 -.000000000000000D+00 -.000000000000000D+00
 0.742641728124662D+03 0.000000000000000D+00 0.000000000000000D+00 0.742641728124662D+03
 0.759981403397372D+03 0.000000000000000D+00 0.000000000000000D+00 -.759981403397372D+03
 0.627769171223405D+03 0.249038109111435D+03 0.452816485460107D+03 0.347223511718185D+03
 0.996262345332742D+02 0.152645453890768D+02 -.737355038837440D+02 -.652338541583596D+02
 0.120687933079253D+03 -.583237976022287D+02 -.104927180269150D+03 -.124176755055808D+02
 0.494600188366302D+03 -.348964481965307D+03 -.204618747445126D+03 -.269571982054245D+03
 0.159939604319799D+03 0.142985625067024D+03 -.695350538620866D+02 -.173396752727101D+02
0.242052712932D-03 0.000000000000D+00 0.000000000000D+00 0.530283889282D-05 0.000000000000D+00  7 1 -2 -24 -13 13 23 21 0 0.20936719D+00 0.50236450D-01 0.31478806D+06 0.31478806D+06 0.31478806D+06 0.10830092D+01  1  2  2  2  7  2       -2 0.830672011267D-03 0.100000000000D+01
-.129614773738D-04 0.000000000000D+00 -.929546151601D-06 0.530283889282D-05 0.000000000000D+00  7 1 -2 -24 -13 13 23 21 2 0.20936719D+00 0.50236450D-01 0.31478806D+06 0.31478806D+06 0.31478806D+06 0.10830092D+01  1  2  3  2  7  2       -2 -.521721116932D-04 0.100000000000D+01
0.153352316933D-04 0.000000000000D+00 0.000000000000D+00 0.530283889282D-05 0.000000000000D+00  7 1 -2 -24 -13 13 23 21 2 0.20936719D+00 0.50236450D-01 0.31478806D+06 0.31478806D+06 0.31478806D+06 0.10830092D+01  1  2 15  2  7  2       -2 0.617268693740D-04 0.100000000000D+01
0.183845778226D-03 0.000000000000D+00 0.000000000000D+00 0.530283889282D-05 0.000000000000D+00  7 1 -2 -24 -13 13 23 21 2 0.20936719D+00 0.59782934D-01 0.41733222D+06 0.41733222D+06 0.41733222D+06 0.10741021D+01  1  2 12  2  7  2       -2 0.504470263848D-03 0.100000000000D+01
-.166730840075D-03 0.000000000000D+00 0.000000000000D+00 0.530283889282D-05 0.000000000000D+00  7 1 -2 -24 -13 13 23 21 2 0.20936719D+00 0.50236450D-01 0.31478806D+06 0.31478806D+06 0.31478806D+06 0.10830092D+01  1  2  4  2  7  2       -2 -.671119484318D-03 0.100000000000D+01
-.434718790768D-03 0.000000000000D+00 -.148266261024D-03 0.530283889282D-05 0.000000000000D+00  7 1 -2 -24 -13 13 23 21 2 0.20936719D+00 0.63560624D-01 0.31478806D+06 0.31478806D+06 0.31478806D+06 0.10830092D+01  1  2  5  2  7  2       -2 -.108138092650D-02 0.100000000000D+01
0.460799046843D-03 0.000000000000D+00 0.144255957134D-03 0.530283889282D-05 0.000000000000D+00  7 1 -2 -24 -13 13 23 21 2 0.20936719D+00 0.50236450D-01 0.31478806D+06 0.31478806D+06 0.31478806D+06 0.10830092D+01  1  2  6  2  7  2       -2 0.185479314177D-02 0.100000000000D+01
0.472095205648D-05 0.000000000000D+00 0.000000000000D+00 0.530283889282D-05 0.000000000000D+00  7 1 21 -24 -13 13 23 2 2 0.20936719D+00 0.59782934D-01 0.41733222D+06 0.41733222D+06 0.41733222D+06 0.10741021D+01  1  2 12  4  7  2       -2 0.129557769424D-03 0.100000000000D+01
-.118165082661D-04 0.000000000000D+00 -.479669803473D-05 0.530283889282D-05 0.000000000000D+00  7 1 21 -24 -13 13 23 2 2 0.20936719D+00 0.63560624D-01 0.31478806D+06 0.31478806D+06 0.31478806D+06 0.10830092D+01  1  2  5  4  7  2       -2 -.293026978161D-03 0.100000000000D+01
  </mgrwgt>
  </event>
  <event>
  8     66 0.29493621E-05 0.20731020E+03 0.75467711E-02 0.10322886E+00
        1 -1    0    0  501    0 0.00000000E+00 0.00000000E+00 0.27726021E+04 0.27726021E+04 0.32000000E+00 0.0000E+00 0.9000E+01
       -2 -1    0    0    0  501 0.00000000E+00 0.00000000E+00 -.41207654E+02 0.41208896E+02 0.32000000E+00 0.0000E+00 0.9000E+01
       25  2    1    2    0    0 -.35724561E+02 0.86138337E+02 0.58784050E+03 0.66672303E+03 0.30044483E+03 0.0000E+00 0.0000E+00
       23  2    3    3    0    0 -.13484856E+03 0.61765960E+02 0.26257492E+03 0.31383137E+03 0.86864090E+02 0.0000E+00 0.0000E+00
      -24  1    1    2    0    0 0.35724561E+02 -.86138337E+02 0.21435540E+04 0.21470880E+04 0.80419002E+02 0.0000E+00 0.9000E+01
      -13  1    4    4    0    0 -.19334304E+01 0.12819925E+02 -.25771934E+01 0.13218991E+02 0.10565837E+00 0.0000E+00 0.9000E+01
       13  1    4    4    0    0 -.13291513E+03 0.48946035E+02 0.26515212E+03 0.30061238E+03 0.10565837E+00 0.0000E+00 0.9000E+01
       23  1    3    3    0    0 0.99124001E+02 0.24372377E+02 0.32526557E+03 0.35289166E+03 0.91188000E+02 0.0000E+00 0.9000E+01
#aMCatNLO 1  0  0  1  1 0.75478588D+02 0.00000000D+00  -5  7  0 0.00000000D+00 0.00000000D+00 0.00000000D+00 0.00000000D+00 0.00000000D+00
  <mgrwgt>
 0.8588563850D-03    4    2    0
 0.338015093284434D+03 0.000000000000000D+00 0.000000000000000D+00 0.338015093284434D+03
 0.338015093284434D+03 0.000000000000000D+00 0.000000000000000D+00 -.338015093284434D+03
 0.276035702733437D+03 0.357245612105407D+02 -.861383369105553D+02 0.247047436476823D+03
 0.654334085085957D+02 -.193323698467407D+01 0.128198714668169D+02 -.641361398853108D+02
 0.179920251582848D+03 -.132915324867808D+03 0.489460881737721D+02 -.110946355494021D+03
 0.154640823743986D+03 0.991240006419415D+02 0.243723772699663D+02 -.719649410974913D+02
 0.000000000000000D+00 -.000000000000000D+00 0.000000000000000D+00 -.000000000000000D+00
 0.370174070670708D+03 0.000000000000000D+00 0.000000000000000D+00 0.370174070670708D+03
 0.387497773509936D+03 0.000000000000000D+00 0.000000000000000D+00 -.387497773509936D+03
 0.283908047317329D+03 0.659961789273789D+02 -.935341214444410D+02 0.247047436476823D+03
 0.652905984657698D+02 0.513394996969859D+01 0.110932576973071D+02 -.641361398853108D+02
 0.165325250106458D+03 -.114250700350347D+03 0.443860563106503D+02 -.110946355494021D+03
 0.165706822628878D+03 0.116442600030914D+03 0.201411983912016D+02 -.719649410974913D+02
 0.774411256622088D+02 -.733220285776446D+02 0.179136090452821D+02 -.173237028392278D+02
0.142840896832D-03 0.000000000000D+00 0.000000000000D+00 0.359814723962D-06 0.000000000000D+00  7 1 -2 -24 -13 13 23 21 0 0.42655427D+00 0.63397361D-02 0.42977521D+05 0.42977521D+05 0.42977521D+05 0.11531221D+01  1  2  2  1  7  1        1 0.188977796264D-02 0.100000000000D+01
-.562962299915D-05 0.000000000000D+00 -.548546654708D-06 0.359814723962D-06 0.000000000000D+00  7 1 -2 -24 -13 13 23 21 2 0.42655427D+00 0.63397361D-02 0.42977521D+05 0.42977521D+05 0.42977521D+05 0.11531221D+01  1  2  3  1  7  1        1 -.990348683870D-04 0.100000000000D+01
0.887437264697D-05 0.000000000000D+00 0.000000000000D+00 0.359814723962D-06 0.000000000000D+00  7 1 -2 -24 -13 13 23 21 2 0.42655427D+00 0.63397361D-02 0.42977521D+05 0.42977521D+05 0.42977521D+05 0.11531221D+01  1  2 15  1  7  1        1 0.156115663028D-03 0.100000000000D+01
-.618473400134D-04 0.000000000000D+00 0.000000000000D+00 0.359814723962D-06 0.000000000000D+00  7 1 -2 -24 -13 13 23 21 2 0.42655427D+00 0.63397361D-02 0.42977521D+05 0.42977521D+05 0.42977521D+05 0.11531221D+01  1  2  4  1  7  1        1 -.108800237231D-02 0.100000000000D+01
  </mgrwgt>
  </event>
  <event>
  8     66 0.29493621E-05 0.45532404E+03 0.75467711E-02 0.91703963E-01
        1 -1    0    0  501    0 0.00000000E+00 0.00000000E+00 0.46551091E+03 0.46551102E+03 0.32000000E+00 0.0000E+00 0.9000E+01
       -2 -1    0    0    0  501 0.00000000E+00 0.00000000E+00 -.49227664E+03 0.49227674E+03 0.32000000E+00 0.0000E+00 0.9000E+01
       25  2    1    2    0    0 0.41779392E+03 0.58048296E+02 0.44675615E+02 0.52248046E+03 0.30507139E+03 0.0000E+00 0.0000E+00
       23  2    3    3    0    0 0.35193536E+03 0.12219181E+02 -.51595957E+02 0.36749296E+03 0.91548492E+02 0.0000E+00 0.0000E+00
      -24  1    1    2    0    0 -.41779392E+03 -.58048296E+02 -.71441347E+02 0.43530730E+03 0.80419002E+02 0.0000E+00 0.9000E+01
      -13  1    4    4    0    0 0.18678517E+03 0.43284969E+02 -.10634376E+00 0.19173501E+03 0.10565837E+00 0.0000E+00 0.9000E+01
       13  1    4    4    0    0 0.16515019E+03 -.31065787E+02 -.51489613E+02 0.17575795E+03 0.10565837E+00 0.0000E+00 0.9000E+01
       23  1    3    3    0    0 0.65858563E+02 0.45829114E+02 0.96271571E+02 0.15498750E+03 0.91188000E+02 0.0000E+00 0.9000E+01
#aMCatNLO 1  0  0  2  1 0.33605425D+03 0.00000000D+00  -5  7  0 0.00000000D+00 0.00000000D+00 0.00000000D+00 0.00000000D+00 0.00000000D+00
  <mgrwgt>
 0.7085990948D-03    4    2    0
 0.478706850146260D+03 0.000000000000000D+00 0.000000000000000D+00 0.478706850146260D+03
 0.478706850146260D+03 0.000000000000000D+00 0.000000000000000D+00 -.478706850146260D+03
 0.433480147888026D+03 -.417793926989459D+03 -.580482962593045D+02 -.592996840697584D+02
 0.191806967095808D+03 0.186785203273904D+03 0.432850685021212D+02 0.525388515150977D+01
 0.174387137518794D+03 0.165150154144626D+03 -.310658851994543D+02 -.465962562313714D+02
 0.157739447789893D+03 0.658585695709288D+02 0.458291129566376D+02 0.100642055149620D+03
 0.000000000000000D+00 -.000000000000000D+00 0.000000000000000D+00 0.000000000000000D+00
 0.689330740655768D+03 0.000000000000000D+00 0.000000000000000D+00 0.689330740655768D+03
 0.662473964462533D+03 0.000000000000000D+00 0.000000000000000D+00 -.662473964462533D+03
 0.448395168426457D+03 -.386099217007982D+03 -.204943780605487D+03 -.592996840697584D+02
 0.202255723392175D+03 0.200947866020531D+03 -.223546298896063D+02 0.525388515150977D+01
 0.207702625019262D+03 0.178882508352186D+03 -.947112324423181D+02 -.465962562313714D+02
 0.156325473948806D+03 0.771461024292737D+02 -.648521985376164D+01 0.100642055149620D+03
 0.337125714331601D+03 -.708772597940084D+02 0.328494862791173D+03 0.268567761932352D+02
0.113859482138D-03 0.000000000000D+00 0.000000000000D+00 0.933064559634D-07 0.000000000000D+00  7 1 -2 -24 -13 13 23 21 0 0.71617079D-01 0.75734884D-01 0.20731998D+06 0.20731998D+06 0.20731998D+06 0.10966284D+01  1  2  2  2  7  2       -2 0.982633366406D-03 0.100000000000D+01
-.630623863784D-05 0.000000000000D+00 -.437250391301D-06 0.933064559634D-07 0.000000000000D+00  7 1 -2 -24 -13 13 23 21 2 0.71617079D-01 0.75734884D-01 0.20731998D+06 0.20731998D+06 0.20731998D+06 0.10966284D+01  1  2  3  2  7  2       -2 -.654503077124D-04 0.100000000000D+01
0.720915894032D-05 0.000000000000D+00 0.000000000000D+00 0.933064559634D-07 0.000000000000D+00  7 1 -2 -24 -13 13 23 21 2 0.71617079D-01 0.75734884D-01 0.20731998D+06 0.20731998D+06 0.20731998D+06 0.10966284D+01  1  2 15  2  7  2       -2 0.748214106838D-04 0.100000000000D+01
-.273065472952D-04 0.000000000000D+00 0.000000000000D+00 0.933064559634D-07 0.000000000000D+00  7 1 -2 -24 -13 13 23 21 2 0.71617079D-01 0.75734884D-01 0.20731998D+06 0.20731998D+06 0.20731998D+06 0.10966284D+01  1  2  4  2  7  2       -2 -.283405374531D-03 0.100000000000D+01
  </mgrwgt>
  </event>
  <event>
  9     66 -.29493621E-05 0.39755682E+03 0.75467711E-02 0.96845278E-01
        1 -1    0    0  502    0 0.00000000E+00 0.00000000E+00 0.90235619E+03 0.90235625E+03 0.32000000E+00 0.0000E+00 0.9000E+01
       -2 -1    0    0    0  501 0.00000000E+00 0.00000000E+00 -.26977172E+03 0.26977191E+03 0.32000000E+00 0.0000E+00 0.9000E+01
       25  2    1    2    0    0 -.32010583E+03 0.44351226E+02 0.15061147E+02 0.44106454E+03 0.29979379E+03 0.0000E+00 0.0000E+00
       23  2    3    3    0    0 -.60980403E+02 -.80376196E+02 -.24070244E+02 0.13684515E+03 0.89265206E+02 0.0000E+00 0.0000E+00
      -24  1    1    2    0    0 0.34893869E+03 -.37874192E+02 0.58646080E+03 0.68818323E+03 0.80419002E+02 0.0000E+00 0.9000E+01
      -13  1    4    4    0    0 -.49654351E+02 0.37447300E+01 -.10430965E+02 0.50876260E+02 0.10565837E+00 0.0000E+00 0.9000E+01
       13  1    4    4    0    0 -.11326052E+02 -.84120926E+02 -.13639279E+02 0.85968894E+02 0.10565837E+00 0.0000E+00 0.9000E+01
       23  1    3    3    0    0 -.25912543E+03 0.12472742E+03 0.39131391E+02 0.30421939E+03 0.91188000E+02 0.0000E+00 0.9000E+01
       21  1    1    2  502  501 -.28832859E+02 -.64770338E+01 0.31062521E+02 0.42880397E+02 0.75000000E+00 0.0000E+00 0.9000E+01
#aMCatNLO 2  0  0  1  2 0.29551409D+02 0.00000000D+00  -5  7  0 0.00000000D+00 0.00000000D+00 0.00000000D+00 0.00000000D+00 0.00000000D+00
  <mgrwgt>
 -.3059700384D-03    3    2    0
 0.477623957524206D+03 0.000000000000000D+00 0.000000000000000D+00 0.477623957524206D+03
 0.477623957524206D+03 0.000000000000000D+00 0.000000000000000D+00 -.477623957524206D+03
 0.433965605638308D+03 0.335691330191345D+03 -.408500891370636D+02 0.259810569404925D+03
 0.681851490944614D+02 -.516892771115656D+02 0.328773791254996D+01 -.443466342368402D+02
 0.111129247077232D+03 -.146649222980993D+02 -.848711075162335D+02 -.702249579488024D+02
 0.341967913238411D+03 -.269337130781681D+03 0.122433458740747D+03 -.145238977219283D+03
 0.000000000000000D+00 -.000000000000000D+00 -.000000000000000D+00 0.000000000000000D+00
 0.498262955438574D+03 0.000000000000000D+00 0.000000000000000D+00 0.498262955438574D+03
 0.488548976417240D+03 0.000000000000000D+00 0.000000000000000D+00 -.488548976417240D+03
 0.444028617735027D+03 0.348938692306228D+03 -.378741924061212D+02 0.259810569404925D+03
 0.666798906832796D+02 -.496544049324418D+02 0.374485302824057D+01 -.443466342368402D+02
 0.110164304115104D+03 -.113259985007765D+02 -.841210493290148D+02 -.702249579488024D+02
 0.334832092210543D+03 -.259125429482452D+03 0.124727422493696D+03 -.145238977219283D+03
 0.311070271118596D+02 -.288328593905580D+02 -.647703378680093D+01 0.971397902133411D+01
-.160364955831D-03 0.000000000000D+00 0.000000000000D+00 0.423477015722D-05 0.000000000000D+00  7 1 -2 -24 -13 13 23 21 2 0.14029384D+00 0.40574883D-01 0.17056993D+06 0.17056993D+06 0.17056993D+06 0.11031744D+01  1  2 13  1  7  1        1 -.219845064474D-02 0.100000000000D+01
-.516385193210D-04 0.000000000000D+00 0.000000000000D+00 0.423477015722D-05 0.000000000000D+00  7 1 -2 -24 -13 13 23 21 2 0.13307247D+00 0.40574883D-01 0.15805142D+06 0.15805142D+06 0.15805142D+06 0.11057644D+01  1  2  8  1  7  1        1 -.777836874837D-03 0.100000000000D+01
0.199711865385D-03 0.000000000000D+00 0.000000000000D+00 0.423477015722D-05 0.315025857405D-07  7 1 -2 -24 -13 13 23 21 2 0.13882277D+00 0.41502980D-01 0.17056993D+06 0.17056993D+06 0.17056993D+06 0.11031744D+01  1  2  1  1  7  1        1 0.267031748121D-02 0.100000000000D+01
  </mgrwgt>
  </event>
  <event>
  9     66 0.29493621E-05 0.32888860E+03 0.75467711E-02 0.96636212E-01
        1 -1    0    0  501    0 0.00000000E+00 0.00000000E+00 0.49246386E+03 0.49246397E+03 0.32000000E+00 0.0000E+00 0.9000E+01
       21 -1    0    0  502  501 0.00000000E+00 0.00000000E+00 -.47412671E+03 0.47412730E+03 0.75000000E+00 0.0000E+00 0.9000E+01
       25  2    1    2    0    0 0.28807827E+03 -.21776352E+03 -.16181050E+03 0.49616532E+03 0.29931146E+03 0.0000E+00 0.0000E+00
       23  2    3    3    0    0 0.25458175E+03 -.50138301E+02 -.98482784E+02 0.29233725E+03 0.91850380E+02 0.0000E+00 0.0000E+00
      -24  1    1    2    0    0 -.14768130E+03 0.13551758E+03 -.14826244E+02 0.21647589E+03 0.80419002E+02 0.0000E+00 0.9000E+01
      -11  1    4    4    0    0 0.24925648E+03 -.34359753E+02 -.73168068E+02 0.26203616E+03 0.51099893E-03 0.0000E+00 0.9000E+01
       11  1    4    4    0    0 0.53252734E+01 -.15778548E+02 -.25314716E+02 0.30301088E+02 0.51099893E-03 0.0000E+00 0.9000E+01
       23  1    3    3    0    0 0.33496517E+02 -.16762522E+03 -.63327716E+02 0.20382807E+03 0.91188000E+02 0.0000E+00 0.9000E+01
        2  1    1    2  502    0 -.14039697E+03 0.82245949E+02 0.19497390E+03 0.25395005E+03 0.32000000E+00 0.0000E+00 0.9000E+01
#aMCatNLO 2  0  0  2  1 0.16271357D+03 0.00000000D+00  -5  7  0 0.00000000D+00 0.00000000D+00 0.00000000D+00 0.00000000D+00 0.00000000D+00
  <mgrwgt>
 0.2160739587D-03    1    2    0
 0.335477740588020D+03 0.000000000000000D+00 0.000000000000000D+00 0.335477740588020D+03
 0.335477740588020D+03 0.000000000000000D+00 0.000000000000000D+00 -.335477740588020D+03
 0.273536125320275D+03 -.198544136769151D+03 0.165313535326428D+03 0.400806274068794D+02
 0.202685272944667D+03 0.202389884306742D+03 -.690483469735485D+01 -.848397647097371D+01
 0.224708226251339D+02 0.450189589516491D+00 -.129226751014148D+02 -.183776948229911D+02
 0.172263260285963D+03 -.429593712710690D+01 -.145486025527658D+03 -.132189561129145D+02
 0.000000000000000D+00 -.000000000000000D+00 0.000000000000000D+00 0.000000000000000D+00
 0.634321076014653D+03 0.000000000000000D+00 0.000000000000000D+00 0.634321076014653D+03
 0.368095144516697D+03 0.000000000000000D+00 0.000000000000000D+00 -.368095144516697D+03
 0.219655302002825D+03 -.147681297951384D+03 0.135517575559952D+03 0.400806274068794D+02
 0.251756551727572D+03 0.249256476059589D+03 -.343597529582660D+02 -.848397647097371D+01
 0.248004189377068D+02 0.532527339496017D+01 -.157785479606870D+02 -.183776948229911D+02
 0.194191205424498D+03 0.334965170618249D+02 -.167625223233950D+03 -.132189561129145D+02
 0.312012742438746D+03 -.140396968564990D+03 0.822459485929507D+02 0.266225931497956D+03
0.206429965722D-05 0.000000000000D+00 0.000000000000D+00 0.163238016757D-05 0.131975377458D-10  7 1 21 -24 -11 11 23 2 2 0.75763709D-01 0.72942609D-01 0.17668926D+06 0.17668926D+06 0.17668926D+06 0.11019830D+01  1  2  1  4  7  2       -2 0.216073958683D-03 0.100000000000D+01
  </mgrwgt>
  </event>
  <event>
  8     66 0.29493621E-05 0.29599755E+03 0.75467711E-02 0.92927900E-01
        1 -1    0    0  501    0 0.00000000E+00 0.00000000E+00 0.32420081E+03 0.32420097E+03 0.32000000E+00 0.0000E+00 0.9000E+01
       -2 -1    0    0    0  501 0.00000000E+00 0.00000000E+00 -.29680710E+03 0.29680727E+03 0.32000000E+00 0.0000E+00 0.9000E+01
       25  2    1    2    0    0 -.22289778E+03 -.22988952E+02 0.72721646E+02 0.37865777E+03 0.29644790E+03 0.0000E+00 0.0000E+00
       23  2    3    3    0    0 -.68185495E+02 -.11705291E+03 -.16324918E+01 0.16272327E+03 0.90141853E+02 0.0000E+00 0.0000E+00
      -24  1    1    2    0    0 0.22289778E+03 0.22988952E+02 -.45327933E+02 0.24235047E+03 0.80419002E+02 0.0000E+00 0.9000E+01
      -13  1    4    4    0    0 -.27534274E+01 -.71293372E+02 0.29255212E+02 0.77111639E+02 0.10565837E+00 0.0000E+00 0.9000E+01
       13  1    4    4    0    0 -.65432067E+02 -.45759537E+02 -.30887704E+02 0.85611635E+02 0.10565837E+00 0.0000E+00 0.9000E+01
       23  1    3    3    0    0 -.15471228E+03 0.94063958E+02 0.74354138E+02 0.21593450E+03 0.91188000E+02 0.0000E+00 0.9000E+01
#aMCatNLO 1  0  0  2  1 0.43644274D+03 0.00000000D+00  -5  7  0 0.00000000D+00 0.00000000D+00 0.00000000D+00 0.00000000D+00 0.00000000D+00
  <mgrwgt>
 0.2591831575D-02    3    2    0
 0.310201876492727D+03 0.000000000000000D+00 0.000000000000000D+00 0.310201876492727D+03
 0.310201876492727D+03 0.000000000000000D+00 0.000000000000000D+00 -.310201876492727D+03
 0.244588038067358D+03 0.222897777631296D+03 0.229889516368348D+02 -.560729992147505D+02
 0.758950025039985D+02 -.275334164247079D+01 -.712934066822126D+02 0.258789620836387D+02
 0.870589014130750D+02 -.654321536054023D+02 -.457595021125049D+02 -.346980338956864D+02
 0.212861811001023D+03 -.154712282383423D+03 0.940639571578826D+02 0.648920710267981D+02
 0.000000000000000D+00 -.000000000000000D+00 -.000000000000000D+00 0.000000000000000D+00
 0.113728921556325D+04 0.000000000000000D+00 0.000000000000000D+00 0.113728921556325D+04
 0.442092429620857D+03 0.000000000000000D+00 0.000000000000000D+00 -.442092429620857D+03
 0.350290481733065D+03 0.265513306735000D+03 0.206384854929137D+03 -.560729992147505D+02
 0.435029863508662D+02 0.580001555502091D+01 -.344840392425068D+02 0.258789620836387D+02
 0.646690262609089D+02 -.545627648101831D+02 0.101690588382815D+01 -.346980338956864D+02
 0.300077607088008D+03 -.117966654541047D+03 0.252198743981628D+03 0.648920710267981D+02
 0.820841543751264D+03 -.987839029387905D+02 -.425116465552086D+03 0.695196785942397D+03
0.636017301291D-04 0.000000000000D+00 0.000000000000D+00 0.367273996355D-07 0.000000000000D+00  7 1 -2 -24 -13 13 23 21 0 0.49877073D-01 0.45662656D-01 0.87614552D+05 0.87614552D+05 0.87614552D+05 0.11264650D+01  1  2  2  2  7  2       -2 0.256206601378D-02 0.100000000000D+01
-.352399086619D-05 0.000000000000D+00 -.244247390416D-06 0.367273996355D-07 0.000000000000D+00  7 1 -2 -24 -13 13 23 21 2 0.49877073D-01 0.45662656D-01 0.87614552D+05 0.87614552D+05 0.87614552D+05 0.11264650D+01  1  2  3  2  7  2       -2 -.180132290068D-03 0.100000000000D+01
0.410630493463D-05 0.000000000000D+00 0.000000000000D+00 0.367273996355D-07 0.000000000000D+00  7 1 -2 -24 -13 13 23 21 2 0.49877073D-01 0.45662656D-01 0.87614552D+05 0.87614552D+05 0.87614552D+05 0.11264650D+01  1  2 15  2  7  2       -2 0.209897851520D-03 0.100000000000D+01
  </mgrwgt>
  </event>
  <event>
  9     66 0.29493621E-05 0.24215123E+03 0.75467711E-02 0.95127623E-01
        1 -1    0    0  502    0 0.00000000E+00 0.00000000E+00 0.97414381E+03 0.97414386E+03 0.32000000E+00 0.0000E+00 0.9000E+01
       -2 -1    0    0    0  501 0.00000000E+00 0.00000000E+00 -.32390151E+03 0.32390167E+03 0.32000000E+00 0.0000E+00 0.9000E+01
       25  2    1    2    0    0 0.28480212E+03 -.50640896E+02 0.24788468E+03 0.48466680E+03 0.29963035E+03 0.0000E+00 0.0000E+00
       23  2    3    3    0    0 0.29878135E+03 -.17870662E+02 0.15013265E+03 0.34631935E+03 0.88360758E+02 0.0000E+00 0.0000E+00
      -24  1    1    2    0    0 -.24812716E+01 -.17835518E+03 -.78290702E+02 0.21074481E+03 0.80419002E+02 0.0000E+00 0.9000E+01
      -11  1    4    4    0    0 0.69091987E+01 0.22984043E+01 0.28600907E+02 0.29513244E+02 0.51099893E-03 0.0000E+00 0.9000E+01
       11  1    4    4    0    0 0.29187215E+03 -.20169067E+02 0.12153175E+03 0.31680611E+03 0.51099893E-03 0.0000E+00 0.9000E+01
       23  1    3    3    0    0 -.13979236E+02 -.32770233E+02 0.97752022E+02 0.13834745E+03 0.91188000E+02 0.0000E+00 0.9000E+01
       21  1    1    2  502  501 -.28232085E+03 0.22899607E+03 0.48064833E+03 0.60263392E+03 0.75000000E+00 0.0000E+00 0.9000E+01
#aMCatNLO 2  0  0  1  1 0.36351652D+03 0.00000000D+00  -5  7  0 0.00000000D+00 0.00000000D+00 0.00000000D+00 0.00000000D+00 0.00000000D+00
  <mgrwgt>
 0.9697393068D-04    1    2    0
 0.284029458890377D+03 0.000000000000000D+00 0.000000000000000D+00 0.284029458890377D+03
 0.284029458890377D+03 0.000000000000000D+00 0.000000000000000D+00 -.284029458890377D+03
 0.210699799722127D+03 -.104208341126767D+03 -.958423198837064D+02 -.133723823634724D+03
 0.250837110702219D+02 -.407111861092664D+01 0.112047588585757D+02 0.220697062334620D+02
 0.198358588620634D+03 0.179517070307409D+03 0.709643837744567D+02 0.456487391208849D+02
 0.133916818367771D+03 -.712376105697153D+02 0.136731772506740D+02 0.660053782803769D+02
 0.000000000000000D+00 -.000000000000000D+00 0.000000000000000D+00 0.000000000000000D+00
 0.759505602659466D+03 0.000000000000000D+00 0.000000000000000D+00 0.759505602659466D+03
 0.415436578609813D+03 0.000000000000000D+00 0.000000000000000D+00 -.415436578609813D+03
 0.236993675994603D+03 -.248127155284807D+01 -.178355175958127D+03 -.133723823634724D+03
 0.232398714052373D+02 0.690919873381938D+01 0.229840435024936D+01 0.220697062334620D+02
 0.296108008958458D+03 0.291872154091864D+03 -.201690667059955D+02 0.456487391208849D+02
 0.118073149041729D+03 -.139792355050421D+02 -.327702333435292D+02 0.660053782803769D+02
 0.500527475869252D+03 -.282320845767793D+03 0.228996071657402D+03 0.344069024049653D+03
0.120838707998D-04 0.000000000000D+00 0.000000000000D+00 0.493317382713D-06 0.360218184050D-10  7 1 -2 -24 -11 11 23 21 2 0.14986821D+00 0.49830988D-01 0.22892864D+06 0.22892864D+06 0.22892864D+06 0.10933476D+01  1  2  1  1  7  1        1 0.969739306787D-04 0.100000000000D+01
  </mgrwgt>
  </event>
  <event>
  8     66 0.29493621E-05 0.24003686E+03 0.75467711E-02 0.89155474E-01
        1 -1    0    0  501    0 0.00000000E+00 0.00000000E+00 0.25247410E+03 0.25247430E+03 0.32000000E+00 0.0000E+00 0.9000E+01
       -2 -1    0    0    0  501 0.00000000E+00 0.00000000E+00 -.29825745E+03 0.29825762E+03 0.32000000E+00 0.0000E+00 0.9000E+01
       25  2    1    2    0    0 0.15131070E+03 0.94114613E+02 0.69131393E+01 0.34825569E+03 0.29913499E+03 0.0000E+00 0.0000E+00
       23  2    3    3    0    0 0.12189926E+03 0.12595274E+03 0.90558511E+02 0.21714314E+03 0.90701588E+02 0.0000E+00 0.0000E+00
      -24  1    1    2    0    0 -.15131070E+03 -.94114613E+02 -.52696490E+02 0.20247623E+03 0.80419002E+02 0.0000E+00 0.9000E+01
      -11  1    4    4    0    0 0.30899366E+02 0.35733700E+01 0.50757384E+02 0.59530260E+02 0.51099893E-03 0.0000E+00 0.9000E+01
       11  1    4    4    0    0 0.90999898E+02 0.12237937E+03 0.39801126E+02 0.15761288E+03 0.51099893E-03 0.0000E+00 0.9000E+01
       23  1    3    3    0    0 0.29411437E+02 -.31838127E+02 -.83645371E+02 0.13111254E+03 0.91188000E+02 0.0000E+00 0.9000E+01
#aMCatNLO 1  0  0  2  1 0.76412113D+03 0.00000000D+00  -5  7  0 0.00000000D+00 0.00000000D+00 0.00000000D+00 0.00000000D+00 0.00000000D+00
  <mgrwgt>
 0.8844114700D-03    5    2    0
 0.274412796000836D+03 0.000000000000000D+00 0.000000000000000D+00 0.274412796000836D+03
 0.274412796000836D+03 0.000000000000000D+00 0.000000000000000D+00 -.274412796000836D+03
 0.198783554569106D+03 -.151310701525484D+03 -.941146127053307D+02 -.359888439929619D+02
 0.639712470512035D+02 0.308993663028628D+02 0.357336996021694D+01 0.558997373741151D+02
 0.161480579953706D+03 0.909998979252323D+02 0.122379369788105D+03 0.530875327176609D+02
 0.124590210427657D+03 0.294114372973889D+02 -.318381270429913D+02 -.729984260988140D+02
 0.000000000000000D+00 -.000000000000000D+00 -.000000000000000D+00 -.000000000000000D+00
 0.793461177424102D+03 0.000000000000000D+00 0.000000000000000D+00 0.793461177424102D+03
 0.922225841621545D+03 0.000000000000000D+00 0.000000000000000D+00 -.922225841621545D+03
 0.156120807414440D+03 -.100491310784719D+03 0.807018594468879D+02 -.359888439929619D+02
 0.126445430928624D+03 0.581654711986486D+02 0.973675732699014D+02 0.558997373741151D+02
 0.475789625813664D+03 0.182251759168463D+03 0.436281764668039D+03 0.530875327176609D+02
 0.182436688090810D+03 0.733751683615301D+02 0.119395176923343D+03 -.729984260988140D+02
 0.774894466798111D+03 -.213301087943922D+03 -.733746374308172D+03 -.128764664197443D+03
0.154479011191D-04 0.000000000000D+00 0.000000000000D+00 0.525430025117D-06 0.000000000000D+00  7 1 -2 -24 -11 11 23 21 0 0.38842198D-01 0.45885790D-01 0.57617696D+05 0.57617696D+05 0.57617696D+05 0.11419174D+01  1  2  2  2  7  2       -2 0.856445481034D-03 0.100000000000D+01
-.839524679361D-06 0.000000000000D+00 -.593240078230D-07 0.525430025117D-06 0.000000000000D+00  7 1 -2 -24 -11 11 23 21 2 0.38842198D-01 0.45885790D-01 0.57617696D+05 0.57617696D+05 0.57617696D+05 0.11419174D+01  1  2  3  2  7  2       -2 -.606922296784D-04 0.100000000000D+01
0.100439798906D-05 0.000000000000D+00 0.000000000000D+00 0.525430025117D-06 0.000000000000D+00  7 1 -2 -24 -11 11 23 21 2 0.38842198D-01 0.45885790D-01 0.57617696D+05 0.57617696D+05 0.57617696D+05 0.11419174D+01  1  2 15  2  7  2       -2 0.726115085589D-04 0.100000000000D+01
0.180912694219D-04 0.000000000000D+00 -.812157636167D-05 0.525430025117D-06 0.000000000000D+00  7 1 -2 -24 -11 11 23 21 2 0.38842198D-01 0.32336935D+00 0.57617696D+05 0.57617696D+05 0.57617696D+05 0.11419174D+01  1  2  5  2  7  2       -2 0.640969768352D-05 0.100000000000D+01
0.354197146423D-05 0.000000000000D+00 -.193796282287D-05 0.525430025117D-06 0.000000000000D+00  7 1 21 -24 -11 11 23 2 2 0.38842198D-01 0.32336935D+00 0.57617696D+05 0.57617696D+05 0.57617696D+05 0.11419174D+01  1  2  5  4  7  2       -2 0.963701241855D-05 0.100000000000D+01
  </mgrwgt>
  </event>
  <event>
  8     66 0.29493621E-05 0.24415845E+03 0.75467711E-02 0.92588971E-01
        1 -1    0    0  501    0 0.00000000E+00 0.00000000E+00 0.18680606E+03 0.18680633E+03 0.32000000E+00 0.0000E+00 0.9000E+01
       -2 -1    0    0    0  501 0.00000000E+00 0.00000000E+00 -.37737112E+03 0.37737126E+03 0.32000000E+00 0.0000E+00 0.9000E+01
       25  2    1    2    0    0 -.15401949E+03 -.69665671E+02 -.11512334E+03 0.36235098E+03 0.29911460E+03 0.0000E+00 0.0000E+00
       23  2    3    3    0    0 -.74975605E+02 -.12787596E+03 -.13850558E+03 0.22634233E+03 0.10036660E+03 0.0000E+00 0.0000E+00
      -24  1    1    2    0    0 0.15401949E+03 0.69665671E+02 -.75441730E+02 0.20182661E+03 0.80419002E+02 0.0000E+00 0.9000E+01
      -13  1    4    4    0    0 -.89838230E+02 -.12114410E+03 -.91080058E+02 0.17618851E+03 0.10565837E+00 0.0000E+00 0.9000E+01
       13  1    4    4    0    0 0.14862625E+02 -.67318556E+01 -.47425517E+02 0.50153827E+02 0.10565837E+00 0.0000E+00 0.9000E+01
       23  1    3    3    0    0 -.79043882E+02 0.58210287E+02 0.23382239E+02 0.13600865E+03 0.91188000E+02 0.0000E+00 0.9000E+01
#aMCatNLO 1  0  0  1  1 0.50288286D+03 0.00000000D+00  -5  7  0 0.00000000D+00 0.00000000D+00 0.00000000D+00 0.00000000D+00 0.00000000D+00
  <mgrwgt>
 0.9621277716D-03    3    2    0
 0.265509560173874D+03 0.000000000000000D+00 0.000000000000000D+00 0.265509560173874D+03
 0.265509560173874D+03 0.000000000000000D+00 0.000000000000000D+00 -.265509560173874D+03
 0.187355757446709D+03 0.154019487423806D+03 0.696656718117711D+02 -.772370110648971D+01
 0.154504762027214D+03 -.898382787509460D+02 -.121144226602510D+03 -.335392534358324D+02
 0.362659944645092D+02 0.148627022615649D+02 -.673177234105874D+01 -.323883571230781D+02
 0.152892606409316D+03 -.790439109344246D+02 0.582103271317981D+02 0.736513116654002D+02
 0.000000000000000D+00 0.000000000000000D+00 -.000000000000000D+00 -.000000000000000D+00
 0.496096568926674D+03 0.000000000000000D+00 0.000000000000000D+00 0.496096568926674D+03
 0.850431638842997D+03 0.000000000000000D+00 0.000000000000000D+00 -.850431638842997D+03
 0.215839600833968D+03 0.515910219697679D+02 0.193386215194178D+03 -.772370110648971D+01
 0.178678061785312D+03 -.174480635508939D+03 -.189070377034393D+02 -.335392534358324D+02
 0.360611016767354D+02 -.351140179579668D+01 0.154618056654547D+02 -.323883571230781D+02
 0.300771001478292D+03 -.194293420220497D+03 0.197417058875981D+03 0.736513116654002D+02
 0.615178441995363D+03 0.320694435555465D+03 -.387358042032174D+03 -.354335069916322D+03
0.184788836660D-04 0.000000000000D+00 0.000000000000D+00 0.998994364595D-08 0.000000000000D+00  7 1 -2 -24 -13 13 23 21 0 0.28739425D-01 0.58057127D-01 0.59613347D+05 0.59613347D+05 0.59613347D+05 0.11406376D+01  1  2  2  1  7  1        1 0.951737758713D-03 0.100000000000D+01
-.101783222641D-05 0.000000000000D+00 -.709637788794D-07 0.998994364595D-08 0.000000000000D+00  7 1 -2 -24 -13 13 23 21 2 0.28739425D-01 0.58057127D-01 0.59613347D+05 0.59613347D+05 0.59613347D+05 0.11406376D+01  1  2  3  1  7  1        1 -.682045155075D-04 0.100000000000D+01
0.117288486281D-05 0.000000000000D+00 0.000000000000D+00 0.998994364595D-08 0.000000000000D+00  7 1 -2 -24 -13 13 23 21 2 0.28739425D-01 0.58057127D-01 0.59613347D+05 0.59613347D+05 0.59613347D+05 0.11406376D+01  1  2 15  1  7  1        1 0.785945283898D-04 0.100000000000D+01
  </mgrwgt>
  </event>
  <event>
  8     66 0.29493621E-05 0.21443999E+03 0.75467711E-02 0.97791962E-01
        1 -1    0    0  501    0 0.00000000E+00 0.00000000E+00 0.19787524E+04 0.19787525E+04 0.32000000E+00 0.0000E+00 0.9000E+01
       -2 -1    0    0    0  501 0.00000000E+00 0.00000000E+00 -.32762243E+02 0.32763806E+02 0.32000000E+00 0.0000E+00 0.9000E+01
       25  2    1    2    0    0 -.79982780E+02 0.39567168E+02 0.79654108E+03 0.85580727E+03 0.29994264E+03 0.0000E+00 0.0000E+00
       23  2    3    3    0    0 0.39492824E+02 0.10651953E+03 0.32944648E+03 0.36058040E+03 0.92612881E+02 0.0000E+00 0.0000E+00
      -24  1    1    2    0    0 0.79982780E+02 -.39567168E+02 0.11494491E+04 0.11557090E+04 0.80419002E+02 0.0000E+00 0.9000E+01
      -13  1    4    4    0    0 0.33874426E+02 -.35004632E+01 0.53063714E+02 0.63051558E+02 0.10565837E+00 0.0000E+00 0.9000E+01
       13  1    4    4    0    0 0.56183982E+01 0.11002000E+03 0.27638277E+03 0.29752884E+03 0.10565837E+00 0.0000E+00 0.9000E+01
       23  1    3    3    0    0 -.11947560E+03 -.66952365E+02 0.46709459E+03 0.49522687E+03 0.91188000E+02 0.0000E+00 0.9000E+01
#aMCatNLO 1  0  0  1  2 0.25789429D+03 0.00000000D+00  -5  7  0 0.00000000D+00 0.00000000D+00 0.00000000D+00 0.00000000D+00 0.00000000D+00
  <mgrwgt>
 0.1117796071D-02    5    2    0
 0.254617292114370D+03 0.000000000000000D+00 0.000000000000000D+00 0.254617292114370D+03
 0.254617292114370D+03 0.000000000000000D+00 0.000000000000000D+00 -.254617292114370D+03
 0.172633102816302D+03 0.799827806305384D+02 -.395671682402724D+02 0.123984540301065D+03
 0.462806694975828D+02 0.338744619559489D+02 -.350060840682386D+01 -.313395427076008D+02
 0.119092453904110D+03 0.561836373481243D+01 0.110020142280133D+03 -.452439483080912D+02
 0.171228358010746D+03 -.119475606321300D+03 -.669523656330366D+02 -.474010492853727D+02
 0.000000000000000D+00 -.000000000000000D+00 0.000000000000000D+00 0.000000000000000D+00
 0.552160878834397D+03 0.000000000000000D+00 0.000000000000000D+00 0.552160878834397D+03
 0.347739614386535D+03 0.000000000000000D+00 0.000000000000000D+00 -.347739614386535D+03
 0.225677196853389D+03 0.111043830048603D+03 -.129460738448779D+03 0.123984540301065D+03
 0.591554974925831D+02 0.420965892673659D+02 -.272962106990725D+02 -.313395427076008D+02
 0.817602287038114D+02 0.212812655111639D+02 0.646902456127481D+02 -.452439483080912D+02
 0.204221691374042D+03 -.901972458379614D+02 -.151686668015243D+03 -.474010492853727D+02
 0.329085878797107D+03 -.842244389891713D+02 0.243753371550347D+03 0.204421264447861D+03
0.175909299373D-04 0.000000000000D+00 0.000000000000D+00 0.109739351846D-05 0.000000000000D+00  7 1 -2 -24 -13 13 23 21 0 0.30442357D+00 0.50404673D-02 0.45984510D+05 0.45984510D+05 0.45984510D+05 0.11505073D+01  1  2  2  1  7  1        1 0.110889929127D-02 0.100000000000D+01
-.942231107776D-06 0.000000000000D+00 -.675538027573D-07 0.109739351846D-05 0.000000000000D+00  7 1 -2 -24 -13 13 23 21 2 0.30442357D+00 0.50404673D-02 0.45984510D+05 0.45984510D+05 0.45984510D+05 0.11505073D+01  1  2  3  1  7  1        1 -.786211639350D-04 0.100000000000D+01
0.108405634872D-05 0.000000000000D+00 0.000000000000D+00 0.109739351846D-05 0.000000000000D+00  7 1 -2 -24 -13 13 23 21 2 0.30442357D+00 0.50404673D-02 0.45984510D+05 0.45984510D+05 0.45984510D+05 0.11505073D+01  1  2 15  1  7  1        1 0.904552728134D-04 0.100000000000D+01
-.360398829033D-05 0.000000000000D+00 -.411333705627D-05 0.109739351846D-05 0.000000000000D+00  7 1 -2 -24 -13 13 23 21 2 0.69429676D+00 0.50404673D-02 0.45984510D+05 0.45984510D+05 0.45984510D+05 0.11505073D+01  1  2  5  1  7  1        1 -.293438702123D-05 0.100000000000D+01
-.628691878326D-07 0.000000000000D+00 -.368752920159D-06 0.109739351846D-05 0.000000000000D+00  7 21 -2 -24 -13 13 23 -1 2 0.69429676D+00 0.50404673D-02 0.45984510D+05 0.45984510D+05 0.45984510D+05 0.11505073D+01  1  2  5  3  7  1        1 -.294209080797D-08 0.100000000000D+01
  </mgrwgt>
  </event>
</LesHouchesEvents>
