<event>
12    2  0.3552864E-008  0.1128907E+04  0.7818608E-02  0.9177466E-01
          1   -1    0    0  501    0  0.00000000000E+00  0.00000000000E+00  0.46386222996E+03  0.46386222996E+03  0.00000000000E+00 0. -1.
         -1   -1    0    0    0  501 -0.00000000000E+00 -0.00000000000E+00 -0.68685867969E+03  0.68685867969E+03  0.00000000000E+00 0.  1.
         23    2    1    2    0    0 -0.92317457844E+02 -0.47102647168E+02 -0.20317852068E+03  0.24456760555E+03  0.88264545682E+02 0.  0.
        254    2    1    2    0    0  0.92317457844E+02  0.47102647168E+02 -0.19817929060E+02  0.90615330411E+03  0.89998882651E+03 0.  0.
         23    2    4    4    0    0 -0.27511480824E+03  0.32607124320E+03 -0.35698252430E+01  0.43602384422E+03  0.89963524375E+02 0.  0.
         23    2    4    4    0    0  0.36743226609E+03 -0.27896859604E+03 -0.16248103817E+02  0.47012945988E+03  0.89037971880E+02 0.  0.
          3    1    3    3  502    0 -0.43093301216E+02 -0.35018045295E+02 -0.27968309601E+02  0.62173325855E+02  0.00000000000E+00 0. -1.
         -3    1    3    3    0  502 -0.49224156628E+02 -0.12084601873E+02 -0.17521021108E+03  0.18239427969E+03  0.00000000000E+00 0.  1.
         11    1    5    5    0    0 -0.22183783663E+03  0.30774951835E+03 -0.85339361082E+01  0.37946623021E+03  0.00000000000E+00 0.  1.
        -11    1    5    5    0    0 -0.53276971611E+02  0.18321724854E+02  0.49641108652E+01  0.56557614009E+02  0.00000000000E+00 0. -1.
          1    1    6    6  503    0  0.18820927764E+03 -0.91704678993E+02 -0.24497794816E+02  0.21079047011E+03  0.00000000000E+00 0. -1.
         -1    1    6    6    0  503  0.17922298844E+03 -0.18726391704E+03  0.82496909992E+01  0.25933898977E+03  0.00000000000E+00 0.  1.
<mgrwt>
<rscale>  0 0.11289071E+04</rscale>
<asrwt>0</asrwt>
<pdfrwt beam="1">  1        1 0.71363420E-01 0.11289071E+04</pdfrwt>
<pdfrwt beam="2">  1       -1 0.10567057E+00 0.11289071E+04</pdfrwt>
<totfact> 0.41011857E+01</totfact>
</mgrwt>
</event>
<event>
12    2  0.3552864E-008  0.1334009E+04  0.7818608E-02  0.9003022E-01
          2   -1    0    0  501    0  0.00000000000E+00  0.00000000000E+00  0.78859536400E+03  0.78859536400E+03  0.00000000000E+00 0.  1.
         -2   -1    0    0    0  501 -0.00000000000E+00 -0.00000000000E+00 -0.56416096061E+03  0.56416096061E+03  0.00000000000E+00 0. -1.
         23    2    1    2    0    0 -0.15880411550E+03  0.22328224231E+03 -0.16596894863E+03  0.33286947686E+03  0.90458221752E+02 0.  0.
        254    2    1    2    0    0  0.15880411550E+03 -0.22328224231E+03  0.39040335202E+03  0.10198868478E+04  0.90148804658E+03 0.  0.
         23    2    4    4    0    0 -0.26397185955E+03  0.62847522499E+02 -0.10289383277E+03  0.30402641099E+03  0.90630922087E+02 0.  0.
         23    2    4    4    0    0  0.42277597505E+03 -0.28612976481E+03  0.49329718479E+03  0.71586043677E+03  0.92218680446E+02 0.  0.
          4    1    3    3  502    0 -0.15948046293E+03  0.16915740134E+03 -0.11882896077E+03  0.26109110748E+03  0.00000000000E+00 0. -1.
         -4    1    3    3    0  502  0.67634742893E+00  0.54124840964E+02 -0.47139987859E+02  0.71778369378E+02  0.00000000000E+00 0.  1.
         11    1    5    5    0    0 -0.64011976670E+02  0.44609594061E+02  0.83212220560E+00  0.78027184153E+02  0.00000000000E+00 0. -1.
        -11    1    5    5    0    0 -0.19995988288E+03  0.18237928438E+02 -0.10372595497E+03  0.22599922683E+03  0.00000000000E+00 0.  1.
          3    1    6    6  503    0  0.21794458765E+01 -0.99803192025E+01  0.30763313592E+02  0.32415092455E+02  0.00000000000E+00 0. -1.
         -3    1    6    6    0  503  0.42059652918E+03 -0.27614944560E+03  0.46253387119E+03  0.68344534431E+03  0.00000000000E+00 0.  1.
<mgrwt>
<rscale>  0 0.13340086E+04</rscale>
<asrwt>0</asrwt>
<pdfrwt beam="1">  1        2 0.12132236E+00 0.13340086E+04</pdfrwt>
<pdfrwt beam="2">  1       -2 0.86793994E-01 0.13340086E+04</pdfrwt>
<totfact> 0.39455121E+01</totfact>
</mgrwt>
</event>
<event>
12    2  0.3552864E-008  0.1540287E+04  0.7818608E-02  0.8858096E-01
          1   -1    0    0  501    0  0.00000000000E+00  0.00000000000E+00  0.10949743813E+04  0.10949743813E+04  0.00000000000E+00 0. -1.
         -1   -1    0    0    0  501 -0.00000000000E+00 -0.00000000000E+00 -0.54167553960E+03  0.54167553960E+03  0.00000000000E+00 0.  1.
         23    2    1    2    0    0 -0.39012686784E+03 -0.76883729911E+02  0.52675213609E+03  0.66569727618E+03  0.87034301879E+02 0.  0.
        254    2    1    2    0    0  0.39012686784E+03  0.76883729911E+02  0.26546705641E+02  0.97095264475E+03  0.88540060415E+03 0.  0.
         23    2    4    4    0    0 -0.14316792495E+03  0.31074701598E+03 -0.10100013233E+03  0.36789655344E+03  0.89922659149E+02 0.  0.
         23    2    4    4    0    0  0.53329479279E+03 -0.23386328607E+03  0.12754683798E+03  0.60305609131E+03  0.91176097756E+02 0.  0.
          1    1    3    3  502    0 -0.28836247399E+03 -0.89447758944E+02  0.42424830161E+03  0.52071147424E+03  0.00000000000E+00 0. -1.
         -1    1    3    3    0  502 -0.10176439386E+03  0.12564029033E+02  0.10250383448E+03  0.14498580194E+03  0.00000000000E+00 0.  1.
         11    1    5    5    0    0 -0.32892541761E+02  0.12478179067E+02 -0.38701164025E+01  0.35392118576E+02  0.00000000000E+00 0.  1.
        -11    1    5    5    0    0 -0.11027538318E+03  0.29826883691E+03 -0.97130015931E+02  0.33250443486E+03  0.00000000000E+00 0. -1.
          2    1    6    6  503    0  0.47644518311E+03 -0.17841084531E+03  0.96713119570E+02  0.51786472145E+03  0.00000000000E+00 0. -1.
         -2    1    6    6    0  503  0.56849609681E+02 -0.55452440759E+02  0.30833718405E+02  0.85191369855E+02  0.00000000000E+00 0.  1.
<mgrwt>
<rscale>  0 0.15402868E+04</rscale>
<asrwt>0</asrwt>
<pdfrwt beam="1">  1        1 0.16845760E+00 0.15402868E+04</pdfrwt>
<pdfrwt beam="2">  1       -1 0.83334699E-01 0.15402868E+04</pdfrwt>
<totfact> 0.17625850E+01</totfact>
</mgrwt>
</event>
<event>
12    2  0.3552864E-008  0.2519028E+04  0.7818608E-02  0.8396238E-01
         -2   -1    0    0    0  501 -0.00000000000E+00  0.00000000000E+00  0.48103664368E+04  0.48103664368E+04  0.00000000000E+00 0. -1.
          2   -1    0    0  501    0  0.00000000000E+00 -0.00000000000E+00 -0.32978277183E+03  0.32978277183E+03  0.00000000000E+00 0.  1.
         23    2    1    2    0    0  0.69452245312E+03  0.19141717335E+03  0.27119837437E+03  0.77541643041E+03  0.93381529977E+02 0.  0.
        254    2    1    2    0    0 -0.69452245312E+03 -0.19141717335E+03  0.42093852906E+04  0.43647327782E+04  0.90164612152E+03 0.  0.
         23    2    4    4    0    0  0.11204407832E+03 -0.25628197655E+03  0.17284219727E+04  0.17535049045E+04  0.95407585492E+02 0.  0.
         23    2    4    4    0    0 -0.80656653145E+03  0.64864803205E+02  0.24809633179E+04  0.26112278737E+04  0.92601357690E+02 0.  0.
          2    1    3    3  502    0  0.28288739916E+03  0.94984221370E+02  0.66679912235E+02  0.30576705776E+03  0.00000000000E+00 0. -1.
         -2    1    3    3    0  502  0.41163505396E+03  0.96432951979E+02  0.20451846214E+03  0.46964937265E+03  0.00000000000E+00 0.  1.
         11    1    5    5    0    0  0.61584054218E+02 -0.49124271860E+02  0.59621084875E+03  0.60139268867E+03  0.00000000000E+00 0. -1.
        -11    1    5    5    0    0  0.50460024106E+02 -0.20715770469E+03  0.11322111240E+04  0.11521122159E+04  0.00000000000E+00 0.  1.
          1    1    6    6  503    0 -0.73535109771E+03  0.44595421798E+02  0.23175069890E+04  0.24317830152E+04  0.00000000000E+00 0. -1.
         -1    1    6    6    0  503 -0.71215433736E+02  0.20269381407E+02  0.16345632883E+03  0.17944485855E+03  0.00000000000E+00 0.  1.
<mgrwt>
<rscale>  0 0.25190284E+04</rscale>
<asrwt>0</asrwt>
<pdfrwt beam="1">  1        2 0.50735815E-01 0.25190284E+04</pdfrwt>
<pdfrwt beam="2">  1       -2 0.74005632E+00 0.25190284E+04</pdfrwt>
<totfact> 0.13925342E-02</totfact>
</mgrwt>
</event>
<event>
12    2  0.3552864E-008  0.1516632E+04  0.7818608E-02  0.8873468E-01
         -2   -1    0    0    0  501 -0.00000000000E+00  0.00000000000E+00  0.31528889951E+03  0.31528889951E+03  0.00000000000E+00 0.  1.
          2   -1    0    0  501    0  0.00000000000E+00 -0.00000000000E+00 -0.18238606330E+04  0.18238606330E+04  0.00000000000E+00 0. -1.
         23    2    1    2    0    0  0.95540630840E+02 -0.26721414232E+03 -0.10269196400E+04  0.10692802157E+04  0.90911070854E+02 0.  0.
        254    2    1    2    0    0 -0.95540630840E+02  0.26721414232E+03 -0.48165209350E+03  0.10698693168E+04  0.91219526734E+03 0.  0.
         23    2    4    4    0    0 -0.25306889515E+03  0.27092454958E+03 -0.69201923330E+03  0.79026300206E+03  0.90448968536E+02 0.  0.
         23    2    4    4    0    0  0.15752826431E+03 -0.37104072555E+01  0.21036713980E+03  0.27960631470E+03  0.95375240669E+02 0.  0.
          4    1    3    3  502    0  0.59746204378E+02 -0.24969982496E+03 -0.92081248060E+03  0.95593683680E+03  0.00000000000E+00 0. -1.
         -4    1    3    3    0  502  0.35794426462E+02 -0.17514317366E+02 -0.10610715936E+03  0.11334337893E+03  0.00000000000E+00 0.  1.
         11    1    5    5    0    0 -0.21408859828E+03  0.17467556780E+03 -0.47099724149E+03  0.54606216074E+03  0.00000000000E+00 0. -1.
        -11    1    5    5    0    0 -0.38980296866E+02  0.96248981776E+02 -0.22102199181E+03  0.24420084132E+03  0.00000000000E+00 0.  1.
          4    1    6    6  503    0  0.14907414808E+00 -0.22935490423E+02  0.45024890050E+02  0.50530185712E+02  0.00000000000E+00 0.  1.
         -4    1    6    6    0  503  0.15737919016E+03  0.19225083168E+02  0.16534224975E+03  0.22907612898E+03  0.00000000000E+00 0. -1.
<mgrwt>
<rscale>  0 0.15166318E+04</rscale>
<asrwt>0</asrwt>
<pdfrwt beam="1">  1        2 0.28059395E+00 0.15166318E+04</pdfrwt>
<pdfrwt beam="2">  1       -2 0.48505984E-01 0.15166318E+04</pdfrwt>
<totfact> 0.32512019E+01</totfact>
</mgrwt>
</event>
<event>
12    2  0.3552864E-008  0.1314821E+04  0.7818608E-02  0.9017894E-01
         -1   -1    0    0    0  501 -0.00000000000E+00  0.00000000000E+00  0.61186647956E+03  0.61186647956E+03  0.00000000000E+00 0.  1.
          1   -1    0    0  501    0  0.00000000000E+00 -0.00000000000E+00 -0.70634446520E+03  0.70634446520E+03  0.00000000000E+00 0. -1.
         23    2    1    2    0    0 -0.24701496701E+02 -0.30208761705E+03 -0.18990944175E+03  0.36867055488E+03  0.89360447937E+02 0.  0.
        254    2    1    2    0    0  0.24701496701E+02  0.30208761705E+03  0.95431456113E+02  0.94954038989E+03  0.89479198527E+03 0.  0.
         23    2    4    4    0    0  0.25322810682E+03 -0.15714310131E+03 -0.17712484088E+03  0.36163879852E+03  0.10291250152E+03 0.  0.
         23    2    4    4    0    0 -0.22852661012E+03  0.45923071836E+03  0.27255629699E+03  0.58790159136E+03  0.90686723855E+02 0.  0.
          3    1    3    3  502    0 -0.92353306894E+01 -0.10353137341E+03 -0.17812980989E+02  0.10545775886E+03  0.00000000000E+00 0. -1.
         -3    1    3    3    0  502 -0.15466166012E+02 -0.19855624364E+03 -0.17209646076E+03  0.26321279602E+03  0.00000000000E+00 0.  1.
         11    1    5    5    0    0  0.22293464420E+03 -0.12356307374E+03 -0.18601777776E+03  0.31554762306E+03  0.00000000000E+00 0.  1.
        -11    1    5    5    0    0  0.30293462616E+02 -0.33580027568E+02  0.88929368825E+01  0.46091175458E+02  0.00000000000E+00 0. -1.
          3    1    6    6  503    0 -0.17645214115E+03  0.25913293518E+03  0.14994811591E+03  0.34751931410E+03  0.00000000000E+00 0. -1.
         -3    1    6    6    0  503 -0.52074468962E+02  0.20009778318E+03  0.12260818109E+03  0.24038227726E+03  0.00000000000E+00 0.  1.
<mgrwt>
<rscale>  0 0.13148209E+04</rscale>
<asrwt>0</asrwt>
<pdfrwt beam="1">  1        1 0.10866838E+00 0.13148209E+04</pdfrwt>
<pdfrwt beam="2">  1       -1 0.94133305E-01 0.13148209E+04</pdfrwt>
<totfact> 0.28840447E+01</totfact>
</mgrwt>
</event>
<event>
12    2  0.3552864E-008  0.2030078E+04  0.7818608E-02  0.8592686E-01
         -1   -1    0    0    0  501 -0.00000000000E+00  0.00000000000E+00  0.37051827119E+03  0.37051827119E+03  0.00000000000E+00 0.  1.
          1   -1    0    0  501    0  0.00000000000E+00 -0.00000000000E+00 -0.27807108534E+04  0.27807108534E+04  0.00000000000E+00 0. -1.
         23    2    1    2    0    0  0.29133022892E+02 -0.26241557472E+03  0.22408527233E+03  0.35826043771E+03  0.91791421571E+02 0.  0.
        254    2    1    2    0    0 -0.29133022892E+02  0.26241557472E+03 -0.26342778545E+04  0.27929686869E+04  0.88968736311E+03 0.  0.
         23    2    4    4    0    0  0.13416115085E+03 -0.11750720376E+03 -0.10128222534E+03  0.22485171471E+03  0.92157729493E+02 0.  0.
         23    2    4    4    0    0 -0.16329417374E+03  0.37992277848E+03 -0.25329956292E+04  0.25681169722E+04  0.90286324653E+02 0.  0.
          3    1    3    3  502    0  0.99590003248E+01 -0.21994220110E+02 -0.60552952585E+01  0.24891645313E+02  0.00000000000E+00 0. -1.
         -3    1    3    3    0  502  0.19174022567E+02 -0.24042135461E+03  0.23014056759E+03  0.33336879240E+03  0.00000000000E+00 0.  1.
         11    1    5    5    0    0  0.15596706646E+02 -0.33596516538E+02  0.13807273183E+02  0.39530038887E+02  0.00000000000E+00 0.  1.
        -11    1    5    5    0    0  0.11856444420E+03 -0.83910687219E+02 -0.11508949852E+03  0.18532167582E+03  0.00000000000E+00 0. -1.
          1    1    6    6  503    0 -0.13227698398E+03  0.35840957532E+03 -0.23838237517E+04  0.24142432155E+04  0.00000000000E+00 0. -1.
         -1    1    6    6    0  503 -0.31017189758E+02  0.21513203160E+02 -0.14917187748E+03  0.15387375670E+03  0.00000000000E+00 0.  1.
<mgrwt>
<rscale>  0 0.20300780E+04</rscale>
<asrwt>0</asrwt>
<pdfrwt beam="1">  1        1 0.42780167E+00 0.20300780E+04</pdfrwt>
<pdfrwt beam="2">  1       -1 0.57002811E-01 0.20300780E+04</pdfrwt>
<totfact> 0.24825183E+00</totfact>
</mgrwt>
</event>
<event>
12    2  0.3552864E-008  0.2398397E+04  0.7818608E-02  0.8440104E-01
          2   -1    0    0  501    0  0.00000000000E+00  0.00000000000E+00  0.10468398986E+04  0.10468398986E+04  0.00000000000E+00 0. -1.
         -2   -1    0    0    0  501 -0.00000000000E+00 -0.00000000000E+00 -0.13737310378E+04  0.13737310378E+04  0.00000000000E+00 0.  1.
         23    2    1    2    0    0 -0.71477199558E+03 -0.48789016377E+03 -0.70101443754E+03  0.11167142411E+04  0.81814650117E+02 0.  0.
        254    2    1    2    0    0  0.71477199558E+03  0.48789016377E+03  0.37412329840E+03  0.13038566954E+04  0.90063212360E+03 0.  0.
         23    2    4    4    0    0  0.56193536265E+03  0.19971934231E+03 -0.20128208979E+03  0.63610686797E+03  0.91969018234E+02 0.  0.
         23    2    4    4    0    0  0.15283663293E+03  0.28817082147E+03  0.57540538819E+03  0.66774982739E+03  0.91635214372E+02 0.  0.
          4    1    3    3  502    0 -0.27177477786E+02 -0.33236195333E+02 -0.19498963360E+02  0.47153680144E+02  0.00000000000E+00 0. -1.
         -4    1    3    3    0  502 -0.68759451780E+03 -0.45465396844E+03 -0.68151547418E+03  0.10695605609E+04  0.00000000000E+00 0.  1.
         11    1    5    5    0    0  0.55348301945E+03  0.20171555646E+03 -0.18467054539E+03  0.61736199176E+03  0.00000000000E+00 0. -1.
        -11    1    5    5    0    0  0.84523432017E+01 -0.19962141495E+01 -0.16611544406E+02  0.18744876208E+02  0.00000000000E+00 0.  1.
          1    1    6    6  503    0  0.13718359201E+03  0.17731440324E+03  0.42176615601E+03  0.47764675846E+03  0.00000000000E+00 0. -1.
         -1    1    6    6    0  503  0.15653040925E+02  0.11085641823E+03  0.15363923219E+03  0.19010306894E+03  0.00000000000E+00 0.  1.
<mgrwt>
<rscale>  0 0.23983965E+04</rscale>
<asrwt>0</asrwt>
<pdfrwt beam="1">  1        2 0.16105229E+00 0.23983965E+04</pdfrwt>
<pdfrwt beam="2">  1       -2 0.21134324E+00 0.23983965E+04</pdfrwt>
<totfact> 0.23736122E+00</totfact>
</mgrwt>
</event>
<event>
12    2  0.3552864E-008  0.1197997E+04  0.7818608E-02  0.9114611E-01
          2   -1    0    0  501    0  0.00000000000E+00  0.00000000000E+00  0.33408231248E+03  0.33408231248E+03  0.00000000000E+00 0. -1.
         -2   -1    0    0    0  501 -0.00000000000E+00 -0.00000000000E+00 -0.10739850159E+04  0.10739850159E+04  0.00000000000E+00 0.  1.
         23    2    1    2    0    0 -0.14338102121E+03 -0.16183355981E+03 -0.33839534977E+02  0.23713497289E+03  0.91321754905E+02 0.  0.
        254    2    1    2    0    0  0.14338102121E+03  0.16183355981E+03 -0.70606316847E+03  0.11709323555E+04  0.90874042774E+03 0.  0.
         23    2    4    4    0    0  0.25328529767E+02 -0.32286061455E+03 -0.54225232345E+03  0.63794452829E+03  0.89750365129E+02 0.  0.
         23    2    4    4    0    0  0.11805249144E+03  0.48469417436E+03 -0.16381084502E+03  0.53298782723E+03  0.91527032269E+02 0.  0.
          2    1    3    3  502    0 -0.33775135233E+02 -0.97523153582E+02  0.75572391462E+01  0.10348254494E+03  0.00000000000E+00 0. -1.
         -2    1    3    3    0  502 -0.10960588597E+03 -0.64310406229E+02 -0.41396774123E+02  0.13365242795E+03  0.00000000000E+00 0.  1.
         11    1    5    5    0    0  0.13043890695E+02 -0.23455693913E+01 -0.10349495098E+02  0.16815374781E+02  0.00000000000E+00 0. -1.
        -11    1    5    5    0    0  0.12284639071E+02 -0.32051504516E+03 -0.53190282836E+03  0.62112915351E+03  0.00000000000E+00 0.  1.
          3    1    6    6  503    0  0.21240133895E+02  0.27518413797E+03 -0.99621368818E+02  0.29343120182E+03  0.00000000000E+00 0. -1.
         -3    1    6    6    0  503  0.96812357543E+02  0.20951003639E+03 -0.64189476199E+02  0.23955662540E+03  0.00000000000E+00 0.  1.
<mgrwt>
<rscale>  0 0.11979973E+04</rscale>
<asrwt>0</asrwt>
<pdfrwt beam="1">  1        2 0.51397278E-01 0.11979973E+04</pdfrwt>
<pdfrwt beam="2">  1       -2 0.16522847E+00 0.11979973E+04</pdfrwt>
<totfact> 0.22132189E+01</totfact>
</mgrwt>
</event>
<event>
12    2  0.3552864E-008  0.1507323E+04  0.7818608E-02  0.8879598E-01
          1   -1    0    0  501    0  0.00000000000E+00  0.00000000000E+00  0.21117335644E+04  0.21117335644E+04  0.00000000000E+00 0. -1.
         -1   -1    0    0    0  501 -0.00000000000E+00 -0.00000000000E+00 -0.26897586473E+03  0.26897586473E+03  0.00000000000E+00 0.  1.
         23    2    1    2    0    0 -0.41619856802E+03 -0.20665521852E+03  0.39882766785E+03  0.61905635523E+03  0.90772434936E+02 0.  0.
        254    2    1    2    0    0  0.41619856802E+03  0.20665521852E+03  0.14439300318E+04  0.17616530739E+04  0.89585712513E+03 0.  0.
         23    2    4    4    0    0  0.23271274077E+03 -0.18603846409E+03  0.12311552230E+04  0.12700867863E+04  0.92799416442E+02 0.  0.
         23    2    4    4    0    0  0.18348582725E+03  0.39269368262E+03  0.21277480881E+03  0.49156628763E+03  0.92135328186E+02 0.  0.
          3    1    3    3  502    0 -0.95664082390E+02 -0.19482170102E+02  0.12066298670E+03  0.15521188089E+03  0.00000000000E+00 0. -1.
         -3    1    3    3    0  502 -0.32053448563E+03 -0.18717304842E+03  0.27816468115E+03  0.46384447434E+03  0.00000000000E+00 0.  1.
         11    1    5    5    0    0  0.11778184470E+03 -0.14730251340E+03  0.67447540385E+03  0.70034824466E+03  0.00000000000E+00 0.  1.
        -11    1    5    5    0    0  0.11493089607E+03 -0.38735950690E+02  0.55667981914E+03  0.56973854160E+03  0.00000000000E+00 0. -1.
          3    1    6    6  503    0  0.13787984656E+03  0.27382853629E+03  0.10288369606E+03  0.32338517945E+03  0.00000000000E+00 0. -1.
         -3    1    6    6    0  503  0.45605980695E+02  0.11886514632E+03  0.10989111275E+03  0.16818110818E+03  0.00000000000E+00 0.  1.
<mgrwt>
<rscale>  0 0.15073226E+04</rscale>
<asrwt>0</asrwt>
<pdfrwt beam="1">  1        1 0.32488208E+00 0.15073226E+04</pdfrwt>
<pdfrwt beam="2">  1       -1 0.41380904E-01 0.15073226E+04</pdfrwt>
<totfact> 0.13855077E+01</totfact>
</mgrwt>
</event>
<event>
12    2  0.3552864E-008  0.1673277E+04  0.7818608E-02  0.8776754E-01
         -2   -1    0    0    0  501 -0.00000000000E+00  0.00000000000E+00  0.31306472725E+03  0.31306472725E+03  0.00000000000E+00 0.  1.
          2   -1    0    0  501    0  0.00000000000E+00 -0.00000000000E+00 -0.22358455201E+04  0.22358455201E+04  0.00000000000E+00 0. -1.
         23    2    1    2    0    0 -0.67191058573E+02 -0.58014347341E+03 -0.50781949595E+03  0.77940027192E+03  0.92212012867E+02 0.  0.
        254    2    1    2    0    0  0.67191058573E+02  0.58014347341E+03 -0.14149612969E+04  0.17695099754E+04  0.88767617594E+03 0.  0.
         23    2    4    4    0    0  0.38616417395E+02  0.37813474010E+03 -0.59860816143E+02  0.39596549537E+03  0.93425086862E+02 0.  0.
         23    2    4    4    0    0  0.28574641178E+02  0.20200873331E+03 -0.13551004807E+04  0.13735444800E+04  0.93290338759E+02 0.  0.
          3    1    3    3  502    0  0.12745300009E+02 -0.11645628491E+03 -0.68754563226E+02  0.13583703078E+03  0.00000000000E+00 0. -1.
         -3    1    3    3    0  502 -0.79936358582E+02 -0.46368718850E+03 -0.43906493272E+03  0.64356324115E+03  0.00000000000E+00 0.  1.
         11    1    5    5    0    0  0.36429580991E+02  0.82281171307E+02 -0.42711831910E+02  0.99607259314E+02  0.00000000000E+00 0. -1.
        -11    1    5    5    0    0  0.21868364035E+01  0.29585356879E+03 -0.17148984233E+02  0.29635823606E+03  0.00000000000E+00 0.  1.
          1    1    6    6  503    0 -0.16050666635E+02  0.11209942903E+03 -0.50514608614E+03  0.51768375890E+03  0.00000000000E+00 0. -1.
         -1    1    6    6    0  503  0.44625307813E+02  0.89909304278E+02 -0.84995439460E+03  0.85586072114E+03  0.00000000000E+00 0.  1.
<mgrwt>
<rscale>  0 0.16732775E+04</rscale>
<asrwt>0</asrwt>
<pdfrwt beam="1">  1        2 0.34397623E+00 0.16732775E+04</pdfrwt>
<pdfrwt beam="2">  1       -2 0.48163804E-01 0.16732775E+04</pdfrwt>
<totfact> 0.19207025E+01</totfact>
</mgrwt>
</event>
<event>
12    2  0.3552864E-008  0.2576760E+04  0.7818608E-02  0.8376139E-01
          1   -1    0    0  501    0  0.00000000000E+00  0.00000000000E+00  0.18162571381E+04  0.18162571381E+04  0.00000000000E+00 0. -1.
         -1   -1    0    0    0  501 -0.00000000000E+00 -0.00000000000E+00 -0.91392480814E+03  0.91392480814E+03  0.00000000000E+00 0.  1.
         23    2    1    2    0    0  0.95105586459E+03  0.56118015723E+03  0.16348544516E+03  0.11200718244E+04  0.91667740799E+02 0.  0.
        254    2    1    2    0    0 -0.95105586459E+03 -0.56118015723E+03  0.73884688483E+03  0.16101101218E+04  0.90946657921E+03 0.  0.
         23    2    4    4    0    0 -0.78617009036E+03 -0.67799474095E+03  0.86573294488E+03  0.13548090801E+04  0.90960606732E+02 0.  0.
         23    2    4    4    0    0 -0.16488577423E+03  0.11681458372E+03 -0.12688606005E+03  0.25530104170E+03  0.90805198893E+02 0.  0.
          4    1    3    3  502    0  0.63419587211E+02  0.12898429038E+02  0.11818936071E+02  0.65788302634E+02  0.00000000000E+00 0. -1.
         -4    1    3    3    0  502  0.88763627738E+03  0.54828172819E+03  0.15166650909E+03  0.10542835218E+04  0.00000000000E+00 0.  1.
         11    1    5    5    0    0 -0.76977729931E+03 -0.67787300979E+03  0.85320799218E+03  0.13341786934E+04  0.00000000000E+00 0.  1.
        -11    1    5    5    0    0 -0.16392791048E+02 -0.12173115873E+00  0.12524952699E+02  0.20630386737E+02  0.00000000000E+00 0. -1.
          1    1    6    6  503    0 -0.28460369132E+02  0.50004390694E+00 -0.55420108123E+02  0.62302737013E+02  0.00000000000E+00 0. -1.
         -1    1    6    6    0  503 -0.13642540510E+03  0.11631453981E+03 -0.71465951929E+02  0.19299830469E+03  0.00000000000E+00 0.  1.
<mgrwt>
<rscale>  0 0.25767596E+04</rscale>
<asrwt>0</asrwt>
<pdfrwt beam="1">  1        1 0.27942417E+00 0.25767596E+04</pdfrwt>
<pdfrwt beam="2">  1       -1 0.14060382E+00 0.25767596E+04</pdfrwt>
<totfact> 0.14526022E+00</totfact>
</mgrwt>
</event>
<event>
12    2  0.3552864E-008  0.2240518E+04  0.7818608E-02  0.8501751E-01
          1   -1    0    0  501    0  0.00000000000E+00  0.00000000000E+00  0.61408908591E+03  0.61408908591E+03  0.00000000000E+00 0. -1.
         -1   -1    0    0    0  501 -0.00000000000E+00 -0.00000000000E+00 -0.20436443876E+04  0.20436443876E+04  0.00000000000E+00 0.  1.
         23    2    1    2    0    0 -0.72601007775E+03  0.12766680282E+03  0.84899781553E+02  0.74846289492E+03  0.97975949230E+02 0.  0.
        254    2    1    2    0    0  0.72601007775E+03 -0.12766680282E+03 -0.15144550832E+04  0.19092705786E+04  0.89908314273E+03 0.  0.
         23    2    4    4    0    0  0.94345351324E+02  0.19692291345E+03 -0.99906059816E+03  0.10269239566E+04  0.93653908903E+02 0.  0.
         23    2    4    4    0    0  0.63166472643E+03 -0.32458971627E+03 -0.51539448505E+03  0.88234662197E+03  0.92440659715E+02 0.  0.
          1    1    3    3  502    0 -0.29476618405E+03  0.45650962873E+02  0.82513294006E+02  0.30948272546E+03  0.00000000000E+00 0. -1.
         -1    1    3    3    0  502 -0.43124389370E+03  0.82015839952E+02  0.23864875467E+01  0.43898016947E+03  0.00000000000E+00 0.  1.
         11    1    5    5    0    0  0.80303643835E+02  0.66257748908E+02 -0.50974567894E+03  0.52026860534E+03  0.00000000000E+00 0. -1.
        -11    1    5    5    0    0  0.14041707488E+02  0.13066516454E+03 -0.48931491922E+03  0.50665535124E+03  0.00000000000E+00 0.  1.
          4    1    6    6  503    0  0.59578579888E+03 -0.31895893040E+03 -0.46536336625E+03  0.82052335743E+03  0.00000000000E+00 0.  1.
         -4    1    6    6    0  503  0.35878927542E+02 -0.56307858744E+01 -0.50031118800E+02  0.61823264550E+02  0.00000000000E+00 0. -1.
<mgrwt>
<rscale>  0 0.22405175E+04</rscale>
<asrwt>0</asrwt>
<pdfrwt beam="1">  1        1 0.94475244E-01 0.22405175E+04</pdfrwt>
<pdfrwt beam="2">  1       -1 0.31440683E+00 0.22405175E+04</pdfrwt>
<totfact> 0.80116932E-01</totfact>
</mgrwt>
</event>
<event>
12    2  0.3552864E-008  0.1766867E+04  0.7818608E-02  0.8724120E-01
         -2   -1    0    0    0  501 -0.00000000000E+00  0.00000000000E+00  0.30512229240E+03  0.30512229240E+03  0.00000000000E+00 0.  1.
          2   -1    0    0  501    0  0.00000000000E+00 -0.00000000000E+00 -0.25578436982E+04  0.25578436982E+04  0.00000000000E+00 0. -1.
         23    2    1    2    0    0 -0.23385860204E+03 -0.37272965647E+02  0.14473886862E+03  0.29214036927E+03  0.91200523842E+02 0.  0.
        254    2    1    2    0    0  0.23385860204E+03  0.37272965647E+02 -0.23974602745E+04  0.25708256214E+04  0.89735694577E+03 0.  0.
         23    2    4    4    0    0  0.14894486906E+03  0.10511401987E+03 -0.24191832344E+04  0.24278791726E+04  0.94425757221E+02 0.  0.
         23    2    4    4    0    0  0.84913732986E+02 -0.67841054220E+02  0.21722959978E+02  0.14294644879E+03  0.90272086187E+02 0.  0.
          3    1    3    3  502    0 -0.89919143368E+02 -0.12643987495E+02  0.64685903333E+01  0.91033869657E+02  0.00000000000E+00 0. -1.
         -3    1    3    3    0  502 -0.14393945868E+03 -0.24628978152E+02  0.13827027829E+03  0.20110649961E+03  0.00000000000E+00 0.  1.
         11    1    5    5    0    0  0.28842131165E+02 -0.73834567443E+01 -0.75321146559E+03  0.75379963907E+03  0.00000000000E+00 0.  1.
        -11    1    5    5    0    0  0.12010273789E+03  0.11249747661E+03 -0.16659717689E+04  0.16740795335E+04  0.00000000000E+00 0. -1.
          1    1    6    6  503    0  0.77877730398E+02 -0.69654883835E+02  0.48507190465E+02  0.11519414595E+03  0.00000000000E+00 0. -1.
         -1    1    6    6    0  503  0.70360025885E+01  0.18138296147E+01 -0.26784230487E+02  0.27752302843E+02  0.00000000000E+00 0.  1.
<mgrwt>
<rscale>  0 0.17668674E+04</rscale>
<asrwt>0</asrwt>
<pdfrwt beam="1">  1        2 0.39351443E+00 0.17668674E+04</pdfrwt>
<pdfrwt beam="2">  1       -2 0.46941890E-01 0.17668674E+04</pdfrwt>
<totfact> 0.13137584E+01</totfact>
</mgrwt>
</event>
<event>
12    2  0.3552864E-008  0.1849972E+04  0.7818608E-02  0.8680167E-01
         -1   -1    0    0    0  501 -0.00000000000E+00  0.00000000000E+00  0.44363282840E+03  0.44363282840E+03  0.00000000000E+00 0.  1.
          1   -1    0    0  501    0  0.00000000000E+00 -0.00000000000E+00 -0.19286189796E+04  0.19286189796E+04  0.00000000000E+00 0. -1.
         23    2    1    2    0    0 -0.56173558480E+03  0.34295863673E+03 -0.87986551377E+03  0.11025094091E+04  0.90532762133E+02 0.  0.
        254    2    1    2    0    0  0.56173558480E+03 -0.34295863673E+03 -0.60512063739E+03  0.12697423989E+04  0.90161370886E+03 0.  0.
         23    2    4    4    0    0  0.14165882264E+03  0.26450219518E+03 -0.50026310329E+01  0.31366831244E+03  0.91291569283E+02 0.  0.
         23    2    4    4    0    0  0.42007676215E+03 -0.60746083191E+03 -0.60011800636E+03  0.95607408645E+03  0.91993960766E+02 0.  0.
          4    1    3    3  502    0 -0.38491988641E+03  0.25017867849E+03 -0.54453723488E+03  0.71223134605E+03  0.00000000000E+00 0. -1.
         -4    1    3    3    0  502 -0.17681569838E+03  0.92779958238E+02 -0.33532827889E+03  0.39027806301E+03  0.00000000000E+00 0.  1.
         11    1    5    5    0    0  0.10316837328E+03  0.25335662320E+03 -0.43856951091E+01  0.27359189697E+03  0.00000000000E+00 0.  1.
        -11    1    5    5    0    0  0.38490449366E+02  0.11145571982E+02 -0.61693592387E+00  0.40076415473E+02  0.00000000000E+00 0. -1.
          3    1    6    6  503    0  0.49035489566E+00 -0.12812339871E+02 -0.26414779054E+02  0.29362170447E+02  0.00000000000E+00 0. -1.
         -3    1    6    6    0  503  0.41958640726E+03 -0.59464849204E+03 -0.57370322731E+03  0.92671191600E+03  0.00000000000E+00 0.  1.
<mgrwt>
<rscale>  0 0.18499716E+04</rscale>
<asrwt>0</asrwt>
<pdfrwt beam="1">  1        1 0.29671061E+00 0.18499716E+04</pdfrwt>
<pdfrwt beam="2">  1       -1 0.68251205E-01 0.18499716E+04</pdfrwt>
<totfact> 0.68027627E+00</totfact>
</mgrwt>
</event>
<event>
12    2  0.3552864E-008  0.2134259E+04  0.7818608E-02  0.8546300E-01
          1   -1    0    0  501    0  0.00000000000E+00  0.00000000000E+00  0.15110319976E+04  0.15110319976E+04  0.00000000000E+00 0. -1.
         -1   -1    0    0    0  501 -0.00000000000E+00 -0.00000000000E+00 -0.75363443990E+03  0.75363443990E+03  0.00000000000E+00 0.  1.
         23    2    1    2    0    0  0.83954643295E+03 -0.33824209345E+02  0.55885091070E+02  0.84662536245E+03  0.87573230631E+02 0.  0.
        254    2    1    2    0    0 -0.83954643295E+03  0.33824209345E+02  0.70151246667E+03  0.14180410751E+04  0.90152008271E+03 0.  0.
         23    2    4    4    0    0 -0.60207256003E+03 -0.38630056735E+03  0.54385596364E+03  0.90306547309E+03  0.89601582680E+02 0.  0.
         23    2    4    4    0    0 -0.23747387292E+03  0.42012477670E+03  0.15765650303E+03  0.51497560200E+03  0.86288060578E+02 0.  0.
          4    1    3    3  502    0  0.28541184811E+03  0.93661457950E+01 -0.16897929815E+02  0.28606500618E+03  0.00000000000E+00 0. -1.
         -4    1    3    3    0  502  0.55413458484E+03 -0.43190355140E+02  0.72783020885E+02  0.56056035627E+03  0.00000000000E+00 0.  1.
         11    1    5    5    0    0 -0.51221691364E+03 -0.36126211652E+03  0.48773655481E+03  0.79420616363E+03  0.00000000000E+00 0.  1.
        -11    1    5    5    0    0 -0.89855646388E+02 -0.25038450836E+02  0.56119408829E+02  0.10885930946E+03  0.00000000000E+00 0. -1.
          4    1    6    6  503    0 -0.15524445322E-01  0.36713272303E+02 -0.14549066762E+01  0.36742092450E+02  0.00000000000E+00 0. -1.
         -4    1    6    6    0  503 -0.23745834847E+03  0.38341150439E+03  0.15911140971E+03  0.47823350955E+03  0.00000000000E+00 0.  1.
<mgrwt>
<rscale>  0 0.21342594E+04</rscale>
<asrwt>0</asrwt>
<pdfrwt beam="1">  1        1 0.23246646E+00 0.21342594E+04</pdfrwt>
<pdfrwt beam="2">  1       -1 0.11594376E+00 0.21342594E+04</pdfrwt>
<totfact> 0.39665678E+00</totfact>
</mgrwt>
</event>
<event>
12    2  0.3552864E-008  0.1432472E+04  0.7818608E-02  0.8930643E-01
         -1   -1    0    0    0  501 -0.00000000000E+00  0.00000000000E+00  0.26824457668E+03  0.26824457668E+03  0.00000000000E+00 0.  1.
          1   -1    0    0  501    0  0.00000000000E+00 -0.00000000000E+00 -0.19124112879E+04  0.19124112879E+04  0.00000000000E+00 0. -1.
         23    2    1    2    0    0 -0.17763104648E+03 -0.26969474992E+03 -0.78976345701E+02  0.34496275070E+03  0.92054274145E+02 0.  0.
        254    2    1    2    0    0  0.17763104648E+03  0.26969474992E+03 -0.15651903655E+04  0.18356931138E+04  0.90313912617E+03 0.  0.
         23    2    4    4    0    0  0.18881255761E+03  0.40245692966E+03 -0.16069240257E+04  0.16698269866E+04  0.92171461932E+02 0.  0.
         23    2    4    4    0    0 -0.11181511129E+02 -0.13276217975E+03  0.41733660271E+02  0.16586612728E+03  0.89549155309E+02 0.  0.
          4    1    3    3  502    0 -0.12898378661E+03 -0.12344439157E+03 -0.18880083522E+02  0.17953214913E+03  0.00000000000E+00 0.  1.
         -4    1    3    3    0  502 -0.48647259872E+02 -0.14625035835E+03 -0.60096262179E+02  0.16543060158E+03  0.00000000000E+00 0. -1.
         11    1    5    5    0    0  0.23931743064E+02  0.19240197492E+02 -0.57062237857E+02  0.64799787923E+02  0.00000000000E+00 0. -1.
        -11    1    5    5    0    0  0.16488081454E+03  0.38321673217E+03 -0.15498617879E+04  0.16050271986E+04  0.00000000000E+00 0.  1.
          4    1    6    6  503    0  0.16619402403E+02  0.50311104744E+01  0.14632980310E+02  0.22707723831E+02  0.00000000000E+00 0. -1.
         -4    1    6    6    0  503 -0.27800913532E+02 -0.13779329022E+03  0.27100679961E+02  0.14315840345E+03  0.00000000000E+00 0.  1.
<mgrwt>
<rscale>  0 0.14324719E+04</rscale>
<asrwt>0</asrwt>
<pdfrwt beam="1">  1        1 0.29421712E+00 0.14324719E+04</pdfrwt>
<pdfrwt beam="2">  1       -1 0.41268397E-01 0.14324719E+04</pdfrwt>
<totfact> 0.19124769E+01</totfact>
</mgrwt>
</event>
<event>
12    2  0.3552864E-008  0.2108166E+04  0.7818608E-02  0.8557655E-01
         -2   -1    0    0    0  501 -0.00000000000E+00  0.00000000000E+00  0.54838839356E+03  0.54838839356E+03  0.00000000000E+00 0.  1.
          2   -1    0    0  501    0  0.00000000000E+00 -0.00000000000E+00 -0.20261014365E+04  0.20261014365E+04  0.00000000000E+00 0. -1.
         23    2    1    2    0    0 -0.74541198479E+02 -0.51546936665E+02  0.43253803181E+03  0.45095654246E+03  0.89772920613E+02 0.  0.
        254    2    1    2    0    0  0.74541198479E+02  0.51546936665E+02 -0.19102510747E+04  0.21235332876E+04  0.92310399090E+03 0.  0.
         23    2    4    4    0    0  0.39153025069E+02  0.29408175136E+03 -0.18214624261E+04  0.18476717416E+04  0.90268816777E+02 0.  0.
         23    2    4    4    0    0  0.35388173410E+02 -0.24253481470E+03 -0.88788648624E+02  0.27586154594E+03  0.90225879034E+02 0.  0.
          3    1    3    3  502    0  0.17598683826E+02 -0.22086363894E+02  0.64374466147E+02  0.70296465303E+02  0.00000000000E+00 0. -1.
         -3    1    3    3    0  502 -0.92139882305E+02 -0.29460572771E+02  0.36816356566E+03  0.38066007715E+03  0.00000000000E+00 0.  1.
         11    1    5    5    0    0 -0.10129669437E+02  0.18110774320E+03 -0.12479858179E+04  0.12610992136E+04  0.00000000000E+00 0. -1.
        -11    1    5    5    0    0  0.49282694506E+02  0.11297400817E+03 -0.57347660824E+03  0.58657252808E+03  0.00000000000E+00 0.  1.
          2    1    6    6  503    0  0.62646965492E+02 -0.15236252465E+03 -0.38921950219E+02  0.16927462720E+03  0.00000000000E+00 0. -1.
         -2    1    6    6    0  503 -0.27258792082E+02 -0.90172290047E+02 -0.49866698405E+02  0.10658691875E+03  0.00000000000E+00 0.  1.
<mgrwt>
<rscale>  0 0.21081656E+04</rscale>
<asrwt>0</asrwt>
<pdfrwt beam="1">  1        2 0.31170792E+00 0.21081656E+04</pdfrwt>
<pdfrwt beam="2">  1       -2 0.84367445E-01 0.21081656E+04</pdfrwt>
<totfact> 0.72920755E+00</totfact>
</mgrwt>
</event>
<event>
12    2  0.3552864E-008  0.1008581E+04  0.7818608E-02  0.9299183E-01
         -1   -1    0    0    0  501 -0.00000000000E+00  0.00000000000E+00  0.16924135120E+03  0.16924135120E+03  0.00000000000E+00 0.  1.
          1   -1    0    0  501    0  0.00000000000E+00 -0.00000000000E+00 -0.15026401174E+04  0.15026401174E+04  0.00000000000E+00 0. -1.
         23    2    1    2    0    0  0.38384772312E+02  0.31059270054E+02 -0.58822229195E+02  0.11686059370E+03  0.88081068964E+02 0.  0.
        254    2    1    2    0    0 -0.38384772312E+02 -0.31059270054E+02 -0.12745765370E+04  0.15550208749E+04  0.88944168088E+03 0.  0.
         23    2    4    4    0    0  0.37030363443E+03 -0.18585662761E+03 -0.78636902975E+03  0.89365216557E+03  0.92576856624E+02 0.  0.
         23    2    4    4    0    0 -0.40868840674E+03  0.15479735755E+03 -0.48820750726E+03  0.66136870934E+03  0.89853012369E+02 0.  0.
          4    1    3    3  502    0  0.13484895141E+02 -0.25998154343E+02 -0.44017528587E+02  0.52870495071E+02  0.00000000000E+00 0. -1.
         -4    1    3    3    0  502  0.24899877171E+02  0.57057424397E+02 -0.14804700608E+02  0.63990098625E+02  0.00000000000E+00 0.  1.
         11    1    5    5    0    0  0.53401277625E+02 -0.67901352934E+02 -0.16325662891E+03  0.18470250963E+03  0.00000000000E+00 0.  1.
        -11    1    5    5    0    0  0.31690235681E+03 -0.11795527467E+03 -0.62311240085E+03  0.70894965594E+03  0.00000000000E+00 0. -1.
          2    1    6    6  503    0 -0.31365477632E+03  0.14864747475E+03 -0.34500361860E+03  0.48939032204E+03  0.00000000000E+00 0. -1.
         -2    1    6    6    0  503 -0.95033630418E+02  0.61498828035E+01 -0.14320388866E+03  0.17197838729E+03  0.00000000000E+00 0.  1.
<mgrwt>
<rscale>  0 0.10085809E+04</rscale>
<asrwt>0</asrwt>
<pdfrwt beam="1">  1        1 0.23117539E+00 0.10085809E+04</pdfrwt>
<pdfrwt beam="2">  1       -1 0.26037132E-01 0.10085809E+04</pdfrwt>
<totfact> 0.85253197E+01</totfact>
</mgrwt>
</event>
<event>
12    2  0.3552864E-008  0.2293416E+04  0.7818608E-02  0.8480522E-01
          2   -1    0    0  501    0  0.00000000000E+00  0.00000000000E+00  0.18126182553E+04  0.18126182553E+04  0.00000000000E+00 0.  1.
         -2   -1    0    0    0  501 -0.00000000000E+00 -0.00000000000E+00 -0.72543626298E+03  0.72543626298E+03  0.00000000000E+00 0. -1.
         23    2    1    2    0    0  0.48595859583E+02  0.91080972141E+03  0.28767520288E+03  0.96088626927E+03  0.92787358691E+02 0.  0.
        254    2    1    2    0    0 -0.48595859583E+02 -0.91080972141E+03  0.79950678942E+03  0.15771682490E+04  0.10081233422E+04 0.  0.
         23    2    4    4    0    0  0.46237857009E+03 -0.48818722064E+03  0.29903170992E+03  0.74140196908E+03  0.90200952008E+02 0.  0.
         23    2    4    4    0    0 -0.51097442967E+03 -0.42262250077E+03  0.50047507949E+03  0.83576627990E+03  0.91243210596E+02 0.  0.
          4    1    3    3  502    0  0.53225252024E+02  0.50161213867E+03  0.11907775629E+03  0.51829255942E+03  0.00000000000E+00 0. -1.
         -4    1    3    3    0  502 -0.46293924406E+01  0.40919758275E+03  0.16859744659E+03  0.44259370985E+03  0.00000000000E+00 0.  1.
         11    1    5    5    0    0  0.17726035016E+03 -0.13545208641E+03  0.73643093195E+02  0.23492936093E+03  0.00000000000E+00 0.  1.
        -11    1    5    5    0    0  0.28511821993E+03 -0.35273513423E+03  0.22538861673E+03  0.50647260815E+03  0.00000000000E+00 0. -1.
          4    1    6    6  503    0 -0.11124060129E+03 -0.57548732674E+02  0.12495143049E+03  0.17691576524E+03  0.00000000000E+00 0.  1.
         -4    1    6    6    0  503 -0.39973382839E+03 -0.36507376810E+03  0.37552364900E+03  0.65885051466E+03  0.00000000000E+00 0. -1.
<mgrwt>
<rscale>  0 0.22934158E+04</rscale>
<asrwt>0</asrwt>
<pdfrwt beam="1">  1        2 0.27886435E+00 0.22934158E+04</pdfrwt>
<pdfrwt beam="2">  1       -2 0.11160558E+00 0.22934158E+04</pdfrwt>
<totfact> 0.48856548E+00</totfact>
</mgrwt>
</event>
<event>
12    2  0.3552864E-008  0.1649792E+04  0.7818608E-02  0.8790530E-01
         -2   -1    0    0    0  501 -0.00000000000E+00  0.00000000000E+00  0.36354487622E+03  0.36354487622E+03  0.00000000000E+00 0.  1.
          2   -1    0    0  501    0  0.00000000000E+00 -0.00000000000E+00 -0.18717178927E+04  0.18717178927E+04  0.00000000000E+00 0. -1.
         23    2    1    2    0    0  0.34111222041E+03 -0.40919080725E+03 -0.83761274424E+03  0.99680985296E+03  0.90775051519E+02 0.  0.
        254    2    1    2    0    0 -0.34111222041E+03  0.40919080725E+03 -0.67056027224E+03  0.12384529160E+04  0.89460599298E+03 0.  0.
         23    2    4    4    0    0 -0.27822113200E+03  0.14358356622E+03 -0.84208433588E+03  0.90349178546E+03  0.95750398810E+02 0.  0.
         23    2    4    4    0    0 -0.62891088411E+02  0.26560724103E+03  0.17152406364E+03  0.33496113050E+03  0.90972298222E+02 0.  0.
          1    1    3    3  502    0  0.27954668861E+03 -0.37759036329E+03 -0.75246069050E+03  0.88708394434E+03  0.00000000000E+00 0. -1.
         -1    1    3    3    0  502  0.61565531800E+02 -0.31600443964E+02 -0.85152053744E+02  0.10972590862E+03  0.00000000000E+00 0.  1.
         11    1    5    5    0    0 -0.18558750002E+03  0.13697505590E+03 -0.65897203940E+03  0.69817550430E+03  0.00000000000E+00 0.  1.
        -11    1    5    5    0    0 -0.92633631985E+02  0.66085103168E+01 -0.18311229649E+03  0.20531628116E+03  0.00000000000E+00 0. -1.
          3    1    6    6  503    0  0.22719801144E+02  0.79813906854E+02  0.44493708891E+02  0.94160178537E+02  0.00000000000E+00 0. -1.
         -3    1    6    6    0  503 -0.85610889555E+02  0.18579333418E+03  0.12703035475E+03  0.24080095196E+03  0.00000000000E+00 0.  1.
<mgrwt>
<rscale>  0 0.16497920E+04</rscale>
<asrwt>0</asrwt>
<pdfrwt beam="1">  1        2 0.28795659E+00 0.16497920E+04</pdfrwt>
<pdfrwt beam="2">  1       -2 0.55929982E-01 0.16497920E+04</pdfrwt>
<totfact> 0.22578462E+01</totfact>
</mgrwt>
</event>
<event>
12    2  0.3552864E-008  0.1414869E+04  0.7818608E-02  0.8943126E-01
         -2   -1    0    0    0  501 -0.00000000000E+00  0.00000000000E+00  0.48283733461E+03  0.48283733461E+03  0.00000000000E+00 0. -1.
          2   -1    0    0  501    0  0.00000000000E+00 -0.00000000000E+00 -0.10365051534E+04  0.10365051534E+04  0.00000000000E+00 0.  1.
         23    2    1    2    0    0 -0.10070081312E+03  0.13074776898E+03 -0.60065258547E+03  0.62985785344E+03  0.93283193864E+02 0.  0.
        254    2    1    2    0    0  0.10070081312E+03 -0.13074776898E+03  0.46984766628E+02  0.88948463461E+03  0.87277701279E+03 0.  0.
         23    2    4    4    0    0 -0.26195843771E+03 -0.35004485907E+03 -0.37012776656E+02  0.44843181113E+03  0.92560883478E+02 0.  0.
         23    2    4    4    0    0  0.36265925082E+03  0.21929709009E+03  0.83997543285E+02  0.44105282348E+03  0.88651338909E+02 0.  0.
          2    1    3    3  502    0 -0.11713398413E+02  0.53059923527E+02 -0.85274656079E+02  0.10111541008E+03  0.00000000000E+00 0. -1.
         -2    1    3    3    0  502 -0.88987414705E+02  0.77687845456E+02 -0.51537792939E+03  0.52874244336E+03  0.00000000000E+00 0.  1.
         11    1    5    5    0    0 -0.18384914755E+03 -0.29566631400E+03 -0.52190217314E+02  0.35205524719E+03  0.00000000000E+00 0. -1.
        -11    1    5    5    0    0 -0.78109290155E+02 -0.54378545077E+02  0.15177440658E+02  0.96376563947E+02  0.00000000000E+00 0.  1.
          3    1    6    6  503    0  0.27315580393E+03  0.13495746440E+03  0.90701194604E+02  0.31789041684E+03  0.00000000000E+00 0. -1.
         -3    1    6    6    0  503  0.89503446894E+02  0.84339625688E+02 -0.67036513188E+01  0.12316240664E+03  0.00000000000E+00 0.  1.
<mgrwt>
<rscale>  0 0.14148687E+04</rscale>
<asrwt>0</asrwt>
<pdfrwt beam="1">  1        2 0.15946233E+00 0.14148687E+04</pdfrwt>
<pdfrwt beam="2">  1       -2 0.74282667E-01 0.14148687E+04</pdfrwt>
<totfact> 0.37868969E+01</totfact>
</mgrwt>
</event>
<event>
12    2  0.3552864E-008  0.2000458E+04  0.7818608E-02  0.8606407E-01
         -1   -1    0    0    0  501 -0.00000000000E+00  0.00000000000E+00  0.39289736817E+03  0.39289736817E+03  0.00000000000E+00 0.  1.
          1   -1    0    0  501    0  0.00000000000E+00 -0.00000000000E+00 -0.25463599056E+04  0.25463599056E+04  0.00000000000E+00 0. -1.
         23    2    1    2    0    0 -0.11925883329E+03 -0.74805043800E+03 -0.12091168282E+04  0.14301819519E+04  0.98258760205E+02 0.  0.
        254    2    1    2    0    0  0.11925883329E+03  0.74805043800E+03 -0.94434570921E+03  0.15090753219E+04  0.90095359573E+03 0.  0.
         23    2    4    4    0    0 -0.20249946956E+03  0.31076626887E+03 -0.87399735304E+03  0.95391064107E+03  0.92154375838E+02 0.  0.
         23    2    4    4    0    0  0.32175830285E+03  0.43728416913E+03 -0.70348356174E+02  0.55516468087E+03  0.92266362442E+02 0.  0.
          3    1    3    3  502    0  0.77291227650E+01 -0.75764922031E+02 -0.16700239576E+03  0.18354798538E+03  0.00000000000E+00 0. -1.
         -3    1    3    3    0  502 -0.12698795606E+03 -0.67228551597E+03 -0.10421144325E+04  0.12466339665E+04  0.00000000000E+00 0.  1.
         11    1    5    5    0    0 -0.14219987406E+03  0.27706609180E+03 -0.67820284966E+03  0.74628783234E+03  0.00000000000E+00 0. -1.
        -11    1    5    5    0    0 -0.60299595497E+02  0.33700177067E+02 -0.19579450338E+03  0.20762280873E+03  0.00000000000E+00 0.  1.
          2    1    6    6  503    0  0.28274485574E+03  0.40532837127E+03 -0.38896754023E+02  0.49573047060E+03  0.00000000000E+00 0. -1.
         -2    1    6    6    0  503  0.39013447114E+02  0.31955797859E+02 -0.31451602151E+02  0.59434210270E+02  0.00000000000E+00 0.  1.
<mgrwt>
<rscale>  0 0.20004581E+04</rscale>
<asrwt>0</asrwt>
<pdfrwt beam="1">  1        1 0.39174768E+00 0.20004581E+04</pdfrwt>
<pdfrwt beam="2">  1       -1 0.60445748E-01 0.20004581E+04</pdfrwt>
<totfact> 0.32401159E+00</totfact>
</mgrwt>
</event>
<event>
12    2  0.3552864E-008  0.1771436E+04  0.7818608E-02  0.8721639E-01
          2   -1    0    0  501    0  0.00000000000E+00  0.00000000000E+00  0.25606109647E+04  0.25606109647E+04  0.00000000000E+00 0. -1.
         -2   -1    0    0    0  501 -0.00000000000E+00 -0.00000000000E+00 -0.30637067376E+03  0.30637067376E+03  0.00000000000E+00 0.  1.
         23    2    1    2    0    0  0.12060237829E+03 -0.41966845721E+03  0.51093189835E+02  0.45048185649E+03  0.98269228921E+02 0.  0.
        254    2    1    2    0    0 -0.12060237829E+03  0.41966845721E+03  0.22031471011E+04  0.24164997820E+04  0.89159828371E+03 0.  0.
         23    2    4    4    0    0  0.12353425554E+03  0.18749438960E+02 -0.79513829695E+01  0.15419854624E+03  0.90009518484E+02 0.  0.
         23    2    4    4    0    0 -0.24413663383E+03  0.40091901825E+03  0.22110984841E+04  0.22623012357E+04  0.93336058034E+02 0.  0.
          4    1    3    3  502    0  0.71682813602E+02 -0.96756046791E+02  0.23803821968E+02  0.12274681379E+03  0.00000000000E+00 0. -1.
         -4    1    3    3    0  502  0.48919564691E+02 -0.32291241042E+03  0.27289367867E+02  0.32773504270E+03  0.00000000000E+00 0.  1.
         11    1    5    5    0    0  0.11504199435E+03  0.15731205154E+02  0.26070303763E+02  0.11900332776E+03  0.00000000000E+00 0.  1.
        -11    1    5    5    0    0  0.84922611878E+01  0.30182338067E+01 -0.34021686733E+02  0.35195218476E+02  0.00000000000E+00 0. -1.
          4    1    6    6  503    0 -0.97000466679E+02  0.15712857843E+03  0.66311630994E+03  0.68834709355E+03  0.00000000000E+00 0. -1.
         -4    1    6    6    0  503 -0.14713616716E+03  0.24379043982E+03  0.15479821741E+04  0.15739541422E+04  0.00000000000E+00 0.  1.
<mgrwt>
<rscale>  0 0.17714357E+04</rscale>
<asrwt>0</asrwt>
<pdfrwt beam="1">  1        2 0.39394013E+00 0.17714357E+04</pdfrwt>
<pdfrwt beam="2">  1       -2 0.47133951E-01 0.17714357E+04</pdfrwt>
<totfact> 0.12976429E+01</totfact>
</mgrwt>
</event>
<event>
12    2  0.3552864E-008  0.1462073E+04  0.7818608E-02  0.8910073E-01
          1   -1    0    0  501    0  0.00000000000E+00  0.00000000000E+00  0.14181507400E+04  0.14181507400E+04  0.00000000000E+00 0. -1.
         -1   -1    0    0    0  501 -0.00000000000E+00 -0.00000000000E+00 -0.37683915620E+03  0.37683915620E+03  0.00000000000E+00 0.  1.
         23    2    1    2    0    0  0.40034644524E+03 -0.19575070098E+03  0.35913067061E+03  0.57960504686E+03  0.91496221940E+02 0.  0.
        254    2    1    2    0    0 -0.40034644524E+03  0.19575070098E+03  0.68218091315E+03  0.12153848493E+04  0.90177265454E+03 0.  0.
         23    2    4    4    0    0  0.14825261576E+03  0.26247513697E+03 -0.21191977370E+02  0.31620545645E+03  0.93084666742E+02 0.  0.
         23    2    4    4    0    0 -0.54859906099E+03 -0.66724435988E+02  0.70337289052E+03  0.89917939284E+03  0.91526374953E+02 0.  0.
          4    1    3    3  502    0  0.38011682530E+03 -0.18435578741E+03  0.36182483371E+03  0.55623112779E+03  0.00000000000E+00 0. -1.
         -4    1    3    3    0  502  0.20229619932E+02 -0.11394913570E+02 -0.26941631077E+01  0.23373919071E+02  0.00000000000E+00 0.  1.
         11    1    5    5    0    0  0.11892459041E+03  0.13954229632E+03  0.17123790321E+02  0.18414215938E+03  0.00000000000E+00 0. -1.
        -11    1    5    5    0    0  0.29328025347E+02  0.12293284065E+03 -0.38315767690E+02  0.13206329708E+03  0.00000000000E+00 0.  1.
          4    1    6    6  503    0 -0.52700984358E+02 -0.34662814051E+02  0.72630897555E+02  0.96198501599E+02  0.00000000000E+00 0.  1.
         -4    1    6    6    0  503 -0.49589807664E+03 -0.32061621938E+02  0.63074199296E+03  0.80298089124E+03  0.00000000000E+00 0. -1.
<mgrwt>
<rscale>  0 0.14620735E+04</rscale>
<asrwt>0</asrwt>
<pdfrwt beam="1">  1        1 0.21817703E+00 0.14620735E+04</pdfrwt>
<pdfrwt beam="2">  1       -1 0.57975255E-01 0.14620735E+04</pdfrwt>
<totfact> 0.21817758E+01</totfact>
</mgrwt>
</event>
<event>
12    2  0.3552864E-008  0.2660377E+04  0.7818608E-02  0.8347977E-01
          2   -1    0    0  501    0  0.00000000000E+00  0.00000000000E+00  0.26090868717E+04  0.26090868717E+04  0.00000000000E+00 0. -1.
         -2   -1    0    0    0  501 -0.00000000000E+00 -0.00000000000E+00 -0.67816885094E+03  0.67816885094E+03  0.00000000000E+00 0.  1.
         23    2    1    2    0    0  0.36246444610E+03 -0.10990583001E+04  0.66089372119E+03  0.13354948810E+04  0.86350708955E+02 0.  0.
        254    2    1    2    0    0 -0.36246444610E+03  0.10990583001E+04  0.12700242996E+04  0.19517608416E+04  0.92579643527E+03 0.  0.
         23    2    4    4    0    0 -0.22256577655E+03  0.69936757191E+03  0.13244396175E+04  0.15169851589E+04  0.91940994497E+02 0.  0.
         23    2    4    4    0    0 -0.13989866955E+03  0.39969072817E+03 -0.54415317933E+02  0.43477568265E+03  0.82125218255E+02 0.  0.
          3    1    3    3  502    0  0.24792180425E+03 -0.79667863288E+03  0.51716721162E+03  0.98164351467E+03  0.00000000000E+00 0. -1.
         -3    1    3    3    0  502  0.11454264185E+03 -0.30237966720E+03  0.14372650957E+03  0.35385136638E+03  0.00000000000E+00 0.  1.
         11    1    5    5    0    0 -0.16201629866E+03  0.58130615142E+03  0.10246952451E+04  0.11891873141E+04  0.00000000000E+00 0. -1.
        -11    1    5    5    0    0 -0.60549477882E+02  0.11806142049E+03  0.29974437240E+03  0.32779784482E+03  0.00000000000E+00 0.  1.
          1    1    6    6  503    0 -0.64449501300E+02  0.25999272702E+03 -0.65056462224E+02  0.27564887012E+03  0.00000000000E+00 0. -1.
         -1    1    6    6    0  503 -0.75449168254E+02  0.13969800115E+03  0.10641144291E+02  0.15912681253E+03  0.00000000000E+00 0.  1.
<mgrwt>
<rscale>  0 0.26603770E+04</rscale>
<asrwt>0</asrwt>
<pdfrwt beam="1">  1        2 0.40139798E+00 0.26603770E+04</pdfrwt>
<pdfrwt beam="2">  1       -2 0.10433367E+00 0.26603770E+04</pdfrwt>
<totfact> 0.19742980E+00</totfact>
</mgrwt>
</event>
<event>
12    2  0.3552864E-008  0.3214531E+04  0.7818608E-02  0.8184990E-01
          1   -1    0    0  501    0  0.00000000000E+00  0.00000000000E+00  0.18076678229E+04  0.18076678229E+04  0.00000000000E+00 0. -1.
         -1   -1    0    0    0  501 -0.00000000000E+00 -0.00000000000E+00 -0.14290799068E+04  0.14290799068E+04  0.00000000000E+00 0.  1.
         23    2    1    2    0    0 -0.87556223590E+03 -0.11830082161E+04  0.33075917995E+03  0.15109253477E+04  0.85884242153E+02 0.  0.
        254    2    1    2    0    0  0.87556223590E+03  0.11830082161E+04  0.47828736132E+02  0.17258223820E+04  0.90003202049E+03 0.  0.
         23    2    4    4    0    0  0.67722154669E+03  0.12113928862E+04 -0.18761979766E+03  0.14034158005E+04  0.90955882774E+02 0.  0.
         23    2    4    4    0    0  0.19834068921E+03 -0.28384670114E+02  0.23544853380E+03  0.32240658147E+03  0.91461867551E+02 0.  0.
          3    1    3    3  502    0 -0.42683254409E+03 -0.51148077573E+03  0.13114909104E+03  0.67896884223E+03  0.00000000000E+00 0. -1.
         -3    1    3    3    0  502 -0.44872969181E+03 -0.67152744037E+03  0.19961008891E+03  0.83195650552E+03  0.00000000000E+00 0.  1.
         11    1    5    5    0    0  0.39054169248E+03  0.73604454873E+03 -0.15354210467E+03  0.84726593770E+03  0.00000000000E+00 0.  1.
        -11    1    5    5    0    0  0.28667985421E+03  0.47534833748E+03 -0.34077692998E+02  0.55614986282E+03  0.00000000000E+00 0. -1.
          1    1    6    6  503    0  0.77938640349E+02 -0.50173562421E+02  0.13674719760E+03  0.16520173751E+03  0.00000000000E+00 0. -1.
         -1    1    6    6    0  503  0.12040204886E+03  0.21788892307E+02  0.98701336200E+02  0.15720484396E+03  0.00000000000E+00 0.  1.
<mgrwt>
<rscale>  0 0.32145306E+04</rscale>
<asrwt>0</asrwt>
<pdfrwt beam="1">  1        1 0.27810274E+00 0.32145306E+04</pdfrwt>
<pdfrwt beam="2">  1       -1 0.21985845E+00 0.32145306E+04</pdfrwt>
<totfact> 0.37101071E-01</totfact>
</mgrwt>
</event>
<event>
12    2  0.3552864E-008  0.1272962E+04  0.7818608E-02  0.9051286E-01
          1   -1    0    0  501    0  0.00000000000E+00  0.00000000000E+00  0.15335871781E+04  0.15335871781E+04  0.00000000000E+00 0. -1.
         -1   -1    0    0    0  501 -0.00000000000E+00 -0.00000000000E+00 -0.26415722895E+03  0.26415722895E+03  0.00000000000E+00 0.  1.
         23    2    1    2    0    0 -0.79062631002E+02 -0.18284287934E+03 -0.11429994391E+02  0.21921824860E+03  0.90794149602E+02 0.  0.
        254    2    1    2    0    0  0.79062631002E+02  0.18284287934E+03  0.12808599435E+04  0.15785261584E+04  0.90081086795E+03 0.  0.
         23    2    4    4    0    0 -0.26194017757E+02 -0.27369394487E+03  0.10279547023E+03  0.30718804491E+03  0.90570879471E+02 0.  0.
         23    2    4    4    0    0  0.10525664876E+03  0.45653682421E+03  0.11780644733E+04  0.12713381135E+04  0.94656546155E+02 0.  0.
          4    1    3    3  502    0 -0.45209989364E+02 -0.15479096442E+02 -0.78545439951E+01  0.48427672113E+02  0.00000000000E+00 0. -1.
         -4    1    3    3    0  502 -0.33852641638E+02 -0.16736378289E+03 -0.35754503961E+01  0.17079057649E+03  0.00000000000E+00 0.  1.
         11    1    5    5    0    0 -0.17337917539E+02 -0.14024053108E+03  0.10053446241E+03  0.17342199420E+03  0.00000000000E+00 0. -1.
        -11    1    5    5    0    0 -0.88561002184E+01 -0.13345341379E+03  0.22610078208E+01  0.13376605070E+03  0.00000000000E+00 0.  1.
          1    1    6    6  503    0  0.32093832233E+02  0.32292632941E+02  0.82586787096E+02  0.94304854660E+02  0.00000000000E+00 0. -1.
         -1    1    6    6    0  503  0.73162816527E+02  0.42424419127E+03  0.10954776862E+04  0.11770332589E+04  0.00000000000E+00 0.  1.
<mgrwt>
<rscale>  0 0.12729621E+04</rscale>
<asrwt>0</asrwt>
<pdfrwt beam="1">  1        1 0.23593648E+00 0.12729621E+04</pdfrwt>
<pdfrwt beam="2">  1       -1 0.40639575E-01 0.12729621E+04</pdfrwt>
<totfact> 0.36108889E+01</totfact>
</mgrwt>
</event>
<event>
12    2  0.3552864E-008  0.1585816E+04  0.7818608E-02  0.8829310E-01
         -1   -1    0    0    0  501 -0.00000000000E+00  0.00000000000E+00  0.35241413777E+03  0.35241413777E+03  0.00000000000E+00 0.  1.
          1   -1    0    0  501    0  0.00000000000E+00 -0.00000000000E+00 -0.17839889054E+04  0.17839889054E+04  0.00000000000E+00 0. -1.
         23    2    1    2    0    0 -0.39489916026E+03  0.21079067643E+03 -0.87232870162E+03  0.98469134010E+03  0.91003382080E+02 0.  0.
        254    2    1    2    0    0  0.39489916026E+03 -0.21079067643E+03 -0.55924606601E+03  0.11517117031E+04  0.90183459050E+03 0.  0.
         23    2    4    4    0    0  0.28351854106E+03 -0.47439239439E+03 -0.51952877658E+02  0.56239102625E+03  0.90297607549E+02 0.  0.
         23    2    4    4    0    0  0.11138061920E+03  0.26360171797E+03 -0.50729318835E+03  0.58932067682E+03  0.89782922318E+02 0.  0.
          2    1    3    3  502    0 -0.15548920238E+02  0.23205470113E+02 -0.10217289220E+03  0.10592243702E+03  0.00000000000E+00 0.  1.
         -2    1    3    3    0  502 -0.37935024002E+03  0.18758520631E+03 -0.77015580942E+03  0.87876890308E+03  0.00000000000E+00 0. -1.
         11    1    5    5    0    0  0.23516685087E+03 -0.32296620550E+03 -0.18440083571E+02  0.39993831315E+03  0.00000000000E+00 0.  1.
        -11    1    5    5    0    0  0.48351690192E+02 -0.15142618889E+03 -0.33512794087E+02  0.16245271310E+03  0.00000000000E+00 0. -1.
          1    1    6    6  503    0  0.46324373845E+01  0.11310676724E+03 -0.15910896964E+03  0.19526972241E+03  0.00000000000E+00 0. -1.
         -1    1    6    6    0  503  0.10674818181E+03  0.15049495073E+03 -0.34818421871E+03  0.39405095441E+03  0.00000000000E+00 0.  1.
<mgrwt>
<rscale>  0 0.15858158E+04</rscale>
<asrwt>0</asrwt>
<pdfrwt beam="1">  1        1 0.27445984E+00 0.15858158E+04</pdfrwt>
<pdfrwt beam="2">  1       -1 0.54217559E-01 0.15858158E+04</pdfrwt>
<totfact> 0.13787550E+01</totfact>
</mgrwt>
</event>
<event>
12    2  0.3552864E-008  0.1765752E+04  0.7818608E-02  0.8724727E-01
          2   -1    0    0  501    0  0.00000000000E+00  0.00000000000E+00  0.12987903424E+04  0.12987903424E+04  0.00000000000E+00 0. -1.
         -2   -1    0    0    0  501 -0.00000000000E+00 -0.00000000000E+00 -0.60015099430E+03  0.60015099430E+03  0.00000000000E+00 0.  1.
         23    2    1    2    0    0  0.37019759730E+03  0.16872230875E+03 -0.29193179133E+03  0.50939801479E+03  0.93534422369E+02 0.  0.
        254    2    1    2    0    0 -0.37019759730E+03 -0.16872230875E+03  0.99057113940E+03  0.13895433219E+04  0.88548629727E+03 0.  0.
         23    2    4    4    0    0 -0.56625957903E+03  0.14481427702E+03  0.61019017058E+03  0.85093697866E+03  0.10070060431E+03 0.  0.
         23    2    4    4    0    0  0.19606198173E+03 -0.31353658578E+03  0.38038096881E+03  0.53860634321E+03  0.93067825870E+02 0.  0.
          3    1    3    3  502    0  0.10329466958E+03  0.39003403118E+02 -0.32149477064E+02  0.11499844822E+03  0.00000000000E+00 0. -1.
         -3    1    3    3    0  502  0.26690292772E+03  0.12971890564E+03 -0.25978231426E+03  0.39439956657E+03  0.00000000000E+00 0.  1.
         11    1    5    5    0    0 -0.78944221418E+01 -0.93841698379E+01  0.23256579815E+02  0.26291691638E+02  0.00000000000E+00 0. -1.
        -11    1    5    5    0    0 -0.55836515689E+03  0.15419844686E+03  0.58693359077E+03  0.82464528703E+03  0.00000000000E+00 0.  1.
          1    1    6    6  503    0  0.14475940725E+03 -0.14713166618E+03  0.22345307466E+03  0.30419449330E+03  0.00000000000E+00 0. -1.
         -1    1    6    6    0  503  0.51302574481E+02 -0.16640491960E+03  0.15692789415E+03  0.23441184991E+03  0.00000000000E+00 0.  1.
<mgrwt>
<rscale>  0 0.17657523E+04</rscale>
<asrwt>0</asrwt>
<pdfrwt beam="1">  1        2 0.19981390E+00 0.17657523E+04</pdfrwt>
<pdfrwt beam="2">  1       -2 0.92330923E-01 0.17657523E+04</pdfrwt>
<totfact> 0.15614629E+01</totfact>
</mgrwt>
</event>
<event>
12    2  0.3552864E-008  0.1807957E+04  0.7818608E-02  0.8702079E-01
         -1   -1    0    0    0  501 -0.00000000000E+00  0.00000000000E+00  0.83192573673E+03  0.83192573673E+03  0.00000000000E+00 0.  1.
          1   -1    0    0  501    0  0.00000000000E+00 -0.00000000000E+00 -0.98227197747E+03  0.98227197747E+03  0.00000000000E+00 0. -1.
         23    2    1    2    0    0  0.13883093336E+03  0.28969887902E+03 -0.64999195692E+03  0.73119025925E+03  0.94605404652E+02 0.  0.
        254    2    1    2    0    0 -0.13883093336E+03 -0.28969887902E+03  0.49964571619E+03  0.10830074550E+04  0.90557155279E+03 0.  0.
         23    2    4    4    0    0  0.59044457973E+02 -0.52191152488E+03  0.54425241154E+03  0.76175845663E+03  0.90484092285E+02 0.  0.
         23    2    4    4    0    0 -0.19787539133E+03  0.23221264586E+03 -0.44606695355E+02  0.32124899833E+03  0.90187461773E+02 0.  0.
          2    1    3    3  502    0  0.12269249996E+03  0.20099311231E+03 -0.53898583630E+03  0.58818144520E+03  0.00000000000E+00 0. -1.
         -2    1    3    3    0  502  0.16138433396E+02  0.88705766705E+02 -0.11100612062E+03  0.14300881405E+03  0.00000000000E+00 0.  1.
         11    1    5    5    0    0  0.78157800226E+01 -0.39782100149E+03  0.42500444038E+03  0.58219533662E+03  0.00000000000E+00 0. -1.
        -11    1    5    5    0    0  0.51228677950E+02 -0.12409052340E+03  0.11924797116E+03  0.17956312001E+03  0.00000000000E+00 0.  1.
          2    1    6    6  503    0 -0.16151600949E+03  0.16633263519E+03  0.36130478037E+01  0.23187716784E+03  0.00000000000E+00 0.  1.
         -2    1    6    6    0  503 -0.36359381844E+02  0.65880010677E+02 -0.48219743159E+02  0.89371830490E+02  0.00000000000E+00 0. -1.
<mgrwt>
<rscale>  0 0.18079572E+04</rscale>
<asrwt>0</asrwt>
<pdfrwt beam="1">  1        1 0.15111877E+00 0.18079572E+04</pdfrwt>
<pdfrwt beam="2">  1       -1 0.12798858E+00 0.18079572E+04</pdfrwt>
<totfact> 0.77728073E+00</totfact>
</mgrwt>
</event>
<event>
12    2  0.3552864E-008  0.1846245E+04  0.7818608E-02  0.8682086E-01
         -4   -1    0    0    0  501 -0.00000000000E+00  0.00000000000E+00  0.64743071337E+03  0.64743071337E+03  0.00000000000E+00 0.  1.
          4   -1    0    0  501    0  0.00000000000E+00 -0.00000000000E+00 -0.13162104739E+04  0.13162104739E+04  0.00000000000E+00 0. -1.
         23    2    1    2    0    0 -0.15839828798E+03  0.64135133411E+03 -0.14013694304E+02  0.66684537195E+03  0.89804315449E+02 0.  0.
        254    2    1    2    0    0  0.15839828798E+03 -0.64135133411E+03 -0.65476606621E+03  0.12967958153E+04  0.90362560483E+03 0.  0.
         23    2    4    4    0    0 -0.11207819443E+03 -0.10806297197E+03  0.18681093544E+03  0.25986353990E+03  0.91605710465E+02 0.  0.
         23    2    4    4    0    0  0.27047648241E+03 -0.53328836214E+03 -0.84157700165E+03  0.10369322754E+04  0.97070537920E+02 0.  0.
          4    1    3    3  502    0 -0.28997054714E+02  0.24705267939E+03 -0.35661417853E+02  0.25129184686E+03  0.00000000000E+00 0. -1.
         -4    1    3    3    0  502 -0.12940123326E+03  0.39429865472E+03  0.21647723548E+02  0.41555352509E+03  0.00000000000E+00 0.  1.
         11    1    5    5    0    0 -0.64131624242E+02 -0.88406184368E+02  0.64048887258E+02  0.12661271114E+03  0.00000000000E+00 0.  1.
        -11    1    5    5    0    0 -0.47946570190E+02 -0.19656787604E+02  0.12276204818E+03  0.13325082876E+03  0.00000000000E+00 0. -1.
          2    1    6    6  503    0  0.11656462932E+03 -0.29268062135E+03 -0.37383728423E+03  0.48887991777E+03  0.00000000000E+00 0. -1.
         -2    1    6    6    0  503  0.15391185309E+03 -0.24060774079E+03 -0.46773971741E+03  0.54805235762E+03  0.00000000000E+00 0.  1.
<mgrwt>
<rscale>  0 0.18462449E+04</rscale>
<asrwt>0</asrwt>
<pdfrwt beam="1">  1        4 0.20249392E+00 0.18462449E+04</pdfrwt>
<pdfrwt beam="2">  1       -4 0.99604725E-01 0.18462449E+04</pdfrwt>
<totfact> 0.19872297E-01</totfact>
</mgrwt>
</event>
<event>
12    2  0.3552864E-008  0.1675073E+04  0.7818608E-02  0.8775710E-01
          2   -1    0    0  501    0  0.00000000000E+00  0.00000000000E+00  0.22997935067E+04  0.22997935067E+04  0.00000000000E+00 0. -1.
         -2   -1    0    0    0  501 -0.00000000000E+00 -0.00000000000E+00 -0.30501334167E+03  0.30501334167E+03  0.00000000000E+00 0.  1.
         23    2    1    2    0    0  0.37556407700E+03 -0.35489600036E+03  0.27606096128E+03  0.59256150287E+03  0.88994007298E+02 0.  0.
        254    2    1    2    0    0 -0.37556407700E+03  0.35489600036E+03  0.17187192038E+04  0.20122453455E+04  0.91001982511E+03 0.  0.
         23    2    4    4    0    0  0.18209662573E+03  0.13861918962E+03  0.68045610896E+02  0.25418281394E+03  0.87202275821E+02 0.  0.
         23    2    4    4    0    0 -0.55766070273E+03  0.21627681074E+03  0.16506735929E+04  0.17580625316E+04  0.91101242868E+02 0.  0.
          1    1    3    3  502    0  0.31023785275E+03 -0.25874631679E+03  0.18223762160E+03  0.44317912006E+03  0.00000000000E+00 0. -1.
         -1    1    3    3    0  502  0.65326224255E+02 -0.96149683578E+02  0.93823339673E+02  0.14938238281E+03  0.00000000000E+00 0.  1.
         11    1    5    5    0    0 -0.34014927419E+01  0.13839054638E+02  0.21552957966E+02  0.25838335535E+02  0.00000000000E+00 0.  1.
        -11    1    5    5    0    0  0.18549811847E+03  0.12478013498E+03  0.46492652930E+02  0.22834447840E+03  0.00000000000E+00 0. -1.
          2    1    6    6  503    0 -0.44894508448E+03  0.20148767491E+03  0.14144116597E+04  0.14975677999E+04  0.00000000000E+00 0. -1.
         -2    1    6    6    0  503 -0.10871561825E+03  0.14789135836E+02  0.23626193315E+03  0.26049473170E+03  0.00000000000E+00 0.  1.
<mgrwt>
<rscale>  0 0.16750734E+04</rscale>
<asrwt>0</asrwt>
<pdfrwt beam="1">  1        2 0.35381438E+00 0.16750734E+04</pdfrwt>
<pdfrwt beam="2">  1       -2 0.46925131E-01 0.16750734E+04</pdfrwt>
<totfact> 0.18628875E+01</totfact>
</mgrwt>
</event>
<event>
12    2  0.3552864E-008  0.1363023E+04  0.7818608E-02  0.8981028E-01
          2   -1    0    0  501    0  0.00000000000E+00  0.00000000000E+00  0.19985484734E+04  0.19985484734E+04  0.00000000000E+00 0. -1.
         -2   -1    0    0    0  501 -0.00000000000E+00 -0.00000000000E+00 -0.23239749151E+03  0.23239749151E+03  0.00000000000E+00 0.  1.
         23    2    1    2    0    0  0.14990591353E+03  0.85700878237E+02 -0.48030988357E+02  0.20026074892E+03  0.89336265169E+02 0.  0.
        254    2    1    2    0    0 -0.14990591353E+03 -0.85700878237E+02  0.18141819702E+04  0.20306852160E+04  0.89588492666E+03 0.  0.
         23    2    4    4    0    0  0.20495930318E+03 -0.33244843161E+03  0.12559393807E+04  0.13188220117E+04  0.96837465847E+02 0.  0.
         23    2    4    4    0    0 -0.35486521671E+03  0.24674755338E+03  0.55824258948E+03  0.71186320427E+03  0.91108483441E+02 0.  0.
          3    1    3    3  502    0  0.11087860193E+03  0.14238926089E+02 -0.38723560465E+02  0.11830606712E+03  0.00000000000E+00 0.  1.
         -3    1    3    3    0  502  0.39027311602E+02  0.71461952148E+02 -0.93074278916E+01  0.81954681804E+02  0.00000000000E+00 0. -1.
         11    1    5    5    0    0  0.65785048133E+02 -0.76837714691E+02  0.46907292608E+03  0.47985530834E+03  0.00000000000E+00 0.  1.
        -11    1    5    5    0    0  0.13917425505E+03 -0.25561071692E+03  0.78686645465E+03  0.83896670335E+03  0.00000000000E+00 0. -1.
          1    1    6    6  503    0 -0.30081863705E+03  0.16743484440E+03  0.41155150871E+03  0.53656399789E+03  0.00000000000E+00 0. -1.
         -1    1    6    6    0  503 -0.54046579665E+02  0.79312708977E+02  0.14669108077E+03  0.17529920638E+03  0.00000000000E+00 0.  1.
<mgrwt>
<rscale>  0 0.13630226E+04</rscale>
<asrwt>0</asrwt>
<pdfrwt beam="1">  1        2 0.30746898E+00 0.13630226E+04</pdfrwt>
<pdfrwt beam="2">  1       -2 0.35753462E-01 0.13630226E+04</pdfrwt>
<totfact> 0.48071336E+01</totfact>
</mgrwt>
</event>
<event>
12    2  0.3552864E-008  0.1522774E+04  0.7818608E-02  0.8869448E-01
          1   -1    0    0  501    0  0.00000000000E+00  0.00000000000E+00  0.49024433270E+03  0.49024433270E+03  0.00000000000E+00 0. -1.
         -1   -1    0    0    0  501 -0.00000000000E+00 -0.00000000000E+00 -0.11824917948E+04  0.11824917948E+04  0.00000000000E+00 0.  1.
         23    2    1    2    0    0  0.45752024511E+03 -0.12071426518E+03 -0.37061305864E+03  0.60781626242E+03  0.90497851523E+02 0.  0.
        254    2    1    2    0    0 -0.45752024511E+03  0.12071426518E+03 -0.32163440348E+03  0.10649198651E+04  0.89816976182E+03 0.  0.
         23    2    4    4    0    0 -0.21709231386E+03 -0.14247964209E+03  0.25871530891E+03  0.37773212062E+03  0.91205387619E+02 0.  0.
         23    2    4    4    0    0 -0.24042793125E+03  0.26319390727E+03 -0.58034971239E+03  0.68718774447E+03  0.91348697462E+02 0.  0.
          1    1    3    3  502    0  0.39083900012E+02  0.14815885878E+02 -0.28451283686E+02  0.50562211758E+02  0.00000000000E+00 0. -1.
         -1    1    3    3    0  502  0.41843634510E+03 -0.13553015106E+03 -0.34216177495E+03  0.55725405066E+03  0.00000000000E+00 0.  1.
         11    1    5    5    0    0 -0.19115946237E+03 -0.88936598758E+02  0.16960536071E+03  0.27058757738E+03  0.00000000000E+00 0. -1.
        -11    1    5    5    0    0 -0.25932851494E+02 -0.53543043334E+02  0.89109948207E+02  0.10714454324E+03  0.00000000000E+00 0.  1.
          3    1    6    6  503    0 -0.23668059103E+02 -0.39273459353E+01 -0.37499243452E+02  0.44517348610E+02  0.00000000000E+00 0. -1.
         -3    1    6    6    0  503 -0.21675987214E+03  0.26712125321E+03 -0.54285046894E+03  0.64267039586E+03  0.00000000000E+00 0.  1.
<mgrwt>
<rscale>  0 0.15227737E+04</rscale>
<asrwt>0</asrwt>
<pdfrwt beam="1">  1        1 0.75422206E-01 0.15227737E+04</pdfrwt>
<pdfrwt beam="2">  1       -1 0.18192181E+00 0.15227737E+04</pdfrwt>
<totfact> 0.88646865E+00</totfact>
</mgrwt>
</event>
<event>
12    2  0.3552864E-008  0.2338742E+04  0.7818608E-02  0.8462800E-01
         -2   -1    0    0    0  501 -0.00000000000E+00  0.00000000000E+00  0.42741070446E+03  0.42741070446E+03  0.00000000000E+00 0. -1.
          2   -1    0    0  501    0  0.00000000000E+00 -0.00000000000E+00 -0.31993316056E+04  0.31993316056E+04  0.00000000000E+00 0.  1.
         23    2    1    2    0    0 -0.58777200990E+02  0.80259868254E+03 -0.28186680823E+03  0.85745661022E+03  0.90352289684E+02 0.  0.
        254    2    1    2    0    0  0.58777200990E+02 -0.80259868254E+03 -0.24900540929E+04  0.27692856999E+04  0.90606539343E+03 0.  0.
         23    2    4    4    0    0 -0.16555738527E+03 -0.50626150161E+03 -0.22581204435E+04  0.23219160641E+04  0.92066906644E+02 0.  0.
         23    2    4    4    0    0  0.22433458626E+03 -0.29633718094E+03 -0.23193364939E+03  0.44736963578E+03  0.90579478352E+02 0.  0.
          3    1    3    3  502    0 -0.53053082786E+02  0.41868277616E+03 -0.18904846404E+03  0.46243834011E+03  0.00000000000E+00 0. -1.
         -3    1    3    3    0  502 -0.57241182042E+01  0.38391590638E+03 -0.92818344187E+02  0.39501827011E+03  0.00000000000E+00 0.  1.
         11    1    5    5    0    0 -0.12161173767E+03 -0.27382879937E+03 -0.11133625028E+04  0.11529734120E+04  0.00000000000E+00 0.  1.
        -11    1    5    5    0    0 -0.43945647600E+02 -0.23243270224E+03 -0.11447579408E+04  0.11689426521E+04  0.00000000000E+00 0. -1.
          4    1    6    6  503    0  0.41207766041E+01  0.36462156547E+01 -0.16458061212E+02  0.17353485739E+02  0.00000000000E+00 0. -1.
         -4    1    6    6    0  503  0.22021380965E+03 -0.29998339659E+03 -0.21547558818E+03  0.43001615004E+03  0.00000000000E+00 0.  1.
<mgrwt>
<rscale>  0 0.23387420E+04</rscale>
<asrwt>0</asrwt>
<pdfrwt beam="1">  1        2 0.49220488E+00 0.23387420E+04</pdfrwt>
<pdfrwt beam="2">  1       -2 0.65755491E-01 0.23387420E+04</pdfrwt>
<totfact> 0.25011936E+00</totfact>
</mgrwt>
</event>
<event>
12    2  0.3552864E-008  0.1558360E+04  0.7818608E-02  0.8846546E-01
          2   -1    0    0  501    0  0.00000000000E+00  0.00000000000E+00  0.31414661456E+03  0.31414661456E+03  0.00000000000E+00 0. -1.
         -2   -1    0    0    0  501 -0.00000000000E+00 -0.00000000000E+00 -0.19326047636E+04  0.19326047636E+04  0.00000000000E+00 0.  1.
         23    2    1    2    0    0  0.24089053792E+03 -0.13844365873E+03 -0.11023490552E+04  0.11405141914E+04  0.91674878475E+02 0.  0.
        254    2    1    2    0    0 -0.24089053792E+03  0.13844365873E+03 -0.51610909382E+03  0.11062371868E+04  0.93818826401E+03 0.  0.
         23    2    4    4    0    0 -0.24436010326E+03  0.39143153830E+03  0.55070876163E+02  0.47355662058E+03  0.91063506695E+02 0.  0.
         23    2    4    4    0    0  0.34695653349E+01 -0.25298787957E+03 -0.57117996998E+03  0.63268056617E+03  0.10011611067E+03 0.  0.
          2    1    3    3  502    0  0.11483178453E+03 -0.22021861291E+02 -0.35667225058E+03  0.37534836545E+03  0.00000000000E+00 0. -1.
         -2    1    3    3    0  502  0.12605875339E+03 -0.11642179743E+03 -0.74567680466E+03  0.76516582597E+03  0.00000000000E+00 0.  1.
         11    1    5    5    0    0 -0.87258795372E+02  0.91188661231E+02  0.46755058395E+02  0.13459385124E+03  0.00000000000E+00 0.  1.
        -11    1    5    5    0    0 -0.15710130789E+03  0.30024287707E+03  0.83158177682E+01  0.33896276934E+03  0.00000000000E+00 0. -1.
          3    1    6    6  503    0  0.45919704399E+01 -0.25024126125E+03 -0.47894675568E+03  0.54039963897E+03  0.00000000000E+00 0. -1.
         -3    1    6    6    0  503 -0.11224051050E+01 -0.27466183240E+01 -0.92233214299E+02  0.92280927203E+02  0.00000000000E+00 0.  1.
<mgrwt>
<rscale>  0 0.15583597E+04</rscale>
<asrwt>0</asrwt>
<pdfrwt beam="1">  1        2 0.48330250E-01 0.15583597E+04</pdfrwt>
<pdfrwt beam="2">  1       -2 0.29732380E+00 0.15583597E+04</pdfrwt>
<totfact> 0.33211269E+00</totfact>
</mgrwt>
</event>
<event>
12    2  0.3552864E-008  0.3338147E+04  0.7818608E-02  0.8153256E-01
          2   -1    0    0  501    0  0.00000000000E+00  0.00000000000E+00  0.38814796361E+04  0.38814796361E+04  0.00000000000E+00 0. -1.
         -2   -1    0    0    0  501 -0.00000000000E+00 -0.00000000000E+00 -0.71771770905E+03  0.71771770905E+03  0.00000000000E+00 0.  1.
         23    2    1    2    0    0  0.34820497201E+02  0.11233152237E+04  0.49292256866E+01  0.11277353401E+04  0.93344208232E+02 0.  0.
        254    2    1    2    0    0 -0.34820497201E+02 -0.11233152237E+04  0.31588327014E+04  0.34714620051E+04  0.89987491287E+03 0.  0.
         23    2    4    4    0    0  0.22056925505E+02 -0.32852986082E+02 -0.27522324192E+02  0.10191801236E+03  0.89799645079E+02 0.  0.
         23    2    4    4    0    0 -0.56877422706E+02 -0.10904622376E+04  0.31863550256E+04  0.33695439928E+04  0.92873232114E+02 0.  0.
          2    1    3    3  502    0  0.54081872921E+01  0.78011975165E+03 -0.35323909669E+02  0.78093780418E+03  0.00000000000E+00 0. -1.
         -2    1    3    3    0  502  0.29412309909E+02  0.34319547203E+03  0.40253135355E+02  0.34679753590E+03  0.00000000000E+00 0.  1.
         11    1    5    5    0    0 -0.23225046770E+02  0.28504689068E+01  0.17119175451E+02  0.28993001545E+02  0.00000000000E+00 0. -1.
        -11    1    5    5    0    0  0.45281972275E+02 -0.35703454988E+02 -0.44641499643E+02  0.72925010810E+02  0.00000000000E+00 0.  1.
          2    1    6    6  503    0 -0.72840767803E+02 -0.83030194086E+03  0.23435790052E+04  0.24873820865E+04  0.00000000000E+00 0.  1.
         -2    1    6    6    0  503  0.15963345096E+02 -0.26016029674E+03  0.84277602040E+03  0.88216190631E+03  0.00000000000E+00 0. -1.
<mgrwt>
<rscale>  0 0.33381472E+04</rscale>
<asrwt>0</asrwt>
<pdfrwt beam="1">  1        2 0.59715070E+00 0.33381472E+04</pdfrwt>
<pdfrwt beam="2">  1       -2 0.11041811E+00 0.33381472E+04</pdfrwt>
<totfact> 0.22990946E-01</totfact>
</mgrwt>
</event>
<event>
12    2  0.3552864E-008  0.1334254E+04  0.7818608E-02  0.9002834E-01
          2   -1    0    0  501    0  0.00000000000E+00  0.00000000000E+00  0.21476266161E+03  0.21476266161E+03  0.00000000000E+00 0. -1.
         -2   -1    0    0    0  501 -0.00000000000E+00 -0.00000000000E+00 -0.20723280654E+04  0.20723280654E+04  0.00000000000E+00 0.  1.
         23    2    1    2    0    0 -0.33571428940E+03 -0.52218612714E+02 -0.37622057744E+03  0.51503874925E+03  0.91061093323E+02 0.  0.
        254    2    1    2    0    0  0.33571428940E+03  0.52218612714E+02 -0.14813448263E+04  0.17720519778E+04  0.91123808620E+03 0.  0.
         23    2    4    4    0    0 -0.28589946855E+03 -0.90944934477E+02 -0.63906248726E+03  0.71172196392E+03  0.90209778214E+02 0.  0.
         23    2    4    4    0    0  0.62161375794E+03  0.14316354719E+03 -0.84228233908E+03  0.10603300138E+04  0.89222946679E+02 0.  0.
          1    1    3    3  502    0 -0.25183410595E+03 -0.22299330047E+02 -0.32683539336E+03  0.41320582207E+03  0.00000000000E+00 0. -1.
         -1    1    3    3    0  502 -0.83880183453E+02 -0.29919282667E+02 -0.49385184081E+02  0.10183292718E+03  0.00000000000E+00 0.  1.
         11    1    5    5    0    0 -0.25415167749E+03 -0.52870268327E+02 -0.57359385396E+03  0.62960165957E+03  0.00000000000E+00 0. -1.
        -11    1    5    5    0    0 -0.31747791060E+02 -0.38074666150E+02 -0.65468633301E+02  0.82120304346E+02  0.00000000000E+00 0.  1.
          4    1    6    6  503    0  0.59676653011E+03  0.12624338210E+03 -0.82379323255E+03  0.10250380349E+04  0.00000000000E+00 0. -1.
         -4    1    6    6    0  503  0.24847227837E+02  0.16920165090E+02 -0.18489106534E+02  0.35291978951E+02  0.00000000000E+00 0.  1.
<mgrwt>
<rscale>  0 0.13342544E+04</rscale>
<asrwt>0</asrwt>
<pdfrwt beam="1">  1        2 0.33040410E-01 0.13342544E+04</pdfrwt>
<pdfrwt beam="2">  1       -2 0.31881970E+00 0.13342544E+04</pdfrwt>
<totfact> 0.38303890E+00</totfact>
</mgrwt>
</event>
<event>
12    2  0.3552864E-008  0.3056970E+04  0.7818608E-02  0.8227647E-01
          1   -1    0    0  501    0  0.00000000000E+00  0.00000000000E+00  0.26809649140E+04  0.26809649140E+04  0.00000000000E+00 0. -1.
         -1   -1    0    0    0  501 -0.00000000000E+00 -0.00000000000E+00 -0.87142733515E+03  0.87142733515E+03  0.00000000000E+00 0.  1.
         23    2    1    2    0    0  0.11577652827E+04 -0.49724658799E+01 -0.81793124031E+02  0.11640893266E+04  0.89267406266E+02 0.  0.
        254    2    1    2    0    0 -0.11577652827E+04  0.49724658799E+01  0.18913307029E+04  0.23883029225E+04  0.88679977839E+03 0.  0.
         23    2    4    4    0    0 -0.91604067038E+03  0.43916229800E+02  0.19148819426E+04  0.21250944064E+04  0.90522025141E+02 0.  0.
         23    2    4    4    0    0 -0.24172461235E+03 -0.38943763920E+02 -0.23551239730E+02  0.26320851614E+03  0.93683814579E+02 0.  0.
          4    1    3    3  502    0  0.15764174936E+03 -0.19192584205E+02  0.13259488045E+02  0.15935837114E+03  0.00000000000E+00 0. -1.
         -4    1    3    3    0  502  0.10001235334E+04  0.14220118325E+02 -0.95052612076E+02  0.10047309554E+04  0.00000000000E+00 0.  1.
         11    1    5    5    0    0 -0.84789303323E+03  0.60027107803E+02  0.17988424670E+04  0.19895627837E+04  0.00000000000E+00 0. -1.
        -11    1    5    5    0    0 -0.68147637155E+02 -0.16110878003E+02  0.11603947563E+03  0.13553162267E+03  0.00000000000E+00 0.  1.
          2    1    6    6  503    0 -0.27297324397E+02 -0.38344676722E+02  0.28845959949E+01  0.47156961800E+02  0.00000000000E+00 0.  1.
         -2    1    6    6    0  503 -0.21442728795E+03 -0.59908719889E+00 -0.26435835725E+02  0.21605155434E+03  0.00000000000E+00 0. -1.
<mgrwt>
<rscale>  0 0.30569698E+04</rscale>
<asrwt>0</asrwt>
<pdfrwt beam="1">  1        1 0.41245614E+00 0.30569698E+04</pdfrwt>
<pdfrwt beam="2">  1       -1 0.13406574E+00 0.30569698E+04</pdfrwt>
<totfact> 0.40177440E-01</totfact>
</mgrwt>
</event>
<event>
12    2  0.3552864E-008  0.1509332E+04  0.7818608E-02  0.8878271E-01
          2   -1    0    0  501    0  0.00000000000E+00  0.00000000000E+00  0.90992529642E+03  0.90992529642E+03  0.00000000000E+00 0. -1.
         -2   -1    0    0    0  501 -0.00000000000E+00 -0.00000000000E+00 -0.62589843376E+03  0.62589843376E+03  0.00000000000E+00 0.  1.
         23    2    1    2    0    0  0.23319816508E+03 -0.27552282596E+03 -0.22899410018E+03  0.43665951131E+03  0.89101173278E+02 0.  0.
        254    2    1    2    0    0 -0.23319816508E+03  0.27552282596E+03  0.51302096284E+03  0.10991642189E+04  0.90259473736E+03 0.  0.
         23    2    4    4    0    0 -0.25064361668E+03  0.38936663931E+03  0.71032731140E+03  0.85270533944E+03  0.90071661528E+02 0.  0.
         23    2    4    4    0    0  0.17445451604E+02 -0.11384381335E+03 -0.19730634855E+03  0.24645887943E+03  0.92452292829E+02 0.  0.
          1    1    3    3  502    0  0.77713081173E+02 -0.44730365753E+02 -0.84015218960E+02  0.12287670903E+03  0.00000000000E+00 0. -1.
         -1    1    3    3    0  502  0.15548508390E+03 -0.23079246020E+03 -0.14497888122E+03  0.31378280227E+03  0.00000000000E+00 0.  1.
         11    1    5    5    0    0 -0.20633629100E+03  0.32650499562E+03  0.52263220870E+03  0.64986506501E+03  0.00000000000E+00 0.  1.
        -11    1    5    5    0    0 -0.44307325677E+02  0.62861643689E+02  0.18769510270E+03  0.20284027443E+03  0.00000000000E+00 0. -1.
          2    1    6    6  503    0 -0.32008504400E+02 -0.33267579607E+02 -0.10324099025E+03  0.11309278613E+03  0.00000000000E+00 0. -1.
         -2    1    6    6    0  503  0.49453956004E+02 -0.80576233744E+02 -0.94065358304E+02  0.13336609330E+03  0.00000000000E+00 0.  1.
<mgrwt>
<rscale>  0 0.15093321E+04</rscale>
<asrwt>0</asrwt>
<pdfrwt beam="1">  1        2 0.13998851E+00 0.15093321E+04</pdfrwt>
<pdfrwt beam="2">  1       -2 0.96292067E-01 0.15093321E+04</pdfrwt>
<totfact> 0.25177713E+01</totfact>
</mgrwt>
</event>
<event>
12    2  0.3552864E-008  0.1515484E+04  0.7818608E-02  0.8874221E-01
          2   -1    0    0  501    0  0.00000000000E+00  0.00000000000E+00  0.30407878342E+04  0.30407878342E+04  0.00000000000E+00 0. -1.
         -2   -1    0    0    0  501 -0.00000000000E+00 -0.00000000000E+00 -0.18882373668E+03  0.18882373668E+03  0.00000000000E+00 0.  1.
         23    2    1    2    0    0 -0.10530900732E+03  0.25725366807E+03  0.17730414387E+04  0.17969037810E+04  0.88982122389E+02 0.  0.
        254    2    1    2    0    0  0.10530900732E+03 -0.25725366807E+03  0.10789226588E+04  0.14327077899E+04  0.90072641278E+03 0.  0.
         23    2    4    4    0    0  0.37969577482E+01  0.11110072135E+03 -0.11009440282E+03  0.18056965420E+03  0.90148961795E+02 0.  0.
         23    2    4    4    0    0  0.10151204958E+03 -0.36835438942E+03  0.11890170616E+04  0.12521381357E+04  0.89992697069E+02 0.  0.
          3    1    3    3  502    0 -0.31466433722E+02  0.17820017156E+03  0.12243431022E+04  0.12376435147E+04  0.00000000000E+00 0. -1.
         -3    1    3    3    0  502 -0.73842573603E+02  0.79053496509E+02  0.54869833648E+03  0.55926026628E+03  0.00000000000E+00 0.  1.
         11    1    5    5    0    0  0.11571032689E+02  0.65794409334E+02 -0.63598391349E+01  0.67106189364E+02  0.00000000000E+00 0.  1.
        -11    1    5    5    0    0 -0.77740749408E+01  0.45306312015E+02 -0.10373456368E+03  0.11346346483E+03  0.00000000000E+00 0. -1.
          3    1    6    6  503    0  0.67233666024E+02 -0.34240189714E+03  0.10789362407E+04  0.11339589219E+04  0.00000000000E+00 0. -1.
         -3    1    6    6    0  503  0.34278383553E+02 -0.25952492275E+02  0.11008082093E+03  0.11817921379E+03  0.00000000000E+00 0.  1.
<mgrwt>
<rscale>  0 0.15154840E+04</rscale>
<asrwt>0</asrwt>
<pdfrwt beam="1">  1        2 0.46781348E+00 0.15154840E+04</pdfrwt>
<pdfrwt beam="2">  1       -2 0.29049808E-01 0.15154840E+04</pdfrwt>
<totfact> 0.17375988E+01</totfact>
</mgrwt>
</event>
<event>
12    2  0.3552864E-008  0.2012480E+04  0.7818608E-02  0.8600808E-01
          1   -1    0    0  501    0  0.00000000000E+00  0.00000000000E+00  0.14129624912E+04  0.14129624912E+04  0.00000000000E+00 0. -1.
         -1   -1    0    0    0  501 -0.00000000000E+00 -0.00000000000E+00 -0.71659296163E+03  0.71659296163E+03  0.00000000000E+00 0.  1.
         23    2    1    2    0    0 -0.60501273616E+03 -0.48059735685E+03  0.52498390398E+03  0.93857662603E+03  0.91124931597E+02 0.  0.
        254    2    1    2    0    0  0.60501273616E+03  0.48059735685E+03  0.17138562561E+03  0.11909788268E+04  0.88996814715E+03 0.  0.
         23    2    4    4    0    0 -0.19038017762E+03 -0.28301330792E+02 -0.42947284581E+02  0.21857777295E+03  0.94266623041E+02 0.  0.
         23    2    4    4    0    0  0.79539291378E+03  0.50889868764E+03  0.21433291019E+03  0.97240105387E+03  0.89428471966E+02 0.  0.
          4    1    3    3  502    0 -0.59558379587E+03 -0.46971881949E+03  0.49623385969E+03  0.90642367069E+03  0.00000000000E+00 0. -1.
         -4    1    3    3    0  502 -0.94289402896E+01 -0.10878537360E+02  0.28750044292E+02  0.32152955337E+02  0.00000000000E+00 0.  1.
         11    1    5    5    0    0 -0.54302086565E+02 -0.52812465763E+02 -0.20749557319E+02  0.78539272178E+02  0.00000000000E+00 0. -1.
        -11    1    5    5    0    0 -0.13607809106E+03  0.24511134971E+02 -0.22197727262E+02  0.14003850077E+03  0.00000000000E+00 0.  1.
          1    1    6    6  503    0  0.20199061329E+03  0.17481298089E+03  0.72626205453E+02  0.27682910227E+03  0.00000000000E+00 0. -1.
         -1    1    6    6    0  503  0.59340230050E+03  0.33408570675E+03  0.14170670474E+03  0.69557195160E+03  0.00000000000E+00 0.  1.
<mgrwt>
<rscale>  0 0.20124800E+04</rscale>
<asrwt>0</asrwt>
<pdfrwt beam="1">  1        1 0.21737884E+00 0.20124800E+04</pdfrwt>
<pdfrwt beam="2">  1       -1 0.11024507E+00 0.20124800E+04</pdfrwt>
<totfact> 0.52926788E+00</totfact>
</mgrwt>
</event>
<event>
12    2  0.3552864E-008  0.1427241E+04  0.7818608E-02  0.8934333E-01
          2   -1    0    0  501    0  0.00000000000E+00  0.00000000000E+00  0.22339791466E+04  0.22339791466E+04  0.00000000000E+00 0. -1.
         -2   -1    0    0    0  501 -0.00000000000E+00 -0.00000000000E+00 -0.22795824594E+03  0.22795824594E+03  0.00000000000E+00 0.  1.
         23    2    1    2    0    0  0.10836123767E+03 -0.28025529948E+03  0.78621164309E+02  0.33446308823E+03  0.12409302637E+03 0.  0.
        254    2    1    2    0    0 -0.10836123767E+03  0.28025529948E+03  0.19273997364E+04  0.21274743043E+04  0.84911246670E+03 0.  0.
         23    2    4    4    0    0  0.28614601724E+03 -0.58504747994E+02  0.35696713276E+03  0.47072658353E+03  0.94104377438E+02 0.  0.
         23    2    4    4    0    0 -0.39450725491E+03  0.33876004747E+03  0.15704326036E+04  0.16567477208E+04  0.90333293607E+02 0.  0.
          3    1    3    3  502    0  0.75577201737E+02 -0.58216998681E+02  0.51420645055E+02  0.10837534358E+03  0.00000000000E+00 0. -1.
         -3    1    3    3    0  502  0.32784035936E+02 -0.22203830079E+03  0.27200519255E+02  0.22608774465E+03  0.00000000000E+00 0.  1.
         11    1    5    5    0    0  0.24403108772E+03 -0.77564725586E+02  0.32822687701E+03  0.41629357576E+03  0.00000000000E+00 0. -1.
        -11    1    5    5    0    0  0.42114929524E+02  0.19059977592E+02  0.28740255750E+02  0.54433007773E+02  0.00000000000E+00 0.  1.
          3    1    6    6  503    0 -0.34826433204E+03  0.33119934222E+03  0.14465907295E+04  0.15243378195E+04  0.00000000000E+00 0. -1.
         -3    1    6    6    0  503 -0.46242922872E+02  0.75607052478E+01  0.12384187412E+03  0.13240990131E+03  0.00000000000E+00 0.  1.
<mgrwt>
<rscale>  0 0.14272406E+04</rscale>
<asrwt>0</asrwt>
<pdfrwt beam="1">  1        2 0.34368908E+00 0.14272406E+04</pdfrwt>
<pdfrwt beam="2">  1       -2 0.35070501E-01 0.14272406E+04</pdfrwt>
<totfact> 0.36686286E+01</totfact>
</mgrwt>
</event>
<event>
12    2  0.3552864E-008  0.1748694E+04  0.7818608E-02  0.8734069E-01
          1   -1    0    0  501    0  0.00000000000E+00  0.00000000000E+00  0.10578367014E+04  0.10578367014E+04  0.00000000000E+00 0. -1.
         -1   -1    0    0    0  501 -0.00000000000E+00 -0.00000000000E+00 -0.72268520324E+03  0.72268520324E+03  0.00000000000E+00 0.  1.
         23    2    1    2    0    0 -0.17719371710E+02  0.37526643537E+03  0.64220938046E+03  0.74951368781E+03  0.90548363982E+02 0.  0.
        254    2    1    2    0    0  0.17719371710E+02 -0.37526643537E+03 -0.30705788233E+03  0.10310082168E+04  0.90970023983E+03 0.  0.
         23    2    4    4    0    0 -0.18889399876E+03 -0.61749574272E+03 -0.21077376992E+03  0.68631376862E+03  0.98076867112E+02 0.  0.
         23    2    4    4    0    0  0.20661337047E+03  0.24222930735E+03 -0.96284112413E+02  0.34469444818E+03  0.90440644095E+02 0.  0.
          3    1    3    3  502    0 -0.30118338371E+02  0.31773177981E+03  0.47513323951E+03  0.57237417263E+03  0.00000000000E+00 0. -1.
         -3    1    3    3    0  502  0.12398966662E+02  0.57534655564E+02  0.16707614095E+03  0.17713951519E+03  0.00000000000E+00 0.  1.
         11    1    5    5    0    0 -0.17272406496E+03 -0.56605786196E+03 -0.16196987275E+03  0.61358727609E+03  0.00000000000E+00 0.  1.
        -11    1    5    5    0    0 -0.16169933799E+02 -0.51437880765E+02 -0.48803897171E+02  0.72726492530E+02  0.00000000000E+00 0. -1.
          2    1    6    6  503    0 -0.10373264610E+01  0.35855671143E+02 -0.23945942649E+02  0.43129031622E+02  0.00000000000E+00 0. -1.
         -2    1    6    6    0  503  0.20765069693E+03  0.20637363621E+03 -0.72338169764E+02  0.30156541656E+03  0.00000000000E+00 0.  1.
<mgrwt>
<rscale>  0 0.17486943E+04</rscale>
<asrwt>0</asrwt>
<pdfrwt beam="1">  1        1 0.16274411E+00 0.17486943E+04</pdfrwt>
<pdfrwt beam="2">  1       -1 0.11118234E+00 0.17486943E+04</pdfrwt>
<totfact> 0.96266690E+00</totfact>
</mgrwt>
</event>
<event>
12    2  0.3552864E-008  0.2207993E+04  0.7818608E-02  0.8515109E-01
         -1   -1    0    0    0  501 -0.00000000000E+00  0.00000000000E+00  0.89987340052E+03  0.89987340052E+03  0.00000000000E+00 0.  1.
          1   -1    0    0  501    0  0.00000000000E+00 -0.00000000000E+00 -0.13544220628E+04  0.13544220628E+04  0.00000000000E+00 0. -1.
         23    2    1    2    0    0  0.46579936162E+03 -0.30163687450E+03  0.56149888252E+03  0.79468987246E+03  0.91088687445E+02 0.  0.
        254    2    1    2    0    0 -0.46579936162E+03  0.30163687450E+03 -0.10160475448E+04  0.14596055908E+04  0.88889932961E+03 0.  0.
         23    2    4    4    0    0 -0.50876644874E+03 -0.13369147285E+03 -0.29205145432E+03  0.60883524034E+03  0.93110625807E+02 0.  0.
         23    2    4    4    0    0  0.42967087121E+02  0.43532834735E+03 -0.72399609046E+03  0.85077035049E+03  0.91010492179E+02 0.  0.
          4    1    3    3  502    0  0.26313761327E+02 -0.91734923268E+01  0.62856221969E+01  0.28567044702E+02  0.00000000000E+00 0. -1.
         -4    1    3    3    0  502  0.43948560029E+03 -0.29246338217E+03  0.55521326032E+03  0.76612282776E+03  0.00000000000E+00 0.  1.
         11    1    5    5    0    0 -0.37871258695E+03 -0.11021399765E+03 -0.17201197843E+03  0.43030044099E+03  0.00000000000E+00 0. -1.
        -11    1    5    5    0    0 -0.13005386179E+03 -0.23477475192E+02 -0.12003947589E+03  0.17853479935E+03  0.00000000000E+00 0.  1.
          3    1    6    6  503    0 -0.85553484618E+01  0.26748439493E+03 -0.38312032969E+03  0.46733529991E+03  0.00000000000E+00 0. -1.
         -3    1    6    6    0  503  0.51522435583E+02  0.16784395241E+03 -0.34087576078E+03  0.38343505058E+03  0.00000000000E+00 0.  1.
<mgrwt>
<rscale>  0 0.22079931E+04</rscale>
<asrwt>0</asrwt>
<pdfrwt beam="1">  1        1 0.20837263E+00 0.22079931E+04</pdfrwt>
<pdfrwt beam="2">  1       -1 0.13844206E+00 0.22079931E+04</pdfrwt>
<totfact> 0.32535441E+00</totfact>
</mgrwt>
</event>
<event>
12    2  0.3552864E-008  0.1516914E+04  0.7818608E-02  0.8873283E-01
         -1   -1    0    0    0  501 -0.00000000000E+00  0.00000000000E+00  0.56907168006E+03  0.56907168006E+03  0.00000000000E+00 0.  1.
          1   -1    0    0  501    0  0.00000000000E+00 -0.00000000000E+00 -0.10108687968E+04  0.10108687968E+04  0.00000000000E+00 0. -1.
         23    2    1    2    0    0  0.29611740445E+03 -0.27753949663E+03 -0.40896365530E+03  0.58330029936E+03  0.90963061028E+02 0.  0.
        254    2    1    2    0    0 -0.29611740445E+03  0.27753949663E+03 -0.32833461489E+02  0.99664017754E+03  0.90967022479E+03 0.  0.
         23    2    4    4    0    0  0.17691245802E+03  0.79606261691E+02 -0.33286067365E+03  0.39570992056E+03  0.90304697906E+02 0.  0.
         23    2    4    4    0    0 -0.47302986248E+03  0.19793323494E+03  0.30002721216E+03  0.60093025697E+03  0.90366085535E+02 0.  0.
          3    1    3    3  502    0  0.13804860184E+03 -0.18938745953E+03 -0.24581970328E+03  0.33963561771E+03  0.00000000000E+00 0. -1.
         -3    1    3    3    0  502  0.15806880261E+03 -0.88152037103E+02 -0.16314395202E+03  0.24366468165E+03  0.00000000000E+00 0.  1.
         11    1    5    5    0    0  0.13563224352E+03  0.32183310125E+02 -0.16239256547E+03  0.21401685974E+03  0.00000000000E+00 0. -1.
        -11    1    5    5    0    0  0.41280214507E+02  0.47422951566E+02 -0.17046810818E+03  0.18169306083E+03  0.00000000000E+00 0.  1.
          4    1    6    6  503    0 -0.12746921454E+03  0.76592548840E+02  0.47682929043E+02  0.15616811747E+03  0.00000000000E+00 0. -1.
         -4    1    6    6    0  503 -0.34556064794E+03  0.12134068610E+03  0.25234428312E+03  0.44476213950E+03  0.00000000000E+00 0.  1.
<mgrwt>
<rscale>  0 0.15169137E+04</rscale>
<asrwt>0</asrwt>
<pdfrwt beam="1">  1        1 0.15551828E+00 0.15169137E+04</pdfrwt>
<pdfrwt beam="2">  1       -1 0.87549490E-01 0.15169137E+04</pdfrwt>
<totfact> 0.18403592E+01</totfact>
</mgrwt>
</event>
<event>
12    2  0.3552864E-008  0.1946974E+04  0.7818608E-02  0.8631821E-01
         -2   -1    0    0    0  501 -0.00000000000E+00  0.00000000000E+00  0.48532560384E+03  0.48532560384E+03  0.00000000000E+00 0.  1.
          2   -1    0    0  501    0  0.00000000000E+00 -0.00000000000E+00 -0.19526628452E+04  0.19526628452E+04  0.00000000000E+00 0. -1.
         23    2    1    2    0    0 -0.13196312861E+03 -0.67678169212E+03 -0.97204305313E+03  0.11951652806E+04  0.90025688675E+02 0.  0.
        254    2    1    2    0    0  0.13196312861E+03  0.67678169212E+03 -0.49529418824E+03  0.12428231685E+04  0.90765928031E+03 0.  0.
         23    2    4    4    0    0  0.55088089137E+02 -0.20661431414E+03 -0.20671612230E+02  0.23294247066E+03  0.90059462094E+02 0.  0.
         23    2    4    4    0    0  0.76875039469E+02  0.88339600626E+03 -0.47462257601E+03  0.10098806978E+04  0.91072271451E+02 0.  0.
          1    1    3    3  502    0 -0.64343016693E+02 -0.36080634360E+03 -0.43953692539E+03  0.57228834530E+03  0.00000000000E+00 0. -1.
         -1    1    3    3    0  502 -0.67620111912E+02 -0.31597534852E+03 -0.53250612774E+03  0.62287693527E+03  0.00000000000E+00 0.  1.
         11    1    5    5    0    0  0.31180578038E+02 -0.20566010860E+03 -0.16596777007E+02  0.20867142047E+03  0.00000000000E+00 0.  1.
        -11    1    5    5    0    0  0.23907511099E+02 -0.95420554371E+00 -0.40748352230E+01  0.24271050188E+02  0.00000000000E+00 0. -1.
          4    1    6    6  503    0  0.43296534354E+01  0.55196478270E+03 -0.28525477489E+03  0.62133256299E+03  0.00000000000E+00 0. -1.
         -4    1    6    6    0  503  0.72545386033E+02  0.33143122356E+03 -0.18936780112E+03  0.38854813484E+03  0.00000000000E+00 0.  1.
<mgrwt>
<rscale>  0 0.19469743E+04</rscale>
<asrwt>0</asrwt>
<pdfrwt beam="1">  1        2 0.30040967E+00 0.19469743E+04</pdfrwt>
<pdfrwt beam="2">  1       -2 0.74665476E-01 0.19469743E+04</pdfrwt>
<totfact> 0.10680890E+01</totfact>
</mgrwt>
</event>
<event>
12    2  0.3552864E-008  0.1654275E+04  0.7818608E-02  0.8787881E-01
          2   -1    0    0  501    0  0.00000000000E+00  0.00000000000E+00  0.43387152215E+04  0.43387152215E+04  0.00000000000E+00 0. -1.
         -2   -1    0    0    0  501 -0.00000000000E+00 -0.00000000000E+00 -0.15768649080E+03  0.15768649080E+03  0.00000000000E+00 0.  1.
         23    2    1    2    0    0 -0.12000193545E+03 -0.16697267160E+02 -0.56718209637E+02  0.16100169252E+03  0.89584186379E+02 0.  0.
        254    2    1    2    0    0  0.12000193545E+03  0.16697267160E+02  0.42377469403E+04  0.43354000198E+04  0.90692609287E+03 0.  0.
         23    2    4    4    0    0  0.34899115256E+03 -0.32665816908E+03  0.25049858494E+04  0.25518067576E+04  0.90902358192E+02 0.  0.
         23    2    4    4    0    0 -0.22898921711E+03  0.34335543624E+03  0.17327610910E+04  0.17835932621E+04  0.91732814680E+02 0.  0.
          3    1    3    3  502    0 -0.31675264119E+02 -0.16313008478E+02  0.22678729416E+02  0.42234599211E+02  0.00000000000E+00 0. -1.
         -3    1    3    3    0  502 -0.88326671329E+02 -0.38425868210E+00 -0.79396939053E+02  0.11876709331E+03  0.00000000000E+00 0.  1.
         11    1    5    5    0    0  0.31164306655E+02 -0.74796077246E+02  0.40630951478E+03  0.41431037759E+03  0.00000000000E+00 0. -1.
        -11    1    5    5    0    0  0.31782684590E+03 -0.25186209183E+03  0.20986763346E+04  0.21374963800E+04  0.00000000000E+00 0.  1.
          4    1    6    6  503    0 -0.14868711790E+02  0.18674400818E+02  0.38782002318E+02  0.45539604082E+02  0.00000000000E+00 0. -1.
         -4    1    6    6    0  503 -0.21412050532E+03  0.32468103542E+03  0.16939790886E+04  0.17380536581E+04  0.00000000000E+00 0.  1.
<mgrwt>
<rscale>  0 0.16542754E+04</rscale>
<asrwt>0</asrwt>
<pdfrwt beam="1">  1        2 0.66749456E+00 0.16542754E+04</pdfrwt>
<pdfrwt beam="2">  1       -2 0.24259463E-01 0.16542754E+04</pdfrwt>
<totfact> 0.25943795E+00</totfact>
</mgrwt>
</event>
<event>
12    2  0.3552864E-008  0.1495970E+04  0.7818608E-02  0.8887137E-01
          1   -1    0    0  501    0  0.00000000000E+00  0.00000000000E+00  0.55092643187E+03  0.55092643187E+03  0.00000000000E+00 0. -1.
         -1   -1    0    0    0  501 -0.00000000000E+00 -0.00000000000E+00 -0.10155287479E+04  0.10155287479E+04  0.00000000000E+00 0.  1.
         23    2    1    2    0    0 -0.32924487232E+03 -0.30441241122E+03 -0.14220990977E+01  0.45788486261E+03  0.92668349431E+02 0.  0.
        254    2    1    2    0    0  0.32924487232E+03  0.30441241122E+03 -0.46318021697E+03  0.11085703172E+04  0.90184429516E+03 0.  0.
         23    2    4    4    0    0 -0.19150465290E+03  0.84016010096E+02 -0.48408579676E+03  0.53516784168E+03  0.91284380425E+02 0.  0.
         23    2    4    4    0    0  0.52074952522E+03  0.22039640113E+03  0.20905579797E+02  0.57340247551E+03  0.92729251087E+02 0.  0.
          1    1    3    3  502    0 -0.26981937740E+03 -0.24411820221E+03  0.35371403870E+02  0.36557807549E+03  0.00000000000E+00 0. -1.
         -1    1    3    3    0  502 -0.59425494923E+02 -0.60294209010E+02 -0.36793502968E+02  0.92306787116E+02  0.00000000000E+00 0.  1.
         11    1    5    5    0    0 -0.58851601303E+02 -0.80915902298E+01 -0.19716490226E+03  0.20591984725E+03  0.00000000000E+00 0. -1.
        -11    1    5    5    0    0 -0.13265305160E+03  0.92107600326E+02 -0.28692089450E+03  0.32924799443E+03  0.00000000000E+00 0.  1.
          2    1    6    6  503    0  0.25862841132E+03  0.15034523914E+03  0.37935176972E+02  0.30154837709E+03  0.00000000000E+00 0. -1.
         -2    1    6    6    0  503  0.26212111390E+03  0.70051161989E+02 -0.17029597175E+02  0.27185409842E+03  0.00000000000E+00 0.  1.
<mgrwt>
<rscale>  0 0.14959701E+04</rscale>
<asrwt>0</asrwt>
<pdfrwt beam="1">  1        1 0.84757913E-01 0.14959701E+04</pdfrwt>
<pdfrwt beam="2">  1       -1 0.15623519E+00 0.14959701E+04</pdfrwt>
<totfact> 0.11692066E+01</totfact>
</mgrwt>
</event>
<event>
12    2  0.3552864E-008  0.1489628E+04  0.7818608E-02  0.8891379E-01
          1   -1    0    0  501    0  0.00000000000E+00  0.00000000000E+00  0.70649972627E+03  0.70649972627E+03  0.00000000000E+00 0. -1.
         -1   -1    0    0    0  501 -0.00000000000E+00 -0.00000000000E+00 -0.78520640390E+03  0.78520640390E+03  0.00000000000E+00 0.  1.
         23    2    1    2    0    0 -0.21727888228E+03  0.23464084940E+02 -0.42680712819E+03  0.48812784115E+03  0.91344341182E+02 0.  0.
        254    2    1    2    0    0  0.21727888228E+03 -0.23464084940E+02  0.34810045056E+03  0.10035782890E+04  0.91555162746E+03 0.  0.
         23    2    4    4    0    0  0.30298156083E+03 -0.33579020782E+03 -0.70801489566E+02  0.46658878208E+03  0.90218350479E+02 0.  0.
         23    2    4    4    0    0 -0.85702678558E+02  0.31232612289E+03  0.41890194012E+03  0.53698950694E+03  0.89366319014E+02 0.  0.
          4    1    3    3  502    0 -0.47914428109E+01 -0.16150109506E+02 -0.13032856396E+02  0.21298809992E+02  0.00000000000E+00 0. -1.
         -4    1    3    3    0  502 -0.21248743947E+03  0.39614194445E+02 -0.41377427180E+03  0.46682903116E+03  0.00000000000E+00 0.  1.
         11    1    5    5    0    0  0.13617357369E+03 -0.21268706288E+03 -0.21268807076E+02  0.25343912690E+03  0.00000000000E+00 0. -1.
        -11    1    5    5    0    0  0.16680798714E+03 -0.12310314494E+03 -0.49532682490E+02  0.21314965518E+03  0.00000000000E+00 0.  1.
          3    1    6    6  503    0  0.10066750362E+02  0.17864468041E+02  0.69711941296E+01  0.21658167716E+02  0.00000000000E+00 0. -1.
         -3    1    6    6    0  503 -0.95769428920E+02  0.29446165484E+03  0.41193074599E+03  0.51533133922E+03  0.00000000000E+00 0.  1.
<mgrwt>
<rscale>  0 0.14896283E+04</rscale>
<asrwt>0</asrwt>
<pdfrwt beam="1">  1        1 0.10869227E+00 0.14896283E+04</pdfrwt>
<pdfrwt beam="2">  1       -1 0.12080099E+00 0.14896283E+04</pdfrwt>
<totfact> 0.15844529E+01</totfact>
</mgrwt>
</event>
<event>
12    2  0.3552864E-008  0.2443702E+04  0.7818608E-02  0.8423321E-01
          2   -1    0    0  501    0  0.00000000000E+00  0.00000000000E+00  0.12903825833E+04  0.12903825833E+04  0.00000000000E+00 0. -1.
         -2   -1    0    0    0  501 -0.00000000000E+00 -0.00000000000E+00 -0.11569591657E+04  0.11569591657E+04  0.00000000000E+00 0.  1.
         23    2    1    2    0    0 -0.56390052748E+02 -0.69619685442E+02  0.11039998218E+04  0.11115688676E+04  0.93504023483E+02 0.  0.
        254    2    1    2    0    0  0.56390052748E+02  0.69619685442E+02 -0.97057640412E+03  0.13357728813E+04  0.91336952847E+03 0.  0.
         23    2    4    4    0    0  0.26140046474E+03 -0.26746503379E+03 -0.13573768646E+03  0.40783008320E+03  0.89626502614E+02 0.  0.
         23    2    4    4    0    0 -0.20501041200E+03  0.33708471923E+03 -0.83483871767E+03  0.92794279810E+03  0.92015080629E+02 0.  0.
          2    1    3    3  502    0 -0.76023752559E+02 -0.73676182165E+02  0.81046200610E+03  0.81734720535E+03  0.00000000000E+00 0. -1.
         -2    1    3    3    0  502  0.19633699811E+02  0.40564967228E+01  0.29353781567E+03  0.29422166229E+03  0.00000000000E+00 0.  1.
         11    1    5    5    0    0  0.64241860492E+02 -0.11836200057E+03 -0.25020075245E+02  0.13697658188E+03  0.00000000000E+00 0.  1.
        -11    1    5    5    0    0  0.19715860425E+03 -0.14910303322E+03 -0.11071761121E+03  0.27085350132E+03  0.00000000000E+00 0. -1.
          2    1    6    6  503    0 -0.17689154597E+03  0.31856574797E+03 -0.70238931683E+03  0.79128092813E+03  0.00000000000E+00 0. -1.
         -2    1    6    6    0  503 -0.28118866026E+02  0.18518971260E+02 -0.13244940084E+03  0.13666186998E+03  0.00000000000E+00 0.  1.
<mgrwt>
<rscale>  0 0.24437021E+04</rscale>
<asrwt>0</asrwt>
<pdfrwt beam="1">  1        2 0.19852040E+00 0.24437021E+04</pdfrwt>
<pdfrwt beam="2">  1       -2 0.17799372E+00 0.24437021E+04</pdfrwt>
<totfact> 0.28096805E+00</totfact>
</mgrwt>
</event>
<event>
12    2  0.3552864E-008  0.1640702E+04  0.7818608E-02  0.8795926E-01
         -1   -1    0    0    0  501 -0.00000000000E+00  0.00000000000E+00  0.92681860725E+03  0.92681860725E+03  0.00000000000E+00 0.  1.
          1   -1    0    0  501    0  0.00000000000E+00 -0.00000000000E+00 -0.72611335268E+03  0.72611335268E+03  0.00000000000E+00 0. -1.
         23    2    1    2    0    0 -0.27496509006E+03  0.31642477818E+03 -0.31519145401E+03  0.53271342015E+03  0.93313955702E+02 0.  0.
        254    2    1    2    0    0  0.27496509006E+03 -0.31642477818E+03  0.51589670858E+03  0.11202185398E+04  0.90167051739E+03 0.  0.
         23    2    4    4    0    0 -0.13532400692E+03  0.24260590548E+03  0.13610043354E+03  0.32442731793E+03  0.97772922582E+02 0.  0.
         23    2    4    4    0    0  0.41028909698E+03 -0.55903068366E+03  0.37979627504E+03  0.79579122184E+03  0.90476570735E+02 0.  0.
          3    1    3    3  502    0 -0.21380494308E+03  0.29567370297E+03 -0.26805501538E+03  0.45275709115E+03  0.00000000000E+00 0. -1.
         -3    1    3    3    0  502 -0.61160146979E+02  0.20751075211E+02 -0.47136438632E+02  0.79956329004E+02  0.00000000000E+00 0.  1.
         11    1    5    5    0    0 -0.14760132383E+03  0.20635764500E+03  0.13183392558E+03  0.28591924100E+03  0.00000000000E+00 0.  1.
        -11    1    5    5    0    0  0.12277316908E+02  0.36248260485E+02  0.42665079610E+01  0.38508076930E+02  0.00000000000E+00 0. -1.
          4    1    6    6  503    0  0.25115537125E+03 -0.38167583509E+03  0.28994405564E+03  0.54113124009E+03  0.00000000000E+00 0.  1.
         -4    1    6    6    0  503  0.15913372573E+03 -0.17735484857E+03  0.89852219408E+02  0.25465998175E+03  0.00000000000E+00 0. -1.
<mgrwt>
<rscale>  0 0.16407015E+04</rscale>
<asrwt>0</asrwt>
<pdfrwt beam="1">  1        1 0.11170975E+00 0.16407015E+04</pdfrwt>
<pdfrwt beam="2">  1       -1 0.14258748E+00 0.16407015E+04</pdfrwt>
<totfact> 0.98401301E+00</totfact>
</mgrwt>
</event>
<event>
12    2  0.3552864E-008  0.1111277E+04  0.7818608E-02  0.9194269E-01
          1   -1    0    0  501    0  0.00000000000E+00  0.00000000000E+00  0.57989160293E+03  0.57989160293E+03  0.00000000000E+00 0.  1.
         -1   -1    0    0    0  501 -0.00000000000E+00 -0.00000000000E+00 -0.53240007847E+03  0.53240007847E+03  0.00000000000E+00 0. -1.
         23    2    1    2    0    0  0.17773058106E+02 -0.11495596541E+03  0.15364901156E+03  0.21364711528E+03  0.92229689015E+02 0.  0.
        254    2    1    2    0    0 -0.17773058106E+02  0.11495596541E+03 -0.10615748710E+03  0.89864456612E+03  0.88473831643E+03 0.  0.
         23    2    4    4    0    0  0.21906498694E+03 -0.24652043068E+03 -0.26196594498E+03  0.43059449711E+03  0.89574959479E+02 0.  0.
         23    2    4    4    0    0 -0.23683804505E+03  0.36147639608E+03  0.15580845788E+03  0.46805006901E+03  0.89650136876E+02 0.  0.
          1    1    3    3  502    0  0.35354137526E+02 -0.11264187554E+03  0.92506875081E+02  0.14998542964E+03  0.00000000000E+00 0. -1.
         -1    1    3    3    0  502 -0.17581079420E+02 -0.23140898657E+01  0.61142136479E+02  0.63661685641E+02  0.00000000000E+00 0.  1.
         11    1    5    5    0    0 -0.15876313784E+01 -0.88758044449E+01  0.52166946106E+01  0.10417023596E+02  0.00000000000E+00 0.  1.
        -11    1    5    5    0    0  0.22065261832E+03 -0.23764462623E+03 -0.26718263959E+03  0.42017747351E+03  0.00000000000E+00 0. -1.
          3    1    6    6  503    0 -0.22899558874E+03  0.31073070953E+03  0.15696229811E+03  0.41668899258E+03  0.00000000000E+00 0. -1.
         -3    1    6    6    0  503 -0.78424563101E+01  0.50745686551E+02 -0.11538402305E+01  0.51361076427E+02  0.00000000000E+00 0.  1.
<mgrwt>
<rscale>  0 0.11112773E+04</rscale>
<asrwt>0</asrwt>
<pdfrwt beam="1">  1        1 0.89214093E-01 0.11112773E+04</pdfrwt>
<pdfrwt beam="2">  1       -1 0.81907704E-01 0.11112773E+04</pdfrwt>
<totfact> 0.53157786E+01</totfact>
</mgrwt>
</event>
<event>
12    2  0.3552864E-008  0.1823177E+04  0.7818608E-02  0.8694071E-01
          1   -1    0    0  501    0  0.00000000000E+00  0.00000000000E+00  0.13405730096E+04  0.13405730096E+04  0.00000000000E+00 0. -1.
         -1   -1    0    0    0  501 -0.00000000000E+00 -0.00000000000E+00 -0.61987909773E+03  0.61987909773E+03  0.00000000000E+00 0.  1.
         23    2    1    2    0    0  0.10980212077E+03  0.26418454482E+03  0.94563803642E+03  0.99202946103E+03  0.89672605582E+02 0.  0.
        254    2    1    2    0    0 -0.10980212077E+03 -0.26418454482E+03 -0.22494412453E+03  0.96842264631E+03  0.89743667369E+03 0.  0.
         23    2    4    4    0    0 -0.28661608688E+03 -0.47753592173E+03  0.51160441193E+02  0.56737191722E+03  0.95415742456E+02 0.  0.
         23    2    4    4    0    0  0.17681396611E+03  0.21335137691E+03 -0.27610456572E+03  0.40105072909E+03  0.88464498252E+02 0.  0.
          3    1    3    3  502    0  0.29819155092E+02  0.21164791095E+02  0.21029399933E+03  0.21344951756E+03  0.00000000000E+00 0. -1.
         -3    1    3    3    0  502  0.79982965679E+02  0.24301975372E+03  0.73534403709E+03  0.77857994347E+03  0.00000000000E+00 0.  1.
         11    1    5    5    0    0 -0.21802225448E+03 -0.30462031204E+03  0.67485188704E+02  0.38063301046E+03  0.00000000000E+00 0. -1.
        -11    1    5    5    0    0 -0.68593832397E+02 -0.17291560969E+03 -0.16324747511E+02  0.18673890677E+03  0.00000000000E+00 0.  1.
          3    1    6    6  503    0  0.94011150330E+02  0.13285294554E+03 -0.21720502246E+03  0.27141485461E+03  0.00000000000E+00 0. -1.
         -3    1    6    6    0  503  0.82802815780E+02  0.80498431377E+02 -0.58899543263E+02  0.12963587448E+03  0.00000000000E+00 0.  1.
<mgrwt>
<rscale>  0 0.18231766E+04</rscale>
<asrwt>0</asrwt>
<pdfrwt beam="1">  1        1 0.20624200E+00 0.18231766E+04</pdfrwt>
<pdfrwt beam="2">  1       -1 0.95366015E-01 0.18231766E+04</pdfrwt>
<totfact> 0.84604590E+00</totfact>
</mgrwt>
</event>
<event>
12    2  0.3552864E-008  0.1334416E+04  0.7818608E-02  0.9002710E-01
         -2   -1    0    0    0  501 -0.00000000000E+00  0.00000000000E+00  0.55980601891E+03  0.55980601891E+03  0.00000000000E+00 0.  1.
          2   -1    0    0  501    0  0.00000000000E+00 -0.00000000000E+00 -0.79521523427E+03  0.79521523427E+03  0.00000000000E+00 0. -1.
         23    2    1    2    0    0  0.33508358058E+03  0.71408865386E+02 -0.21110643810E+03  0.41158080116E+03  0.86328417386E+02 0.  0.
        254    2    1    2    0    0 -0.33508358058E+03 -0.71408865386E+02 -0.24302777250E+02  0.94344045202E+03  0.87869734806E+03 0.  0.
         23    2    4    4    0    0  0.90894062546E+02  0.21850641806E+03  0.24593812651E+03  0.35440483753E+03  0.95448632548E+02 0.  0.
         23    2    4    4    0    0 -0.42597764313E+03 -0.28991528344E+03 -0.27024090376E+03  0.58903561449E+03  0.91787717337E+02 0.  0.
          1    1    3    3  502    0  0.10165416680E+03  0.43023828999E+02 -0.10929245796E+03  0.15533660501E+03  0.00000000000E+00 0. -1.
         -1    1    3    3    0  502  0.23342941378E+03  0.28385036387E+02 -0.10181398014E+03  0.25624419615E+03  0.00000000000E+00 0.  1.
         11    1    5    5    0    0  0.72409006854E+02  0.85735144830E+02  0.66575340864E+02  0.13048316115E+03  0.00000000000E+00 0. -1.
        -11    1    5    5    0    0  0.18485055693E+02  0.13277127323E+03  0.17936278564E+03  0.22392167638E+03  0.00000000000E+00 0.  1.
          3    1    6    6  503    0 -0.35453288176E+03 -0.19892652217E+03 -0.19366583663E+03  0.45030187846E+03  0.00000000000E+00 0. -1.
         -3    1    6    6    0  503 -0.71444761365E+02 -0.90988761277E+02 -0.76575067131E+02  0.13873373602E+03  0.00000000000E+00 0.  1.
<mgrwt>
<rscale>  0 0.13344156E+04</rscale>
<asrwt>0</asrwt>
<pdfrwt beam="1">  1        2 0.12234080E+00 0.13344156E+04</pdfrwt>
<pdfrwt beam="2">  1       -2 0.86124003E-01 0.13344156E+04</pdfrwt>
<totfact> 0.39716671E+01</totfact>
</mgrwt>
</event>
<event>
12    2  0.3552864E-008  0.1344550E+04  0.7818608E-02  0.8994964E-01
         -1   -1    0    0    0  501 -0.00000000000E+00  0.00000000000E+00  0.34488784812E+03  0.34488784812E+03  0.00000000000E+00 0.  1.
          1   -1    0    0  501    0  0.00000000000E+00 -0.00000000000E+00 -0.13104357184E+04  0.13104357184E+04  0.00000000000E+00 0. -1.
         23    2    1    2    0    0 -0.27349693242E+03  0.56774469104E+02  0.12690819831E+02  0.29511922880E+03  0.94394861697E+02 0.  0.
        254    2    1    2    0    0  0.27349693242E+03 -0.56774469104E+02 -0.97823869011E+03  0.13602043377E+04  0.90287374154E+03 0.  0.
         23    2    4    4    0    0  0.53886764324E+03 -0.25574972844E+03 -0.62979265564E+03  0.87218976505E+03  0.91049089075E+02 0.  0.
         23    2    4    4    0    0 -0.26537071082E+03  0.19897525933E+03 -0.34844603447E+03  0.48801457268E+03  0.82041551804E+02 0.  0.
          2    1    3    3  502    0 -0.85122643628E+02  0.63417032108E+02 -0.72081671634E+00  0.10615132593E+03  0.00000000000E+00 0. -1.
         -2    1    3    3    0  502 -0.18837428879E+03 -0.66425630038E+01  0.13411636548E+02  0.18896790287E+03  0.00000000000E+00 0.  1.
         11    1    5    5    0    0  0.22505220665E+03 -0.14679687120E+03 -0.24246228153E+03  0.36191956990E+03  0.00000000000E+00 0. -1.
        -11    1    5    5    0    0  0.31381543659E+03 -0.10895285724E+03 -0.38733037411E+03  0.51027019514E+03  0.00000000000E+00 0.  1.
          2    1    6    6  503    0 -0.71373838646E+02  0.67703900345E+02 -0.15801088058E+03  0.18613296685E+03  0.00000000000E+00 0. -1.
         -2    1    6    6    0  503 -0.19399687218E+03  0.13127135899E+03 -0.19043515389E+03  0.30188160584E+03  0.00000000000E+00 0.  1.
<mgrwt>
<rscale>  0 0.13445495E+04</rscale>
<asrwt>0</asrwt>
<pdfrwt beam="1">  1        1 0.20160549E+00 0.13445495E+04</pdfrwt>
<pdfrwt beam="2">  1       -1 0.53059669E-01 0.13445495E+04</pdfrwt>
<totfact> 0.31181233E+01</totfact>
</mgrwt>
</event>
<event>
12    2  0.3552864E-008  0.1470858E+04  0.7818608E-02  0.8904067E-01
         -2   -1    0    0    0  501 -0.00000000000E+00  0.00000000000E+00  0.65880158782E+03  0.65880158782E+03  0.00000000000E+00 0.  1.
          2   -1    0    0  501    0  0.00000000000E+00 -0.00000000000E+00 -0.82096897143E+03  0.82096897143E+03  0.00000000000E+00 0. -1.
         23    2    1    2    0    0  0.26400142243E+03  0.99724106081E+02 -0.40082157311E+03  0.49891027234E+03  0.92800204714E+02 0.  0.
        254    2    1    2    0    0 -0.26400142243E+03 -0.99724106081E+02  0.23865418951E+03  0.98086028691E+03  0.90856448967E+03 0.  0.
         23    2    4    4    0    0 -0.13223823008E+03 -0.36737144432E+03 -0.19529283417E+03  0.44617620140E+03  0.92115058602E+02 0.  0.
         23    2    4    4    0    0 -0.13176319235E+03  0.26764733824E+03  0.43394702367E+03  0.53468408551E+03  0.92630531747E+02 0.  0.
          1    1    3    3  502    0  0.16666123902E+03  0.10319709694E+03 -0.22936134533E+03  0.30171548873E+03  0.00000000000E+00 0. -1.
         -1    1    3    3    0  502  0.97340183409E+02 -0.34729908561E+01 -0.17146022778E+03  0.19719478361E+03  0.00000000000E+00 0.  1.
         11    1    5    5    0    0 -0.14635476964E+03 -0.33835676041E+03 -0.17521703441E+03  0.40817401321E+03  0.00000000000E+00 0. -1.
        -11    1    5    5    0    0  0.14116539557E+02 -0.29014683915E+02 -0.20075799758E+02  0.38002188196E+02  0.00000000000E+00 0.  1.
          1    1    6    6  503    0 -0.12683087603E+03  0.23122811890E+03  0.41882839764E+03  0.49494417943E+03  0.00000000000E+00 0. -1.
         -1    1    6    6    0  503 -0.49323163147E+01  0.36419219340E+02  0.15118626038E+02  0.39739906075E+02  0.00000000000E+00 0.  1.
<mgrwt>
<rscale>  0 0.14708578E+04</rscale>
<asrwt>0</asrwt>
<pdfrwt beam="1">  1        2 0.12630292E+00 0.14708578E+04</pdfrwt>
<pdfrwt beam="2">  1       -2 0.10135409E+00 0.14708578E+04</pdfrwt>
<totfact> 0.25778176E+01</totfact>
</mgrwt>
</event>
<event>
12    2  0.3552864E-008  0.1449557E+04  0.7818608E-02  0.8918707E-01
          2   -1    0    0  501    0  0.00000000000E+00  0.00000000000E+00  0.43664515269E+03  0.43664515269E+03  0.00000000000E+00 0. -1.
         -2   -1    0    0    0  501 -0.00000000000E+00 -0.00000000000E+00 -0.12030460154E+04  0.12030460154E+04  0.00000000000E+00 0.  1.
         23    2    1    2    0    0  0.14184306404E+03  0.39894658983E+03 -0.97998619178E+02  0.44445258427E+03  0.93040496281E+02 0.  0.
        254    2    1    2    0    0 -0.14184306404E+03 -0.39894658983E+03 -0.66840224350E+03  0.11952385838E+04  0.89585483014E+03 0.  0.
         23    2    4    4    0    0 -0.37317370634E+03  0.95214368560E+02 -0.11206697494E+03  0.41117728247E+03  0.90461923827E+02 0.  0.
         23    2    4    4    0    0  0.23133064230E+03 -0.49416095839E+03 -0.55633526856E+03  0.78406130131E+03  0.86800197618E+02 0.  0.
          4    1    3    3  502    0  0.72239783630E+02  0.30388968334E+03 -0.95425758506E+02  0.32660924874E+03  0.00000000000E+00 0. -1.
         -4    1    3    3    0  502  0.69603280408E+02  0.95056906494E+02 -0.25728606723E+01  0.11784333553E+03  0.00000000000E+00 0.  1.
         11    1    5    5    0    0 -0.30771995351E+03  0.11193325898E+03 -0.10138952618E+03  0.34278340139E+03  0.00000000000E+00 0.  1.
        -11    1    5    5    0    0 -0.65453752830E+02 -0.16718890415E+02 -0.10677448758E+02  0.68393881073E+02  0.00000000000E+00 0. -1.
          1    1    6    6  503    0  0.15275935642E+02 -0.57174617636E+02 -0.10067641081E+03  0.11678197980E+03  0.00000000000E+00 0. -1.
         -1    1    6    6    0  503  0.21605470666E+03 -0.43698634076E+03 -0.45565885775E+03  0.66727932151E+03  0.00000000000E+00 0.  1.
<mgrwt>
<rscale>  0 0.14495575E+04</rscale>
<asrwt>0</asrwt>
<pdfrwt beam="1">  1        2 0.67176178E-01 0.14495575E+04</pdfrwt>
<pdfrwt beam="2">  1       -2 0.18508400E+00 0.14495575E+04</pdfrwt>
<totfact> 0.11668495E+01</totfact>
</mgrwt>
</event>
<event>
12    2  0.3552864E-008  0.1324449E+04  0.7818608E-02  0.9010398E-01
         -2   -1    0    0    0  501 -0.00000000000E+00  0.00000000000E+00  0.64428432866E+03  0.64428432866E+03  0.00000000000E+00 0. -1.
          2   -1    0    0  501    0  0.00000000000E+00 -0.00000000000E+00 -0.68066432659E+03  0.68066432659E+03  0.00000000000E+00 0.  1.
         23    2    1    2    0    0  0.21468622219E+03 -0.23629566706E+03  0.15157499570E+03  0.36486455133E+03  0.90693689026E+02 0.  0.
        254    2    1    2    0    0 -0.21468622219E+03  0.23629566706E+03 -0.18795499363E+03  0.96008410391E+03  0.88572489560E+03 0.  0.
         23    2    4    4    0    0  0.21596478189E+03  0.33967740432E+03  0.98548842074E+02  0.42538816157E+03  0.96029618902E+02 0.  0.
         23    2    4    4    0    0 -0.43065100408E+03 -0.10338173726E+03 -0.28650383571E+03  0.53469594234E+03  0.87562731603E+02 0.  0.
          3    1    3    3  502    0  0.22182913589E+03 -0.23148963014E+03  0.15432663886E+03  0.35582625796E+03  0.00000000000E+00 0. -1.
         -3    1    3    3    0  502 -0.71429137011E+01 -0.48060369170E+01 -0.27516431599E+01  0.90382933714E+01  0.00000000000E+00 0.  1.
         11    1    5    5    0    0  0.13712670644E+03  0.17222618437E+03  0.10420302402E+02  0.22039549656E+03  0.00000000000E+00 0. -1.
        -11    1    5    5    0    0  0.78838075458E+02  0.16745121995E+03  0.88128539672E+02  0.20499266501E+03  0.00000000000E+00 0.  1.
          1    1    6    6  503    0 -0.17105936269E+03 -0.40925981110E+02 -0.64103997482E+02  0.18720460461E+03  0.00000000000E+00 0. -1.
         -1    1    6    6    0  503 -0.25959164139E+03 -0.62455756152E+02 -0.22239983822E+03  0.34749133773E+03  0.00000000000E+00 0.  1.
<mgrwt>
<rscale>  0 0.13244491E+04</rscale>
<asrwt>0</asrwt>
<pdfrwt beam="1">  1        2 0.10471759E+00 0.13244491E+04</pdfrwt>
<pdfrwt beam="2">  1       -2 0.99120666E-01 0.13244491E+04</pdfrwt>
<totfact> 0.35043323E+01</totfact>
</mgrwt>
</event>
<event>
12    2  0.4038398E-008  0.1356568E+04  0.7818608E-02  0.8985871E-01
         -2   -1    0    0    0  501 -0.00000000000E+00  0.00000000000E+00  0.24143389977E+03  0.24143389977E+03  0.00000000000E+00 0.  1.
          2   -1    0    0  501    0  0.00000000000E+00 -0.00000000000E+00 -0.19055698443E+04  0.19055698443E+04  0.00000000000E+00 0. -1.
         23    2    1    2    0    0 -0.27884668094E+03  0.22215471778E+03 -0.60070326756E+03  0.70496906502E+03  0.95019876189E+02 0.  0.
        254    2    1    2    0    0  0.27884668094E+03 -0.22215471778E+03 -0.10634326769E+04  0.14420346790E+04  0.90634803856E+03 0.  0.
         23    2    4    4    0    0 -0.19566884961E+03 -0.10599992209E+03  0.28611000611E+02  0.24215660377E+03  0.91098568602E+02 0.  0.
         23    2    4    4    0    0  0.47451553055E+03 -0.11615479568E+03 -0.10920436776E+04  0.11998780753E+04  0.92147037395E+02 0.  0.
          3    1    3    3  502    0 -0.27235269424E+03  0.23053963553E+03 -0.59212038106E+03  0.69132558124E+03  0.00000000000E+00 0. -1.
         -3    1    3    3    0  502 -0.64939867046E+01 -0.83849177489E+01 -0.85828865005E+01  0.13643483780E+02  0.00000000000E+00 0.  1.
         11    1    5    5    0    0 -0.64000364807E+01  0.14649749127E+02  0.11070349562E+01  0.16025016157E+02  0.00000000000E+00 0. -1.
        -11    1    5    5    0    0 -0.18926881313E+03 -0.12064967122E+03  0.27503965654E+02  0.22613158761E+03  0.00000000000E+00 0.  1.
          3    1    6    6  503    0  0.15844005399E+02 -0.21463547373E+02 -0.88388921321E+02  0.92327232089E+02  0.00000000000E+00 0. -1.
         -3    1    6    6    0  503  0.45867152515E+03 -0.94691248311E+02 -0.10036547562E+04  0.11075508432E+04  0.00000000000E+00 0.  1.
<mgrwt>
<rscale>  0 0.13565680E+04</rscale>
<asrwt>0</asrwt>
<pdfrwt beam="1">  1        2 0.29316459E+00 0.13565680E+04</pdfrwt>
<pdfrwt beam="2">  1       -2 0.37143677E-01 0.13565680E+04</pdfrwt>
<totfact> 0.50311369E+01</totfact>
</mgrwt>
</event>
<event>
12    2  0.3552864E-008  0.1923097E+04  0.7818608E-02  0.8643444E-01
          2   -1    0    0  501    0  0.00000000000E+00  0.00000000000E+00  0.19320579046E+04  0.19320579046E+04  0.00000000000E+00 0. -1.
         -2   -1    0    0    0  501 -0.00000000000E+00 -0.00000000000E+00 -0.47854448004E+03  0.47854448004E+03  0.00000000000E+00 0.  1.
         23    2    1    2    0    0  0.32493373408E+02 -0.73385436069E+03  0.58001366644E+03  0.94175650319E+03  0.10436194716E+03 0.  0.
        254    2    1    2    0    0 -0.32493373408E+02  0.73385436069E+03  0.87349975810E+03  0.14688458814E+04  0.92461254262E+03 0.  0.
         23    2    4    4    0    0  0.35978284538E+03  0.27758206607E+03  0.69372694905E+03  0.83436194718E+03  0.91691220046E+02 0.  0.
         23    2    4    4    0    0 -0.39227621879E+03  0.45627229463E+03  0.17977280905E+03  0.63448393425E+03  0.90479618009E+02 0.  0.
          3    1    3    3  502    0  0.13121175726E+02 -0.19405180012E+02  0.38507256595E+02  0.45072553447E+02  0.00000000000E+00 0. -1.
         -3    1    3    3    0  502  0.19372197683E+02 -0.71444918068E+03  0.54150640985E+03  0.89668394974E+03  0.00000000000E+00 0.  1.
         11    1    5    5    0    0  0.66694165542E+00  0.79498130802E+01  0.42927090207E+02  0.43662104998E+02  0.00000000000E+00 0.  1.
        -11    1    5    5    0    0  0.35911590372E+03  0.26963225299E+03  0.65079985885E+03  0.79069984219E+03  0.00000000000E+00 0. -1.
          3    1    6    6  503    0 -0.17078320178E+03  0.13667146544E+03  0.48267055594E+02  0.22399933065E+03  0.00000000000E+00 0. -1.
         -3    1    6    6    0  503 -0.22149301701E+03  0.31960082918E+03  0.13150575345E+03  0.41048460359E+03  0.00000000000E+00 0.  1.
<mgrwt>
<rscale>  0 0.19230971E+04</rscale>
<asrwt>0</asrwt>
<pdfrwt beam="1">  1        2 0.29723967E+00 0.19230971E+04</pdfrwt>
<pdfrwt beam="2">  1       -2 0.73622229E-01 0.19230971E+04</pdfrwt>
<totfact> 0.11334919E+01</totfact>
</mgrwt>
</event>
<event>
12    2  0.3552864E-008  0.1533802E+04  0.7818608E-02  0.8862281E-01
          2   -1    0    0  501    0  0.00000000000E+00  0.00000000000E+00  0.35485842537E+04  0.35485842537E+04  0.00000000000E+00 0. -1.
         -2   -1    0    0    0  501 -0.00000000000E+00 -0.00000000000E+00 -0.16573843071E+03  0.16573843071E+03  0.00000000000E+00 0.  1.
         23    2    1    2    0    0 -0.21018356370E+03  0.15613334338E+03  0.21498404803E+04  0.21675054132E+04  0.87811582901E+02 0.  0.
        254    2    1    2    0    0  0.21018356370E+03 -0.15613334338E+03  0.12330053427E+04  0.15468172712E+04  0.89654154621E+03 0.  0.
         23    2    4    4    0    0  0.36184924551E+02 -0.37354451147E+03  0.11890566295E+04  0.12502591854E+04  0.91910346712E+02 0.  0.
         23    2    4    4    0    0  0.17399863915E+03  0.21741116809E+03  0.43948713171E+02  0.29655808575E+03  0.92043828682E+02 0.  0.
          2    1    3    3  502    0 -0.99044178216E+02  0.12052573099E+03  0.10567460642E+04  0.10681986918E+04  0.00000000000E+00 0. -1.
         -2    1    3    3    0  502 -0.11113938549E+03  0.35607612393E+02  0.10930944161E+04  0.10993067213E+04  0.00000000000E+00 0.  1.
         11    1    5    5    0    0  0.29641904732E+02 -0.37673244989E+03  0.11769835406E+04  0.12361618972E+04  0.00000000000E+00 0.  1.
        -11    1    5    5    0    0  0.65430198186E+01  0.31879384187E+01  0.12073088921E+02  0.14097288243E+02  0.00000000000E+00 0. -1.
          3    1    6    6  503    0 -0.48709039290E+01  0.33727855125E+02 -0.79007163170E+01  0.34981641396E+02  0.00000000000E+00 0. -1.
         -3    1    6    6    0  503  0.17886954308E+03  0.18368331297E+03  0.51849429488E+02  0.26157644436E+03  0.00000000000E+00 0.  1.
<mgrwt>
<rscale>  0 0.15338015E+04</rscale>
<asrwt>0</asrwt>
<pdfrwt beam="1">  1        2 0.54593598E+00 0.15338015E+04</pdfrwt>
<pdfrwt beam="2">  1       -2 0.25498223E-01 0.15338015E+04</pdfrwt>
<totfact> 0.10163929E+01</totfact>
</mgrwt>
</event>
<event>
12    2  0.3552864E-008  0.3460969E+04  0.7818608E-02  0.8123103E-01
         -2   -1    0    0    0  501 -0.00000000000E+00  0.00000000000E+00  0.17358448092E+04  0.17358448092E+04  0.00000000000E+00 0.  1.
          2   -1    0    0  501    0  0.00000000000E+00 -0.00000000000E+00 -0.17251402511E+04  0.17251402511E+04  0.00000000000E+00 0. -1.
         23    2    1    2    0    0  0.10020864593E+03  0.15449469887E+04 -0.46007844509E+03  0.16176443357E+04  0.90543086702E+02 0.  0.
        254    2    1    2    0    0 -0.10020864593E+03 -0.15449469887E+04  0.47078300319E+03  0.18433407247E+04  0.88281675357E+03 0.  0.
         23    2    4    4    0    0 -0.46939779839E+03 -0.65731705946E+03  0.27461912713E+03  0.85792418105E+03  0.90654429917E+02 0.  0.
         23    2    4    4    0    0  0.36918915246E+03 -0.88762992928E+03  0.19616387606E+03  0.98541654361E+03  0.91531287042E+02 0.  0.
          3    1    3    3  502    0  0.62371195110E+02  0.10598476207E+04 -0.27185427269E+03  0.10959342547E+04  0.00000000000E+00 0. -1.
         -3    1    3    3    0  502  0.37837450821E+02  0.48509936809E+03 -0.18822417240E+03  0.52171008106E+03  0.00000000000E+00 0.  1.
         11    1    5    5    0    0 -0.97423134754E+00  0.28559840911E+01  0.25499259209E+01  0.39506827320E+01  0.00000000000E+00 0.  1.
        -11    1    5    5    0    0 -0.46842356704E+03 -0.66017304355E+03  0.27206920120E+03  0.85397349832E+03  0.00000000000E+00 0. -1.
          4    1    6    6  503    0  0.84549501282E+01 -0.80714382407E+02  0.64875599005E+01  0.81414901232E+02  0.00000000000E+00 0.  1.
         -4    1    6    6    0  503  0.36073420233E+03 -0.80691554687E+03  0.18967631616E+03  0.90400164238E+03  0.00000000000E+00 0. -1.
<mgrwt>
<rscale>  0 0.34609685E+04</rscale>
<asrwt>0</asrwt>
<pdfrwt beam="1">  1        2 0.26540619E+00 0.34609685E+04</pdfrwt>
<pdfrwt beam="2">  1       -2 0.26705305E+00 0.34609685E+04</pdfrwt>
<totfact> 0.39546346E-01</totfact>
</mgrwt>
</event>
<event>
12    2  0.3552864E-008  0.2731981E+04  0.7818608E-02  0.8324702E-01
         -2   -1    0    0    0  501 -0.00000000000E+00  0.00000000000E+00  0.18769175478E+04  0.18769175478E+04  0.00000000000E+00 0.  1.
          2   -1    0    0  501    0  0.00000000000E+00 -0.00000000000E+00 -0.99414616501E+03  0.99414616501E+03  0.00000000000E+00 0. -1.
         23    2    1    2    0    0 -0.95651709408E+02 -0.68241552192E+03 -0.66023334179E+03  0.95883831458E+03  0.92858245901E+02 0.  0.
        254    2    1    2    0    0  0.95651709408E+02  0.68241552192E+03  0.15430047246E+04  0.19122253982E+04  0.89493139373E+03 0.  0.
         23    2    4    4    0    0 -0.39157309323E+03  0.33231916298E+03  0.74621794502E+03  0.91045917458E+03  0.91264306683E+02 0.  0.
         23    2    4    4    0    0  0.48722480264E+03  0.35009635894E+03  0.79678677956E+03  0.10017662237E+04  0.93332341237E+02 0.  0.
          3    1    3    3  502    0 -0.67105254966E+02 -0.64349429556E+03 -0.61764022139E+03  0.89446490526E+03  0.00000000000E+00 0. -1.
         -3    1    3    3    0  502 -0.28546454441E+02 -0.38921226358E+02 -0.42593120403E+02  0.64373409324E+02  0.00000000000E+00 0.  1.
         11    1    5    5    0    0 -0.35833857880E+03  0.32676953343E+03  0.71839510063E+03  0.86676201211E+03  0.00000000000E+00 0. -1.
        -11    1    5    5    0    0 -0.33234514427E+02  0.55496295532E+01  0.27822844396E+02  0.43697162467E+02  0.00000000000E+00 0.  1.
          2    1    6    6  503    0  0.24420779814E+03  0.11864762442E+03  0.36427039614E+03  0.45432106374E+03  0.00000000000E+00 0. -1.
         -2    1    6    6    0  503  0.24301700449E+03  0.23144873452E+03  0.43251638342E+03  0.54744515991E+03  0.00000000000E+00 0.  1.
<mgrwt>
<rscale>  0 0.27319812E+04</rscale>
<asrwt>0</asrwt>
<pdfrwt beam="1">  1        2 0.15294556E+00 0.27319812E+04</pdfrwt>
<pdfrwt beam="2">  1       -2 0.28875654E+00 0.27319812E+04</pdfrwt>
<totfact> 0.82782659E-01</totfact>
</mgrwt>
</event>
<event>
12    2  0.3552864E-008  0.1604034E+04  0.7818608E-02  0.8818074E-01
          2   -1    0    0  501    0  0.00000000000E+00  0.00000000000E+00  0.19538077548E+04  0.19538077548E+04  0.00000000000E+00 0. -1.
         -2   -1    0    0    0  501 -0.00000000000E+00 -0.00000000000E+00 -0.32921914267E+03  0.32921914267E+03  0.00000000000E+00 0.  1.
         23    2    1    2    0    0  0.21273541529E+03 -0.46176120938E+03  0.31196951910E+03  0.60335481573E+03  0.90731920551E+02 0.  0.
        254    2    1    2    0    0 -0.21273541529E+03  0.46176120938E+03  0.13126190931E+04  0.16796720818E+04  0.91643311126E+03 0.  0.
         23    2    4    4    0    0  0.32465893689E+03  0.30791807525E+02  0.56914079271E+03  0.66219417414E+03  0.90710096619E+02 0.  0.
         23    2    4    4    0    0 -0.53739435218E+03  0.43096940186E+03  0.74347830036E+03  0.10174779076E+04  0.89297224648E+02 0.  0.
          4    1    3    3  502    0  0.16773177423E+03 -0.40811895639E+03  0.29661084877E+03  0.53167003514E+03  0.00000000000E+00 0. -1.
         -4    1    3    3    0  502  0.45003641057E+02 -0.53642252987E+02  0.15358670329E+02  0.71684780590E+02  0.00000000000E+00 0.  1.
         11    1    5    5    0    0  0.19999170171E+03 -0.87387166439E+01  0.40958567301E+03  0.45588756230E+03  0.00000000000E+00 0.  1.
        -11    1    5    5    0    0  0.12466723519E+03  0.39530524169E+02  0.15955511970E+03  0.20630661185E+03  0.00000000000E+00 0. -1.
          1    1    6    6  503    0 -0.29845996551E+03  0.18334650532E+03  0.38849433440E+03  0.52308903629E+03  0.00000000000E+00 0. -1.
         -1    1    6    6    0  503 -0.23893438668E+03  0.24762289654E+03  0.35498396596E+03  0.49438887135E+03  0.00000000000E+00 0.  1.
<mgrwt>
<rscale>  0 0.16040336E+04</rscale>
<asrwt>0</asrwt>
<pdfrwt beam="1">  1        2 0.30058580E+00 0.16040336E+04</pdfrwt>
<pdfrwt beam="2">  1       -2 0.50649100E-01 0.16040336E+04</pdfrwt>
<totfact> 0.25048433E+01</totfact>
</mgrwt>
</event>
<event>
12    2  0.3552864E-008  0.1782538E+04  0.7818608E-02  0.8715641E-01
         -1   -1    0    0    0  501 -0.00000000000E+00  0.00000000000E+00  0.49377774590E+03  0.49377774590E+03  0.00000000000E+00 0.  1.
          1   -1    0    0  501    0  0.00000000000E+00 -0.00000000000E+00 -0.16087408669E+04  0.16087408669E+04  0.00000000000E+00 0. -1.
         23    2    1    2    0    0  0.15241144625E+03  0.62080758801E+03 -0.19782017310E+03  0.67505732442E+03  0.89096914056E+02 0.  0.
        254    2    1    2    0    0 -0.15241144625E+03 -0.62080758801E+03 -0.91714294793E+03  0.14274612884E+04  0.88761660231E+03 0.  0.
         23    2    4    4    0    0 -0.11906552783E+02  0.10736506104E+03  0.92461375663E+02  0.17132355911E+03  0.95570045448E+02 0.  0.
         23    2    4    4    0    0 -0.14050489347E+03 -0.72817264904E+03 -0.10096043236E+04  0.12561377293E+04  0.92758141651E+02 0.  0.
          3    1    3    3  502    0  0.11720510731E+03  0.51372396768E+03 -0.12726788025E+03  0.54207606984E+03  0.00000000000E+00 0. -1.
         -3    1    3    3    0  502  0.35206338943E+02  0.10708362033E+03 -0.70552292851E+02  0.13298125458E+03  0.00000000000E+00 0.  1.
         11    1    5    5    0    0  0.32133504951E+02  0.23290273344E+02  0.12753601875E+01  0.39706743967E+02  0.00000000000E+00 0. -1.
        -11    1    5    5    0    0 -0.44040057734E+02  0.84074787691E+02  0.91186015475E+02  0.13161681514E+03  0.00000000000E+00 0.  1.
          1    1    6    6  503    0 -0.55511834454E+02 -0.10997841453E+03 -0.15641484420E+03  0.19910404042E+03  0.00000000000E+00 0. -1.
         -1    1    6    6    0  503 -0.84993059017E+02 -0.61819423452E+03 -0.85318947939E+03  0.10570336889E+04  0.00000000000E+00 0.  1.
<mgrwt>
<rscale>  0 0.17825380E+04</rscale>
<asrwt>0</asrwt>
<pdfrwt beam="1">  1        1 0.24749859E+00 0.17825380E+04</pdfrwt>
<pdfrwt beam="2">  1       -1 0.75965809E-01 0.17825380E+04</pdfrwt>
<totfact> 0.90516566E+00</totfact>
</mgrwt>
</event>
<event>
12    2  0.3552864E-008  0.1424857E+04  0.7818608E-02  0.8936020E-01
          2   -1    0    0  501    0  0.00000000000E+00  0.00000000000E+00  0.49008171573E+03  0.49008171573E+03  0.00000000000E+00 0. -1.
         -2   -1    0    0    0  501 -0.00000000000E+00 -0.00000000000E+00 -0.10356525098E+04  0.10356525098E+04  0.00000000000E+00 0.  1.
         23    2    1    2    0    0  0.63166656386E+02 -0.37082802492E+03  0.32945253216E+02  0.39099597001E+03  0.10143474902E+03 0.  0.
        254    2    1    2    0    0 -0.63166656386E+02  0.37082802492E+03 -0.57851604727E+03  0.11347382555E+04  0.90080333092E+03 0.  0.
         23    2    4    4    0    0 -0.12724350946E+03  0.50245846863E+02 -0.74062650593E+03  0.75890356812E+03  0.93227938964E+02 0.  0.
         23    2    4    4    0    0  0.64076853074E+02  0.32058217806E+03  0.16211045865E+03  0.37583468738E+03  0.89961855500E+02 0.  0.
          1    1    3    3  502    0  0.44222564830E+02 -0.36694813000E+03  0.36256084636E+02  0.37137725970E+03  0.00000000000E+00 0. -1.
         -1    1    3    3    0  502  0.18944091556E+02 -0.38798949227E+01 -0.33108314195E+01  0.19618710308E+02  0.00000000000E+00 0.  1.
         11    1    5    5    0    0  0.13817693333E+02  0.62356859059E+01 -0.38107211726E+02  0.41011852107E+02  0.00000000000E+00 0.  1.
        -11    1    5    5    0    0 -0.14106120279E+03  0.44010160957E+02 -0.70251929420E+03  0.71789171602E+03  0.00000000000E+00 0. -1.
          2    1    6    6  503    0  0.35340781284E+02  0.32248337836E+02  0.11227703086E+02  0.49142521623E+02  0.00000000000E+00 0.  1.
         -2    1    6    6    0  503  0.28736071791E+02  0.28833384022E+03  0.15088275557E+03  0.32669216575E+03  0.00000000000E+00 0. -1.
<mgrwt>
<rscale>  0 0.14248570E+04</rscale>
<asrwt>0</asrwt>
<pdfrwt beam="1">  1        2 0.75397188E-01 0.14248570E+04</pdfrwt>
<pdfrwt beam="2">  1       -2 0.15933115E+00 0.14248570E+04</pdfrwt>
<totfact> 0.15586753E+01</totfact>
</mgrwt>
</event>
<event>
12    2  0.3552864E-008  0.1188919E+04  0.7818608E-02  0.9122611E-01
         -4   -1    0    0    0  501 -0.00000000000E+00  0.00000000000E+00  0.41602155241E+03  0.41602155241E+03  0.00000000000E+00 0.  1.
          4   -1    0    0  501    0  0.00000000000E+00 -0.00000000000E+00 -0.84943203102E+03  0.84943203102E+03  0.00000000000E+00 0. -1.
         23    2    1    2    0    0 -0.19003990283E+03 -0.44349909550E+02  0.58789555650E+02  0.22208222187E+03  0.88216904683E+02 0.  0.
        254    2    1    2    0    0  0.19003990283E+03  0.44349909550E+02 -0.49220003426E+03  0.10433713616E+04  0.89904440672E+03 0.  0.
         23    2    4    4    0    0  0.32690805740E+03 -0.28517410799E+03 -0.50820571969E+03  0.67605969162E+03  0.10291017075E+03 0.  0.
         23    2    4    4    0    0 -0.13686815457E+03  0.32952401754E+03  0.16005685428E+02  0.36731166995E+03  0.85689620376E+02 0.  0.
          4    1    3    3  502    0 -0.11313918903E+03 -0.24870478454E+02  0.79005621778E+02  0.14021734937E+03  0.00000000000E+00 0.  1.
         -4    1    3    3    0  502 -0.76900713809E+02 -0.19479431096E+02 -0.20216066128E+02  0.81864872502E+02  0.00000000000E+00 0. -1.
         11    1    5    5    0    0  0.32238026847E+03 -0.26416183185E+03 -0.50425583945E+03  0.65420521439E+03  0.00000000000E+00 0. -1.
        -11    1    5    5    0    0  0.45277889292E+01 -0.21012276141E+02 -0.39498802352E+01  0.21854477232E+02  0.00000000000E+00 0.  1.
          1    1    6    6  503    0 -0.54961639326E+02  0.13119738955E+03 -0.35572950868E+02  0.14662527632E+03  0.00000000000E+00 0. -1.
         -1    1    6    6    0  503 -0.81906515241E+02  0.19832662799E+03  0.51578636296E+02  0.22068639362E+03  0.00000000000E+00 0.  1.
<mgrwt>
<rscale>  0 0.11889189E+04</rscale>
<asrwt>0</asrwt>
<pdfrwt beam="1">  1        4 0.13068185E+00 0.11889189E+04</pdfrwt>
<pdfrwt beam="2">  1       -4 0.64003317E-01 0.11889189E+04</pdfrwt>
<totfact> 0.19154779E+00</totfact>
</mgrwt>
</event>
<event>
12    2  0.3552864E-008  0.1008090E+04  0.7818608E-02  0.9299716E-01
         -1   -1    0    0    0  501 -0.00000000000E+00  0.00000000000E+00  0.36455958532E+03  0.36455958532E+03  0.00000000000E+00 0.  1.
          1   -1    0    0  501    0  0.00000000000E+00 -0.00000000000E+00 -0.69689967041E+03  0.69689967041E+03  0.00000000000E+00 0. -1.
         23    2    1    2    0    0 -0.39306674265E+02  0.38903244092E+02 -0.86649400465E+01  0.10692324770E+03  0.91098971837E+02 0.  0.
        254    2    1    2    0    0  0.39306674265E+02 -0.38903244092E+02 -0.32367514505E+03  0.95453600803E+03  0.89627836862E+03 0.  0.
         23    2    4    4    0    0  0.40443228975E+03  0.79064865327E+02 -0.36607201418E+03  0.55855601456E+03  0.90329241742E+02 0.  0.
         23    2    4    4    0    0 -0.36512561548E+03 -0.11796810942E+03  0.42396869127E+02  0.39597999348E+03  0.88144601644E+02 0.  0.
          1    1    3    3  502    0 -0.58607170782E+02  0.50572025237E+02 -0.22312711035E+02  0.80561698575E+02  0.00000000000E+00 0. -1.
         -1    1    3    3    0  502  0.19300496517E+02 -0.11668781145E+02  0.13647770989E+02  0.26361549123E+02  0.00000000000E+00 0.  1.
         11    1    5    5    0    0  0.11874823758E+02 -0.98944447218E+01 -0.15803773974E+01  0.15537344315E+02  0.00000000000E+00 0.  1.
        -11    1    5    5    0    0  0.39255746599E+03  0.88959310049E+02 -0.36449163678E+03  0.54301867024E+03  0.00000000000E+00 0. -1.
          3    1    6    6  503    0 -0.27604788893E+03 -0.59964125594E+02  0.58470384688E+02  0.28847342898E+03  0.00000000000E+00 0. -1.
         -3    1    6    6    0  503 -0.89077726555E+02 -0.58003983826E+02 -0.16073515561E+02  0.10750656450E+03  0.00000000000E+00 0.  1.
<mgrwt>
<rscale>  0 0.10080902E+04</rscale>
<asrwt>0</asrwt>
<pdfrwt beam="1">  1        1 0.10721533E+00 0.10080902E+04</pdfrwt>
<pdfrwt beam="2">  1       -1 0.56086090E-01 0.10080902E+04</pdfrwt>
<totfact> 0.88405080E+01</totfact>
</mgrwt>
</event>
<event>
12    2  0.3552864E-008  0.1796456E+04  0.7818608E-02  0.8708187E-01
         -1   -1    0    0    0  501 -0.00000000000E+00  0.00000000000E+00  0.29449438844E+03  0.29449438844E+03  0.00000000000E+00 0.  1.
          1   -1    0    0  501    0  0.00000000000E+00 -0.00000000000E+00 -0.27396560690E+04  0.27396560690E+04  0.00000000000E+00 0. -1.
         23    2    1    2    0    0  0.59040503347E+03  0.30694358537E+03 -0.78090587903E+03  0.10300460536E+04  0.91588277382E+02 0.  0.
        254    2    1    2    0    0 -0.59040503347E+03 -0.30694358537E+03 -0.16642558015E+04  0.20041044038E+04  0.89660170658E+03 0.  0.
         23    2    4    4    0    0 -0.35436293714E+03  0.11987777617E+03 -0.13787330386E+04  0.14315363300E+04  0.91911369880E+02 0.  0.
         23    2    4    4    0    0 -0.23604209634E+03 -0.42682136154E+03 -0.28552276295E+03  0.57256807382E+03  0.91752956863E+02 0.  0.
          1    1    3    3  502    0  0.56362770995E+03  0.27434388059E+03 -0.70641011300E+03  0.94443422639E+03  0.00000000000E+00 0. -1.
         -1    1    3    3    0  502  0.26777323529E+02  0.32599704783E+02 -0.74495766031E+02  0.85611827243E+02  0.00000000000E+00 0.  1.
         11    1    5    5    0    0 -0.17625209390E+03  0.12519171029E+02 -0.59520097287E+03  0.62087496999E+03  0.00000000000E+00 0. -1.
        -11    1    5    5    0    0 -0.17811084323E+03  0.10735860514E+03 -0.78353206570E+03  0.81066135997E+03  0.00000000000E+00 0.  1.
          1    1    6    6  503    0 -0.13834118412E+03 -0.20444097025E+03 -0.97519105539E+02  0.26541358195E+03  0.00000000000E+00 0. -1.
         -1    1    6    6    0  503 -0.97700912222E+02 -0.22238039129E+03 -0.18800365741E+03  0.30715449187E+03  0.00000000000E+00 0.  1.
<mgrwt>
<rscale>  0 0.17964558E+04</rscale>
<asrwt>0</asrwt>
<pdfrwt beam="1">  1        1 0.42148555E+00 0.17964558E+04</pdfrwt>
<pdfrwt beam="2">  1       -1 0.45306829E-01 0.17964558E+04</pdfrwt>
<totfact> 0.42071587E+00</totfact>
</mgrwt>
</event>
<event>
12    2  0.3552864E-008  0.1105686E+04  0.7818608E-02  0.9199668E-01
         -2   -1    0    0    0  501 -0.00000000000E+00  0.00000000000E+00  0.28808810206E+03  0.28808810206E+03  0.00000000000E+00 0.  1.
          2   -1    0    0  501    0  0.00000000000E+00 -0.00000000000E+00 -0.10609093694E+04  0.10609093694E+04  0.00000000000E+00 0. -1.
         23    2    1    2    0    0 -0.71694640897E+02 -0.11174298379E+03 -0.11228677205E+02  0.16209522556E+03  0.92315562068E+02 0.  0.
        254    2    1    2    0    0  0.71694640897E+02  0.11174298379E+03 -0.76159259012E+03  0.11869022459E+04  0.90060371529E+03 0.  0.
         23    2    4    4    0    0  0.13278991967E+03 -0.24602661627E+03  0.45610186081E+02  0.29752023907E+03  0.90971121274E+02 0.  0.
         23    2    4    4    0    0 -0.61095278777E+02  0.35776960005E+03 -0.80720277620E+03  0.88938200681E+03  0.87705828294E+02 0.  0.
          1    1    3    3  502    0 -0.11389817062E+02  0.33585550924E+01 -0.28628012589E+02  0.30993078740E+02  0.00000000000E+00 0. -1.
         -1    1    3    3    0  502 -0.60304823836E+02 -0.11510153888E+03  0.17399335383E+02  0.13110214682E+03  0.00000000000E+00 0.  1.
         11    1    5    5    0    0  0.77021560229E+02 -0.10565875097E+03  0.63622465187E+02  0.14540945799E+03  0.00000000000E+00 0. -1.
        -11    1    5    5    0    0  0.55768359445E+02 -0.14036786530E+03 -0.18012279106E+02  0.15211078109E+03  0.00000000000E+00 0.  1.
          3    1    6    6  503    0  0.10448268479E+01  0.20609598895E+03 -0.50816954509E+03  0.54837298883E+03  0.00000000000E+00 0. -1.
         -3    1    6    6    0  503 -0.62140105625E+02  0.15167361110E+03 -0.29903323112E+03  0.34100901798E+03  0.00000000000E+00 0.  1.
<mgrwt>
<rscale>  0 0.11056860E+04</rscale>
<asrwt>0</asrwt>
<pdfrwt beam="1">  1        2 0.16321683E+00 0.11056860E+04</pdfrwt>
<pdfrwt beam="2">  1       -2 0.44321246E-01 0.11056860E+04</pdfrwt>
<totfact> 0.11035042E+02</totfact>
</mgrwt>
</event>
<event>
12    2  0.3552864E-008  0.1637119E+04  0.7818608E-02  0.8798063E-01
          1   -1    0    0  501    0  0.00000000000E+00  0.00000000000E+00  0.70875885163E+03  0.70875885163E+03  0.00000000000E+00 0. -1.
         -1   -1    0    0    0  501 -0.00000000000E+00 -0.00000000000E+00 -0.94537040255E+03  0.94537040255E+03  0.00000000000E+00 0.  1.
         23    2    1    2    0    0  0.40268634700E+03 -0.20150100162E+03  0.26000621222E+03  0.52787736927E+03  0.91062280201E+02 0.  0.
        254    2    1    2    0    0 -0.40268634700E+03  0.20150100162E+03 -0.49661776314E+03  0.11262518849E+04  0.90501666166E+03 0.  0.
         23    2    4    4    0    0 -0.19978893455E+03 -0.18741922500E+03 -0.60017330365E+03  0.66620196426E+03  0.92603879525E+02 0.  0.
         23    2    4    4    0    0 -0.20289741245E+03  0.38892022662E+03  0.10355554051E+03  0.46004992065E+03  0.92173081010E+02 0.  0.
          1    1    3    3  502    0  0.27790813177E+03 -0.15818554720E+03  0.22572908361E+03  0.39141948883E+03  0.00000000000E+00 0. -1.
         -1    1    3    3    0  502  0.12477821523E+03 -0.43315454425E+02  0.34277128607E+02  0.13645788044E+03  0.00000000000E+00 0.  1.
         11    1    5    5    0    0 -0.83920718127E+01  0.94504113575E+01 -0.46476036898E+02  0.48163878061E+02  0.00000000000E+00 0. -1.
        -11    1    5    5    0    0 -0.19139686274E+03 -0.19686963636E+03 -0.55369726675E+03  0.61803808620E+03  0.00000000000E+00 0.  1.
          4    1    6    6  503    0  0.28019737248E+01 -0.13055661091E+01 -0.48977799686E+01  0.57917016705E+01  0.00000000000E+00 0. -1.
         -4    1    6    6    0  503 -0.20569938617E+03  0.39022579273E+03  0.10845332048E+03  0.45425821898E+03  0.00000000000E+00 0.  1.
<mgrwt>
<rscale>  0 0.16371190E+04</rscale>
<asrwt>0</asrwt>
<pdfrwt beam="1">  1        1 0.10903982E+00 0.16371190E+04</pdfrwt>
<pdfrwt beam="2">  1       -1 0.14544160E+00 0.16371190E+04</pdfrwt>
<totfact> 0.96927445E+00</totfact>
</mgrwt>
</event>
<event>
12    2  0.3552864E-008  0.1531458E+04  0.7818608E-02  0.8863799E-01
          1   -1    0    0  501    0  0.00000000000E+00  0.00000000000E+00  0.18475895761E+04  0.18475895761E+04  0.00000000000E+00 0. -1.
         -1   -1    0    0    0  501 -0.00000000000E+00 -0.00000000000E+00 -0.31735432051E+03  0.31735432051E+03  0.00000000000E+00 0.  1.
         23    2    1    2    0    0 -0.20867691539E+03 -0.12474779477E+03 -0.11149690987E+03  0.27829505445E+03  0.76866827101E+02 0.  0.
        254    2    1    2    0    0  0.20867691539E+03  0.12474779477E+03  0.16417321655E+04  0.18866488422E+04  0.89724650080E+03 0.  0.
         23    2    4    4    0    0  0.25974892155E+03 -0.20321792084E+03  0.14549123641E+04  0.14945291283E+04  0.89890502963E+02 0.  0.
         23    2    4    4    0    0 -0.51072006164E+02  0.32796571561E+03  0.18681980140E+03  0.39211971390E+03  0.93200704950E+02 0.  0.
          4    1    3    3  502    0 -0.54723447282E+02 -0.65154902553E+02 -0.13042343582E+02  0.86080890651E+02  0.00000000000E+00 0. -1.
         -4    1    3    3    0  502 -0.15395346810E+03 -0.59592892216E+02 -0.98454566286E+02  0.19221416380E+03  0.00000000000E+00 0.  1.
         11    1    5    5    0    0  0.24079721212E+03 -0.19902217775E+03  0.12401801263E+04  0.12789213698E+04  0.00000000000E+00 0. -1.
        -11    1    5    5    0    0  0.18951709432E+02 -0.41957430905E+01  0.21473223780E+03  0.21560775845E+03  0.00000000000E+00 0.  1.
          3    1    6    6  503    0 -0.60467772773E+02  0.23936228662E+03  0.17414829671E+03  0.30212296346E+03  0.00000000000E+00 0. -1.
         -3    1    6    6    0  503  0.93957666092E+01  0.88603428989E+02  0.12671504688E+02  0.89996750441E+02  0.00000000000E+00 0.  1.
<mgrwt>
<rscale>  0 0.15314575E+04</rscale>
<asrwt>0</asrwt>
<pdfrwt beam="1">  1        1 0.28424454E+00 0.15314575E+04</pdfrwt>
<pdfrwt beam="2">  1       -1 0.48823743E-01 0.15314575E+04</pdfrwt>
<totfact> 0.15328339E+01</totfact>
</mgrwt>
</event>
<event>
12    2  0.3552864E-008  0.1069739E+04  0.7818608E-02  0.9235198E-01
         -2   -1    0    0    0  501 -0.00000000000E+00  0.00000000000E+00  0.17473851347E+03  0.17473851347E+03  0.00000000000E+00 0. -1.
          2   -1    0    0  501    0  0.00000000000E+00 -0.00000000000E+00 -0.16372209019E+04  0.16372209019E+04  0.00000000000E+00 0.  1.
         23    2    1    2    0    0 -0.56779400821E+02 -0.63261302293E+02 -0.33412334652E+03  0.35655487124E+03  0.90923444672E+02 0.  0.
        254    2    1    2    0    0  0.56779400821E+02  0.63261302293E+02 -0.11283590419E+04  0.14554045441E+04  0.91530452140E+03 0.  0.
         23    2    4    4    0    0 -0.38395427786E+03  0.18660974256E+03 -0.68398962747E+03  0.81141203678E+03  0.91124088171E+02 0.  0.
         23    2    4    4    0    0  0.44073367868E+03 -0.12334844027E+03 -0.44436941445E+03  0.64399250736E+03  0.88324174492E+02 0.  0.
          2    1    3    3  502    0  0.12975529974E+02 -0.11349874393E+02 -0.79375710541E+01  0.18978647504E+02  0.00000000000E+00 0. -1.
         -2    1    3    3    0  502 -0.69754930795E+02 -0.51911427900E+02 -0.32618577547E+03  0.33757622374E+03  0.00000000000E+00 0.  1.
         11    1    5    5    0    0 -0.17377623642E+03  0.13447559470E+03 -0.33106697138E+03  0.39735023022E+03  0.00000000000E+00 0. -1.
        -11    1    5    5    0    0 -0.21017804144E+03  0.52134147862E+02 -0.35292265609E+03  0.41406180656E+03  0.00000000000E+00 0.  1.
          3    1    6    6  503    0  0.41292300706E+03 -0.90616336529E+02 -0.39520325584E+03  0.57870747673E+03  0.00000000000E+00 0.  1.
         -3    1    6    6    0  503  0.27810671620E+02 -0.32732103737E+02 -0.49166158615E+02  0.65285030627E+02  0.00000000000E+00 0. -1.
<mgrwt>
<rscale>  0 0.10697393E+04</rscale>
<asrwt>0</asrwt>
<pdfrwt beam="1">  1        2 0.25188014E+00 0.10697393E+04</pdfrwt>
<pdfrwt beam="2">  1       -2 0.26882849E-01 0.10697393E+04</pdfrwt>
<totfact> 0.13280763E+02</totfact>
</mgrwt>
</event>
<event>
12    2  0.3552864E-008  0.3397703E+04  0.7818608E-02  0.8138470E-01
         -2   -1    0    0    0  501 -0.00000000000E+00  0.00000000000E+00  0.16466847505E+04  0.16466847505E+04  0.00000000000E+00 0.  1.
          2   -1    0    0  501    0  0.00000000000E+00 -0.00000000000E+00 -0.17526708811E+04  0.17526708811E+04  0.00000000000E+00 0. -1.
         23    2    1    2    0    0 -0.79162560705E+02 -0.99072692392E+02  0.15211981353E+04  0.15315524338E+04  0.12460730874E+03 0.  0.
        254    2    1    2    0    0  0.79162560705E+02  0.99072692392E+02 -0.16271842659E+04  0.18678031978E+04  0.90822796770E+03 0.  0.
         23    2    4    4    0    0  0.15691679113E+03 -0.16217880164E+03 -0.31190324975E+02  0.24602986261E+03  0.92914013374E+02 0.  0.
         23    2    4    4    0    0 -0.77754230426E+02  0.26125149403E+03 -0.15959939409E+04  0.16217733352E+04  0.93027028186E+02 0.  0.
          3    1    3    3  502    0 -0.31199227206E+02  0.27683428992E+02  0.30927609686E+03  0.31207606141E+03  0.00000000000E+00 0. -1.
         -3    1    3    3    0  502 -0.47963333499E+02 -0.12675612138E+03  0.12119220384E+04  0.12194763724E+04  0.00000000000E+00 0.  1.
         11    1    5    5    0    0  0.13682111486E+03 -0.89870165073E+02 -0.44890562786E+02  0.16974046856E+03  0.00000000000E+00 0.  1.
        -11    1    5    5    0    0  0.20095676273E+02 -0.72308636569E+02  0.13700237810E+02  0.76289394042E+02  0.00000000000E+00 0. -1.
          2    1    6    6  503    0  0.16655944775E+02  0.98084161667E+02 -0.55882147665E+03  0.56760846191E+03  0.00000000000E+00 0. -1.
         -2    1    6    6    0  503 -0.94410175202E+02  0.16316733237E+03 -0.10371724642E+04  0.10541648733E+04  0.00000000000E+00 0.  1.
<mgrwt>
<rscale>  0 0.33977030E+04</rscale>
<asrwt>0</asrwt>
<pdfrwt beam="1">  1        2 0.26964167E+00 0.33977030E+04</pdfrwt>
<pdfrwt beam="2">  1       -2 0.25333612E+00 0.33977030E+04</pdfrwt>
<totfact> 0.46562370E-01</totfact>
</mgrwt>
</event>
<event>
12    2  0.3552864E-008  0.1989507E+04  0.7818608E-02  0.8611542E-01
          2   -1    0    0  501    0  0.00000000000E+00  0.00000000000E+00  0.11561288799E+04  0.11561288799E+04  0.00000000000E+00 0. -1.
         -2   -1    0    0    0  501 -0.00000000000E+00 -0.00000000000E+00 -0.85590322351E+03  0.85590322351E+03  0.00000000000E+00 0.  1.
         23    2    1    2    0    0 -0.66118132721E+03 -0.37989906936E+03  0.30636001668E+03  0.82706504865E+03  0.93252798988E+02 0.  0.
        254    2    1    2    0    0  0.66118132721E+03  0.37989906936E+03 -0.61343602457E+01  0.11849670548E+04  0.90698690192E+03 0.  0.
         23    2    4    4    0    0  0.66028206689E+03  0.37651282460E+03  0.33205300612E+03  0.83461082959E+03  0.92637589897E+02 0.  0.
         23    2    4    4    0    0  0.89926032585E+00  0.33862447653E+01 -0.33818736636E+03  0.35035622522E+03  0.91468652865E+02 0.  0.
          2    1    3    3  502    0 -0.41773745277E+03 -0.20442142441E+03  0.22197729259E+03  0.51533155990E+03  0.00000000000E+00 0. -1.
         -2    1    3    3    0  502 -0.24344387444E+03 -0.17547764495E+03  0.84382724083E+02  0.31173348875E+03  0.00000000000E+00 0.  1.
         11    1    5    5    0    0  0.11691047933E+03  0.10555722721E+03  0.51245623093E+02  0.16563967604E+03  0.00000000000E+00 0. -1.
        -11    1    5    5    0    0  0.54337158756E+03  0.27095559739E+03  0.28080738303E+03  0.66897115355E+03  0.00000000000E+00 0.  1.
          4    1    6    6  503    0 -0.23865562313E+02  0.25080540006E+02 -0.53198080248E+02  0.63471523485E+02  0.00000000000E+00 0. -1.
         -4    1    6    6    0  503  0.24764822639E+02 -0.21694295241E+02 -0.28498928612E+03  0.28688470173E+03  0.00000000000E+00 0.  1.
<mgrwt>
<rscale>  0 0.19895069E+04</rscale>
<asrwt>0</asrwt>
<pdfrwt beam="1">  1        2 0.17786598E+00 0.19895069E+04</pdfrwt>
<pdfrwt beam="2">  1       -2 0.13167742E+00 0.19895069E+04</pdfrwt>
<totfact> 0.78694751E+00</totfact>
</mgrwt>
</event>
<event>
12    2  0.3552864E-008  0.1430514E+04  0.7818608E-02  0.8932023E-01
         -1   -1    0    0    0  501 -0.00000000000E+00  0.00000000000E+00  0.67206059328E+03  0.67206059328E+03  0.00000000000E+00 0.  1.
          1   -1    0    0  501    0  0.00000000000E+00 -0.00000000000E+00 -0.76122951398E+03  0.76122951398E+03  0.00000000000E+00 0. -1.
         23    2    1    2    0    0 -0.86011855084E+01  0.36994382692E+03  0.18889915416E+03  0.42545616027E+03  0.91638629434E+02 0.  0.
        254    2    1    2    0    0  0.86011855084E+01 -0.36994382692E+03 -0.27806807485E+03  0.10078339470E+04  0.89525135855E+03 0.  0.
         23    2    4    4    0    0 -0.39298388856E+03 -0.26849104917E+03 -0.32152191310E+03  0.58158854036E+03  0.91351570983E+02 0.  0.
         23    2    4    4    0    0  0.40158507406E+03 -0.10145277775E+03  0.43453838248E+02  0.42624540663E+03  0.90739587780E+02 0.  0.
          3    1    3    3  502    0  0.29530340363E+01 -0.28098916616E+00 -0.61547474561E+01  0.68322969183E+01  0.00000000000E+00 0. -1.
         -3    1    3    3    0  502 -0.11554219545E+02  0.37022481609E+03  0.19505390161E+03  0.41862386336E+03  0.00000000000E+00 0.  1.
         11    1    5    5    0    0 -0.18819648817E+03 -0.18153808857E+03 -0.15849584034E+03  0.30576940195E+03  0.00000000000E+00 0. -1.
        -11    1    5    5    0    0 -0.20478740039E+03 -0.86952960603E+02 -0.16302607276E+03  0.27581913841E+03  0.00000000000E+00 0.  1.
          1    1    6    6  503    0  0.26831856540E+03 -0.38945495802E+02 -0.53057053777E+01  0.27118214301E+03  0.00000000000E+00 0. -1.
         -1    1    6    6    0  503  0.13326650867E+03 -0.62507281945E+02  0.48759543626E+02  0.15506326361E+03  0.00000000000E+00 0.  1.
<mgrwt>
<rscale>  0 0.14305137E+04</rscale>
<asrwt>0</asrwt>
<pdfrwt beam="1">  1        1 0.11711223E+00 0.14305137E+04</pdfrwt>
<pdfrwt beam="2">  1       -1 0.10339394E+00 0.14305137E+04</pdfrwt>
<totfact> 0.20548102E+01</totfact>
</mgrwt>
</event>
<event>
12    2  0.3552864E-008  0.1778677E+04  0.7818608E-02  0.8717722E-01
          1   -1    0    0  501    0  0.00000000000E+00  0.00000000000E+00  0.15711272960E+04  0.15711272960E+04  0.00000000000E+00 0. -1.
         -1   -1    0    0    0  501 -0.00000000000E+00 -0.00000000000E+00 -0.50341095043E+03  0.50341095043E+03  0.00000000000E+00 0.  1.
         23    2    1    2    0    0 -0.57524063042E+02 -0.29126710265E+03 -0.27605995505E+03  0.41568325606E+03  0.91858193273E+02 0.  0.
        254    2    1    2    0    0  0.57524063042E+02  0.29126710265E+03  0.13437763006E+04  0.16588549903E+04  0.92623948850E+03 0.  0.
         23    2    4    4    0    0  0.21657748306E+03  0.57099787236E+03  0.10286319923E+04  0.11996964681E+04  0.90793521118E+02 0.  0.
         23    2    4    4    0    0 -0.15905342001E+03 -0.27973076972E+03  0.31514430829E+03  0.45915852229E+03  0.89237433843E+02 0.  0.
          4    1    3    3  502    0  0.18986877233E+01 -0.54797957061E+02 -0.11725864794E+02  0.56070643106E+02  0.00000000000E+00 0. -1.
         -4    1    3    3    0  502 -0.59422750765E+02 -0.23646914559E+03 -0.26433409025E+03  0.35961261295E+03  0.00000000000E+00 0.  1.
         11    1    5    5    0    0  0.19103220395E+03  0.43470023326E+03  0.73603614707E+03  0.87590342249E+03  0.00000000000E+00 0.  1.
        -11    1    5    5    0    0  0.25545279106E+02  0.13629763910E+03  0.29259584523E+03  0.32379304556E+03  0.00000000000E+00 0. -1.
          3    1    6    6  503    0 -0.11748496473E+03 -0.20501754745E+03  0.17141290872E+03  0.29192001811E+03  0.00000000000E+00 0. -1.
         -3    1    6    6    0  503 -0.41568455281E+02 -0.74713222270E+02  0.14373139957E+03  0.16723850418E+03  0.00000000000E+00 0.  1.
<mgrwt>
<rscale>  0 0.17786767E+04</rscale>
<asrwt>0</asrwt>
<pdfrwt beam="1">  1        1 0.24171189E+00 0.17786767E+04</pdfrwt>
<pdfrwt beam="2">  1       -1 0.77447840E-01 0.17786767E+04</pdfrwt>
<totfact> 0.92269643E+00</totfact>
</mgrwt>
</event>
<event>
12    2  0.3552864E-008  0.1747340E+04  0.7818608E-02  0.8734816E-01
          1   -1    0    0  501    0  0.00000000000E+00  0.00000000000E+00  0.12987693364E+04  0.12987693364E+04  0.00000000000E+00 0. -1.
         -1   -1    0    0    0  501 -0.00000000000E+00 -0.00000000000E+00 -0.58770944909E+03  0.58770944909E+03  0.00000000000E+00 0.  1.
         23    2    1    2    0    0  0.12025201637E+03 -0.69483977013E+02  0.95334293082E+03  0.96846917016E+03  0.98900047108E+02 0.  0.
        254    2    1    2    0    0 -0.12025201637E+03  0.69483977013E+02 -0.24228304353E+03  0.91800961530E+03  0.87450100635E+03 0.  0.
         23    2    4    4    0    0  0.92384086702E+02  0.34914705151E+03 -0.37860411597E+03  0.53019495715E+03  0.85598673478E+02 0.  0.
         23    2    4    4    0    0 -0.21263610308E+03 -0.27966307449E+03  0.13632107244E+03  0.38781465815E+03  0.91603639226E+02 0.  0.
          2    1    3    3  502    0  0.27609758237E+02 -0.21217687580E+02  0.57254870545E+03  0.57360658044E+03  0.00000000000E+00 0. -1.
         -2    1    3    3    0  502  0.92642258138E+02 -0.48266289432E+02  0.38079422537E+03  0.39486258972E+03  0.00000000000E+00 0.  1.
         11    1    5    5    0    0  0.81404519262E+02  0.35064821908E+03 -0.36941839055E+03  0.51580114053E+03  0.00000000000E+00 0. -1.
        -11    1    5    5    0    0  0.10979567440E+02 -0.15011675686E+01 -0.91857254270E+01  0.14393816619E+02  0.00000000000E+00 0.  1.
          4    1    6    6  503    0 -0.10562085251E+03 -0.20511903449E+03  0.67691635771E+02  0.24044072106E+03  0.00000000000E+00 0. -1.
         -4    1    6    6    0  503 -0.10701525057E+03 -0.74544040009E+02  0.68629436672E+02  0.14737393709E+03  0.00000000000E+00 0.  1.
<mgrwt>
<rscale>  0 0.17473397E+04</rscale>
<asrwt>0</asrwt>
<pdfrwt beam="1">  1        1 0.19981067E+00 0.17473397E+04</pdfrwt>
<pdfrwt beam="2">  1       -1 0.90416839E-01 0.17473397E+04</pdfrwt>
<totfact> 0.10272601E+01</totfact>
</mgrwt>
</event>
<event>
12    2  0.3552864E-008  0.1701086E+04  0.7818608E-02  0.8760745E-01
         -2   -1    0    0    0  501 -0.00000000000E+00  0.00000000000E+00  0.36494869065E+03  0.36494869065E+03  0.00000000000E+00 0.  1.
          2   -1    0    0  501    0  0.00000000000E+00 -0.00000000000E+00 -0.19822616152E+04  0.19822616152E+04  0.00000000000E+00 0. -1.
         23    2    1    2    0    0 -0.98757305832E+02 -0.50271141040E+03 -0.10235940269E+04  0.11481183320E+04  0.89214374761E+02 0.  0.
        254    2    1    2    0    0  0.98757305832E+02  0.50271141040E+03 -0.59371889765E+03  0.11990919739E+04  0.90710951096E+03 0.  0.
         23    2    4    4    0    0  0.14010960651E+03 -0.21850606499E+03 -0.28213918790E+02  0.27716612726E+03  0.93002336574E+02 0.  0.
         23    2    4    4    0    0 -0.41352300682E+02  0.72121747539E+03 -0.56550497886E+03  0.92192584665E+03  0.91031456285E+02 0.  0.
          4    1    3    3  502    0 -0.85967082780E+02 -0.49759702518E+03 -0.10072695790E+04  0.11267586891E+04  0.00000000000E+00 0. -1.
         -4    1    3    3    0  502 -0.12790223052E+02 -0.51143852152E+01 -0.16324447955E+02  0.21359642855E+02  0.00000000000E+00 0.  1.
         11    1    5    5    0    0  0.27991179068E+02 -0.73478639934E+01 -0.24723720188E+02  0.38062574148E+02  0.00000000000E+00 0.  1.
        -11    1    5    5    0    0  0.11211842745E+03 -0.21115820100E+03 -0.34901986022E+01  0.23910355311E+03  0.00000000000E+00 0. -1.
          1    1    6    6  503    0 -0.26960951153E+01  0.49165020043E+03 -0.42590606061E+03  0.65047917798E+03  0.00000000000E+00 0. -1.
         -1    1    6    6    0  503 -0.38656205567E+02  0.22956727496E+03 -0.13959891825E+03  0.27144666868E+03  0.00000000000E+00 0.  1.
<mgrwt>
<rscale>  0 0.17010865E+04</rscale>
<asrwt>0</asrwt>
<pdfrwt beam="1">  1        2 0.30496333E+00 0.17010865E+04</pdfrwt>
<pdfrwt beam="2">  1       -2 0.56145952E-01 0.17010865E+04</pdfrwt>
<totfact> 0.19368268E+01</totfact>
</mgrwt>
</event>
<event>
12    2  0.3552864E-008  0.1331537E+04  0.7818608E-02  0.9004923E-01
         -2   -1    0    0    0  501 -0.00000000000E+00  0.00000000000E+00  0.17849969805E+04  0.17849969805E+04  0.00000000000E+00 0.  1.
          2   -1    0    0  501    0  0.00000000000E+00 -0.00000000000E+00 -0.24831838905E+03  0.24831838905E+03  0.00000000000E+00 0. -1.
         23    2    1    2    0    0  0.15073803607E+03 -0.14426408217E+03  0.84584907380E+03  0.87634993186E+03  0.94839161223E+02 0.  0.
        254    2    1    2    0    0 -0.15073803607E+03  0.14426408217E+03  0.69082951763E+03  0.11569654377E+04  0.90431715708E+03 0.  0.
         23    2    4    4    0    0 -0.12989186435E+03 -0.28335417983E+03  0.63792735035E+03  0.71590176984E+03  0.91665435646E+02 0.  0.
         23    2    4    4    0    0 -0.20846171726E+02  0.42761826199E+03  0.52902167283E+02  0.44106366782E+03  0.91905271343E+02 0.  0.
          1    1    3    3  502    0  0.11093129131E+03 -0.68010722629E+02  0.35663306759E+03  0.37962923317E+03  0.00000000000E+00 0. -1.
         -1    1    3    3    0  502  0.39806744769E+02 -0.76253359539E+02  0.48921600621E+03  0.49672069869E+03  0.00000000000E+00 0.  1.
         11    1    5    5    0    0 -0.31922840205E+02 -0.69756245136E+02  0.81696463881E+02  0.11206834376E+03  0.00000000000E+00 0. -1.
        -11    1    5    5    0    0 -0.97969024143E+02 -0.21359793469E+03  0.55623088647E+03  0.60383342608E+03  0.00000000000E+00 0.  1.
          3    1    6    6  503    0  0.12302979057E+02  0.10159166273E+03 -0.22534511338E+02  0.10478565470E+03  0.00000000000E+00 0. -1.
         -3    1    6    6    0  503 -0.33149150783E+02  0.32602659927E+03  0.75436678621E+02  0.33627801312E+03  0.00000000000E+00 0.  1.
<mgrwt>
<rscale>  0 0.13315368E+04</rscale>
<asrwt>0</asrwt>
<pdfrwt beam="1">  1        2 0.38202830E-01 0.13315368E+04</pdfrwt>
<pdfrwt beam="2">  1       -2 0.27461491E+00 0.13315368E+04</pdfrwt>
<totfact> 0.60457520E+00</totfact>
</mgrwt>
</event>
<event>
12    2  0.3552864E-008  0.2248877E+04  0.7818608E-02  0.8498355E-01
          1   -1    0    0  501    0  0.00000000000E+00  0.00000000000E+00  0.97054677639E+03  0.97054677639E+03  0.00000000000E+00 0. -1.
         -1   -1    0    0    0  501 -0.00000000000E+00 -0.00000000000E+00 -0.13027313823E+04  0.13027313823E+04  0.00000000000E+00 0.  1.
         23    2    1    2    0    0 -0.74267747577E+03  0.55702031061E+03 -0.29343830099E+03  0.97795348673E+03  0.91899544464E+02 0.  0.
        254    2    1    2    0    0  0.74267747577E+03 -0.55702031061E+03 -0.38746304875E+02  0.12953246719E+04  0.90250942936E+03 0.  0.
         23    2    4    4    0    0 -0.38523059897E+02 -0.40069153903E+03  0.19994069235E+03  0.45845864030E+03  0.90389760585E+02 0.  0.
         23    2    4    4    0    0  0.78120053567E+03 -0.15632877158E+03 -0.23868699722E+03  0.83686603161E+03  0.93060789115E+02 0.  0.
          1    1    3    3  502    0 -0.83116501753E+01  0.36637341729E+01  0.60356480307E+01  0.10905756456E+02  0.00000000000E+00 0. -1.
         -1    1    3    3    0  502 -0.73436582560E+03  0.55335657643E+03 -0.29947394902E+03  0.96704773027E+03  0.00000000000E+00 0.  1.
         11    1    5    5    0    0  0.16476193035E+01 -0.33638230629E+03  0.15571568406E+03  0.37067930196E+03  0.00000000000E+00 0.  1.
        -11    1    5    5    0    0 -0.40170679201E+02 -0.64309232734E+02  0.44225008286E+02  0.87779338345E+02  0.00000000000E+00 0. -1.
          2    1    6    6  503    0  0.28198969326E+03 -0.10221154621E+03 -0.85899186254E+02  0.31200009212E+03  0.00000000000E+00 0. -1.
         -2    1    6    6    0  503  0.49921084241E+03 -0.54117225376E+02 -0.15278781097E+03  0.52486593950E+03  0.00000000000E+00 0.  1.
<mgrwt>
<rscale>  0 0.22488768E+04</rscale>
<asrwt>0</asrwt>
<pdfrwt beam="1">  1        1 0.14931489E+00 0.22488768E+04</pdfrwt>
<pdfrwt beam="2">  1       -1 0.20042021E+00 0.22488768E+04</pdfrwt>
<totfact> 0.21663677E+00</totfact>
</mgrwt>
</event>
<event>
12    2  0.3552864E-008  0.3679302E+04  0.7818608E-02  0.8072564E-01
          2   -1    0    0  501    0  0.00000000000E+00  0.00000000000E+00  0.30920217272E+04  0.30920217272E+04  0.00000000000E+00 0.  1.
         -2   -1    0    0    0  501 -0.00000000000E+00 -0.00000000000E+00 -0.10945318465E+04  0.10945318465E+04  0.00000000000E+00 0. -1.
         23    2    1    2    0    0  0.11250689031E+04 -0.12602500042E+04  0.52384536742E+03  0.17709571075E+04  0.88684823945E+02 0.  0.
        254    2    1    2    0    0 -0.11250689031E+04  0.12602500042E+04  0.14736445133E+04  0.24155964662E+04  0.89970441037E+03 0.  0.
         23    2    4    4    0    0 -0.84307739545E+03  0.82605497691E+03  0.14731049896E+04  0.18897991467E+04  0.90311598655E+02 0.  0.
         23    2    4    4    0    0 -0.28199150761E+03  0.43419502728E+03  0.53952375781E+00  0.52579731951E+03  0.91749648723E+02 0.  0.
          4    1    3    3  502    0  0.83651045076E+03 -0.92903312254E+03  0.34693879815E+03  0.12973892271E+04  0.00000000000E+00 0. -1.
         -4    1    3    3    0  502  0.28855845230E+03 -0.33121688165E+03  0.17690656927E+03  0.47356788039E+03  0.00000000000E+00 0.  1.
         11    1    5    5    0    0 -0.76741071613E+03  0.77937798121E+03  0.13825851068E+04  0.17629211049E+04  0.00000000000E+00 0.  1.
        -11    1    5    5    0    0 -0.75666679324E+02  0.46676995699E+02  0.90519882794E+02  0.12687804171E+03  0.00000000000E+00 0. -1.
          2    1    6    6  503    0 -0.99904206623E+01  0.81785144586E+00  0.98428239367E+01  0.14048436534E+02  0.00000000000E+00 0. -1.
         -2    1    6    6    0  503 -0.27200108695E+03  0.43337717583E+03 -0.93033001789E+01  0.51174888298E+03  0.00000000000E+00 0.  1.
<mgrwt>
<rscale>  0 0.36793022E+04</rscale>
<asrwt>0</asrwt>
<pdfrwt beam="1">  1        2 0.47569565E+00 0.36793022E+04</pdfrwt>
<pdfrwt beam="2">  1       -2 0.16838952E+00 0.36793022E+04</pdfrwt>
<totfact> 0.26961399E-01</totfact>
</mgrwt>
</event>
<event>
12    2  0.3552864E-008  0.1477213E+04  0.7818608E-02  0.8899749E-01
         -2   -1    0    0    0  501 -0.00000000000E+00  0.00000000000E+00  0.27994352370E+03  0.27994352370E+03  0.00000000000E+00 0.  1.
          2   -1    0    0  501    0  0.00000000000E+00 -0.00000000000E+00 -0.19487481073E+04  0.19487481073E+04  0.00000000000E+00 0. -1.
         23    2    1    2    0    0  0.23091016533E+03  0.22954781459E+03 -0.29668821357E+02  0.33830208633E+03  0.86927320331E+02 0.  0.
        254    2    1    2    0    0 -0.23091016533E+03 -0.22954781459E+03 -0.16391357622E+04  0.18903895447E+04  0.88362598417E+03 0.  0.
         23    2    4    4    0    0  0.19017587189E+03  0.39823157559E+02 -0.47912561566E+02  0.21989329769E+03  0.91130141483E+02 0.  0.
         23    2    4    4    0    0 -0.42108603722E+03 -0.26937097215E+03 -0.15912232007E+04  0.16704962470E+04  0.93232319710E+02 0.  0.
          4    1    3    3  502    0  0.86413534022E+01  0.22295886814E+02  0.18981619501E+02  0.30530008783E+02  0.00000000000E+00 0. -1.
         -4    1    3    3    0  502  0.22226881193E+03  0.20725192778E+03 -0.48650440858E+02  0.30777207755E+03  0.00000000000E+00 0.  1.
         11    1    5    5    0    0  0.17231363634E+03  0.36053853584E+02 -0.82583151268E+01  0.17623867168E+03  0.00000000000E+00 0.  1.
        -11    1    5    5    0    0  0.17862235545E+02  0.37693039751E+01 -0.39654246439E+02  0.43654626006E+02  0.00000000000E+00 0. -1.
          3    1    6    6  503    0 -0.19358772189E+03 -0.11864162071E+03 -0.57323914673E+03  0.61656723849E+03  0.00000000000E+00 0. -1.
         -3    1    6    6    0  503 -0.22749831533E+03 -0.15072935143E+03 -0.10179840539E+04  0.10539290085E+04  0.00000000000E+00 0.  1.
<mgrwt>
<rscale>  0 0.14772128E+04</rscale>
<asrwt>0</asrwt>
<pdfrwt beam="1">  1        2 0.29980740E+00 0.14772128E+04</pdfrwt>
<pdfrwt beam="2">  1       -2 0.43068234E-01 0.14772128E+04</pdfrwt>
<totfact> 0.35305189E+01</totfact>
</mgrwt>
</event>
<event>
12    2  0.3552864E-008  0.1450622E+04  0.7818608E-02  0.8917970E-01
          2   -1    0    0  501    0  0.00000000000E+00  0.00000000000E+00  0.11579143717E+04  0.11579143717E+04  0.00000000000E+00 0. -1.
         -2   -1    0    0    0  501 -0.00000000000E+00 -0.00000000000E+00 -0.45433039299E+03  0.45433039299E+03  0.00000000000E+00 0.  1.
         23    2    1    2    0    0 -0.49407336078E+02 -0.83229586602E+02 -0.24759997693E+03  0.29304162963E+03  0.12328584337E+03 0.  0.
        254    2    1    2    0    0  0.49407336078E+02  0.83229586602E+02  0.95118395567E+03  0.13192031351E+04  0.90894320239E+03 0.  0.
         23    2    4    4    0    0  0.32319495979E+03  0.15194342576E+03  0.95454269760E+03  0.10233778469E+04  0.92782914663E+02 0.  0.
         23    2    4    4    0    0 -0.27378762371E+03 -0.68713839161E+02 -0.33587419275E+01  0.29582528822E+03  0.88431133755E+02 0.  0.
          4    1    3    3  502    0  0.27225380057E+02 -0.18234162780E+02 -0.87499855853E+01  0.33915604952E+02  0.00000000000E+00 0. -1.
         -4    1    3    3    0  502 -0.76632716134E+02 -0.64995423822E+02 -0.23884999134E+03  0.25912602468E+03  0.00000000000E+00 0.  1.
         11    1    5    5    0    0  0.69307814072E+02  0.28581997944E+01  0.25807409268E+03  0.26723394191E+03  0.00000000000E+00 0.  1.
        -11    1    5    5    0    0  0.25388714572E+03  0.14908522597E+03  0.69646860492E+03  0.75614390496E+03  0.00000000000E+00 0. -1.
          1    1    6    6  503    0 -0.18325399612E+03 -0.69171795591E+02  0.32302839748E+02  0.19852011952E+03  0.00000000000E+00 0. -1.
         -1    1    6    6    0  503 -0.90533627592E+02  0.45795643005E+00 -0.35661581676E+02  0.97305168705E+02  0.00000000000E+00 0.  1.
<mgrwt>
<rscale>  0 0.14506215E+04</rscale>
<asrwt>0</asrwt>
<pdfrwt beam="1">  1        2 0.17814067E+00 0.14506215E+04</pdfrwt>
<pdfrwt beam="2">  1       -2 0.69896984E-01 0.14506215E+04</pdfrwt>
<totfact> 0.36316682E+01</totfact>
</mgrwt>
</event>
<event>
12    2  0.3552864E-008  0.1706127E+04  0.7818608E-02  0.8757878E-01
          2   -1    0    0  501    0  0.00000000000E+00  0.00000000000E+00  0.25220318046E+04  0.25220318046E+04  0.00000000000E+00 0. -1.
         -2   -1    0    0    0  501 -0.00000000000E+00 -0.00000000000E+00 -0.28854395201E+03  0.28854395201E+03  0.00000000000E+00 0.  1.
         23    2    1    2    0    0 -0.25270415296E+03 -0.51248756997E+03  0.11573764090E+04  0.12940666861E+04  0.92658176802E+02 0.  0.
        254    2    1    2    0    0  0.25270415296E+03  0.51248756997E+03  0.10761114436E+04  0.15165090705E+04  0.90292913539E+03 0.  0.
         23    2    4    4    0    0  0.15831438245E+03  0.18252266947E+03 -0.10824216692E+03  0.27999214765E+03  0.91111291773E+02 0.  0.
         23    2    4    4    0    0  0.94389770517E+02  0.32996490051E+03  0.11843536105E+04  0.12365169228E+04  0.92164859760E+02 0.  0.
          4    1    3    3  502    0 -0.19272009271E+03 -0.36755543373E+03  0.92342510196E+03  0.10123991061E+04  0.00000000000E+00 0. -1.
         -4    1    3    3    0  502 -0.59984060251E+02 -0.14493213624E+03  0.23395130704E+03  0.28166758007E+03  0.00000000000E+00 0.  1.
         11    1    5    5    0    0 -0.41564341118E+01  0.35405801974E+02 -0.24657157376E+00  0.35649790399E+02  0.00000000000E+00 0.  1.
        -11    1    5    5    0    0  0.16247081656E+03  0.14711686749E+03 -0.10799559534E+03  0.24434235725E+03  0.00000000000E+00 0. -1.
          3    1    6    6  503    0  0.97465845731E+02  0.32983000453E+03  0.11845131567E+04  0.12334337604E+04  0.00000000000E+00 0. -1.
         -3    1    6    6    0  503 -0.30760752143E+01  0.13489597844E+00 -0.15954615147E+00  0.30831624387E+01  0.00000000000E+00 0.  1.
<mgrwt>
<rscale>  0 0.17061266E+04</rscale>
<asrwt>0</asrwt>
<pdfrwt beam="1">  1        2 0.38800488E+00 0.17061266E+04</pdfrwt>
<pdfrwt beam="2">  1       -2 0.44391379E-01 0.17061266E+04</pdfrwt>
<totfact> 0.15497331E+01</totfact>
</mgrwt>
</event>
<event>
12    2  0.3552864E-008  0.1578673E+04  0.7818608E-02  0.8833758E-01
         -4   -1    0    0    0  501 -0.00000000000E+00  0.00000000000E+00  0.43387707578E+03  0.43387707578E+03  0.00000000000E+00 0.  1.
          4   -1    0    0  501    0  0.00000000000E+00 -0.00000000000E+00 -0.14360113347E+04  0.14360113347E+04  0.00000000000E+00 0. -1.
         23    2    1    2    0    0 -0.16739852475E+03  0.29735194445E+03  0.13908693097E+03  0.37978746872E+03  0.91939665399E+02 0.  0.
        254    2    1    2    0    0  0.16739852475E+03 -0.29735194445E+03 -0.11412211899E+04  0.14901009417E+04  0.89530696825E+03 0.  0.
         23    2    4    4    0    0 -0.18781374384E+03  0.82212000786E+02  0.95170080754E+01  0.22405359704E+03  0.89870047614E+02 0.  0.
         23    2    4    4    0    0  0.35521226858E+03 -0.37956394524E+03 -0.11507381979E+04  0.12660473447E+04  0.91831010626E+02 0.  0.
          3    1    3    3  502    0 -0.45823381774E+02  0.16875769500E+03  0.51264105061E+02  0.18222774324E+03  0.00000000000E+00 0. -1.
         -3    1    3    3    0  502 -0.12157514297E+03  0.12859424945E+03  0.87822825910E+02  0.19755972548E+03  0.00000000000E+00 0.  1.
         11    1    5    5    0    0 -0.10233935918E+03  0.78038282350E+02 -0.26173473217E+02  0.13133304477E+03  0.00000000000E+00 0. -1.
        -11    1    5    5    0    0 -0.85474384661E+02  0.41737184358E+01  0.35690481292E+02  0.92720552272E+02  0.00000000000E+00 0.  1.
          4    1    6    6  503    0  0.96811966508E+01 -0.42040870347E+02 -0.69171972318E+02  0.81522525124E+02  0.00000000000E+00 0. -1.
         -4    1    6    6    0  503  0.34553107193E+03 -0.33752307489E+03 -0.10815662256E+04  0.11845248196E+04  0.00000000000E+00 0.  1.
<mgrwt>
<rscale>  0 0.15786734E+04</rscale>
<asrwt>0</asrwt>
<pdfrwt beam="1">  1        4 0.22092482E+00 0.15786734E+04</pdfrwt>
<pdfrwt beam="2">  1       -4 0.66750319E-01 0.15786734E+04</pdfrwt>
<totfact> 0.38468990E-01</totfact>
</mgrwt>
</event>
<event>
12    2  0.3552864E-008  0.1232096E+04  0.7818608E-02  0.9085218E-01
         -2   -1    0    0    0  501 -0.00000000000E+00  0.00000000000E+00  0.31191438435E+03  0.31191438435E+03  0.00000000000E+00 0.  1.
          2   -1    0    0  501    0  0.00000000000E+00 -0.00000000000E+00 -0.12167289047E+04  0.12167289047E+04  0.00000000000E+00 0. -1.
         23    2    1    2    0    0  0.88034063553E+02 -0.10819510557E+03  0.74669585342E+02  0.18304521650E+03  0.92053392609E+02 0.  0.
        254    2    1    2    0    0 -0.88034063553E+02  0.10819510557E+03 -0.97948410567E+03  0.13455980725E+04  0.91202460622E+03 0.  0.
         23    2    4    4    0    0 -0.26877274007E+03  0.10035230908E+03  0.42046634357E+02  0.30421973319E+03  0.92045395645E+02 0.  0.
         23    2    4    4    0    0  0.18073867652E+03  0.78427964939E+01 -0.10215307400E+04  0.10413783393E+04  0.90641128590E+02 0.  0.
          1    1    3    3  502    0  0.32084004095E+02  0.31850236831E+01 -0.83243407293E+01  0.33298984117E+02  0.00000000000E+00 0. -1.
         -1    1    3    3    0  502  0.55950059457E+02 -0.11138012926E+03  0.82993926071E+02  0.14974623238E+03  0.00000000000E+00 0.  1.
         11    1    5    5    0    0 -0.62534991664E+02  0.12941003583E+02 -0.27709050543E+02  0.69612400032E+02  0.00000000000E+00 0. -1.
        -11    1    5    5    0    0 -0.20623774841E+03  0.87411305498E+02  0.69755684900E+02  0.23460733316E+03  0.00000000000E+00 0.  1.
          3    1    6    6  503    0  0.10229809731E+02  0.46867096153E+01 -0.85224770712E+01  0.14115483328E+02  0.00000000000E+00 0. -1.
         -3    1    6    6    0  503  0.17050886679E+03  0.31560868786E+01 -0.10130082630E+04  0.10272628560E+04  0.00000000000E+00 0.  1.
<mgrwt>
<rscale>  0 0.12320962E+04</rscale>
<asrwt>0</asrwt>
<pdfrwt beam="1">  1        2 0.18718906E+00 0.12320962E+04</pdfrwt>
<pdfrwt beam="2">  1       -2 0.47986828E-01 0.12320962E+04</pdfrwt>
<totfact> 0.74964743E+01</totfact>
</mgrwt>
</event>
<event>
12    2  0.3552864E-008  0.1500462E+04  0.7818608E-02  0.8884145E-01
          1   -1    0    0  501    0  0.00000000000E+00  0.00000000000E+00  0.19560966334E+04  0.19560966334E+04  0.00000000000E+00 0. -1.
         -1   -1    0    0    0  501 -0.00000000000E+00 -0.00000000000E+00 -0.28773980713E+03  0.28773980713E+03  0.00000000000E+00 0.  1.
         23    2    1    2    0    0 -0.19311829658E+03  0.72738938336E+02  0.11741912004E+04  0.11956121047E+04  0.90430637624E+02 0.  0.
        254    2    1    2    0    0  0.19311829658E+03 -0.72738938336E+02  0.49416562594E+03  0.10482243359E+04  0.90110430186E+03 0.  0.
         23    2    4    4    0    0  0.31434565822E+03 -0.42721799421E+03  0.29796765958E+03  0.61549170786E+03  0.93364387552E+02 0.  0.
         23    2    4    4    0    0 -0.12122736165E+03  0.35447905588E+03  0.19619796635E+03  0.43273262802E+03  0.91719196917E+02 0.  0.
          3    1    3    3  502    0 -0.17785119518E+03  0.31040934531E+02  0.96826643815E+03  0.98495405096E+03  0.00000000000E+00 0. -1.
         -3    1    3    3    0  502 -0.15267101394E+02  0.41698003804E+02  0.20592476222E+03  0.21065805373E+03  0.00000000000E+00 0.  1.
         11    1    5    5    0    0 -0.50007958482E+01 -0.18599036054E+02  0.51770782857E+01  0.19943275579E+02  0.00000000000E+00 0.  1.
        -11    1    5    5    0    0  0.31934645407E+03 -0.40861895816E+03  0.29279058130E+03  0.59554843228E+03  0.00000000000E+00 0. -1.
          3    1    6    6  503    0 -0.11103826116E+03  0.30956358894E+03  0.20254161187E+03  0.38624113657E+03  0.00000000000E+00 0. -1.
         -3    1    6    6    0  503 -0.10189100488E+02  0.44915466938E+02 -0.63436455144E+01  0.46491491451E+02  0.00000000000E+00 0.  1.
<mgrwt>
<rscale>  0 0.15004624E+04</rscale>
<asrwt>0</asrwt>
<pdfrwt beam="1">  1        1 0.30093794E+00 0.15004624E+04</pdfrwt>
<pdfrwt beam="2">  1       -1 0.44267664E-01 0.15004624E+04</pdfrwt>
<totfact> 0.15598574E+01</totfact>
</mgrwt>
</event>
<event>
12    2  0.3552864E-008  0.3252459E+04  0.7818608E-02  0.8175099E-01
         -2   -1    0    0    0  501 -0.00000000000E+00  0.00000000000E+00  0.13153826045E+04  0.13153826045E+04  0.00000000000E+00 0. -1.
          2   -1    0    0  501    0  0.00000000000E+00 -0.00000000000E+00 -0.20105344045E+04  0.20105344045E+04  0.00000000000E+00 0.  1.
         23    2    1    2    0    0 -0.62183857311E+03 -0.11179327049E+04  0.48108085038E+03  0.13697923878E+04  0.91845835091E+02 0.  0.
        254    2    1    2    0    0  0.62183857311E+03  0.11179327049E+04 -0.11762326504E+04  0.19561246212E+04  0.89802201654E+03 0.  0.
         23    2    4    4    0    0  0.27130825006E+03  0.23532939251E+03  0.78804837224E+02  0.38006569932E+03  0.96185466164E+02 0.  0.
         23    2    4    4    0    0  0.35053032306E+03  0.88260331236E+03 -0.12550374876E+04  0.15760589219E+04  0.83561447743E+02 0.  0.
          1    1    3    3  502    0 -0.62388533469E+03 -0.11076090036E+04  0.47246510268E+03  0.13561909485E+04  0.00000000000E+00 0.  1.
         -1    1    3    3    0  502  0.20467615754E+01 -0.10323701290E+02  0.86157477067E+01  0.13601439256E+02  0.00000000000E+00 0. -1.
         11    1    5    5    0    0  0.17222923055E+03  0.19681116132E+03  0.80856021220E+02  0.27374301314E+03  0.00000000000E+00 0.  1.
        -11    1    5    5    0    0  0.99079019507E+02  0.38518231191E+02 -0.20511839965E+01  0.10632268618E+03  0.00000000000E+00 0. -1.
          4    1    6    6  503    0  0.72493076407E+02  0.10752894569E+03 -0.15950707780E+03  0.20557292662E+03  0.00000000000E+00 0. -1.
         -4    1    6    6    0  503  0.27803724665E+03  0.77507436667E+03 -0.10955304098E+04  0.13704859953E+04  0.00000000000E+00 0.  1.
<mgrwt>
<rscale>  0 0.32524588E+04</rscale>
<asrwt>0</asrwt>
<pdfrwt beam="1">  1        2 0.30931298E+00 0.32524588E+04</pdfrwt>
<pdfrwt beam="2">  1       -2 0.20236656E+00 0.32524588E+04</pdfrwt>
<totfact> 0.70930968E-01</totfact>
</mgrwt>
</event>
<event>
12    2  0.3552864E-008  0.1885737E+04  0.7818608E-02  0.8661989E-01
         -2   -1    0    0    0  501 -0.00000000000E+00  0.00000000000E+00  0.34962781337E+03  0.34962781337E+03  0.00000000000E+00 0.  1.
          2   -1    0    0  501    0  0.00000000000E+00 -0.00000000000E+00 -0.25427055316E+04  0.25427055316E+04  0.00000000000E+00 0. -1.
         23    2    1    2    0    0 -0.28346652870E+03 -0.14930819950E+03  0.14730012505E+03  0.36438768170E+03  0.91841408978E+02 0.  0.
        254    2    1    2    0    0  0.28346652870E+03  0.14930819950E+03 -0.23403778433E+04  0.25279456633E+04  0.90027474460E+03 0.  0.
         23    2    4    4    0    0  0.56364456379E+03  0.24264709751E+03 -0.18180829689E+04  0.19210367640E+04  0.91562867410E+02 0.  0.
         23    2    4    4    0    0 -0.28017803509E+03 -0.93338898007E+02 -0.52229487444E+03  0.60690889930E+03  0.91294002861E+02 0.  0.
          1    1    3    3  502    0 -0.12310939433E+03 -0.11606213099E+03  0.66770474866E+02  0.18189182921E+03  0.00000000000E+00 0.  1.
         -1    1    3    3    0  502 -0.16035713437E+03 -0.33246068514E+02  0.80529650188E+02  0.18249585249E+03  0.00000000000E+00 0. -1.
         11    1    5    5    0    0  0.17466889009E+02  0.77927962654E+01 -0.22207193766E+02  0.29308349327E+02  0.00000000000E+00 0. -1.
        -11    1    5    5    0    0  0.54617767478E+03  0.23485430124E+03 -0.17958757751E+04  0.18917284147E+04  0.00000000000E+00 0.  1.
          3    1    6    6  503    0 -0.23132370329E+02 -0.27844229688E+02 -0.27370580647E+02  0.45382335428E+02  0.00000000000E+00 0. -1.
         -3    1    6    6    0  503 -0.25704566476E+03 -0.65494668320E+02 -0.49492429379E+03  0.56152656387E+03  0.00000000000E+00 0.  1.
<mgrwt>
<rscale>  0 0.18857365E+04</rscale>
<asrwt>0</asrwt>
<pdfrwt beam="1">  1        2 0.39118547E+00 0.18857365E+04</pdfrwt>
<pdfrwt beam="2">  1       -2 0.53788894E-01 0.18857365E+04</pdfrwt>
<totfact> 0.10047398E+01</totfact>
</mgrwt>
</event>
<event>
12    2  0.3552864E-008  0.2445504E+04  0.7818608E-02  0.8422661E-01
         -2   -1    0    0    0  501 -0.00000000000E+00  0.00000000000E+00  0.90880150671E+03  0.90880150671E+03  0.00000000000E+00 0. -1.
          2   -1    0    0  501    0  0.00000000000E+00 -0.00000000000E+00 -0.16451579724E+04  0.16451579724E+04  0.00000000000E+00 0.  1.
         23    2    1    2    0    0  0.38152015938E+03 -0.20907351248E+03 -0.13233058177E+04  0.13958807713E+04  0.89863646682E+02 0.  0.
        254    2    1    2    0    0 -0.38152015938E+03  0.20907351248E+03  0.58694935205E+03  0.11580787077E+04  0.89853624622E+03 0.  0.
         23    2    4    4    0    0 -0.43439737728E+03 -0.21237104914E+03  0.52462736762E+03  0.71924252076E+03  0.90958149232E+02 0.  0.
         23    2    4    4    0    0  0.52877217907E+02  0.42144456162E+03  0.62321984430E+02  0.43883618696E+03  0.91003574385E+02 0.  0.
          1    1    3    3  502    0  0.70366227109E+02 -0.36061538416E+02 -0.36781838669E+03  0.37622095377E+03  0.00000000000E+00 0. -1.
         -1    1    3    3    0  502  0.31115393227E+03 -0.17301197406E+03 -0.95548743102E+03  0.10196598176E+04  0.00000000000E+00 0.  1.
         11    1    5    5    0    0 -0.37533454547E+03 -0.17719305738E+03  0.49033542223E+03  0.64241904307E+03  0.00000000000E+00 0.  1.
        -11    1    5    5    0    0 -0.59062831818E+02 -0.35177991758E+02  0.34291945398E+02  0.76823477699E+02  0.00000000000E+00 0. -1.
          1    1    6    6  503    0  0.15931805451E+02  0.26700780026E+03  0.79673633562E+02  0.27909653475E+03  0.00000000000E+00 0. -1.
         -1    1    6    6    0  503  0.36945412456E+02  0.15443676136E+03 -0.17351649132E+02  0.15973965221E+03  0.00000000000E+00 0.  1.
<mgrwt>
<rscale>  0 0.24455037E+04</rscale>
<asrwt>0</asrwt>
<pdfrwt beam="1">  1        2 0.25310122E+00 0.24455037E+04</pdfrwt>
<pdfrwt beam="2">  1       -2 0.13981562E+00 0.24455037E+04</pdfrwt>
<totfact> 0.33978240E+00</totfact>
</mgrwt>
</event>
<event>
12    2  0.3552864E-008  0.1018557E+04  0.7818608E-02  0.9288423E-01
         -2   -1    0    0    0  501 -0.00000000000E+00  0.00000000000E+00  0.93604910056E+02  0.93604910056E+02  0.00000000000E+00 0.  1.
          2   -1    0    0  501    0  0.00000000000E+00 -0.00000000000E+00 -0.27708418920E+04  0.27708418920E+04  0.00000000000E+00 0. -1.
         23    2    1    2    0    0  0.14216961935E+02  0.75416998962E+02 -0.37066802339E+03  0.39687479841E+03  0.11926850511E+03 0.  0.
        254    2    1    2    0    0 -0.14216961935E+02 -0.75416998962E+02 -0.23065689585E+04  0.24675720036E+04  0.87336211669E+03 0.  0.
         23    2    4    4    0    0 -0.12369851454E+03 -0.43894547367E+03 -0.97965477812E+03  0.10844994097E+04  0.91875099323E+02 0.  0.
         23    2    4    4    0    0  0.10948155260E+03  0.36352847471E+03 -0.13269141804E+04  0.13830725940E+04  0.89718424753E+02 0.  0.
          4    1    3    3  502    0 -0.52068662198E+02  0.23791041837E+02 -0.13315386412E+03  0.14493829992E+03  0.00000000000E+00 0. -1.
         -4    1    3    3    0  502  0.66285624133E+02  0.51625957125E+02 -0.23751415927E+03  0.25193649849E+03  0.00000000000E+00 0.  1.
         11    1    5    5    0    0 -0.65548464908E+02 -0.29488541555E+03 -0.54809790663E+03  0.62583170646E+03  0.00000000000E+00 0. -1.
        -11    1    5    5    0    0 -0.58150049628E+02 -0.14406005812E+03 -0.43155687150E+03  0.45866770319E+03  0.00000000000E+00 0.  1.
          3    1    6    6  503    0  0.76719705468E+02  0.19148372544E+03 -0.85997819100E+03  0.88437233070E+03  0.00000000000E+00 0. -1.
         -3    1    6    6    0  503  0.32761847133E+02  0.17204474928E+03 -0.46693598940E+03  0.49870026326E+03  0.00000000000E+00 0.  1.
<mgrwt>
<rscale>  0 0.10185566E+04</rscale>
<asrwt>0</asrwt>
<pdfrwt beam="1">  1        2 0.42628335E+00 0.10185566E+04</pdfrwt>
<pdfrwt beam="2">  1       -2 0.14400756E-01 0.10185566E+04</pdfrwt>
<totfact> 0.91956443E+01</totfact>
</mgrwt>
</event>
<event>
12    2  0.3552864E-008  0.2145103E+04  0.7818608E-02  0.8541631E-01
         -2   -1    0    0    0  501 -0.00000000000E+00  0.00000000000E+00  0.19001113131E+04  0.19001113131E+04  0.00000000000E+00 0.  1.
          2   -1    0    0  501    0  0.00000000000E+00 -0.00000000000E+00 -0.60542045388E+03  0.60542045388E+03  0.00000000000E+00 0. -1.
         23    2    1    2    0    0  0.32648786361E+03 -0.89614021235E+02  0.14632685559E+04  0.15047703573E+04  0.92487640178E+02 0.  0.
        254    2    1    2    0    0 -0.32648786361E+03  0.89614021235E+02 -0.16857769667E+03  0.10007614097E+04  0.92654193723E+03 0.  0.
         23    2    4    4    0    0 -0.16259961178E+03 -0.20513888479E+03  0.30486116777E+03  0.41201033714E+03  0.91058170947E+02 0.  0.
         23    2    4    4    0    0 -0.16388825183E+03  0.29475290603E+03 -0.47343886444E+03  0.58875107256E+03  0.93513808455E+02 0.  0.
          4    1    3    3  502    0  0.17368718362E+02 -0.32066148728E+02  0.16150541130E+03  0.16557145935E+03  0.00000000000E+00 0. -1.
         -4    1    3    3    0  502  0.30911914525E+03 -0.57547872507E+02  0.13017631446E+04  0.13391988980E+04  0.00000000000E+00 0.  1.
         11    1    5    5    0    0 -0.45373738209E+02 -0.59014824847E+02  0.15557627651E+03  0.17246884786E+03  0.00000000000E+00 0.  1.
        -11    1    5    5    0    0 -0.11722587357E+03 -0.14612405994E+03  0.14928489126E+03  0.23954148928E+03  0.00000000000E+00 0. -1.
          2    1    6    6  503    0 -0.19509002139E+02  0.99551232734E+02 -0.94118005229E+02  0.13838080796E+03  0.00000000000E+00 0. -1.
         -2    1    6    6    0  503 -0.14437924970E+03  0.19520167329E+03 -0.37932085921E+03  0.45037026460E+03  0.00000000000E+00 0.  1.
<mgrwt>
<rscale>  0 0.21451026E+04</rscale>
<asrwt>0</asrwt>
<pdfrwt beam="1">  1        2 0.93141609E-01 0.21451026E+04</pdfrwt>
<pdfrwt beam="2">  1       -2 0.29232482E+00 0.21451026E+04</pdfrwt>
<totfact> 0.15958904E+00</totfact>
</mgrwt>
</event>
<event>
12    2  0.3552864E-008  0.1411282E+04  0.7818608E-02  0.8945692E-01
         -1   -1    0    0    0  501 -0.00000000000E+00  0.00000000000E+00  0.35296323698E+03  0.35296323698E+03  0.00000000000E+00 0.  1.
          1   -1    0    0  501    0  0.00000000000E+00 -0.00000000000E+00 -0.14107121568E+04  0.14107121568E+04  0.00000000000E+00 0. -1.
         23    2    1    2    0    0  0.16164498622E+02  0.21002117122E+03 -0.76580227317E+03  0.79945104958E+03  0.91097067511E+02 0.  0.
        254    2    1    2    0    0 -0.16164498622E+02 -0.21002117122E+03 -0.29194664663E+03  0.96422434418E+03  0.89449737734E+03 0.  0.
         23    2    4    4    0    0  0.29952711600E+02  0.23067457130E+03 -0.42316217208E+03  0.49296197706E+03  0.99183487423E+02 0.  0.
         23    2    4    4    0    0 -0.46117210222E+02 -0.44069574252E+03  0.13121552545E+03  0.47126236712E+03  0.92364332919E+02 0.  0.
          3    1    3    3  502    0  0.54129841389E+02  0.12480505377E+03 -0.46920601454E+03  0.48852904238E+03  0.00000000000E+00 0. -1.
         -3    1    3    3    0  502 -0.37965342767E+02  0.85216117451E+02 -0.29659625863E+03  0.31092200720E+03  0.00000000000E+00 0.  1.
         11    1    5    5    0    0  0.34707637309E+02  0.21846990706E+03 -0.42558473005E+03  0.47964161916E+03  0.00000000000E+00 0. -1.
        -11    1    5    5    0    0 -0.47549257085E+01  0.12204664232E+02  0.24225579718E+01  0.13320357902E+02  0.00000000000E+00 0.  1.
          3    1    6    6  503    0  0.15000749721E+02 -0.25210831060E+03  0.94453335177E+02  0.26963874961E+03  0.00000000000E+00 0. -1.
         -3    1    6    6    0  503 -0.61117959943E+02 -0.18858743192E+03  0.36762190270E+02  0.20162361751E+03  0.00000000000E+00 0.  1.
<mgrwt>
<rscale>  0 0.14112824E+04</rscale>
<asrwt>0</asrwt>
<pdfrwt beam="1">  1        1 0.21703265E+00 0.14112824E+04</pdfrwt>
<pdfrwt beam="2">  1       -1 0.54302035E-01 0.14112824E+04</pdfrwt>
<totfact> 0.25191632E+01</totfact>
</mgrwt>
</event>
<event>
12    2  0.3552864E-008  0.1421631E+04  0.7818608E-02  0.8938308E-01
          1   -1    0    0  501    0  0.00000000000E+00  0.00000000000E+00  0.68856638571E+03  0.68856638571E+03  0.00000000000E+00 0. -1.
         -1   -1    0    0    0  501 -0.00000000000E+00 -0.00000000000E+00 -0.73378381789E+03  0.73378381789E+03  0.00000000000E+00 0.  1.
         23    2    1    2    0    0  0.11230413040E+03  0.22508692291E+03 -0.33744184504E+03  0.43058473899E+03  0.90883871470E+02 0.  0.
        254    2    1    2    0    0 -0.11230413040E+03 -0.22508692291E+03  0.29222441286E+03  0.99176546462E+03  0.91374355744E+03 0.  0.
         23    2    4    4    0    0  0.18740875803E+02  0.23168207036E+03 -0.18638888727E+03  0.31174466129E+03  0.91739382976E+02 0.  0.
         23    2    4    4    0    0 -0.13104500620E+03 -0.45676899327E+03  0.47861330013E+03  0.68002080333E+03  0.86872867088E+02 0.  0.
          3    1    3    3  502    0  0.76112296708E+02  0.55869847685E+02 -0.11985334229E+03  0.15257570333E+03  0.00000000000E+00 0. -1.
         -3    1    3    3    0  502  0.36191833692E+02  0.16921707523E+03 -0.21758850275E+03  0.27800903565E+03  0.00000000000E+00 0.  1.
         11    1    5    5    0    0 -0.12807263968E+02  0.54403297009E+02 -0.94003346475E+02  0.10936349429E+03  0.00000000000E+00 0.  1.
        -11    1    5    5    0    0  0.31548139771E+02  0.17727877335E+03 -0.92385540798E+02  0.20238116699E+03  0.00000000000E+00 0. -1.
          3    1    6    6  503    0 -0.84564699345E+02 -0.25574747182E+03  0.21135942190E+03  0.34238978218E+03  0.00000000000E+00 0. -1.
         -3    1    6    6    0  503 -0.46480306858E+02 -0.20102152146E+03  0.26725387823E+03  0.33763102115E+03  0.00000000000E+00 0.  1.
<mgrwt>
<rscale>  0 0.14216313E+04</rscale>
<asrwt>0</asrwt>
<pdfrwt beam="1">  1        1 0.10593329E+00 0.14216313E+04</pdfrwt>
<pdfrwt beam="2">  1       -1 0.11288982E+00 0.14216313E+04</pdfrwt>
<totfact> 0.19518701E+01</totfact>
</mgrwt>
</event>
<event>
12    2  0.3552864E-008  0.1566593E+04  0.7818608E-02  0.8841338E-01
         -2   -1    0    0    0  501 -0.00000000000E+00  0.00000000000E+00  0.15492324024E+04  0.15492324024E+04  0.00000000000E+00 0.  1.
          2   -1    0    0  501    0  0.00000000000E+00 -0.00000000000E+00 -0.39603679449E+03  0.39603679449E+03  0.00000000000E+00 0. -1.
         23    2    1    2    0    0 -0.15982219709E+03 -0.29325239535E+03 -0.10633994857E+03  0.36246327536E+03  0.92365249216E+02 0.  0.
        254    2    1    2    0    0  0.15982219709E+03  0.29325239535E+03  0.12595355565E+04  0.15828059216E+04  0.89850134400E+03 0.  0.
         23    2    4    4    0    0 -0.78485288140E+02  0.56340939745E+03  0.64529712652E+03  0.86498715523E+03  0.90577633113E+02 0.  0.
         23    2    4    4    0    0  0.23830748523E+03 -0.27015700210E+03  0.61423842998E+03  0.71781876634E+03  0.90552024442E+02 0.  0.
          1    1    3    3  502    0 -0.15635015602E+03 -0.26462179056E+03 -0.68525636456E+02  0.31490605929E+03  0.00000000000E+00 0. -1.
         -1    1    3    3    0  502 -0.34720410699E+01 -0.28630604794E+02 -0.37814312112E+02  0.47557216073E+02  0.00000000000E+00 0.  1.
         11    1    5    5    0    0 -0.17267812777E+02  0.73001985512E+02  0.13600318907E+03  0.15532010393E+03  0.00000000000E+00 0. -1.
        -11    1    5    5    0    0 -0.61217475362E+02  0.49040741194E+03  0.50929393745E+03  0.70966705130E+03  0.00000000000E+00 0.  1.
          3    1    6    6  503    0  0.13596248679E+03 -0.92168400353E+02  0.30914886623E+03  0.35007689631E+03  0.00000000000E+00 0. -1.
         -3    1    6    6    0  503  0.10234499844E+03 -0.17798860175E+03  0.30508956375E+03  0.36774187003E+03  0.00000000000E+00 0.  1.
<mgrwt>
<rscale>  0 0.15665925E+04</rscale>
<asrwt>0</asrwt>
<pdfrwt beam="1">  1        2 0.60928738E-01 0.15665925E+04</pdfrwt>
<pdfrwt beam="2">  1       -2 0.23834344E+00 0.15665925E+04</pdfrwt>
<totfact> 0.58634789E+00</totfact>
</mgrwt>
</event>
<event>
12    2  0.3552864E-008  0.1437434E+04  0.7818608E-02  0.8927159E-01
         -2   -1    0    0    0  501 -0.00000000000E+00  0.00000000000E+00  0.26173716809E+03  0.26173716809E+03  0.00000000000E+00 0.  1.
          2   -1    0    0  501    0  0.00000000000E+00 -0.00000000000E+00 -0.19735613130E+04  0.19735613130E+04  0.00000000000E+00 0. -1.
         23    2    1    2    0    0  0.24722256622E+03  0.69091662594E+02  0.14052312256E+02  0.27267122922E+03  0.90881663034E+02 0.  0.
        254    2    1    2    0    0 -0.24722256622E+03 -0.69091662594E+02 -0.17258764572E+04  0.19626272519E+04  0.89853410025E+03 0.  0.
         23    2    4    4    0    0 -0.36549400772E+03 -0.40264739567E+01 -0.19718713222E+03  0.42531303243E+03  0.91686030903E+02 0.  0.
         23    2    4    4    0    0  0.11827144150E+03 -0.65065188638E+02 -0.15286893250E+04  0.15373142195E+04  0.90677144060E+02 0.  0.
          2    1    3    3  502    0  0.57854708204E+01  0.10626224077E+02 -0.18528107276E+02  0.22128693364E+02  0.00000000000E+00 0. -1.
         -2    1    3    3    0  502  0.24143709540E+03  0.58465438517E+02  0.32580419532E+02  0.25054253586E+03  0.00000000000E+00 0.  1.
         11    1    5    5    0    0 -0.80048135519E+02 -0.25972368328E+02 -0.13681319047E+02  0.85261048595E+02  0.00000000000E+00 0. -1.
        -11    1    5    5    0    0 -0.28544587221E+03  0.21945894371E+02 -0.18350581317E+03  0.34005198383E+03  0.00000000000E+00 0.  1.
          3    1    6    6  503    0 -0.15811336144E+01  0.89669555553E+01 -0.36721851233E+03  0.36733137911E+03  0.00000000000E+00 0. -1.
         -3    1    6    6    0  503  0.11985257512E+03 -0.74032144193E+02 -0.11614708126E+04  0.11699828404E+04  0.00000000000E+00 0.  1.
<mgrwt>
<rscale>  0 0.14374343E+04</rscale>
<asrwt>0</asrwt>
<pdfrwt beam="1">  1        2 0.30362482E+00 0.14374343E+04</pdfrwt>
<pdfrwt beam="2">  1       -2 0.40267257E-01 0.14374343E+04</pdfrwt>
<totfact> 0.39178907E+01</totfact>
</mgrwt>
</event>
<event>
12    2  0.3567004E-008  0.2570012E+04  0.7818608E-02  0.8378459E-01
          2   -1    0    0  501    0  0.00000000000E+00  0.00000000000E+00  0.19824512578E+04  0.19824512578E+04  0.00000000000E+00 0. -1.
         -2   -1    0    0    0  501 -0.00000000000E+00 -0.00000000000E+00 -0.83292863442E+03  0.83292863442E+03  0.00000000000E+00 0.  1.
         23    2    1    2    0    0  0.91199536528E+03 -0.60368374984E+03  0.18661704579E+03  0.11132875196E+04  0.91725478171E+02 0.  0.
        254    2    1    2    0    0 -0.91199536528E+03  0.60368374984E+03  0.96290557762E+03  0.17020923727E+04  0.87963724203E+03 0.  0.
         23    2    4    4    0    0 -0.24854450447E+03  0.24754193572E+03  0.86470006893E+03  0.93760082692E+03  0.91311120799E+02 0.  0.
         23    2    4    4    0    0 -0.66345086081E+03  0.35614181412E+03  0.98205508694E+02  0.76449154575E+03  0.88311749629E+02 0.  0.
          4    1    3    3  502    0  0.17668825021E+03 -0.13066180933E+03  0.23460570037E+01  0.21976521600E+03  0.00000000000E+00 0. -1.
         -4    1    3    3    0  502  0.73530711507E+03 -0.47302194051E+03  0.18427098879E+03  0.89352230358E+03  0.00000000000E+00 0.  1.
         11    1    5    5    0    0 -0.39520662846E+02  0.25219776584E+02  0.54784091911E+02  0.72105593745E+02  0.00000000000E+00 0. -1.
        -11    1    5    5    0    0 -0.20902384163E+03  0.22232215914E+03  0.80991597702E+03  0.86549523317E+03  0.00000000000E+00 0.  1.
          4    1    6    6  503    0  0.11003053221E+01  0.71748715435E+01 -0.11192753531E+01  0.73445374792E+01  0.00000000000E+00 0. -1.
         -4    1    6    6    0  503 -0.66455116613E+03  0.34896694257E+03  0.99324784047E+02  0.75714700828E+03  0.00000000000E+00 0.  1.
<mgrwt>
<rscale>  0 0.25700120E+04</rscale>
<asrwt>0</asrwt>
<pdfrwt beam="1">  1        2 0.30499250E+00 0.25700120E+04</pdfrwt>
<pdfrwt beam="2">  1       -2 0.12814287E+00 0.25700120E+04</pdfrwt>
<totfact> 0.27292313E+00</totfact>
</mgrwt>
</event>
<event>
12    2  0.3552864E-008  0.1430021E+04  0.7818608E-02  0.8932370E-01
         -2   -1    0    0    0  501 -0.00000000000E+00  0.00000000000E+00  0.20055592492E+03  0.20055592492E+03  0.00000000000E+00 0.  1.
          2   -1    0    0  501    0  0.00000000000E+00 -0.00000000000E+00 -0.25491135506E+04  0.25491135506E+04  0.00000000000E+00 0. -1.
         23    2    1    2    0    0 -0.12070093717E+03 -0.36574132758E+03 -0.10634489780E+04  0.11344084536E+04  0.87311945212E+02 0.  0.
        254    2    1    2    0    0  0.12070093717E+03  0.36574132758E+03 -0.12851086477E+04  0.16152610220E+04  0.89957128555E+03 0.  0.
         23    2    4    4    0    0 -0.31254986864E+03  0.39924726707E+03 -0.52702765157E+03  0.73663129447E+03  0.88214045488E+02 0.  0.
         23    2    4    4    0    0  0.43325080582E+03 -0.33505939492E+02 -0.75808099613E+03  0.87862972751E+03  0.92057007539E+02 0.  0.
          2    1    3    3  502    0 -0.16418619343E+02 -0.15884192694E+03 -0.51008249304E+03  0.53449460102E+03  0.00000000000E+00 0.  1.
         -2    1    3    3    0  502 -0.10428231783E+03 -0.20689940063E+03 -0.55336648495E+03  0.59991385253E+03  0.00000000000E+00 0. -1.
         11    1    5    5    0    0 -0.16248061614E+03  0.27565280440E+03 -0.33921687645E+03  0.46631803360E+03  0.00000000000E+00 0. -1.
        -11    1    5    5    0    0 -0.15006925250E+03  0.12359446267E+03 -0.18781077513E+03  0.27031326087E+03  0.00000000000E+00 0.  1.
          1    1    6    6  503    0  0.23531737318E+03 -0.58435064707E+02 -0.37179106578E+03  0.44386655596E+03  0.00000000000E+00 0. -1.
         -1    1    6    6    0  503  0.19793343264E+03  0.24929125215E+02 -0.38628993035E+03  0.43476317155E+03  0.00000000000E+00 0.  1.
<mgrwt>
<rscale>  0 0.14300207E+04</rscale>
<asrwt>0</asrwt>
<pdfrwt beam="1">  1        2 0.39217128E+00 0.14300207E+04</pdfrwt>
<pdfrwt beam="2">  1       -2 0.30854760E-01 0.14300207E+04</pdfrwt>
<totfact> 0.30914566E+01</totfact>
</mgrwt>
</event>
<event>
12    2  0.3552864E-008  0.1887399E+04  0.7818608E-02  0.8661154E-01
         -1   -1    0    0    0  501 -0.00000000000E+00  0.00000000000E+00  0.75898330072E+03  0.75898330072E+03  0.00000000000E+00 0.  1.
          1   -1    0    0  501    0  0.00000000000E+00 -0.00000000000E+00 -0.11733710727E+04  0.11733710727E+04  0.00000000000E+00 0. -1.
         23    2    1    2    0    0 -0.68497213563E+03 -0.87442736358E+02 -0.39275035967E+03  0.79969134055E+03  0.91762391029E+02 0.  0.
        254    2    1    2    0    0  0.68497213563E+03  0.87442736358E+02 -0.21637412285E+02  0.11326630328E+04  0.89756576896E+03 0.  0.
         23    2    4    4    0    0 -0.13271844595E+03  0.24532717418E+03 -0.27214415456E+02  0.29476635712E+03  0.91361767684E+02 0.  0.
         23    2    4    4    0    0  0.81769058158E+03 -0.15788443782E+03  0.55770031705E+01  0.83789667571E+03  0.92164815923E+02 0.  0.
          2    1    3    3  502    0 -0.59908174715E+03 -0.10021764939E+03 -0.36447999847E+03  0.70837009134E+03  0.00000000000E+00 0. -1.
         -2    1    3    3    0  502 -0.85890388477E+02  0.12774913032E+02 -0.28270361197E+02  0.91321249214E+02  0.00000000000E+00 0.  1.
         11    1    5    5    0    0 -0.79856112425E+02  0.64751723298E+02 -0.28210853414E+02  0.10660973976E+03  0.00000000000E+00 0.  1.
        -11    1    5    5    0    0 -0.52862333527E+02  0.18057545088E+03  0.99643795835E+00  0.18815661736E+03  0.00000000000E+00 0. -1.
          1    1    6    6  503    0  0.65367319159E+03 -0.13450897437E+03  0.40441821825E+02  0.66859318463E+03  0.00000000000E+00 0. -1.
         -1    1    6    6    0  503  0.16401738999E+03 -0.23375463456E+02 -0.34864818655E+02  0.16930349108E+03  0.00000000000E+00 0.  1.
<mgrwt>
<rscale>  0 0.18873993E+04</rscale>
<asrwt>0</asrwt>
<pdfrwt beam="1">  1        1 0.18051863E+00 0.18873993E+04</pdfrwt>
<pdfrwt beam="2">  1       -1 0.11676666E+00 0.18873993E+04</pdfrwt>
<totfact> 0.69280645E+00</totfact>
</mgrwt>
</event>
<event>
12    2  0.3552864E-008  0.2375195E+04  0.7818608E-02  0.8448849E-01
         -1   -1    0    0    0  501 -0.00000000000E+00  0.00000000000E+00  0.12100763943E+04  0.12100763943E+04  0.00000000000E+00 0.  1.
          1   -1    0    0  501    0  0.00000000000E+00 -0.00000000000E+00 -0.11655357425E+04  0.11655357425E+04  0.00000000000E+00 0. -1.
         23    2    1    2    0    0 -0.56855884314E+03 -0.14890335182E+03  0.84440153566E+03  0.10330592512E+04  0.93627435591E+02 0.  0.
        254    2    1    2    0    0  0.56855884314E+03  0.14890335182E+03 -0.79986088379E+03  0.13425528856E+04  0.90401297058E+03 0.  0.
         23    2    4    4    0    0 -0.18135202021E+03  0.24208858716E+03 -0.20932328025E+03  0.37934011664E+03  0.92667411592E+02 0.  0.
         23    2    4    4    0    0  0.74991086335E+03 -0.93185235334E+02 -0.59053760355E+03  0.96321276898E+03  0.89411330809E+02 0.  0.
          4    1    3    3  502    0 -0.58786522774E+02 -0.22997771507E+02  0.14784368430E+03  0.16075605040E+03  0.00000000000E+00 0. -1.
         -4    1    3    3    0  502 -0.50977232037E+03 -0.12590558032E+03  0.69655785137E+03  0.87230320077E+03  0.00000000000E+00 0.  1.
         11    1    5    5    0    0 -0.54729377761E+01  0.42899630540E+02 -0.61745805686E+02  0.75384851715E+02  0.00000000000E+00 0.  1.
        -11    1    5    5    0    0 -0.17587908243E+03  0.19918895662E+03 -0.14757747456E+03  0.30395526492E+03  0.00000000000E+00 0. -1.
          1    1    6    6  503    0  0.68886869810E+02  0.17276969082E+02 -0.56115745509E+02  0.90514481642E+02  0.00000000000E+00 0. -1.
         -1    1    6    6    0  503  0.68102399354E+03 -0.11046220442E+03 -0.53442185804E+03  0.87269828734E+03  0.00000000000E+00 0.  1.
<mgrwt>
<rscale>  0 0.23751946E+04</rscale>
<asrwt>0</asrwt>
<pdfrwt beam="1">  1        1 0.17931319E+00 0.23751946E+04</pdfrwt>
<pdfrwt beam="2">  1       -1 0.18616560E+00 0.23751946E+04</pdfrwt>
<totfact> 0.19131893E+00</totfact>
</mgrwt>
</event>
<event>
12    2  0.3552864E-008  0.1322439E+04  0.7818608E-02  0.9011958E-01
          1   -1    0    0  501    0  0.00000000000E+00  0.00000000000E+00  0.87026275436E+03  0.87026275436E+03  0.00000000000E+00 0. -1.
         -1   -1    0    0    0  501 -0.00000000000E+00 -0.00000000000E+00 -0.50238974612E+03  0.50238974612E+03  0.00000000000E+00 0.  1.
         23    2    1    2    0    0  0.34217962836E+03  0.14195342858E+02  0.85233349346E+02  0.36346348738E+03  0.86905563670E+02 0.  0.
        254    2    1    2    0    0 -0.34217962836E+03 -0.14195342858E+02  0.28263965889E+03  0.10091890131E+04  0.90624990018E+03 0.  0.
         23    2    4    4    0    0 -0.41089176327E+03  0.30353271985E+03  0.39612089474E+03  0.65280058532E+03  0.90954317161E+02 0.  0.
         23    2    4    4    0    0  0.68712134908E+02 -0.31772806270E+03 -0.11348123584E+03  0.35638842779E+03  0.91990441128E+02 0.  0.
          4    1    3    3  502    0  0.24685535321E+03 -0.80409585984E+01  0.96005227036E+02  0.26498910551E+03  0.00000000000E+00 0. -1.
         -4    1    3    3    0  502  0.95324275148E+02  0.22236301457E+02 -0.10771877690E+02  0.98474381867E+02  0.00000000000E+00 0.  1.
         11    1    5    5    0    0 -0.22396992487E+03  0.13447675853E+03  0.15368296231E+03  0.30309236007E+03  0.00000000000E+00 0. -1.
        -11    1    5    5    0    0 -0.18692183840E+03  0.16905596132E+03  0.24243793243E+03  0.34970822525E+03  0.00000000000E+00 0.  1.
          3    1    6    6  503    0  0.39144923713E+02 -0.29968433160E+03 -0.10979167832E+03  0.32155440642E+03  0.00000000000E+00 0. -1.
         -3    1    6    6    0  503  0.29567211195E+02 -0.18043731106E+02 -0.36895575205E+01  0.34834021370E+02  0.00000000000E+00 0.  1.
<mgrwt>
<rscale>  0 0.13224388E+04</rscale>
<asrwt>0</asrwt>
<pdfrwt beam="1">  1        1 0.13388658E+00 0.13224388E+04</pdfrwt>
<pdfrwt beam="2">  1       -1 0.77290730E-01 0.13224388E+04</pdfrwt>
<totfact> 0.31712290E+01</totfact>
</mgrwt>
</event>
<event>
12    2  0.3552864E-008  0.1307033E+04  0.7818608E-02  0.9024007E-01
          2   -1    0    0  501    0  0.00000000000E+00  0.00000000000E+00  0.20932363342E+04  0.20932363342E+04  0.00000000000E+00 0.  1.
         -2   -1    0    0    0  501 -0.00000000000E+00 -0.00000000000E+00 -0.20403028809E+03  0.20403028809E+03  0.00000000000E+00 0. -1.
         23    2    1    2    0    0  0.25935362979E+02 -0.86946316415E+02 -0.65026776696E+02  0.14422339309E+03  0.91321412800E+02 0.  0.
        254    2    1    2    0    0 -0.25935362979E+02  0.86946316415E+02  0.19542328228E+04  0.21530432292E+04  0.89907558976E+03 0.  0.
         23    2    4    4    0    0 -0.31126085647E+03  0.21369740377E+03  0.37047558180E+03  0.53619118091E+03  0.87743516191E+02 0.  0.
         23    2    4    4    0    0  0.28532549349E+03 -0.12675108736E+03  0.15837572410E+04  0.16168520483E+04  0.91907955253E+02 0.  0.
          1    1    3    3  502    0  0.40703301482E+02 -0.32011272555E+02 -0.70055289619E+02  0.87116151922E+02  0.00000000000E+00 0. -1.
         -1    1    3    3    0  502 -0.14767938502E+02 -0.54935043860E+02  0.50285129233E+01  0.57107241167E+02  0.00000000000E+00 0.  1.
         11    1    5    5    0    0 -0.95892051868E+02  0.32114171631E+02  0.13719049554E+03  0.17043426210E+03  0.00000000000E+00 0. -1.
        -11    1    5    5    0    0 -0.21536880460E+03  0.18158323214E+03  0.23328508625E+03  0.36575691881E+03  0.00000000000E+00 0.  1.
          2    1    6    6  503    0  0.26880224105E+03 -0.95323712469E+02  0.13023034712E+04  0.13331675012E+04  0.00000000000E+00 0. -1.
         -2    1    6    6    0  503  0.16523252441E+02 -0.31427374891E+02  0.28145376974E+03  0.28368454710E+03  0.00000000000E+00 0.  1.
<mgrwt>
<rscale>  0 0.13070327E+04</rscale>
<asrwt>0</asrwt>
<pdfrwt beam="1">  1        2 0.32203634E+00 0.13070327E+04</pdfrwt>
<pdfrwt beam="2">  1       -2 0.31389277E-01 0.13070327E+04</pdfrwt>
<totfact> 0.54776697E+01</totfact>
</mgrwt>
</event>
<event>
12    2  0.3552864E-008  0.1052365E+04  0.7818608E-02  0.9252906E-01
          2   -1    0    0  501    0  0.00000000000E+00  0.00000000000E+00  0.34788154572E+03  0.34788154572E+03  0.00000000000E+00 0. -1.
         -2   -1    0    0    0  501 -0.00000000000E+00 -0.00000000000E+00 -0.79586810140E+03  0.79586810140E+03  0.00000000000E+00 0.  1.
         23    2    1    2    0    0 -0.52489013093E+02  0.32775796526E+02  0.43134953992E+02  0.11755848608E+03  0.90166646056E+02 0.  0.
        254    2    1    2    0    0  0.52489013093E+02 -0.32775796526E+02 -0.49112150968E+03  0.10261911610E+04  0.89890967977E+03 0.  0.
         23    2    4    4    0    0 -0.27078116381E+03 -0.61297757561E+02  0.13090837436E+03  0.31877146338E+03  0.86013892102E+02 0.  0.
         23    2    4    4    0    0  0.32327017690E+03  0.28521961036E+02 -0.62202988404E+03  0.70741969765E+03  0.90577825416E+02 0.  0.
          3    1    3    3  502    0 -0.64329765972E+02  0.52177744692E+02  0.20177462832E+02  0.85252365583E+02  0.00000000000E+00 0. -1.
         -3    1    3    3    0  502  0.11840752879E+02 -0.19401948166E+02  0.22957491161E+02  0.32306120501E+02  0.00000000000E+00 0.  1.
         11    1    5    5    0    0 -0.87824578232E+02 -0.62319652128E+02  0.47793758848E+02  0.11781824548E+03  0.00000000000E+00 0.  1.
        -11    1    5    5    0    0 -0.18295658557E+03  0.10218945670E+01  0.83114615515E+02  0.20095321790E+03  0.00000000000E+00 0. -1.
          1    1    6    6  503    0  0.19801782875E+03 -0.74495836143E+01 -0.29493312266E+03  0.35531972031E+03  0.00000000000E+00 0. -1.
         -1    1    6    6    0  503  0.12525234815E+03  0.35971544650E+02 -0.32709676137E+03  0.35209997734E+03  0.00000000000E+00 0.  1.
<mgrwt>
<rscale>  0 0.10523646E+04</rscale>
<asrwt>0</asrwt>
<pdfrwt beam="1">  1        2 0.53520238E-01 0.10523646E+04</pdfrwt>
<pdfrwt beam="2">  1       -2 0.12244125E+00 0.10523646E+04</pdfrwt>
<totfact> 0.46754284E+01</totfact>
</mgrwt>
</event>
<event>
12    2  0.3552864E-008  0.2336499E+04  0.7818608E-02  0.8463668E-01
          2   -1    0    0  501    0  0.00000000000E+00  0.00000000000E+00  0.13692910027E+04  0.13692910027E+04  0.00000000000E+00 0. -1.
         -2   -1    0    0    0  501 -0.00000000000E+00 -0.00000000000E+00 -0.99672498941E+03  0.99672498941E+03  0.00000000000E+00 0.  1.
         23    2    1    2    0    0 -0.43652909187E+02  0.82472099323E+03  0.73488051991E+03  0.11091742620E+04  0.90265562026E+02 0.  0.
        254    2    1    2    0    0  0.43652909187E+02 -0.82472099323E+03 -0.36231450664E+03  0.12568417301E+04  0.87539079256E+03 0.  0.
         23    2    4    4    0    0 -0.35124573490E+03 -0.38700221843E+03 -0.39176336751E+03  0.65947521525E+03  0.91020547426E+02 0.  0.
         23    2    4    4    0    0  0.39489864409E+03 -0.43771877481E+03  0.29448860862E+02  0.59736651487E+03  0.91852342194E+02 0.  0.
          1    1    3    3  502    0 -0.23872017371E+02  0.54953951712E+03  0.54444338211E+03  0.77393937128E+03  0.00000000000E+00 0. -1.
         -1    1    3    3    0  502 -0.19780891816E+02  0.27518147611E+03  0.19043713780E+03  0.33523489068E+03  0.00000000000E+00 0.  1.
         11    1    5    5    0    0 -0.28258789926E+03 -0.33702924238E+03 -0.36151182821E+03  0.56932893213E+03  0.00000000000E+00 0.  1.
        -11    1    5    5    0    0 -0.68657835642E+02 -0.49972976053E+02 -0.30251539298E+02  0.90146283121E+02  0.00000000000E+00 0. -1.
          3    1    6    6  503    0  0.64959786179E+02 -0.11427426127E+03  0.32158768637E+02  0.13532393362E+03  0.00000000000E+00 0. -1.
         -3    1    6    6    0  503  0.32993885791E+03 -0.32344451353E+03 -0.27099077748E+01  0.46204258126E+03  0.00000000000E+00 0.  1.
<mgrwt>
<rscale>  0 0.23364987E+04</rscale>
<asrwt>0</asrwt>
<pdfrwt beam="1">  1        2 0.21066015E+00 0.23364987E+04</pdfrwt>
<pdfrwt beam="2">  1       -2 0.15334231E+00 0.23364987E+04</pdfrwt>
<totfact> 0.38494969E+00</totfact>
</mgrwt>
</event>
<event>
12    2  0.3552864E-008  0.2380541E+04  0.7818608E-02  0.8446825E-01
          2   -1    0    0  501    0  0.00000000000E+00  0.00000000000E+00  0.10704514240E+04  0.10704514240E+04  0.00000000000E+00 0. -1.
         -2   -1    0    0    0  501 -0.00000000000E+00 -0.00000000000E+00 -0.13235014433E+04  0.13235014433E+04  0.00000000000E+00 0.  1.
         23    2    1    2    0    0  0.75133518510E+03  0.65695246492E+03 -0.31118117848E+03  0.10492371541E+04  0.89296014403E+02 0.  0.
        254    2    1    2    0    0 -0.75133518510E+03 -0.65695246492E+03  0.58131159170E+02  0.13447157132E+04  0.89932753556E+03 0.  0.
         23    2    4    4    0    0 -0.66122235701E+03 -0.37367243409E+03  0.41435200629E+03  0.86972318517E+03  0.88796060221E+02 0.  0.
         23    2    4    4    0    0 -0.90112828095E+02 -0.28328003083E+03 -0.35622084712E+03  0.47499252806E+03  0.10176793275E+03 0.  0.
          4    1    3    3  502    0  0.72999024511E+03  0.63029600394E+03 -0.31567082362E+03  0.10147940084E+04  0.00000000000E+00 0. -1.
         -4    1    3    3    0  502  0.21344939996E+02  0.26656460977E+02  0.44896451339E+01  0.34443145743E+02  0.00000000000E+00 0.  1.
         11    1    5    5    0    0 -0.73945535367E+01  0.32577237775E+01  0.12014611452E+02  0.14479056411E+02  0.00000000000E+00 0. -1.
        -11    1    5    5    0    0 -0.65382780347E+03 -0.37693015787E+03  0.40233739483E+03  0.85524412876E+03  0.00000000000E+00 0.  1.
          3    1    6    6  503    0 -0.71916947012E+02 -0.12644399033E+03 -0.23313993079E+03  0.27479875780E+03  0.00000000000E+00 0. -1.
         -3    1    6    6    0  503 -0.18195881084E+02 -0.15683604050E+03 -0.12308091633E+03  0.20019377026E+03  0.00000000000E+00 0.  1.
<mgrwt>
<rscale>  0 0.23805411E+04</rscale>
<asrwt>0</asrwt>
<pdfrwt beam="1">  1        2 0.16468483E+00 0.23805411E+04</pdfrwt>
<pdfrwt beam="2">  1       -2 0.20361561E+00 0.23805411E+04</pdfrwt>
<totfact> 0.25776586E+00</totfact>
</mgrwt>
</event>
<event>
12    2  0.3552864E-008  0.1833247E+04  0.7818608E-02  0.8688816E-01
         -1   -1    0    0    0  501 -0.00000000000E+00  0.00000000000E+00  0.23178718537E+03  0.23178718537E+03  0.00000000000E+00 0. -1.
          1   -1    0    0  501    0  0.00000000000E+00 -0.00000000000E+00 -0.36248726750E+04  0.36248726750E+04  0.00000000000E+00 0.  1.
         23    2    1    2    0    0 -0.50778658244E+03 -0.44706813481E+03 -0.97160145431E+03  0.11872749668E+04  0.88855671166E+02 0.  0.
        254    2    1    2    0    0  0.50778658244E+03  0.44706813481E+03 -0.24214840354E+04  0.26693848936E+04  0.89683535070E+03 0.  0.
         23    2    4    4    0    0  0.61078735022E+03  0.52340156245E+03 -0.12594800217E+04  0.14969768480E+04  0.87403521645E+02 0.  0.
         23    2    4    4    0    0 -0.10300076778E+03 -0.76333427636E+02 -0.11620040137E+04  0.11724080456E+04  0.88607828899E+02 0.  0.
          3    1    3    3  502    0 -0.43259259246E+03 -0.38678248524E+03 -0.88138712751E+03  0.10552631475E+04  0.00000000000E+00 0. -1.
         -3    1    3    3    0  502 -0.75193989980E+02 -0.60285649570E+02 -0.90214326798E+02  0.13201181929E+03  0.00000000000E+00 0.  1.
         11    1    5    5    0    0  0.40316610530E+03  0.39505035390E+03 -0.85335612703E+03  0.10231443545E+04  0.00000000000E+00 0. -1.
        -11    1    5    5    0    0  0.20762124492E+03  0.12835120855E+03 -0.40612389466E+03  0.47383249350E+03  0.00000000000E+00 0.  1.
          1    1    6    6  503    0 -0.11531879256E+03 -0.59375682883E+02 -0.86562311071E+03  0.87528696176E+03  0.00000000000E+00 0. -1.
         -1    1    6    6    0  503  0.12318024779E+02 -0.16957744753E+02 -0.29638090294E+03  0.29712108385E+03  0.00000000000E+00 0.  1.
<mgrwt>
<rscale>  0 0.18332474E+04</rscale>
<asrwt>0</asrwt>
<pdfrwt beam="1">  1        1 0.55767270E+00 0.18332474E+04</pdfrwt>
<pdfrwt beam="2">  1       -1 0.35659568E-01 0.18332474E+04</pdfrwt>
<totfact> 0.14125510E+00</totfact>
</mgrwt>
</event>
<event>
12    2  0.3552864E-008  0.1519129E+04  0.7818608E-02  0.8871831E-01
          2   -1    0    0  501    0  0.00000000000E+00  0.00000000000E+00  0.14908958530E+04  0.14908958530E+04  0.00000000000E+00 0. -1.
         -2   -1    0    0    0  501 -0.00000000000E+00 -0.00000000000E+00 -0.38697410246E+03  0.38697410246E+03  0.00000000000E+00 0.  1.
         23    2    1    2    0    0  0.76213077975E+02  0.22972248296E+03  0.87359844108E+03  0.91128659947E+03  0.93210394735E+02 0.  0.
        254    2    1    2    0    0 -0.76213077975E+02 -0.22972248296E+03  0.23032330951E+03  0.96658335603E+03  0.90700259362E+03 0.  0.
         23    2    4    4    0    0 -0.38697304149E+03 -0.25682677899E+03 -0.12016480858E+03  0.48855967180E+03  0.92427498321E+02 0.  0.
         23    2    4    4    0    0  0.31075996351E+03  0.27104296037E+02  0.35048811809E+03  0.47802368423E+03  0.91423869843E+02 0.  0.
          3    1    3    3  502    0  0.13815865707E+02  0.24738182669E+02  0.25622288087E+03  0.25778483374E+03  0.00000000000E+00 0. -1.
         -3    1    3    3    0  502  0.62397212269E+02  0.20498430029E+03  0.61737556021E+03  0.65350176573E+03  0.00000000000E+00 0.  1.
         11    1    5    5    0    0 -0.30969828772E+03 -0.20774200792E+03 -0.13339881160E+03  0.39606188179E+03  0.00000000000E+00 0. -1.
        -11    1    5    5    0    0 -0.77274753767E+02 -0.49084771071E+02  0.13234003023E+02  0.92497790010E+02  0.00000000000E+00 0.  1.
          3    1    6    6  503    0  0.25010554457E+03 -0.15632741612E+02  0.26209610042E+03  0.36261761111E+03  0.00000000000E+00 0.  1.
         -3    1    6    6    0  503  0.60654418942E+02  0.42737037649E+02  0.88392017671E+02  0.11540607312E+03  0.00000000000E+00 0. -1.
<mgrwt>
<rscale>  0 0.15191288E+04</rscale>
<asrwt>0</asrwt>
<pdfrwt beam="1">  1        2 0.22936859E+00 0.15191288E+04</pdfrwt>
<pdfrwt beam="2">  1       -2 0.59534478E-01 0.15191288E+04</pdfrwt>
<totfact> 0.32626448E+01</totfact>
</mgrwt>
</event>
<event>
12    2  0.3552864E-008  0.1858156E+04  0.7818608E-02  0.8675970E-01
          2   -1    0    0  501    0  0.00000000000E+00  0.00000000000E+00  0.82168534623E+03  0.82168534623E+03  0.00000000000E+00 0. -1.
         -2   -1    0    0    0  501 -0.00000000000E+00 -0.00000000000E+00 -0.10505063657E+04  0.10505063657E+04  0.00000000000E+00 0.  1.
         23    2    1    2    0    0  0.64735946835E+03 -0.27989613085E+03 -0.11868065849E+03  0.72122998226E+03  0.93120691973E+02 0.  0.
        254    2    1    2    0    0 -0.64735946835E+03  0.27989613085E+03 -0.11014036097E+03  0.11509617297E+04  0.90286537129E+03 0.  0.
         23    2    4    4    0    0  0.16515966966E+03 -0.12488846579E+03  0.35050401879E+02  0.22730140569E+03  0.86962940324E+02 0.  0.
         23    2    4    4    0    0 -0.81251913801E+03  0.40478459664E+03 -0.14519076285E+03  0.92366032396E+03  0.89610920790E+02 0.  0.
          1    1    3    3  502    0  0.35561492618E+02 -0.41764981355E+02 -0.11099008303E+02  0.55965359019E+02  0.00000000000E+00 0. -1.
         -1    1    3    3    0  502  0.61179797573E+03 -0.23813114950E+03 -0.10758165018E+03  0.66526462324E+03  0.00000000000E+00 0.  1.
         11    1    5    5    0    0 -0.29007399549E+01  0.89741672985E+01  0.38671260572E+01  0.10193362298E+02  0.00000000000E+00 0.  1.
        -11    1    5    5    0    0  0.16806040962E+03 -0.13386263308E+03  0.31183275821E+02  0.21710804340E+03  0.00000000000E+00 0. -1.
          2    1    6    6  503    0 -0.65440200563E+03  0.28530993285E+03 -0.10786785910E+03  0.72199668821E+03  0.00000000000E+00 0. -1.
         -2    1    6    6    0  503 -0.15811713238E+03  0.11947466378E+03 -0.37322903744E+02  0.20166363575E+03  0.00000000000E+00 0.  1.
<mgrwt>
<rscale>  0 0.18581557E+04</rscale>
<asrwt>0</asrwt>
<pdfrwt beam="1">  1        2 0.12641313E+00 0.18581557E+04</pdfrwt>
<pdfrwt beam="2">  1       -2 0.16161636E+00 0.18581557E+04</pdfrwt>
<totfact> 0.76500908E+00</totfact>
</mgrwt>
</event>
<event>
12    2  0.3552864E-008  0.2059969E+04  0.7818608E-02  0.8579085E-01
         -2   -1    0    0    0  501 -0.00000000000E+00  0.00000000000E+00  0.10653110952E+04  0.10653110952E+04  0.00000000000E+00 0. -1.
          2   -1    0    0  501    0  0.00000000000E+00 -0.00000000000E+00 -0.99582972496E+03  0.99582972496E+03  0.00000000000E+00 0.  1.
         23    2    1    2    0    0 -0.23978680928E+03  0.19104444344E+03  0.79810833457E+03  0.85962112181E+03  0.89307704433E+02 0.  0.
        254    2    1    2    0    0  0.23978680928E+03 -0.19104444344E+03 -0.72862696431E+03  0.12015196984E+04  0.90485172220E+03 0.  0.
         23    2    4    4    0    0 -0.45239466635E+02  0.33902942852E+01  0.19008248862E+03  0.21576942478E+03  0.91471245507E+02 0.  0.
         23    2    4    4    0    0  0.28502627592E+03 -0.19443473773E+03 -0.91870945293E+03  0.98575027359E+03  0.92906930721E+02 0.  0.
          1    1    3    3  502    0 -0.21013451510E+03  0.13421906171E+03  0.69321686030E+03  0.73669592530E+03  0.00000000000E+00 0. -1.
         -1    1    3    3    0  502 -0.29652294179E+02  0.56825381739E+02  0.10489147428E+03  0.12292519650E+03  0.00000000000E+00 0.  1.
         11    1    5    5    0    0  0.25147028139E+02  0.13017404437E+02  0.33772611155E+02  0.44072838651E+02  0.00000000000E+00 0.  1.
        -11    1    5    5    0    0 -0.70386494774E+02 -0.96271101521E+01  0.15630987746E+03  0.17169658613E+03  0.00000000000E+00 0. -1.
          3    1    6    6  503    0  0.24762546099E+03 -0.17231878496E+03 -0.86821294707E+03  0.91913320800E+03  0.00000000000E+00 0. -1.
         -3    1    6    6    0  503  0.37400814925E+02 -0.22115952768E+02 -0.50496505860E+02  0.66617065591E+02  0.00000000000E+00 0.  1.
<mgrwt>
<rscale>  0 0.20599694E+04</rscale>
<asrwt>0</asrwt>
<pdfrwt beam="1">  1        2 0.15320457E+00 0.20599694E+04</pdfrwt>
<pdfrwt beam="2">  1       -2 0.16389401E+00 0.20599694E+04</pdfrwt>
<totfact> 0.55255127E+00</totfact>
</mgrwt>
</event>
<event>
12    2  0.3552864E-008  0.2102474E+04  0.7818608E-02  0.8560155E-01
         -2   -1    0    0    0  501 -0.00000000000E+00  0.00000000000E+00  0.27580221121E+03  0.27580221121E+03  0.00000000000E+00 0.  1.
          2   -1    0    0  501    0  0.00000000000E+00 -0.00000000000E+00 -0.40068522402E+04  0.40068522402E+04  0.00000000000E+00 0. -1.
         23    2    1    2    0    0 -0.43418254064E+01  0.60280536298E+02  0.21559726554E+03  0.24178255262E+03  0.91236107664E+02 0.  0.
        254    2    1    2    0    0  0.43418254064E+01 -0.60280536298E+02 -0.39466472945E+04  0.40408718988E+04  0.86542951215E+03 0.  0.
         23    2    4    4    0    0 -0.33875085818E+03  0.14875176002E+03 -0.10764638500E+04  0.11412874994E+04  0.82966896238E+02 0.  0.
         23    2    4    4    0    0  0.34309268359E+03 -0.20903229631E+03 -0.28701834445E+04  0.28995843993E+04  0.90717107428E+02 0.  0.
          4    1    3    3  502    0  0.31321044722E+02  0.20227918048E+02  0.27883237640E+02  0.46558043906E+02  0.00000000000E+00 0. -1.
         -4    1    3    3    0  502 -0.35662870129E+02  0.40052618250E+02  0.18771402790E+03  0.19522450872E+03  0.00000000000E+00 0.  1.
         11    1    5    5    0    0 -0.23561199372E+03  0.12192282776E+03 -0.65799205244E+03  0.70945875749E+03  0.00000000000E+00 0.  1.
        -11    1    5    5    0    0 -0.10313886446E+03  0.26828932259E+02 -0.41847179760E+03  0.43182874193E+03  0.00000000000E+00 0. -1.
          1    1    6    6  503    0  0.61700259181E+02 -0.87915993994E+00 -0.45881708137E+03  0.46294795502E+03  0.00000000000E+00 0. -1.
         -1    1    6    6    0  503  0.28139242441E+03 -0.20815313637E+03 -0.24113663631E+04  0.24366364443E+04  0.00000000000E+00 0.  1.
<mgrwt>
<rscale>  0 0.21024735E+04</rscale>
<asrwt>0</asrwt>
<pdfrwt beam="1">  1        2 0.61643879E+00 0.21024735E+04</pdfrwt>
<pdfrwt beam="2">  1       -2 0.42431111E-01 0.21024735E+04</pdfrwt>
<totfact> 0.16530399E+00</totfact>
</mgrwt>
</event>
<event>
12    2  0.3552864E-008  0.1394181E+04  0.7818608E-02  0.8958042E-01
          1   -1    0    0  501    0  0.00000000000E+00  0.00000000000E+00  0.38861482478E+03  0.38861482478E+03  0.00000000000E+00 0. -1.
         -1   -1    0    0    0  501 -0.00000000000E+00 -0.00000000000E+00 -0.12504283757E+04  0.12504283757E+04  0.00000000000E+00 0.  1.
         23    2    1    2    0    0 -0.32722392213E+03 -0.81272952790E+02  0.12223119143E+03  0.36987970054E+03  0.90497185821E+02 0.  0.
        254    2    1    2    0    0  0.32722392213E+03  0.81272952790E+02 -0.98404474239E+03  0.12691635000E+04  0.72715276702E+03 0.  0.
         23    2    4    4    0    0  0.28379301746E+03  0.15094993224E+03 -0.10689297543E+04  0.11201148213E+04  0.93391832652E+02 0.  0.
         23    2    4    4    0    0  0.43430904670E+02 -0.69676979447E+02  0.84885011962E+02  0.14904867866E+03  0.90933593403E+02 0.  0.
          2    1    3    3  502    0 -0.32263302285E+03 -0.91762495046E+02  0.10971497407E+03  0.35291613517E+03  0.00000000000E+00 0. -1.
         -2    1    3    3    0  502 -0.45908992851E+01  0.10489542256E+02  0.12516217362E+02  0.16963565369E+02  0.00000000000E+00 0.  1.
         11    1    5    5    0    0  0.25626605162E+02 -0.11505734383E+02 -0.63552758922E+02  0.69484228300E+02  0.00000000000E+00 0.  1.
        -11    1    5    5    0    0  0.25816641230E+03  0.16245566662E+03 -0.10053769954E+04  0.10506305930E+04  0.00000000000E+00 0. -1.
          1    1    6    6  503    0  0.27606603538E+02 -0.72519391057E+02  0.10027517051E+03  0.12679233596E+03  0.00000000000E+00 0. -1.
         -1    1    6    6    0  503  0.15824301132E+02  0.28424116099E+01 -0.15390158549E+02  0.22256342696E+02  0.00000000000E+00 0.  1.
<mgrwt>
<rscale>  0 0.13941808E+04</rscale>
<asrwt>0</asrwt>
<pdfrwt beam="1">  1        1 0.59786895E-01 0.13941808E+04</pdfrwt>
<pdfrwt beam="2">  1       -1 0.19237360E+00 0.13941808E+04</pdfrwt>
<totfact> 0.10342114E+01</totfact>
</mgrwt>
</event>
<event>
12    2  0.3552864E-008  0.1749832E+04  0.7818608E-02  0.8733443E-01
          1   -1    0    0  501    0  0.00000000000E+00  0.00000000000E+00  0.22842796799E+04  0.22842796799E+04  0.00000000000E+00 0. -1.
         -1   -1    0    0    0  501 -0.00000000000E+00 -0.00000000000E+00 -0.33510714109E+03  0.33510714109E+03  0.00000000000E+00 0.  1.
         23    2    1    2    0    0 -0.54923309362E+03  0.99279413509E+02  0.16815759915E+03  0.59013366219E+03  0.92018302609E+02 0.  0.
        254    2    1    2    0    0  0.54923309362E+03 -0.99279413509E+02  0.17810149397E+04  0.20292531588E+04  0.79645513003E+03 0.  0.
         23    2    4    4    0    0  0.63206964423E+03 -0.68193069025E+02  0.17876494730E+04  0.18994828098E+04  0.90454278594E+02 0.  0.
         23    2    4    4    0    0 -0.82836550603E+02 -0.31086344485E+02 -0.66345333720E+01  0.12977034900E+03  0.94699902408E+02 0.  0.
          4    1    3    3  502    0 -0.24621915880E+02  0.20507541736E+01  0.30242850219E+02  0.39052199985E+02  0.00000000000E+00 0. -1.
         -4    1    3    3    0  502 -0.52461117774E+03  0.97228659336E+02  0.13791474894E+03  0.55108146220E+03  0.00000000000E+00 0.  1.
         11    1    5    5    0    0  0.12143699330E+03 -0.23300681759E+02  0.45947445579E+03  0.47582206825E+03  0.00000000000E+00 0. -1.
        -11    1    5    5    0    0  0.51063265093E+03 -0.44892387266E+02  0.13281750173E+04  0.14236607416E+04  0.00000000000E+00 0.  1.
          1    1    6    6  503    0  0.81548137063E+01  0.10807552309E+02 -0.24523947263E+02  0.28012999891E+02  0.00000000000E+00 0. -1.
         -1    1    6    6    0  503 -0.90991364310E+02 -0.41893896794E+02  0.17889413891E+02  0.10175734911E+03  0.00000000000E+00 0.  1.
<mgrwt>
<rscale>  0 0.17498325E+04</rscale>
<asrwt>0</asrwt>
<pdfrwt beam="1">  1        1 0.35142763E+00 0.17498325E+04</pdfrwt>
<pdfrwt beam="2">  1       -1 0.51554946E-01 0.17498325E+04</pdfrwt>
<totfact> 0.68489978E+00</totfact>
</mgrwt>
</event>
<event>
12    2  0.3552864E-008  0.2309266E+04  0.7818608E-02  0.8474276E-01
          2   -1    0    0  501    0  0.00000000000E+00  0.00000000000E+00  0.14030982206E+04  0.14030982206E+04  0.00000000000E+00 0. -1.
         -2   -1    0    0    0  501 -0.00000000000E+00 -0.00000000000E+00 -0.95016708445E+03  0.95016708445E+03  0.00000000000E+00 0.  1.
         23    2    1    2    0    0 -0.89076694695E+03 -0.21976581277E+03 -0.15008789159E+03  0.93423004942E+03  0.92177241177E+02 0.  0.
        254    2    1    2    0    0  0.89076694695E+03  0.21976581277E+03  0.60301902770E+03  0.14190352556E+04  0.89903634108E+03 0.  0.
         23    2    4    4    0    0 -0.94355265078E+02  0.25672062674E+03  0.19806367509E+03  0.34957241100E+03  0.90350732698E+02 0.  0.
         23    2    4    4    0    0  0.98512221203E+03 -0.36954813962E+02  0.40495535261E+03  0.10694628446E+04  0.89053396541E+02 0.  0.
          3    1    3    3  502    0 -0.14369945300E+03 -0.29009976775E+02  0.92934089728E+01  0.14689274658E+03  0.00000000000E+00 0. -1.
         -3    1    3    3    0  502 -0.74706749395E+03 -0.19075583600E+03 -0.15938130057E+03  0.78733730285E+03  0.00000000000E+00 0.  1.
         11    1    5    5    0    0 -0.40441511069E+02  0.21275582708E+03  0.13192854540E+03  0.25358568347E+03  0.00000000000E+00 0.  1.
        -11    1    5    5    0    0 -0.53913754009E+02  0.43964799658E+02  0.66135129698E+02  0.95986727523E+02  0.00000000000E+00 0. -1.
          4    1    6    6  503    0  0.74942082670E+03 -0.51681385939E+02  0.27534735455E+03  0.80007418831E+03  0.00000000000E+00 0.  1.
         -4    1    6    6    0  503  0.23570138533E+03  0.14726571977E+02  0.12960799807E+03  0.26938865628E+03  0.00000000000E+00 0. -1.
<mgrwt>
<rscale>  0 0.23092663E+04</rscale>
<asrwt>0</asrwt>
<pdfrwt beam="1">  1        2 0.21586127E+00 0.23092663E+04</pdfrwt>
<pdfrwt beam="2">  1       -2 0.14617955E+00 0.23092663E+04</pdfrwt>
<totfact> 0.41885926E+00</totfact>
</mgrwt>
</event>
<event>
12    2  0.3552864E-008  0.1536425E+04  0.7818608E-02  0.8860586E-01
         -2   -1    0    0    0  501 -0.00000000000E+00  0.00000000000E+00  0.30847636156E+03  0.30847636156E+03  0.00000000000E+00 0.  1.
          2   -1    0    0  501    0  0.00000000000E+00 -0.00000000000E+00 -0.19131129526E+04  0.19131129526E+04  0.00000000000E+00 0. -1.
         23    2    1    2    0    0  0.13015572439E+01 -0.10234783465E+03 -0.12376360621E+04  0.12453051655E+04  0.92548147876E+02 0.  0.
        254    2    1    2    0    0 -0.13015572439E+01  0.10234783465E+03 -0.36700052896E+03  0.97628414869E+03  0.89886849840E+03 0.  0.
         23    2    4    4    0    0  0.39008149479E+03 -0.23190661610E+02  0.23688009098E+02  0.40170640042E+03  0.90030722531E+02 0.  0.
         23    2    4    4    0    0 -0.39138305204E+03  0.12553849626E+03 -0.39068853806E+03  0.57457774827E+03  0.92528090728E+02 0.  0.
          2    1    3    3  502    0  0.35807473120E+02 -0.84704614948E+02 -0.10289236488E+04  0.10330251313E+04  0.00000000000E+00 0. -1.
         -2    1    3    3    0  502 -0.34505915877E+02 -0.17643219704E+02 -0.20871241329E+03  0.21228003414E+03  0.00000000000E+00 0.  1.
         11    1    5    5    0    0  0.38585863366E+03 -0.19611008851E+02  0.36175752788E+02  0.38804659762E+03  0.00000000000E+00 0. -1.
        -11    1    5    5    0    0  0.42228611341E+01 -0.35796527589E+01 -0.12487743690E+02  0.13659802799E+02  0.00000000000E+00 0.  1.
          3    1    6    6  503    0 -0.13585801444E+03  0.77156258785E+02 -0.19057066451E+03  0.24642984098E+03  0.00000000000E+00 0. -1.
         -3    1    6    6    0  503 -0.25552503760E+03  0.48382237478E+02 -0.20011787355E+03  0.32814790729E+03  0.00000000000E+00 0.  1.
<mgrwt>
<rscale>  0 0.15364246E+04</rscale>
<asrwt>0</asrwt>
<pdfrwt beam="1">  1        2 0.29432507E+00 0.15364246E+04</pdfrwt>
<pdfrwt beam="2">  1       -2 0.47457902E-01 0.15364246E+04</pdfrwt>
<totfact> 0.30278838E+01</totfact>
</mgrwt>
</event>
<event>
12    2  0.3552864E-008  0.2368795E+04  0.7818608E-02  0.8451279E-01
          1   -1    0    0  501    0  0.00000000000E+00  0.00000000000E+00  0.20603690910E+04  0.20603690910E+04  0.00000000000E+00 0. -1.
         -1   -1    0    0    0  501 -0.00000000000E+00 -0.00000000000E+00 -0.68084762352E+03  0.68084762352E+03  0.00000000000E+00 0.  1.
         23    2    1    2    0    0  0.73090204293E+03  0.70197656192E+03  0.60572002618E+03  0.11841435048E+04  0.91160298216E+02 0.  0.
        254    2    1    2    0    0 -0.73090204293E+03 -0.70197656192E+03  0.77380144129E+03  0.15570732097E+04  0.89371103834E+03 0.  0.
         23    2    4    4    0    0  0.17344948368E+03  0.90304713898E+01  0.94494642233E+02  0.21819552011E+03  0.92270118572E+02 0.  0.
         23    2    4    4    0    0 -0.90435152661E+03 -0.71100703331E+03  0.67930679906E+03  0.13388776896E+04  0.88051436131E+02 0.  0.
          3    1    3    3  502    0  0.13832195362E+03  0.16654204528E+03  0.16299125387E+03  0.27098960227E+03  0.00000000000E+00 0. -1.
         -3    1    3    3    0  502  0.59258008930E+03  0.53543451664E+03  0.44272877231E+03  0.91315390252E+03  0.00000000000E+00 0.  1.
         11    1    5    5    0    0  0.20862148137E+02 -0.31310437136E+02  0.28145459708E+02  0.46986589584E+02  0.00000000000E+00 0.  1.
        -11    1    5    5    0    0  0.15258733555E+03  0.40340908526E+02  0.66349182526E+02  0.17120893053E+03  0.00000000000E+00 0. -1.
          1    1    6    6  503    0 -0.75754974013E+02 -0.42983336152E+02  0.75017852503E+02  0.11495243133E+03  0.00000000000E+00 0.  1.
         -1    1    6    6    0  503 -0.82859655260E+03 -0.66802369716E+03  0.60428894656E+03  0.12239252583E+04  0.00000000000E+00 0. -1.
<mgrwt>
<rscale>  0 0.23687950E+04</rscale>
<asrwt>0</asrwt>
<pdfrwt beam="1">  1        1 0.31697986E+00 0.23687950E+04</pdfrwt>
<pdfrwt beam="2">  1       -1 0.10474579E+00 0.23687950E+04</pdfrwt>
<totfact> 0.20855971E+00</totfact>
</mgrwt>
</event>
<event>
12    2  0.3552864E-008  0.2201896E+04  0.7818608E-02  0.8517639E-01
         -1   -1    0    0    0  501 -0.00000000000E+00  0.00000000000E+00  0.15152468927E+04  0.15152468927E+04  0.00000000000E+00 0.  1.
          1   -1    0    0  501    0  0.00000000000E+00 -0.00000000000E+00 -0.79992668923E+03  0.79992668923E+03  0.00000000000E+00 0. -1.
         23    2    1    2    0    0 -0.55964342214E+03  0.99801137481E+02  0.10526598896E+04  0.11997427531E+04  0.90159876743E+02 0.  0.
        254    2    1    2    0    0  0.55964342214E+03 -0.99801137481E+02 -0.33733968613E+03  0.11154308289E+04  0.89845803641E+03 0.  0.
         23    2    4    4    0    0 -0.73418324087E+02 -0.29074947641E+02  0.22829828284E+03  0.25868765509E+03  0.92539689066E+02 0.  0.
         23    2    4    4    0    0  0.63306174623E+03 -0.70726189839E+02 -0.56563796897E+03  0.85674317379E+03  0.91066928296E+02 0.  0.
          4    1    3    3  502    0 -0.42997289962E+03  0.83790745198E+02  0.72600771246E+03  0.84792970342E+03  0.00000000000E+00 0. -1.
         -4    1    3    3    0  502 -0.12967052252E+03  0.16010392282E+02  0.32665217714E+03  0.35181304965E+03  0.00000000000E+00 0.  1.
         11    1    5    5    0    0  0.14381120580E+02 -0.26848388954E+02  0.88455190082E+02  0.93551981652E+02  0.00000000000E+00 0.  1.
        -11    1    5    5    0    0 -0.87799444667E+02 -0.22265586875E+01  0.13984309276E+03  0.16513567343E+03  0.00000000000E+00 0. -1.
          1    1    6    6  503    0  0.47084914169E+03 -0.58975120480E+02 -0.36620719108E+03  0.59940360849E+03  0.00000000000E+00 0. -1.
         -1    1    6    6    0  503  0.16221260454E+03 -0.11751069359E+02 -0.19943077789E+03  0.25733956530E+03  0.00000000000E+00 0.  1.
<mgrwt>
<rscale>  0 0.22018959E+04</rscale>
<asrwt>0</asrwt>
<pdfrwt beam="1">  1        1 0.12306565E+00 0.22018959E+04</pdfrwt>
<pdfrwt beam="2">  1       -1 0.23311491E+00 0.22018959E+04</pdfrwt>
<totfact> 0.18142144E+00</totfact>
</mgrwt>
</event>
<event>
12    2  0.3552864E-008  0.2485671E+04  0.7818608E-02  0.8408108E-01
          2   -1    0    0  501    0  0.00000000000E+00  0.00000000000E+00  0.89274993341E+03  0.89274993341E+03  0.00000000000E+00 0. -1.
         -2   -1    0    0    0  501 -0.00000000000E+00 -0.00000000000E+00 -0.17302048240E+04  0.17302048240E+04  0.00000000000E+00 0.  1.
         23    2    1    2    0    0 -0.12000434864E+03 -0.57968325287E+03 -0.13096634640E+04  0.14401185743E+04  0.91046152291E+02 0.  0.
        254    2    1    2    0    0  0.12000434864E+03  0.57968325287E+03  0.47220857348E+03  0.11828361830E+04  0.90867308844E+03 0.  0.
         23    2    4    4    0    0  0.31112347478E+03  0.23220042605E+03  0.63044957234E+03  0.74626762165E+03  0.93455044972E+02 0.  0.
         23    2    4    4    0    0 -0.19111912614E+03  0.34748282682E+03 -0.15824099887E+03  0.43656856138E+03  0.91000328276E+02 0.  0.
          3    1    3    3  502    0 -0.97166776837E+02 -0.36139184619E+03 -0.73085223653E+03  0.82109100632E+03  0.00000000000E+00 0. -1.
         -3    1    3    3    0  502 -0.22837571803E+02 -0.21829140668E+03 -0.57881122748E+03  0.61902756803E+03  0.00000000000E+00 0.  1.
         11    1    5    5    0    0  0.47367150849E+02  0.19219833517E+02  0.38051881414E+02  0.63725933960E+02  0.00000000000E+00 0.  1.
        -11    1    5    5    0    0  0.26375632393E+03  0.21298059253E+03  0.59239769093E+03  0.68254168769E+03  0.00000000000E+00 0. -1.
          2    1    6    6  503    0 -0.15618428432E+03  0.31956005503E+03 -0.16363659102E+03  0.39152151073E+03  0.00000000000E+00 0. -1.
         -2    1    6    6    0  503 -0.34934841820E+02  0.27922771793E+02  0.53955921566E+01  0.45047050650E+02  0.00000000000E+00 0.  1.
<mgrwt>
<rscale>  0 0.24856711E+04</rscale>
<asrwt>0</asrwt>
<pdfrwt beam="1">  1        2 0.13734615E+00 0.24856711E+04</pdfrwt>
<pdfrwt beam="2">  1       -2 0.26618535E+00 0.24856711E+04</pdfrwt>
<totfact> 0.13541354E+00</totfact>
</mgrwt>
</event>
<event>
12    2  0.3552864E-008  0.1520490E+04  0.7818608E-02  0.8870941E-01
         -1   -1    0    0    0  501 -0.00000000000E+00  0.00000000000E+00  0.59543447543E+03  0.59543447543E+03  0.00000000000E+00 0.  1.
          1   -1    0    0  501    0  0.00000000000E+00 -0.00000000000E+00 -0.97067309628E+03  0.97067309628E+03  0.00000000000E+00 0. -1.
         23    2    1    2    0    0  0.19114599778E+03  0.12078193686E+03 -0.56571643646E+03  0.61606248501E+03  0.91503170541E+02 0.  0.
        254    2    1    2    0    0 -0.19114599778E+03 -0.12078193686E+03  0.19047781561E+03  0.95004508669E+03  0.90287252687E+03 0.  0.
         23    2    4    4    0    0  0.20976585545E+03  0.23599399680E+03  0.23375373004E+03  0.40387916679E+03  0.93716030761E+02 0.  0.
         23    2    4    4    0    0 -0.40091185322E+03 -0.35677593366E+03 -0.43275914430E+02  0.54616591991E+03  0.91678931095E+02 0.  0.
          2    1    3    3  502    0  0.10740138833E+03  0.24297314367E+02 -0.33088989599E+03  0.34873133064E+03  0.00000000000E+00 0. -1.
         -2    1    3    3    0  502  0.83744609445E+02  0.96484622492E+02 -0.23482654047E+03  0.26733115437E+03  0.00000000000E+00 0.  1.
         11    1    5    5    0    0  0.21249295656E+03  0.23519236625E+03  0.23962747510E+03  0.39735378764E+03  0.00000000000E+00 0. -1.
        -11    1    5    5    0    0 -0.27271011140E+01  0.80163055210E+00 -0.58737450589E+01  0.65253791495E+01  0.00000000000E+00 0.  1.
          4    1    6    6  503    0 -0.40233605805E+03 -0.36065201156E+03 -0.42872601808E+02  0.54201682357E+03  0.00000000000E+00 0. -1.
         -4    1    6    6    0  503  0.14242048229E+01  0.38760779077E+01 -0.40331262158E+00  0.41490963348E+01  0.00000000000E+00 0.  1.
<mgrwt>
<rscale>  0 0.15204897E+04</rscale>
<asrwt>0</asrwt>
<pdfrwt beam="1">  1        1 0.14933432E+00 0.15204897E+04</pdfrwt>
<pdfrwt beam="2">  1       -1 0.91605305E-01 0.15204897E+04</pdfrwt>
<totfact> 0.17905279E+01</totfact>
</mgrwt>
</event>
<event>
12    2  0.3552864E-008  0.3656017E+04  0.7818608E-02  0.8077780E-01
          1   -1    0    0  501    0  0.00000000000E+00  0.00000000000E+00  0.15867574038E+04  0.15867574038E+04  0.00000000000E+00 0. -1.
         -1   -1    0    0    0  501 -0.00000000000E+00 -0.00000000000E+00 -0.21059392478E+04  0.21059392478E+04  0.00000000000E+00 0.  1.
         23    2    1    2    0    0  0.16607025771E+04  0.19918328105E+03 -0.62521615815E+03  0.17879884406E+04  0.91653644853E+02 0.  0.
        254    2    1    2    0    0 -0.16607025771E+04 -0.19918328105E+03  0.10603431410E+03  0.19047082110E+04  0.90502102974E+03 0.  0.
         23    2    4    4    0    0 -0.16099311341E+04 -0.39397330617E+03  0.18260541232E+03  0.16699277513E+04  0.90668270995E+02 0.  0.
         23    2    4    4    0    0 -0.50771442969E+02  0.19479002512E+03 -0.76571098217E+02  0.23478045970E+03  0.93476402734E+02 0.  0.
          3    1    3    3  502    0  0.34411960000E+03  0.23676285096E+02 -0.94393488385E+02  0.35761571027E+03  0.00000000000E+00 0. -1.
         -3    1    3    3    0  502  0.13165829770E+04  0.17550699595E+03 -0.53082266976E+03  0.14303727304E+04  0.00000000000E+00 0.  1.
         11    1    5    5    0    0 -0.10034811854E+04 -0.25362525899E+03  0.70493697398E+02  0.10374341535E+04  0.00000000000E+00 0.  1.
        -11    1    5    5    0    0 -0.60644994872E+03 -0.14034804718E+03  0.11211171492E+03  0.63249359781E+03  0.00000000000E+00 0. -1.
          3    1    6    6  503    0 -0.68524923716E+02  0.19179534294E+03 -0.73443723446E+02  0.21650658017E+03  0.00000000000E+00 0. -1.
         -3    1    6    6    0  503  0.17753480748E+02  0.29946821758E+01 -0.31273747711E+01  0.18273879527E+02  0.00000000000E+00 0.  1.
<mgrwt>
<rscale>  0 0.36560168E+04</rscale>
<asrwt>0</asrwt>
<pdfrwt beam="1">  1        1 0.24411652E+00 0.36560168E+04</pdfrwt>
<pdfrwt beam="2">  1       -1 0.32399065E+00 0.36560168E+04</pdfrwt>
<totfact> 0.10573841E-01</totfact>
</mgrwt>
</event>
<event>
12    2  0.3552864E-008  0.1956963E+04  0.7818608E-02  0.8627010E-01
          1   -1    0    0  501    0  0.00000000000E+00  0.00000000000E+00  0.64461902541E+03  0.64461902541E+03  0.00000000000E+00 0. -1.
         -1   -1    0    0    0  501 -0.00000000000E+00 -0.00000000000E+00 -0.14852589820E+04  0.14852589820E+04  0.00000000000E+00 0.  1.
         23    2    1    2    0    0  0.30301346154E+02  0.70406941046E+03  0.76756758545E+01  0.71047186983E+03  0.89885791385E+02 0.  0.
        254    2    1    2    0    0 -0.30301346154E+02 -0.70406941046E+03 -0.84831563246E+03  0.14194061376E+04  0.89355607819E+03 0.  0.
         23    2    4    4    0    0  0.40762343896E+03 -0.37441440946E+03 -0.28902786576E+03  0.63108419330E+03  0.91581296391E+02 0.  0.
         23    2    4    4    0    0 -0.43792478511E+03 -0.32965500100E+03 -0.55928776670E+03  0.78832194431E+03  0.90543607154E+02 0.  0.
          2    1    3    3  502    0 -0.64837475442E+01  0.44335172359E+01  0.59727127839E+01  0.98675404887E+01  0.00000000000E+00 0.  1.
         -2    1    3    3    0  502  0.36785093698E+02  0.69963589322E+03  0.17029630706E+01  0.70060432934E+03  0.00000000000E+00 0. -1.
         11    1    5    5    0    0  0.27397361028E+02 -0.86493983205E+01 -0.35694002860E+02  0.45820184665E+02  0.00000000000E+00 0.  1.
        -11    1    5    5    0    0  0.38022607793E+03 -0.36576501114E+03 -0.25333386290E+03  0.58526400863E+03  0.00000000000E+00 0. -1.
          1    1    6    6  503    0 -0.28904954163E+03 -0.17161678769E+03 -0.37421225817E+03  0.50302760709E+03  0.00000000000E+00 0. -1.
         -1    1    6    6    0  503 -0.14887524347E+03 -0.15803821331E+03 -0.18507550853E+03  0.28529433721E+03  0.00000000000E+00 0.  1.
<mgrwt>
<rscale>  0 0.19569632E+04</rscale>
<asrwt>0</asrwt>
<pdfrwt beam="1">  1        1 0.99172157E-01 0.19569632E+04</pdfrwt>
<pdfrwt beam="2">  1       -1 0.22850138E+00 0.19569632E+04</pdfrwt>
<totfact> 0.27723984E+00</totfact>
</mgrwt>
</event>
<event>
12    2  0.3552864E-008  0.1538816E+04  0.7818608E-02  0.8859043E-01
         -2   -1    0    0    0  501 -0.00000000000E+00  0.00000000000E+00  0.22876073729E+03  0.22876073729E+03  0.00000000000E+00 0.  1.
          2   -1    0    0  501    0  0.00000000000E+00 -0.00000000000E+00 -0.25878078677E+04  0.25878078677E+04  0.00000000000E+00 0. -1.
         23    2    1    2    0    0  0.10416153386E+03  0.48634362321E+03 -0.77024317907E+03  0.92160953590E+03  0.93326506313E+02 0.  0.
        254    2    1    2    0    0 -0.10416153386E+03 -0.48634362321E+03 -0.15888039513E+04  0.18949590690E+04  0.90509233381E+03 0.  0.
         23    2    4    4    0    0  0.12255806017E+03  0.19877041697E+03 -0.71715695062E+03  0.75970547634E+03  0.91149120587E+02 0.  0.
         23    2    4    4    0    0 -0.22671959403E+03 -0.68511404018E+03 -0.87164700068E+03  0.11352535927E+04  0.90825126419E+02 0.  0.
          3    1    3    3  502    0  0.38352934703E+02  0.35728900920E+03 -0.58336985836E+03  0.68516186069E+03  0.00000000000E+00 0. -1.
         -3    1    3    3    0  502  0.65808599154E+02  0.12905461401E+03 -0.18687332071E+03  0.23644767521E+03  0.00000000000E+00 0.  1.
         11    1    5    5    0    0  0.11991078799E+02  0.66731898006E+02 -0.11594653001E+03  0.13431504012E+03  0.00000000000E+00 0. -1.
        -11    1    5    5    0    0  0.11056698137E+03  0.13203851896E+03 -0.60121042061E+03  0.62539043622E+03  0.00000000000E+00 0.  1.
          3    1    6    6  503    0 -0.52322186867E+00 -0.23821159002E+02 -0.10128846455E+02  0.25890440472E+02  0.00000000000E+00 0. -1.
         -3    1    6    6    0  503 -0.22619637216E+03 -0.66129288118E+03 -0.86151815423E+03  0.11093631522E+04  0.00000000000E+00 0.  1.
<mgrwt>
<rscale>  0 0.15388162E+04</rscale>
<asrwt>0</asrwt>
<pdfrwt beam="1">  1        2 0.39812432E+00 0.15388162E+04</pdfrwt>
<pdfrwt beam="2">  1       -2 0.35193957E-01 0.15388162E+04</pdfrwt>
<totfact> 0.22663029E+01</totfact>
</mgrwt>
</event>
<event>
12    2  0.3552864E-008  0.2205702E+04  0.7818608E-02  0.8516058E-01
          1   -1    0    0  501    0  0.00000000000E+00  0.00000000000E+00  0.15513608130E+04  0.15513608130E+04  0.00000000000E+00 0. -1.
         -1   -1    0    0    0  501 -0.00000000000E+00 -0.00000000000E+00 -0.78400895024E+03  0.78400895024E+03  0.00000000000E+00 0.  1.
         23    2    1    2    0    0 -0.25277955937E+03  0.81322879453E+03 -0.65438465903E+01  0.85661514901E+03  0.92239436764E+02 0.  0.
        254    2    1    2    0    0  0.25277955937E+03 -0.81322879453E+03  0.77389570932E+03  0.14787546142E+04  0.92874219363E+03 0.  0.
         23    2    4    4    0    0  0.50054772322E+03 -0.13050984985E+03  0.36848743014E+03  0.64182083752E+03  0.92575143397E+02 0.  0.
         23    2    4    4    0    0 -0.24776816385E+03 -0.68271894468E+03  0.40540827918E+03  0.83693377668E+03  0.92779595186E+02 0.  0.
          1    1    3    3  502    0 -0.49978554855E+02  0.24615775016E+03 -0.35494674147E+02  0.25367570991E+03  0.00000000000E+00 0. -1.
         -1    1    3    3    0  502 -0.20280100452E+03  0.56707104437E+03  0.28950827557E+02  0.60293943909E+03  0.00000000000E+00 0.  1.
         11    1    5    5    0    0  0.10114941985E+03 -0.72904585465E+01  0.11351031124E+03  0.15221349046E+03  0.00000000000E+00 0.  1.
        -11    1    5    5    0    0  0.39939830337E+03 -0.12321939130E+03  0.25497711891E+03  0.48960734706E+03  0.00000000000E+00 0. -1.
          3    1    6    6  503    0 -0.18725645390E+03 -0.39558218358E+03  0.22027781217E+03  0.48997199719E+03  0.00000000000E+00 0. -1.
         -3    1    6    6    0  503 -0.60511709950E+02 -0.28713676109E+03  0.18513046701E+03  0.34696177949E+03  0.00000000000E+00 0.  1.
<mgrwt>
<rscale>  0 0.22057024E+04</rscale>
<asrwt>0</asrwt>
<pdfrwt beam="1">  1        1 0.23867089E+00 0.22057024E+04</pdfrwt>
<pdfrwt beam="2">  1       -1 0.12061676E+00 0.22057024E+04</pdfrwt>
<totfact> 0.33578479E+00</totfact>
</mgrwt>
</event>
<event>
12    2  0.3552864E-008  0.2015893E+04  0.7818608E-02  0.8599226E-01
         -2   -1    0    0    0  501 -0.00000000000E+00  0.00000000000E+00  0.11989736100E+04  0.11989736100E+04  0.00000000000E+00 0.  1.
          2   -1    0    0  501    0  0.00000000000E+00 -0.00000000000E+00 -0.84735521314E+03  0.84735521314E+03  0.00000000000E+00 0. -1.
         23    2    1    2    0    0  0.76940608996E+03 -0.13561669577E+03  0.31794822530E+03  0.84771953497E+03  0.84615108387E+02 0.  0.
        254    2    1    2    0    0 -0.76940608996E+03  0.13561669577E+03  0.33670171528E+02  0.11986092881E+04  0.90837928516E+03 0.  0.
         23    2    4    4    0    0 -0.40445841827E+03 -0.22068524435E+02  0.45104662029E+03  0.61424386767E+03  0.98888034735E+02 0.  0.
         23    2    4    4    0    0 -0.36494767169E+03  0.15768522021E+03 -0.41737644876E+03  0.58436542046E+03  0.96064628799E+02 0.  0.
          4    1    3    3  502    0  0.13621690736E+03 -0.67776936507E+01  0.85745421304E+02  0.16110015598E+03  0.00000000000E+00 0. -1.
         -4    1    3    3    0  502  0.63318918260E+03 -0.12883900212E+03  0.23220280400E+03  0.68661937899E+03  0.00000000000E+00 0.  1.
         11    1    5    5    0    0 -0.22533130810E+03 -0.25977357806E+02  0.18111664860E+03  0.29026240185E+03  0.00000000000E+00 0.  1.
        -11    1    5    5    0    0 -0.17912711017E+03  0.39088333709E+01  0.26992997169E+03  0.32398146582E+03  0.00000000000E+00 0. -1.
          3    1    6    6  503    0 -0.31191527288E+03  0.94838616136E+02 -0.31862887222E+03  0.45586166628E+03  0.00000000000E+00 0. -1.
         -3    1    6    6    0  503 -0.53032398805E+02  0.62846604073E+02 -0.98747576542E+02  0.12850375418E+03  0.00000000000E+00 0.  1.
<mgrwt>
<rscale>  0 0.20158934E+04</rscale>
<asrwt>0</asrwt>
<pdfrwt beam="1">  1        2 0.13036234E+00 0.20158934E+04</pdfrwt>
<pdfrwt beam="2">  1       -2 0.18445748E+00 0.20158934E+04</pdfrwt>
<totfact> 0.49955225E+00</totfact>
</mgrwt>
</event>
<event>
12    2  0.3552864E-008  0.1952698E+04  0.7818608E-02  0.8629061E-01
         -2   -1    0    0    0  501 -0.00000000000E+00  0.00000000000E+00  0.13354190443E+04  0.13354190443E+04  0.00000000000E+00 0.  1.
          2   -1    0    0  501    0  0.00000000000E+00 -0.00000000000E+00 -0.71382642798E+03  0.71382642798E+03  0.00000000000E+00 0. -1.
         23    2    1    2    0    0 -0.11469049029E+03 -0.74892991910E+03  0.11892101126E+03  0.77257594525E+03  0.93174309606E+02 0.  0.
        254    2    1    2    0    0  0.11469049029E+03  0.74892991910E+03  0.50267160501E+03  0.12766695270E+04  0.89618993879E+03 0.  0.
         23    2    4    4    0    0  0.96231552373E+01 -0.58007092597E+02  0.44281679032E+03  0.45567613798E+03  0.89981137071E+02 0.  0.
         23    2    4    4    0    0  0.10506733505E+03  0.80693701169E+03  0.59854814689E+02  0.82099338901E+03  0.90890374712E+02 0.  0.
          3    1    3    3  502    0 -0.95749371948E+02 -0.55716333937E+03  0.48482812051E+02  0.56740594994E+03  0.00000000000E+00 0.  1.
         -3    1    3    3    0  502 -0.18941118338E+02 -0.19176657973E+03  0.70438199211E+02  0.20516999530E+03  0.00000000000E+00 0. -1.
         11    1    5    5    0    0 -0.61434343569E+01 -0.64777894790E+02  0.42825829659E+03  0.43317327485E+03  0.00000000000E+00 0. -1.
        -11    1    5    5    0    0  0.15766589594E+02  0.67708021930E+01  0.14558493727E+02  0.22502863137E+02  0.00000000000E+00 0.  1.
          2    1    6    6  503    0  0.91645307548E+02  0.36263408927E+03  0.37811221383E+02  0.37594152944E+03  0.00000000000E+00 0. -1.
         -2    1    6    6    0  503  0.13422027500E+02  0.44430292242E+03  0.22043593306E+02  0.44505185956E+03  0.00000000000E+00 0.  1.
<mgrwt>
<rscale>  0 0.19526980E+04</rscale>
<asrwt>0</asrwt>
<pdfrwt beam="1">  1        2 0.10981945E+00 0.19526980E+04</pdfrwt>
<pdfrwt beam="2">  1       -2 0.20544908E+00 0.19526980E+04</pdfrwt>
<totfact> 0.45642727E+00</totfact>
</mgrwt>
</event>
<event>
12    2  0.3552864E-008  0.1449029E+04  0.7818608E-02  0.8919074E-01
          2   -1    0    0  501    0  0.00000000000E+00  0.00000000000E+00  0.80687468889E+03  0.80687468889E+03  0.00000000000E+00 0. -1.
         -2   -1    0    0    0  501 -0.00000000000E+00 -0.00000000000E+00 -0.65056097114E+03  0.65056097114E+03  0.00000000000E+00 0.  1.
         23    2    1    2    0    0  0.33792243389E+03  0.97970569014E+02 -0.21471458155E+03  0.42058274252E+03  0.83652185016E+02 0.  0.
        254    2    1    2    0    0 -0.33792243389E+03 -0.97970569014E+02  0.37102829930E+03  0.10368529175E+04  0.90200452878E+03 0.  0.
         23    2    4    4    0    0 -0.27580815648E+03 -0.44182268745E+03  0.13475589023E+02  0.52861545142E+03  0.89304410080E+02 0.  0.
         23    2    4    4    0    0 -0.62114277412E+02  0.34385211843E+03  0.35755271028E+03  0.50823746609E+03  0.91481793236E+02 0.  0.
          3    1    3    3  502    0  0.24599921227E+02  0.13959504001E+02 -0.48360714374E+02  0.56024838877E+02  0.00000000000E+00 0. -1.
         -3    1    3    3    0  502  0.31332251266E+03  0.84011065013E+02 -0.16635386717E+03  0.36455790364E+03  0.00000000000E+00 0.  1.
         11    1    5    5    0    0 -0.28101144028E+03 -0.44122118036E+03  0.14343378721E+02  0.52330611699E+03  0.00000000000E+00 0. -1.
        -11    1    5    5    0    0  0.52032838051E+01 -0.60150708797E+00 -0.86778969869E+00  0.53093344305E+01  0.00000000000E+00 0.  1.
          2    1    6    6  503    0 -0.18973818975E+02  0.29639060850E+03  0.29752403607E+03  0.42039023615E+03  0.00000000000E+00 0. -1.
         -2    1    6    6    0  503 -0.43140458437E+02  0.47461509937E+02  0.60028674215E+02  0.87847229937E+02  0.00000000000E+00 0.  1.
<mgrwt>
<rscale>  0 0.14490289E+04</rscale>
<asrwt>0</asrwt>
<pdfrwt beam="1">  1        2 0.12413457E+00 0.14490289E+04</pdfrwt>
<pdfrwt beam="2">  1       -2 0.10008630E+00 0.14490289E+04</pdfrwt>
<totfact> 0.27231691E+01</totfact>
</mgrwt>
</event>
<event>
12    2  0.3552864E-008  0.1261398E+04  0.7818608E-02  0.9060750E-01
          1   -1    0    0  501    0  0.00000000000E+00  0.00000000000E+00  0.21362807558E+04  0.21362807558E+04  0.00000000000E+00 0. -1.
         -1   -1    0    0    0  501 -0.00000000000E+00 -0.00000000000E+00 -0.18620256471E+03  0.18620256471E+03  0.00000000000E+00 0.  1.
         23    2    1    2    0    0 -0.23983472644E+03 -0.60940450139E+02  0.66681826568E+03  0.71830807528E+03  0.10042637653E+03 0.  0.
        254    2    1    2    0    0  0.23983472644E+03  0.60940450139E+02  0.12832599254E+04  0.16041752452E+04  0.93026219248E+03 0.  0.
         23    2    4    4    0    0 -0.27375403655E+03 -0.21723861291E+03  0.60352847458E+03  0.70341274697E+03  0.91700520765E+02 0.  0.
         23    2    4    4    0    0  0.51358876298E+03  0.27817906304E+03  0.67973145081E+03  0.90076249824E+03  0.90450121237E+02 0.  0.
          2    1    3    3  502    0 -0.14835810722E+03 -0.44341884396E+02  0.53531403504E+03  0.55725886874E+03  0.00000000000E+00 0. -1.
         -2    1    3    3    0  502 -0.91476619222E+02 -0.16598565743E+02  0.13150423064E+03  0.16104920654E+03  0.00000000000E+00 0.  1.
         11    1    5    5    0    0 -0.38384604481E+02 -0.47747022516E+02  0.52375389109E+02  0.80599859830E+02  0.00000000000E+00 0.  1.
        -11    1    5    5    0    0 -0.23536943207E+03 -0.16949159039E+03  0.55115308547E+03  0.62281288714E+03  0.00000000000E+00 0. -1.
          2    1    6    6  503    0  0.33249611463E+03  0.17226891048E+03  0.36811878346E+03  0.52511111443E+03  0.00000000000E+00 0. -1.
         -2    1    6    6    0  503  0.18109264835E+03  0.10591015256E+03  0.31161266734E+03  0.37565138380E+03  0.00000000000E+00 0.  1.
<mgrwt>
<rscale>  0 0.12613976E+04</rscale>
<asrwt>0</asrwt>
<pdfrwt beam="1">  1        1 0.32865856E+00 0.12613976E+04</pdfrwt>
<pdfrwt beam="2">  1       -1 0.28646550E-01 0.12613976E+04</pdfrwt>
<totfact> 0.26306876E+01</totfact>
</mgrwt>
</event>
<event>
12    2  0.3552864E-008  0.1269310E+04  0.7818608E-02  0.9054263E-01
         -1   -1    0    0    0  501 -0.00000000000E+00  0.00000000000E+00  0.15418047032E+03  0.15418047032E+03  0.00000000000E+00 0.  1.
          1   -1    0    0  501    0  0.00000000000E+00 -0.00000000000E+00 -0.26124377251E+04  0.26124377251E+04  0.00000000000E+00 0. -1.
         23    2    1    2    0    0  0.22515044261E+03 -0.89945219544E+02 -0.98035536118E+02  0.27686034232E+03  0.90872539739E+02 0.  0.
        254    2    1    2    0    0 -0.22515044261E+03  0.89945219544E+02 -0.23602217187E+04  0.24897578531E+04  0.75462887671E+03 0.  0.
         23    2    4    4    0    0 -0.27322410587E+03 -0.26827523112E+02 -0.23066360011E+04  0.23247253028E+04  0.91689496535E+02 0.  0.
         23    2    4    4    0    0  0.48073663256E+02  0.11677274266E+03 -0.53585717568E+02  0.16503255034E+03  0.91746188032E+02 0.  0.
          1    1    3    3  502    0  0.46215985118E+02 -0.28659307127E+02 -0.65184341149E+02  0.84889760846E+02  0.00000000000E+00 0. -1.
         -1    1    3    3    0  502  0.17893445749E+03 -0.61285912417E+02 -0.32851194969E+02  0.19197058147E+03  0.00000000000E+00 0.  1.
         11    1    5    5    0    0  0.64711605965E+01  0.45947928202E+01 -0.56372315981E+02  0.56928253527E+02  0.00000000000E+00 0.  1.
        -11    1    5    5    0    0 -0.27969526646E+03 -0.31422315932E+02 -0.22502636851E+04  0.22677970493E+04  0.00000000000E+00 0. -1.
          1    1    6    6  503    0  0.38455316657E+01  0.88117387645E+02  0.22824653614E+01  0.88230786958E+02  0.00000000000E+00 0. -1.
         -1    1    6    6    0  503  0.44228131590E+02  0.28655355011E+02 -0.55868182930E+02  0.76801763382E+02  0.00000000000E+00 0.  1.
<mgrwt>
<rscale>  0 0.12693099E+04</rscale>
<asrwt>0</asrwt>
<pdfrwt beam="1">  1        1 0.40191346E+00 0.12693099E+04</pdfrwt>
<pdfrwt beam="2">  1       -1 0.23720074E-01 0.12693099E+04</pdfrwt>
<totfact> 0.17175256E+01</totfact>
</mgrwt>
</event>
<event>
12    2  0.3552864E-008  0.2221011E+04  0.7818608E-02  0.8509733E-01
         -2   -1    0    0    0  501 -0.00000000000E+00  0.00000000000E+00  0.86181044812E+03  0.86181044812E+03  0.00000000000E+00 0.  1.
          2   -1    0    0  501    0  0.00000000000E+00 -0.00000000000E+00 -0.14309674001E+04  0.14309674001E+04  0.00000000000E+00 0. -1.
         23    2    1    2    0    0  0.78234604601E+03  0.42519223576E+03  0.28617008446E+02  0.89563451478E+03  0.92132935709E+02 0.  0.
        254    2    1    2    0    0 -0.78234604601E+03 -0.42519223576E+03 -0.59777396047E+03  0.13971433335E+04  0.89544514819E+03 0.  0.
         23    2    4    4    0    0 -0.23873749273E+03 -0.35278357387E+03 -0.70677709260E+03  0.83013282498E+03  0.90193170789E+02 0.  0.
         23    2    4    4    0    0 -0.54360855328E+03 -0.72408661888E+02  0.10900313213E+03  0.56701050850E+03  0.94159229056E+02 0.  0.
          2    1    3    3  502    0  0.10552685336E+03  0.76634662551E+02 -0.23643491073E+02  0.13254358889E+03  0.00000000000E+00 0. -1.
         -2    1    3    3    0  502  0.67681919264E+03  0.34855757321E+03  0.52260499518E+02  0.76309092589E+03  0.00000000000E+00 0.  1.
         11    1    5    5    0    0 -0.80189673737E+02 -0.18723024509E+03 -0.28836592150E+03  0.35304454837E+03  0.00000000000E+00 0.  1.
        -11    1    5    5    0    0 -0.15854781899E+03 -0.16555332878E+03 -0.41841117110E+03  0.47708827661E+03  0.00000000000E+00 0. -1.
          2    1    6    6  503    0 -0.38652304446E+02 -0.31396533072E+02  0.11073921344E+02  0.51013475297E+02  0.00000000000E+00 0. -1.
         -2    1    6    6    0  503 -0.50495624883E+03 -0.41012128816E+02  0.97929210790E+02  0.51599703320E+03  0.00000000000E+00 0.  1.
<mgrwt>
<rscale>  0 0.22210112E+04</rscale>
<asrwt>0</asrwt>
<pdfrwt beam="1">  1        2 0.22014883E+00 0.22210112E+04</pdfrwt>
<pdfrwt beam="2">  1       -2 0.13258622E+00 0.22210112E+04</pdfrwt>
<totfact> 0.52376580E+00</totfact>
</mgrwt>
</event>
<event>
12    2  0.3552864E-008  0.3554069E+04  0.7818608E-02  0.8101095E-01
          2   -1    0    0  501    0  0.00000000000E+00  0.00000000000E+00  0.28329924121E+04  0.28329924121E+04  0.00000000000E+00 0. -1.
         -2   -1    0    0    0  501 -0.00000000000E+00 -0.00000000000E+00 -0.11146697877E+04  0.11146697877E+04  0.00000000000E+00 0.  1.
         23    2    1    2    0    0  0.79174491476E+03  0.14571394412E+04  0.66840022959E+03  0.17903339210E+04  0.91767753667E+02 0.  0.
        254    2    1    2    0    0 -0.79174491476E+03 -0.14571394412E+04  0.10499223949E+04  0.21573282788E+04  0.89532837911E+03 0.  0.
         23    2    4    4    0    0 -0.60186936073E+03 -0.15280306197E+04  0.82775125759E+03  0.18414352067E+04  0.92667006155E+02 0.  0.
         23    2    4    4    0    0 -0.18987555402E+03  0.70891178496E+02  0.22217113728E+03  0.31589307215E+03  0.96696088791E+02 0.  0.
          1    1    3    3  502    0  0.35979971093E+02  0.84326097304E+02  0.58383470552E+02  0.10869258779E+03  0.00000000000E+00 0. -1.
         -1    1    3    3    0  502  0.75576494366E+03  0.13728133439E+04  0.61001675904E+03  0.16816413332E+04  0.00000000000E+00 0.  1.
         11    1    5    5    0    0 -0.42833972156E+03 -0.11882921246E+04  0.62137244658E+03  0.14076991184E+04  0.00000000000E+00 0. -1.
        -11    1    5    5    0    0 -0.17352963918E+03 -0.33973849503E+03  0.20637881101E+03  0.43373608832E+03  0.00000000000E+00 0.  1.
          4    1    6    6  503    0 -0.15693456495E+03  0.19502845806E+02  0.12697817413E+03  0.20281093505E+03  0.00000000000E+00 0. -1.
         -4    1    6    6    0  503 -0.32940989076E+02  0.51388332690E+02  0.95192963149E+02  0.11308213710E+03  0.00000000000E+00 0.  1.
<mgrwt>
<rscale>  0 0.35540687E+04</rscale>
<asrwt>0</asrwt>
<pdfrwt beam="1">  1        2 0.43584498E+00 0.35540687E+04</pdfrwt>
<pdfrwt beam="2">  1       -2 0.17148766E+00 0.35540687E+04</pdfrwt>
<totfact> 0.37559825E-01</totfact>
</mgrwt>
</event>
<event>
12    2  0.3552864E-008  0.1286405E+04  0.7818608E-02  0.9040416E-01
         -1   -1    0    0    0  501 -0.00000000000E+00  0.00000000000E+00  0.53130438284E+03  0.53130438284E+03  0.00000000000E+00 0.  1.
          1   -1    0    0  501    0  0.00000000000E+00 -0.00000000000E+00 -0.77866725296E+03  0.77866725296E+03  0.00000000000E+00 0. -1.
         23    2    1    2    0    0  0.20157245911E+03  0.75745508922E+02 -0.30448108898E+03  0.38237295901E+03  0.84448255366E+02 0.  0.
        254    2    1    2    0    0 -0.20157245911E+03 -0.75745508922E+02  0.57118218868E+02  0.92759867679E+03  0.90044876360E+03 0.  0.
         23    2    4    4    0    0  0.21562014848E+01 -0.39350099097E+03 -0.21024892654E+03  0.45611856397E+03  0.94825387871E+02 0.  0.
         23    2    4    4    0    0 -0.20372866060E+03  0.31775548205E+03  0.26736714541E+03  0.47148011282E+03  0.91292895772E+02 0.  0.
          3    1    3    3  502    0  0.13861334892E+03  0.86038058770E+02 -0.18302736034E+03  0.24518405880E+03  0.00000000000E+00 0. -1.
         -3    1    3    3    0  502  0.62959110198E+02 -0.10292549848E+02 -0.12145372864E+03  0.13718890021E+03  0.00000000000E+00 0.  1.
         11    1    5    5    0    0 -0.15397360966E+02 -0.32765108224E+03 -0.13530845340E+03  0.35482486945E+03  0.00000000000E+00 0.  1.
        -11    1    5    5    0    0  0.17553562450E+02 -0.65849908732E+02 -0.74940473146E+02  0.10129369452E+03  0.00000000000E+00 0. -1.
          3    1    6    6  503    0 -0.50270653385E+01  0.34605499960E+01 -0.70654360297E+01  0.93363364593E+01  0.00000000000E+00 0. -1.
         -3    1    6    6    0  503 -0.19870159526E+03  0.31429493205E+03  0.27443258144E+03  0.46214377636E+03  0.00000000000E+00 0.  1.
<mgrwt>
<rscale>  0 0.12864048E+04</rscale>
<asrwt>0</asrwt>
<pdfrwt beam="1">  1        1 0.11979496E+00 0.12864048E+04</pdfrwt>
<pdfrwt beam="2">  1       -1 0.81739136E-01 0.12864048E+04</pdfrwt>
<totfact> 0.33840353E+01</totfact>
</mgrwt>
</event>
<event>
12    2  0.3552864E-008  0.2072055E+04  0.7818608E-02  0.8573654E-01
         -2   -1    0    0    0  501 -0.00000000000E+00  0.00000000000E+00  0.12899287421E+04  0.12899287421E+04  0.00000000000E+00 0.  1.
          2   -1    0    0  501    0  0.00000000000E+00 -0.00000000000E+00 -0.83210244258E+03  0.83210244258E+03  0.00000000000E+00 0. -1.
         23    2    1    2    0    0  0.60734331187E+03  0.99569668646E+02 -0.39228663636E+03  0.73544261448E+03  0.90592586540E+02 0.  0.
        254    2    1    2    0    0 -0.60734331187E+03 -0.99569668646E+02  0.85011293593E+03  0.13865885702E+04  0.90617649601E+03 0.  0.
         23    2    4    4    0    0 -0.11232880515E+03 -0.31135753890E+03  0.75944551167E+03  0.83325518364E+03  0.89417215186E+02 0.  0.
         23    2    4    4    0    0 -0.49501450672E+03  0.21178787025E+03  0.90667424262E+02  0.55333338661E+03  0.89798613912E+02 0.  0.
          1    1    3    3  502    0  0.20178199995E+03  0.13224791686E+02 -0.17439008010E+03  0.26702578650E+03  0.00000000000E+00 0. -1.
         -1    1    3    3    0  502  0.40556131192E+03  0.86344876961E+02 -0.21789655627E+03  0.46841682798E+03  0.00000000000E+00 0.  1.
         11    1    5    5    0    0 -0.89878896424E+00 -0.60418375376E+02  0.78679235606E+02  0.99204889094E+02  0.00000000000E+00 0. -1.
        -11    1    5    5    0    0 -0.11143001618E+03 -0.25093916352E+03  0.68076627606E+03  0.73405029455E+03  0.00000000000E+00 0.  1.
          3    1    6    6  503    0 -0.20763416492E+03  0.11601982610E+03  0.77396048144E+02  0.25012535809E+03  0.00000000000E+00 0. -1.
         -3    1    6    6    0  503 -0.28738034180E+03  0.95768044156E+02  0.13271376118E+02  0.30320802852E+03  0.00000000000E+00 0.  1.
<mgrwt>
<rscale>  0 0.20720549E+04</rscale>
<asrwt>0</asrwt>
<pdfrwt beam="1">  1        2 0.12801576E+00 0.20720549E+04</pdfrwt>
<pdfrwt beam="2">  1       -2 0.19845058E+00 0.20720549E+04</pdfrwt>
<totfact> 0.41070855E+00</totfact>
</mgrwt>
</event>
<event>
12    2  0.3552864E-008  0.2236083E+04  0.7818608E-02  0.8503558E-01
          2   -1    0    0  501    0  0.00000000000E+00  0.00000000000E+00  0.17182336311E+04  0.17182336311E+04  0.00000000000E+00 0. -1.
         -2   -1    0    0    0  501 -0.00000000000E+00 -0.00000000000E+00 -0.72750093125E+03  0.72750093125E+03  0.00000000000E+00 0.  1.
         23    2    1    2    0    0  0.23911440095E+03  0.41724431775E+03 -0.46793934929E+03  0.67713240421E+03  0.90953508896E+02 0.  0.
        254    2    1    2    0    0 -0.23911440095E+03 -0.41724431775E+03  0.14586720491E+04  0.17686021581E+04  0.87690417345E+03 0.  0.
         23    2    4    4    0    0  0.27808900866E+03 -0.37157848838E+03  0.71805775670E+03  0.85982796929E+03  0.91066596789E+02 0.  0.
         23    2    4    4    0    0 -0.51720340960E+03 -0.45665829366E+02  0.74061429244E+03  0.90877418885E+03  0.88183112215E+02 0.  0.
          1    1    3    3  502    0 -0.54828901138E+01 -0.32802936330E+00 -0.53097617863E+01  0.76395849030E+01  0.00000000000E+00 0. -1.
         -1    1    3    3    0  502  0.24459729106E+03  0.41757234711E+03 -0.46262958750E+03  0.66949281930E+03  0.00000000000E+00 0.  1.
         11    1    5    5    0    0  0.19524673811E+03 -0.28072703186E+03  0.45235700974E+03  0.56705892059E+03  0.00000000000E+00 0.  1.
        -11    1    5    5    0    0  0.82842270547E+02 -0.90851456528E+02  0.26570074697E+03  0.29276904871E+03  0.00000000000E+00 0. -1.
          4    1    6    6  503    0 -0.23823831394E+03 -0.16640905497E+02  0.26596154084E+03  0.35744923440E+03  0.00000000000E+00 0. -1.
         -4    1    6    6    0  503 -0.27896509566E+03 -0.29024923869E+02  0.47465275160E+03  0.55132495446E+03  0.00000000000E+00 0.  1.
<mgrwt>
<rscale>  0 0.22360828E+04</rscale>
<asrwt>0</asrwt>
<pdfrwt beam="1">  1        2 0.26434363E+00 0.22360828E+04</pdfrwt>
<pdfrwt beam="2">  1       -2 0.11192322E+00 0.22360828E+04</pdfrwt>
<totfact> 0.55005449E+00</totfact>
</mgrwt>
</event>
<event>
12    2  0.3552864E-008  0.1655941E+04  0.7818608E-02  0.8786900E-01
         -2   -1    0    0    0  501 -0.00000000000E+00  0.00000000000E+00  0.10409111825E+04  0.10409111825E+04  0.00000000000E+00 0. -1.
          2   -1    0    0  501    0  0.00000000000E+00 -0.00000000000E+00 -0.65859121088E+03  0.65859121088E+03  0.00000000000E+00 0.  1.
         23    2    1    2    0    0 -0.33525349845E+03  0.96403624672E+02  0.57285750891E+03  0.67696013107E+03  0.91764516373E+02 0.  0.
        254    2    1    2    0    0  0.33525349845E+03 -0.96403624672E+02 -0.19053753726E+03  0.10225422624E+04  0.94212502255E+03 0.  0.
         23    2    4    4    0    0  0.62630800982E+02 -0.48999744702E+03 -0.86449706948E+01  0.50221847539E+03  0.90158450439E+02 0.  0.
         23    2    4    4    0    0  0.27262269747E+03  0.39359382235E+03 -0.18189256656E+03  0.52032378696E+03  0.91720801065E+02 0.  0.
          3    1    3    3  502    0 -0.25238613133E+03  0.64114570034E+02  0.49246879816E+03  0.55707715313E+03  0.00000000000E+00 0. -1.
         -3    1    3    3    0  502 -0.82867367123E+02  0.32289054638E+02  0.80388710757E+02  0.11988297794E+03  0.00000000000E+00 0.  1.
         11    1    5    5    0    0  0.85810941912E+02 -0.35938958386E+03 -0.55850764579E+01  0.36953427963E+03  0.00000000000E+00 0. -1.
        -11    1    5    5    0    0 -0.23180140930E+02 -0.13060786315E+03 -0.30598942369E+01  0.13268419576E+03  0.00000000000E+00 0.  1.
          1    1    6    6  503    0  0.27869740286E+03  0.37059724590E+03 -0.17217670421E+03  0.49463054749E+03  0.00000000000E+00 0.  1.
         -1    1    6    6    0  503 -0.60747053953E+01  0.22996576441E+02 -0.97158623506E+01  0.25693239478E+02  0.00000000000E+00 0. -1.
<mgrwt>
<rscale>  0 0.16559408E+04</rscale>
<asrwt>0</asrwt>
<pdfrwt beam="1">  1        2 0.10132172E+00 0.16559408E+04</pdfrwt>
<pdfrwt beam="2">  1       -2 0.16014018E+00 0.16559408E+04</pdfrwt>
<totfact> 0.10605981E+01</totfact>
</mgrwt>
</event>
<event>
12    2  0.3552864E-008  0.1350210E+04  0.7818608E-02  0.8990669E-01
         -1   -1    0    0    0  501 -0.00000000000E+00  0.00000000000E+00  0.39824609716E+03  0.39824609716E+03  0.00000000000E+00 0.  1.
          1   -1    0    0  501    0  0.00000000000E+00 -0.00000000000E+00 -0.11444346647E+04  0.11444346647E+04  0.00000000000E+00 0. -1.
         23    2    1    2    0    0  0.32132565622E+03 -0.89418048992E+02 -0.27318181563E+03  0.44046658348E+03  0.90203890973E+02 0.  0.
        254    2    1    2    0    0 -0.32132565622E+03  0.89418048992E+02 -0.47300675189E+03  0.11022141784E+04  0.93802715462E+03 0.  0.
         23    2    4    4    0    0 -0.43518955424E+03  0.53689481310E+02  0.14173929641E+03  0.46883590111E+03  0.86281895545E+02 0.  0.
         23    2    4    4    0    0  0.11386389803E+03  0.35728567683E+02 -0.61474604830E+03  0.63337827724E+03  0.94941141589E+02 0.  0.
          3    1    3    3  502    0 -0.39885377123E+01  0.13519264578E+01  0.21410830756E+01  0.47244444082E+01  0.00000000000E+00 0.  1.
         -3    1    3    3    0  502  0.32531419393E+03 -0.90769975450E+02 -0.27532289871E+03  0.43574213908E+03  0.00000000000E+00 0. -1.
         11    1    5    5    0    0 -0.28349103608E+03 -0.49820939611E+01  0.77265735551E+02  0.29387409326E+03  0.00000000000E+00 0. -1.
        -11    1    5    5    0    0 -0.15169851816E+03  0.58671575271E+02  0.64473560857E+02  0.17496180785E+03  0.00000000000E+00 0.  1.
          2    1    6    6  503    0  0.32384293637E+02  0.45909570342E+02 -0.12846286513E+03  0.14021105106E+03  0.00000000000E+00 0. -1.
         -2    1    6    6    0  503  0.81479604391E+02 -0.10181002659E+02 -0.48628318317E+03  0.49316722618E+03  0.00000000000E+00 0.  1.
<mgrwt>
<rscale>  0 0.13502098E+04</rscale>
<asrwt>0</asrwt>
<pdfrwt beam="1">  1        1 0.17606687E+00 0.13502098E+04</pdfrwt>
<pdfrwt beam="2">  1       -1 0.61268632E-01 0.13502098E+04</pdfrwt>
<totfact> 0.31056438E+01</totfact>
</mgrwt>
</event>
<event>
12    2  0.3552864E-008  0.1711823E+04  0.7818608E-02  0.8754650E-01
          1   -1    0    0  501    0  0.00000000000E+00  0.00000000000E+00  0.85002685310E+03  0.85002685310E+03  0.00000000000E+00 0. -1.
         -1   -1    0    0    0  501 -0.00000000000E+00 -0.00000000000E+00 -0.86183653654E+03  0.86183653654E+03  0.00000000000E+00 0.  1.
         23    2    1    2    0    0 -0.13966824283E+03  0.21172210649E+03  0.55022170512E+03  0.61229773422E+03  0.88493627478E+02 0.  0.
        254    2    1    2    0    0  0.13966824283E+03 -0.21172210649E+03 -0.56203138856E+03  0.10995656554E+04  0.91040204328E+03 0.  0.
         23    2    4    4    0    0  0.45236445689E+03 -0.35839155004E+03 -0.39142639495E+03  0.70371550810E+03  0.94460513843E+02 0.  0.
         23    2    4    4    0    0 -0.31269621406E+03  0.14666944355E+03 -0.17060499361E+03  0.39585014732E+03  0.91106681021E+02 0.  0.
          1    1    3    3  502    0 -0.12482558211E+03  0.20651504812E+03  0.54447271908E+03  0.59555052924E+03  0.00000000000E+00 0. -1.
         -1    1    3    3    0  502 -0.14842660720E+02  0.52070583705E+01  0.57489860420E+01  0.16747204979E+02  0.00000000000E+00 0.  1.
         11    1    5    5    0    0  0.17221481852E+03 -0.10230237831E+03 -0.92791944916E+02  0.22075793387E+03  0.00000000000E+00 0.  1.
        -11    1    5    5    0    0  0.28014963837E+03 -0.25608917172E+03 -0.29863445003E+03  0.48295757423E+03  0.00000000000E+00 0. -1.
          2    1    6    6  503    0 -0.24751003236E+03  0.11329098953E+03 -0.89426685298E+02  0.28651910315E+03  0.00000000000E+00 0. -1.
         -2    1    6    6    0  503 -0.65186181701E+02  0.33378454019E+02 -0.81178308316E+02  0.10933104417E+03  0.00000000000E+00 0.  1.
<mgrwt>
<rscale>  0 0.17118227E+04</rscale>
<asrwt>0</asrwt>
<pdfrwt beam="1">  1        1 0.13077336E+00 0.17118227E+04</pdfrwt>
<pdfrwt beam="2">  1       -1 0.13259024E+00 0.17118227E+04</pdfrwt>
<totfact> 0.91852384E+00</totfact>
</mgrwt>
</event>
<event>
12    2  0.3552864E-008  0.1780325E+04  0.7818608E-02  0.8716833E-01
          2   -1    0    0  501    0  0.00000000000E+00  0.00000000000E+00  0.26829872271E+04  0.26829872271E+04  0.00000000000E+00 0. -1.
         -2   -1    0    0    0  501 -0.00000000000E+00 -0.00000000000E+00 -0.29533837773E+03  0.29533837773E+03  0.00000000000E+00 0.  1.
         23    2    1    2    0    0 -0.54504172025E+03  0.46429290116E+02  0.15202601151E+04  0.16181977570E+04  0.90260775261E+02 0.  0.
        254    2    1    2    0    0  0.54504172025E+03 -0.46429290116E+02  0.86738873425E+03  0.13601278478E+04  0.89350903195E+03 0.  0.
         23    2    4    4    0    0  0.95790731120E+01 -0.49516141690E+02  0.80578403393E+03  0.81307064277E+03  0.96189156732E+02 0.  0.
         23    2    4    4    0    0  0.53546264714E+03  0.30868515742E+01  0.61604700322E+02  0.54705720500E+03  0.93523640334E+02 0.  0.
          3    1    3    3  502    0 -0.46148969080E+03  0.21860975073E+02  0.13515772362E+04  0.14283597805E+04  0.00000000000E+00 0. -1.
         -3    1    3    3    0  502 -0.83552029450E+02  0.24568315043E+02  0.16868287885E+03  0.18983797657E+03  0.00000000000E+00 0.  1.
         11    1    5    5    0    0  0.44273414519E+02 -0.21157119759E+02  0.62081770052E+03  0.62275386489E+03  0.00000000000E+00 0. -1.
        -11    1    5    5    0    0 -0.34694341407E+02 -0.28359021931E+02  0.18496633340E+03  0.19031677788E+03  0.00000000000E+00 0.  1.
          1    1    6    6  503    0  0.73719744222E+02  0.16733856507E+01 -0.23791502065E+02  0.77481846120E+02  0.00000000000E+00 0. -1.
         -1    1    6    6    0  503  0.46174290292E+03  0.14134659235E+01  0.85396202387E+02  0.46957535888E+03  0.00000000000E+00 0.  1.
<mgrwt>
<rscale>  0 0.17803248E+04</rscale>
<asrwt>0</asrwt>
<pdfrwt beam="1">  1        2 0.41276725E+00 0.17803248E+04</pdfrwt>
<pdfrwt beam="2">  1       -2 0.45436675E-01 0.17803248E+04</pdfrwt>
<totfact> 0.11830563E+01</totfact>
</mgrwt>
</event>
<event>
12    2  0.3552864E-008  0.1803878E+04  0.7818608E-02  0.8704240E-01
          1   -1    0    0  501    0  0.00000000000E+00  0.00000000000E+00  0.13033739384E+04  0.13033739384E+04  0.00000000000E+00 0. -1.
         -1   -1    0    0    0  501 -0.00000000000E+00 -0.00000000000E+00 -0.62414438944E+03  0.62414438944E+03  0.00000000000E+00 0.  1.
         23    2    1    2    0    0  0.22495743186E+03  0.50840346384E+03 -0.21026034242E+03  0.60101148920E+03  0.89025110894E+02 0.  0.
        254    2    1    2    0    0 -0.22495743186E+03 -0.50840346384E+03  0.88948989137E+03  0.13265068386E+04  0.81200258490E+03 0.  0.
         23    2    4    4    0    0 -0.17804914987E+03 -0.11035855744E+03 -0.10388358229E+03  0.25139009173E+03  0.92329131811E+02 0.  0.
         23    2    4    4    0    0 -0.46908281988E+02 -0.39804490640E+03  0.99337347367E+03  0.10751167469E+04  0.91896827178E+02 0.  0.
          3    1    3    3  502    0  0.10695743945E+03  0.34679313468E+03 -0.13764713547E+03  0.38813928688E+03  0.00000000000E+00 0. -1.
         -3    1    3    3    0  502  0.11799999241E+03  0.16161032915E+03 -0.72613206949E+02  0.21287220232E+03  0.00000000000E+00 0.  1.
         11    1    5    5    0    0 -0.43700553012E+02  0.13933856746E+02 -0.19234669538E+02  0.49737945370E+02  0.00000000000E+00 0.  1.
        -11    1    5    5    0    0 -0.13434859686E+03 -0.12429241418E+03 -0.84648912755E+02  0.20165214636E+03  0.00000000000E+00 0. -1.
          3    1    6    6  503    0 -0.57120776509E+02 -0.37436156906E+03  0.86634120358E+03  0.94549270146E+03  0.00000000000E+00 0. -1.
         -3    1    6    6    0  503  0.10212494522E+02 -0.23683337345E+02  0.12703227009E+03  0.12962404544E+03  0.00000000000E+00 0.  1.
<mgrwt>
<rscale>  0 0.18038775E+04</rscale>
<asrwt>0</asrwt>
<pdfrwt beam="1">  1        1 0.20051907E+00 0.18038775E+04</pdfrwt>
<pdfrwt beam="2">  1       -1 0.96022214E-01 0.18038775E+04</pdfrwt>
<totfact> 0.88697992E+00</totfact>
</mgrwt>
</event>
<event>
12    2  0.3552864E-008  0.2072655E+04  0.7818608E-02  0.8573386E-01
          2   -1    0    0  501    0  0.00000000000E+00  0.00000000000E+00  0.14935584155E+04  0.14935584155E+04  0.00000000000E+00 0. -1.
         -2   -1    0    0    0  501 -0.00000000000E+00 -0.00000000000E+00 -0.71907097697E+03  0.71907097697E+03  0.00000000000E+00 0.  1.
         23    2    1    2    0    0 -0.10248673666E+03  0.72485605601E+03  0.74777386172E+03  0.10504329244E+04  0.91234572316E+02 0.  0.
        254    2    1    2    0    0  0.10248673666E+03 -0.72485605601E+03  0.26713576817E+02  0.11621964681E+04  0.90225671635E+03 0.  0.
         23    2    4    4    0    0  0.38755321482E+03 -0.51333540212E+03  0.28916223933E+03  0.71115289526E+03  0.91721918820E+02 0.  0.
         23    2    4    4    0    0 -0.28506647816E+03 -0.21152065389E+03 -0.26244866251E+03  0.45104357286E+03  0.92504703540E+02 0.  0.
          2    1    3    3  502    0 -0.62354570943E+02  0.62835173448E+03  0.61481396551E+03  0.88131164008E+03  0.00000000000E+00 0. -1.
         -2    1    3    3    0  502 -0.40132165721E+02  0.96504321524E+02  0.13295989620E+03  0.16912128428E+03  0.00000000000E+00 0.  1.
         11    1    5    5    0    0  0.38954644717E+03 -0.49098891188E+03  0.28419734755E+03  0.68817488944E+03  0.00000000000E+00 0. -1.
        -11    1    5    5    0    0 -0.19932323538E+01 -0.22346490236E+02  0.49648917832E+01  0.22978005821E+02  0.00000000000E+00 0.  1.
          2    1    6    6  503    0 -0.27624225309E+03 -0.20019898616E+03 -0.26976870053E+03  0.43493053266E+03  0.00000000000E+00 0. -1.
         -2    1    6    6    0  503 -0.88242250634E+01 -0.11321667726E+02  0.73200380159E+01  0.16113040204E+02  0.00000000000E+00 0.  1.
<mgrwt>
<rscale>  0 0.20726548E+04</rscale>
<asrwt>0</asrwt>
<pdfrwt beam="1">  1        2 0.22977822E+00 0.20726548E+04</pdfrwt>
<pdfrwt beam="2">  1       -2 0.11062630E+00 0.20726548E+04</pdfrwt>
<totfact> 0.76626995E+00</totfact>
</mgrwt>
</event>
<event>
12    2  0.3552864E-008  0.1354072E+04  0.7818608E-02  0.8987751E-01
         -3   -1    0    0    0  501 -0.00000000000E+00  0.00000000000E+00  0.12331536639E+03  0.12331536639E+03  0.00000000000E+00 0.  1.
          3   -1    0    0  501    0  0.00000000000E+00 -0.00000000000E+00 -0.37171189417E+04  0.37171189417E+04  0.00000000000E+00 0. -1.
         23    2    1    2    0    0 -0.23649045539E+03 -0.46953254494E+02 -0.21752998320E+03  0.33761143053E+03  0.92357137435E+02 0.  0.
        254    2    1    2    0    0  0.23649045539E+03  0.46953254494E+02 -0.33762735921E+04  0.35028228776E+04  0.90133922539E+03 0.  0.
         23    2    4    4    0    0 -0.16940758409E+03 -0.31940342857E+03 -0.11957207280E+04  0.12528933393E+04  0.96312930157E+02 0.  0.
         23    2    4    4    0    0  0.40589803948E+03  0.36635668307E+03 -0.21805528642E+04  0.22499295383E+04  0.91660768002E+02 0.  0.
          1    1    3    3  502    0 -0.47919164198E+02  0.26601095175E+02 -0.34803516216E+02  0.64924181188E+02  0.00000000000E+00 0. -1.
         -1    1    3    3    0  502 -0.18857129119E+03 -0.73554349669E+02 -0.18272646698E+03  0.27268724934E+03  0.00000000000E+00 0.  1.
         11    1    5    5    0    0 -0.74027833413E+02 -0.86456657411E+02 -0.25830555132E+03  0.28227049363E+03  0.00000000000E+00 0.  1.
        -11    1    5    5    0    0 -0.95379750675E+02 -0.23294677116E+03 -0.93741517665E+03  0.97062284562E+03  0.00000000000E+00 0. -1.
          4    1    6    6  503    0  0.12328923273E+03  0.11013026234E+03 -0.49980644717E+03  0.52643650541E+03  0.00000000000E+00 0. -1.
         -4    1    6    6    0  503  0.28260880675E+03  0.25622642073E+03 -0.16807464170E+04  0.17234930329E+04  0.00000000000E+00 0.  1.
<mgrwt>
<rscale>  0 0.13540722E+04</rscale>
<asrwt>0</asrwt>
<pdfrwt beam="1">  1        3 0.57186436E+00 0.13540722E+04</pdfrwt>
<pdfrwt beam="2">  1       -3 0.18971598E-01 0.13540722E+04</pdfrwt>
<totfact> 0.10224286E-01</totfact>
</mgrwt>
</event>
<event>
12    2  0.3552864E-008  0.1280981E+04  0.7818608E-02  0.9044785E-01
          2   -1    0    0  501    0  0.00000000000E+00  0.00000000000E+00  0.11080657182E+04  0.11080657182E+04  0.00000000000E+00 0. -1.
         -2   -1    0    0    0  501 -0.00000000000E+00 -0.00000000000E+00 -0.37021971652E+03  0.37021971652E+03  0.00000000000E+00 0.  1.
         23    2    1    2    0    0  0.37888526478E+02 -0.82127337384E+02  0.54273274383E+03  0.55782081622E+03  0.91786664572E+02 0.  0.
        254    2    1    2    0    0 -0.37888526478E+02  0.82127337384E+02  0.19511325785E+03  0.92046461851E+03  0.89498910080E+03 0.  0.
         23    2    4    4    0    0  0.14682450673E+02  0.12470020782E+03 -0.33819154487E+03  0.37522106563E+03  0.10320664165E+03 0.  0.
         23    2    4    4    0    0 -0.52570977151E+02 -0.42572870432E+02  0.53330480273E+03  0.54524355288E+03  0.91106324744E+02 0.  0.
          2    1    3    3  502    0  0.68551877300E+02 -0.54842221312E+02  0.37503302793E+03  0.38517113230E+03  0.00000000000E+00 0. -1.
         -2    1    3    3    0  502 -0.30663350822E+02 -0.27285116072E+02  0.16769971590E+03  0.17264968391E+03  0.00000000000E+00 0.  1.
         11    1    5    5    0    0  0.27407199215E+02 -0.83538125598E+01 -0.52532420923E+02  0.59838081529E+02  0.00000000000E+00 0. -1.
        -11    1    5    5    0    0 -0.12724748542E+02  0.13305402038E+03 -0.28565912395E+03  0.31538298410E+03  0.00000000000E+00 0.  1.
          1    1    6    6  503    0  0.18248502353E+02  0.10554037951E+02  0.17025599435E+03  0.17155611084E+03  0.00000000000E+00 0. -1.
         -1    1    6    6    0  503 -0.70819479505E+02 -0.53126908383E+02  0.36304880838E+03  0.37368744204E+03  0.00000000000E+00 0.  1.
<mgrwt>
<rscale>  0 0.12809805E+04</rscale>
<asrwt>0</asrwt>
<pdfrwt beam="1">  1        2 0.17047165E+00 0.12809805E+04</pdfrwt>
<pdfrwt beam="2">  1       -2 0.56956880E-01 0.12809805E+04</pdfrwt>
<totfact> 0.61088762E+01</totfact>
</mgrwt>
</event>
<event>
12    2  0.3552864E-008  0.2067447E+04  0.7818608E-02  0.8575720E-01
          2   -1    0    0  501    0  0.00000000000E+00  0.00000000000E+00  0.11716033159E+04  0.11716033159E+04  0.00000000000E+00 0. -1.
         -2   -1    0    0    0  501 -0.00000000000E+00 -0.00000000000E+00 -0.91206999237E+03  0.91206999237E+03  0.00000000000E+00 0.  1.
         23    2    1    2    0    0  0.16466909188E+03  0.16269204521E+03  0.90737639291E+03  0.94093208083E+03  0.91851243546E+02 0.  0.
        254    2    1    2    0    0 -0.16466909188E+03 -0.16269204521E+03 -0.64784306934E+03  0.11427412275E+04  0.91245397640E+03 0.  0.
         23    2    4    4    0    0 -0.49868225407E+03 -0.63600535499E+02 -0.16096870298E+03  0.53682922474E+03  0.97701968005E+02 0.  0.
         23    2    4    4    0    0  0.33401316219E+03 -0.99091509709E+02 -0.48687436636E+03  0.60591200273E+03  0.93267285854E+02 0.  0.
          1    1    3    3  502    0  0.13509759662E+03  0.72017703575E+02  0.52760642459E+03  0.54936913774E+03  0.00000000000E+00 0. -1.
         -1    1    3    3    0  502  0.29571495262E+02  0.90674341633E+02  0.37976996832E+03  0.39156294309E+03  0.00000000000E+00 0.  1.
         11    1    5    5    0    0 -0.46050682920E+03 -0.60052180645E+02 -0.11784098675E+03  0.47912347292E+03  0.00000000000E+00 0.  1.
        -11    1    5    5    0    0 -0.38175424867E+02 -0.35483548548E+01 -0.43127716226E+02  0.57705751817E+02  0.00000000000E+00 0. -1.
          2    1    6    6  503    0  0.91502838386E+01  0.11023853621E+02 -0.40525878564E+02  0.42983716409E+02  0.00000000000E+00 0. -1.
         -2    1    6    6    0  503  0.32486287836E+03 -0.11011536333E+03 -0.44634848780E+03  0.56292828632E+03  0.00000000000E+00 0.  1.
<mgrwt>
<rscale>  0 0.20674470E+04</rscale>
<asrwt>0</asrwt>
<pdfrwt beam="1">  1        2 0.18024666E+00 0.20674470E+04</pdfrwt>
<pdfrwt beam="2">  1       -2 0.14031846E+00 0.20674470E+04</pdfrwt>
<totfact> 0.64997474E+00</totfact>
</mgrwt>
</event>
<event>
12    2  0.3552864E-008  0.1135268E+04  0.7818608E-02  0.9171483E-01
         -2   -1    0    0    0  501 -0.00000000000E+00  0.00000000000E+00  0.20901571328E+03  0.20901571328E+03  0.00000000000E+00 0.  1.
          2   -1    0    0  501    0  0.00000000000E+00 -0.00000000000E+00 -0.15415508522E+04  0.15415508522E+04  0.00000000000E+00 0. -1.
         23    2    1    2    0    0  0.21690659647E+03 -0.34976008469E+02 -0.18526815681E+03  0.30271843296E+03  0.95091361146E+02 0.  0.
        254    2    1    2    0    0 -0.21690659647E+03  0.34976008469E+02 -0.11472669821E+04  0.14478481325E+04  0.85543608402E+03 0.  0.
         23    2    4    4    0    0 -0.41132937820E+03 -0.11938088152E+03 -0.23335349782E+03  0.49639721989E+03  0.92264254868E+02 0.  0.
         23    2    4    4    0    0  0.19442278173E+03  0.15435688999E+03 -0.91391348431E+03  0.95145091264E+03  0.91622676334E+02 0.  0.
          4    1    3    3  502    0  0.79429590335E+02 -0.35716585538E+02 -0.12562166692E+03  0.15285789971E+03  0.00000000000E+00 0. -1.
         -4    1    3    3    0  502  0.13747700613E+03  0.74057706845E+00 -0.59646489890E+02  0.14986053325E+03  0.00000000000E+00 0.  1.
         11    1    5    5    0    0 -0.31112391173E+03 -0.57793801532E+02 -0.13908235609E+03  0.34566184881E+03  0.00000000000E+00 0. -1.
        -11    1    5    5    0    0 -0.10020546647E+03 -0.61587079989E+02 -0.94271141730E+02  0.15073537108E+03  0.00000000000E+00 0.  1.
          1    1    6    6  503    0  0.15977432836E+02 -0.10404620552E+02 -0.11033988348E+03  0.11197510605E+03  0.00000000000E+00 0. -1.
         -1    1    6    6    0  503  0.17844534890E+03  0.16476151054E+03 -0.80357360083E+03  0.83947580659E+03  0.00000000000E+00 0.  1.
<mgrwt>
<rscale>  0 0.11352680E+04</rscale>
<asrwt>0</asrwt>
<pdfrwt beam="1">  1        2 0.23716166E+00 0.11352680E+04</pdfrwt>
<pdfrwt beam="2">  1       -2 0.32156264E-01 0.11352680E+04</pdfrwt>
<totfact> 0.10718801E+02</totfact>
</mgrwt>
</event>
<event>
12    2  0.3552864E-008  0.2700462E+04  0.7818608E-02  0.8334855E-01
          1   -1    0    0  501    0  0.00000000000E+00  0.00000000000E+00  0.14967636492E+04  0.14967636492E+04  0.00000000000E+00 0. -1.
         -1   -1    0    0    0  501 -0.00000000000E+00 -0.00000000000E+00 -0.12180441191E+04  0.12180441191E+04  0.00000000000E+00 0.  1.
         23    2    1    2    0    0 -0.11712973024E+04 -0.13463133957E+03 -0.19671042287E+01  0.11825966796E+04  0.92022110422E+02 0.  0.
        254    2    1    2    0    0  0.11712973024E+04  0.13463133957E+03  0.28068663435E+03  0.15322110887E+04  0.93745552709E+03 0.  0.
         23    2    4    4    0    0  0.87771308913E+03 -0.28561993577E+03 -0.26321601192E+02  0.92821690176E+03  0.94523941322E+02 0.  0.
         23    2    4    4    0    0  0.29358421329E+03  0.42025127533E+03  0.30700823554E+03  0.60399418691E+03  0.88045990331E+02 0.  0.
          4    1    3    3  502    0 -0.23387023385E+03 -0.34061464135E+02 -0.36598015594E+02  0.23915451985E+03  0.00000000000E+00 0. -1.
         -4    1    3    3    0  502 -0.93742706857E+03 -0.10056987543E+03  0.34630911366E+02  0.94344215973E+03  0.00000000000E+00 0.  1.
         11    1    5    5    0    0  0.83339087761E+03 -0.26194834150E+03 -0.49225813903E+01  0.87360261006E+03  0.00000000000E+00 0.  1.
        -11    1    5    5    0    0  0.44322211522E+02 -0.23671594265E+02 -0.21399019802E+02  0.54614291699E+02  0.00000000000E+00 0. -1.
          2    1    6    6  503    0  0.18203189213E+01  0.33123013506E+02  0.69890782512E+01  0.33901250707E+02  0.00000000000E+00 0. -1.
         -2    1    6    6    0  503  0.29176389437E+03  0.38712826183E+03  0.30001915729E+03  0.57009293620E+03  0.00000000000E+00 0.  1.
<mgrwt>
<rscale>  0 0.27004623E+04</rscale>
<asrwt>0</asrwt>
<pdfrwt beam="1">  1        1 0.23027133E+00 0.27004623E+04</pdfrwt>
<pdfrwt beam="2">  1       -1 0.18739140E+00 0.27004623E+04</pdfrwt>
<totfact> 0.10583936E+00</totfact>
</mgrwt>
</event>
<event>
12    2  0.3552864E-008  0.2648154E+04  0.7818608E-02  0.8352026E-01
         -2   -1    0    0    0  501 -0.00000000000E+00  0.00000000000E+00  0.10929167167E+04  0.10929167167E+04  0.00000000000E+00 0.  1.
          2   -1    0    0  501    0  0.00000000000E+00 -0.00000000000E+00 -0.16041299503E+04  0.16041299503E+04  0.00000000000E+00 0. -1.
         23    2    1    2    0    0 -0.73884556197E+03 -0.90021462034E+03 -0.10662674682E+03  0.11718348443E+04  0.74488335063E+02 0.  0.
        254    2    1    2    0    0  0.73884556197E+03  0.90021462034E+03 -0.40458648675E+03  0.15252118227E+04  0.89794306707E+03 0.  0.
         23    2    4    4    0    0  0.93100308418E+03  0.80623180823E+03 -0.30733786311E+03  0.12727200404E+04  0.92645927315E+02 0.  0.
         23    2    4    4    0    0 -0.19215752222E+03  0.93982812115E+02 -0.97248623645E+02  0.25249178227E+03  0.92398717488E+02 0.  0.
          2    1    3    3  502    0 -0.72352941878E+03 -0.89198591874E+03 -0.11105807846E+03  0.11538923675E+04  0.00000000000E+00 0. -1.
         -2    1    3    3    0  502 -0.15316143182E+02 -0.82287015986E+01  0.44313316442E+01  0.17942476756E+02  0.00000000000E+00 0.  1.
         11    1    5    5    0    0  0.39567919731E+03  0.33988470108E+03 -0.83171808638E+02  0.52820562943E+03  0.00000000000E+00 0. -1.
        -11    1    5    5    0    0  0.53532388688E+03  0.46634710715E+03 -0.22416605447E+03  0.74451441100E+03  0.00000000000E+00 0.  1.
          3    1    6    6  503    0 -0.36563320397E+02  0.63087222381E+02 -0.43987077608E+02  0.85157131367E+02  0.00000000000E+00 0. -1.
         -3    1    6    6    0  503 -0.15559420182E+03  0.30895589734E+02 -0.53261546037E+02  0.16733465090E+03  0.00000000000E+00 0.  1.
<mgrwt>
<rscale>  0 0.26481544E+04</rscale>
<asrwt>0</asrwt>
<pdfrwt beam="1">  1        2 0.24678922E+00 0.26481544E+04</pdfrwt>
<pdfrwt beam="2">  1       -2 0.16814103E+00 0.26481544E+04</pdfrwt>
<totfact> 0.21480403E+00</totfact>
</mgrwt>
</event>
<event>
12    2  0.3552864E-008  0.1526973E+04  0.7818608E-02  0.8866712E-01
          2   -1    0    0  501    0  0.00000000000E+00  0.00000000000E+00  0.17141695680E+04  0.17141695680E+04  0.00000000000E+00 0. -1.
         -2   -1    0    0    0  501 -0.00000000000E+00 -0.00000000000E+00 -0.34005464770E+03  0.34005464770E+03  0.00000000000E+00 0.  1.
         23    2    1    2    0    0  0.92956260977E+02  0.38482804525E+03  0.59825034546E+02  0.41017385623E+03  0.89050921987E+02 0.  0.
        254    2    1    2    0    0 -0.92956260977E+02 -0.38482804525E+03  0.13142898858E+04  0.16440503595E+04  0.90488131257E+03 0.  0.
         23    2    4    4    0    0  0.24372362233E+02 -0.10177442579E+03 -0.11454944112E+03  0.17993556410E+03  0.91121824938E+02 0.  0.
         23    2    4    4    0    0 -0.11732862321E+03 -0.28305361946E+03  0.14288393269E+04  0.14641147954E+04  0.90360138906E+02 0.  0.
          3    1    3    3  502    0 -0.10101247445E+02  0.25516758235E+02  0.20616180151E+02  0.34324437866E+02  0.00000000000E+00 0. -1.
         -3    1    3    3    0  502  0.10305750842E+03  0.35931128701E+03  0.39208854395E+02  0.37584941836E+03  0.00000000000E+00 0.  1.
         11    1    5    5    0    0 -0.20443695964E+01 -0.10425399723E+03 -0.11239448858E+03  0.15331534968E+03  0.00000000000E+00 0. -1.
        -11    1    5    5    0    0  0.26416731829E+02  0.24795714355E+01 -0.21549525392E+01  0.26620214415E+02  0.00000000000E+00 0.  1.
          1    1    6    6  503    0 -0.98178032482E+02 -0.24390217086E+03  0.13350519079E+04  0.13606949664E+04  0.00000000000E+00 0. -1.
         -1    1    6    6    0  503 -0.19150590728E+02 -0.39151448598E+02  0.93787419060E+02  0.10341982898E+03  0.00000000000E+00 0.  1.
<mgrwt>
<rscale>  0 0.15269726E+04</rscale>
<asrwt>0</asrwt>
<pdfrwt beam="1">  1        2 0.26371839E+00 0.15269726E+04</pdfrwt>
<pdfrwt beam="2">  1       -2 0.52316101E-01 0.15269726E+04</pdfrwt>
<totfact> 0.32018538E+01</totfact>
</mgrwt>
</event>
<event>
12    2  0.3552864E-008  0.2248491E+04  0.7818608E-02  0.8498512E-01
         -2   -1    0    0    0  501 -0.00000000000E+00  0.00000000000E+00  0.45790633349E+03  0.45790633349E+03  0.00000000000E+00 0.  1.
          2   -1    0    0  501    0  0.00000000000E+00 -0.00000000000E+00 -0.27602324500E+04  0.27602324500E+04  0.00000000000E+00 0. -1.
         23    2    1    2    0    0 -0.76189752341E+03 -0.52776410194E+02 -0.17637708147E+03  0.78914942689E+03  0.91513700831E+02 0.  0.
        254    2    1    2    0    0  0.76189752341E+03  0.52776410194E+02 -0.21259490350E+04  0.24289893566E+04  0.89278038128E+03 0.  0.
         23    2    4    4    0    0  0.66224347107E+03  0.12583865879E+03 -0.63458150587E+03  0.92981978458E+03  0.86425466022E+02 0.  0.
         23    2    4    4    0    0  0.99654052336E+02 -0.73062248591E+02 -0.14913675292E+04  0.14991695720E+04  0.89795747558E+02 0.  0.
          1    1    3    3  502    0 -0.64263193065E+01 -0.72707514079E+01  0.49458764472E+01  0.10891423217E+02  0.00000000000E+00 0. -1.
         -1    1    3    3    0  502 -0.75547120410E+03 -0.45505658786E+02 -0.18132295792E+03  0.77825800367E+03  0.00000000000E+00 0.  1.
         11    1    5    5    0    0  0.60674763668E+02  0.26231648679E+02 -0.94136649800E+02  0.11502710626E+03  0.00000000000E+00 0.  1.
        -11    1    5    5    0    0  0.60156870741E+03  0.99607010106E+02 -0.54044485607E+03  0.81479267832E+03  0.00000000000E+00 0. -1.
          3    1    6    6  503    0  0.79289768063E+02 -0.85313701256E+02 -0.92501620880E+03  0.93231983862E+03  0.00000000000E+00 0. -1.
         -3    1    6    6    0  503  0.20364284272E+02  0.12251452665E+02 -0.56635132036E+03  0.56684973338E+03  0.00000000000E+00 0.  1.
<mgrwt>
<rscale>  0 0.22484910E+04</rscale>
<asrwt>0</asrwt>
<pdfrwt beam="1">  1        2 0.42465115E+00 0.22484910E+04</pdfrwt>
<pdfrwt beam="2">  1       -2 0.70447128E-01 0.22484910E+04</pdfrwt>
<totfact> 0.40804505E+00</totfact>
</mgrwt>
</event>
<event>
12    2  0.3552864E-008  0.1213518E+04  0.7818608E-02  0.9101106E-01
         -2   -1    0    0    0  501 -0.00000000000E+00  0.00000000000E+00  0.11026992341E+03  0.11026992341E+03  0.00000000000E+00 0.  1.
          2   -1    0    0  501    0  0.00000000000E+00 -0.00000000000E+00 -0.33386860039E+04  0.33386860039E+04  0.00000000000E+00 0. -1.
         23    2    1    2    0    0  0.37648409891E+02  0.14172524817E+03 -0.14098736683E+04  0.14204559332E+04  0.91912179453E+02 0.  0.
        254    2    1    2    0    0 -0.37648409891E+02 -0.14172524817E+03 -0.18185424121E+04  0.20284999941E+04  0.88668611842E+03 0.  0.
         23    2    4    4    0    0  0.91379554991E+01 -0.11445373384E+03 -0.18930117786E+04  0.18986576607E+04  0.90687151188E+02 0.  0.
         23    2    4    4    0    0 -0.46786365390E+02 -0.27271514326E+02  0.74469366444E+02  0.12984233337E+03  0.91545865644E+02 0.  0.
          1    1    3    3  502    0  0.48233564752E+02  0.22884664173E+02 -0.47967917337E+03  0.48264095764E+03  0.00000000000E+00 0. -1.
         -1    1    3    3    0  502 -0.10585154861E+02  0.11884058400E+03 -0.93019449494E+03  0.93781497553E+03  0.00000000000E+00 0.  1.
         11    1    5    5    0    0 -0.34718042035E+02 -0.87757410817E+02 -0.11420364737E+04  0.11459293228E+04  0.00000000000E+00 0. -1.
        -11    1    5    5    0    0  0.43855997535E+02 -0.26696323028E+02 -0.75097530485E+03  0.75272833790E+03  0.00000000000E+00 0.  1.
          3    1    6    6  503    0  0.11843274913E+02  0.11224534522E+02 -0.10698072769E+02  0.19511588784E+02  0.00000000000E+00 0. -1.
         -3    1    6    6    0  503 -0.58629640304E+02 -0.38496048848E+02  0.85167439212E+02  0.11033074459E+03  0.00000000000E+00 0.  1.
<mgrwt>
<rscale>  0 0.12135183E+04</rscale>
<asrwt>0</asrwt>
<pdfrwt beam="1">  1        2 0.51364395E+00 0.12135183E+04</pdfrwt>
<pdfrwt beam="2">  1       -2 0.16964605E-01 0.12135183E+04</pdfrwt>
<totfact> 0.30069371E+01</totfact>
</mgrwt>
</event>
<event>
12    2  0.3552864E-008  0.1456596E+04  0.7818608E-02  0.8913840E-01
         -1   -1    0    0    0  501 -0.00000000000E+00  0.00000000000E+00  0.82847600158E+03  0.82847600158E+03  0.00000000000E+00 0.  1.
          1   -1    0    0  501    0  0.00000000000E+00 -0.00000000000E+00 -0.64023379961E+03  0.64023379961E+03  0.00000000000E+00 0. -1.
         23    2    1    2    0    0  0.11036243223E+03 -0.42284971401E+03  0.22240315665E+02  0.44713767525E+03  0.91954999367E+02 0.  0.
        254    2    1    2    0    0 -0.11036243223E+03  0.42284971401E+03  0.16600188631E+03  0.10215721259E+04  0.90833431905E+03 0.  0.
         23    2    4    4    0    0 -0.32090342431E+03 -0.61126941158E+02  0.31765233337E+03  0.46500709486E+03  0.92806695408E+02 0.  0.
         23    2    4    4    0    0  0.21054099208E+03  0.48397665516E+03 -0.15165044706E+03  0.55656503108E+03  0.90586222103E+02 0.  0.
          2    1    3    3  502    0  0.11430874274E+03 -0.40645445063E+03  0.39240017890E+01  0.42224057940E+03  0.00000000000E+00 0. -1.
         -2    1    3    3    0  502 -0.39463105127E+01 -0.16395263373E+02  0.18316313876E+02  0.24897095849E+02  0.00000000000E+00 0.  1.
         11    1    5    5    0    0 -0.87322331764E+02 -0.34623128906E+01  0.35820249905E+02  0.94447167975E+02  0.00000000000E+00 0. -1.
        -11    1    5    5    0    0 -0.23358109254E+03 -0.57664628267E+02  0.28183208346E+03  0.37055992689E+03  0.00000000000E+00 0.  1.
          1    1    6    6  503    0  0.49161226508E+02  0.92589133888E+02  0.55258663560E+01  0.10497670744E+03  0.00000000000E+00 0. -1.
         -1    1    6    6    0  503  0.16137976557E+03  0.39138752127E+03 -0.15717631342E+03  0.45158832364E+03  0.00000000000E+00 0.  1.
<mgrwt>
<rscale>  0 0.14565965E+04</rscale>
<asrwt>0</asrwt>
<pdfrwt beam="1">  1        1 0.98497508E-01 0.14565965E+04</pdfrwt>
<pdfrwt beam="2">  1       -1 0.12745785E+00 0.14565965E+04</pdfrwt>
<totfact> 0.16120584E+01</totfact>
</mgrwt>
</event>
<event>
12    2  0.3552864E-008  0.2275149E+04  0.7818608E-02  0.8487784E-01
          1   -1    0    0  501    0  0.00000000000E+00  0.00000000000E+00  0.19744189927E+04  0.19744189927E+04  0.00000000000E+00 0. -1.
         -1   -1    0    0    0  501 -0.00000000000E+00 -0.00000000000E+00 -0.65542124304E+03  0.65542124304E+03  0.00000000000E+00 0.  1.
         23    2    1    2    0    0  0.31326671357E+03 -0.27914775863E+03  0.15504954609E+04  0.16088720991E+04  0.91508207296E+02 0.  0.
        254    2    1    2    0    0 -0.31326671357E+03  0.27914775863E+03 -0.23149771118E+03  0.10209681367E+04  0.90151275139E+03 0.  0.
         23    2    4    4    0    0  0.14072918350E+03  0.45525032769E+03 -0.27538237591E+02  0.48557739982E+03  0.89272015410E+02 0.  0.
         23    2    4    4    0    0 -0.45399589707E+03 -0.17610256907E+03 -0.20395947359E+03  0.53539073689E+03  0.88990925877E+02 0.  0.
          2    1    3    3  502    0  0.25852684468E+03 -0.27025634192E+03  0.13488475646E+04  0.13997372511E+04  0.00000000000E+00 0. -1.
         -2    1    3    3    0  502  0.54739868896E+02 -0.88914167016E+01  0.20164789630E+03  0.20913484793E+03  0.00000000000E+00 0.  1.
         11    1    5    5    0    0 -0.11424908919E+02  0.31997663168E+02 -0.10193701169E+02  0.35472391173E+02  0.00000000000E+00 0.  1.
        -11    1    5    5    0    0  0.15215409242E+03  0.42325266452E+03 -0.17344536422E+02  0.45010500865E+03  0.00000000000E+00 0. -1.
          3    1    6    6  503    0 -0.14671966538E+03 -0.13765132765E+02 -0.66412698699E+02  0.16163782242E+03  0.00000000000E+00 0. -1.
         -3    1    6    6    0  503 -0.30727623169E+03 -0.16233743630E+03 -0.13754677489E+03  0.37375291446E+03  0.00000000000E+00 0.  1.
<mgrwt>
<rscale>  0 0.22751494E+04</rscale>
<asrwt>0</asrwt>
<pdfrwt beam="1">  1        1 0.30375677E+00 0.22751494E+04</pdfrwt>
<pdfrwt beam="2">  1       -1 0.10083404E+00 0.22751494E+04</pdfrwt>
<totfact> 0.26266710E+00</totfact>
</mgrwt>
</event>
<event>
12    2  0.3552864E-008  0.2089971E+04  0.7818608E-02  0.8565674E-01
          1   -1    0    0  501    0  0.00000000000E+00  0.00000000000E+00  0.63847809597E+03  0.63847809597E+03  0.00000000000E+00 0. -1.
         -1   -1    0    0    0  501 -0.00000000000E+00 -0.00000000000E+00 -0.17103084753E+04  0.17103084753E+04  0.00000000000E+00 0.  1.
         23    2    1    2    0    0  0.37376586117E+03 -0.58868121837E+03 -0.99857008334E+03  0.12213857084E+04  0.91620638972E+02 0.  0.
        254    2    1    2    0    0 -0.37376586117E+03  0.58868121837E+03 -0.73260296008E+02  0.11274008629E+04  0.88284717753E+03 0.  0.
         23    2    4    4    0    0 -0.10254312823E+03  0.73969093642E+03 -0.20120801985E+03  0.77876816628E+03  0.91309446355E+02 0.  0.
         23    2    4    4    0    0 -0.27122273294E+03 -0.15100971805E+03  0.12794772385E+03  0.34863269662E+03  0.93853243451E+02 0.  0.
          1    1    3    3  502    0  0.48952436625E+02 -0.14295998106E+03 -0.23739501900E+03  0.28140769763E+03  0.00000000000E+00 0. -1.
         -1    1    3    3    0  502  0.32481342455E+03 -0.44572123730E+03 -0.76117506434E+03  0.93997801077E+03  0.00000000000E+00 0.  1.
         11    1    5    5    0    0 -0.42802996404E+02  0.56615226328E+03 -0.13444605625E+03  0.58346912837E+03  0.00000000000E+00 0. -1.
        -11    1    5    5    0    0 -0.59740131827E+02  0.17353867313E+03 -0.66761963607E+02  0.19529903791E+03  0.00000000000E+00 0.  1.
          2    1    6    6  503    0 -0.21434309674E+03 -0.71174399719E+02  0.97394235531E+02  0.24595608431E+03  0.00000000000E+00 0. -1.
         -2    1    6    6    0  503 -0.56879636206E+02 -0.79835318330E+02  0.30553488316E+02  0.10267661231E+03  0.00000000000E+00 0.  1.
<mgrwt>
<rscale>  0 0.20899708E+04</rscale>
<asrwt>0</asrwt>
<pdfrwt beam="1">  1        1 0.98227400E-01 0.20899708E+04</pdfrwt>
<pdfrwt beam="2">  1       -1 0.26312438E+00 0.20899708E+04</pdfrwt>
<totfact> 0.16484829E+00</totfact>
</mgrwt>
</event>
<event>
12    2  0.3552864E-008  0.1700225E+04  0.7818608E-02  0.8761236E-01
         -2   -1    0    0    0  501 -0.00000000000E+00  0.00000000000E+00  0.18884706188E+03  0.18884706188E+03  0.00000000000E+00 0. -1.
          2   -1    0    0  501    0  0.00000000000E+00 -0.00000000000E+00 -0.38268618812E+04  0.38268618812E+04  0.00000000000E+00 0.  1.
         23    2    1    2    0    0 -0.39409468833E+03 -0.77562794627E+02 -0.24307271993E+03  0.47820055228E+03  0.90911003401E+02 0.  0.
        254    2    1    2    0    0  0.39409468833E+03  0.77562794627E+02 -0.33949420994E+04  0.35375083908E+04  0.90939933270E+03 0.  0.
         23    2    4    4    0    0  0.22549443035E+03  0.71122727161E+02 -0.33235917424E+04  0.33332548868E+04  0.91759959378E+02 0.  0.
         23    2    4    4    0    0  0.16860025799E+03  0.64400674662E+01 -0.71350357006E+02  0.20425350397E+03  0.90338801059E+02 0.  0.
          4    1    3    3  502    0 -0.68647470492E+02 -0.54768795168E+00 -0.82164188384E+02  0.10706880507E+03  0.00000000000E+00 0. -1.
         -4    1    3    3    0  502 -0.32544721784E+03 -0.77015106675E+02 -0.16090853155E+03  0.37113174720E+03  0.00000000000E+00 0.  1.
         11    1    5    5    0    0  0.21036277563E+03  0.45136158363E+02 -0.31251947541E+04  0.31325919015E+04  0.00000000000E+00 0. -1.
        -11    1    5    5    0    0  0.15131654723E+02  0.25986568797E+02 -0.19839698826E+03  0.20066298534E+03  0.00000000000E+00 0.  1.
          4    1    6    6  503    0  0.46080860336E+02  0.10208856659E+01  0.21079655807E+02  0.50683723085E+02  0.00000000000E+00 0. -1.
         -4    1    6    6    0  503  0.12251939765E+03  0.54191818003E+01 -0.92430012814E+02  0.15356978088E+03  0.00000000000E+00 0.  1.
<mgrwt>
<rscale>  0 0.17002254E+04</rscale>
<asrwt>0</asrwt>
<pdfrwt beam="1">  1        2 0.58874789E+00 0.17002254E+04</pdfrwt>
<pdfrwt beam="2">  1       -2 0.29053399E-01 0.17002254E+04</pdfrwt>
<totfact> 0.49230230E+00</totfact>
</mgrwt>
</event>
<event>
12    2  0.3552864E-008  0.1448027E+04  0.7818608E-02  0.8919769E-01
         -2   -1    0    0    0  501 -0.00000000000E+00  0.00000000000E+00  0.17285447912E+03  0.17285447912E+03  0.00000000000E+00 0.  1.
          2   -1    0    0  501    0  0.00000000000E+00 -0.00000000000E+00 -0.30325842461E+04  0.30325842461E+04  0.00000000000E+00 0. -1.
         23    2    1    2    0    0  0.16897799165E+03  0.40504306629E+03 -0.85034181665E+03  0.96144018640E+03  0.93126686101E+02 0.  0.
        254    2    1    2    0    0 -0.16897799165E+03 -0.40504306629E+03 -0.20093879504E+04  0.22439985389E+04  0.89737175135E+03 0.  0.
         23    2    4    4    0    0  0.19787076452E+02 -0.56482491585E+03 -0.18484933173E+04  0.19350000597E+04  0.88763579077E+02 0.  0.
         23    2    4    4    0    0 -0.18876506810E+03  0.15978184956E+03 -0.16089463305E+03  0.30899847914E+03  0.91817682314E+02 0.  0.
          1    1    3    3  502    0  0.10202863346E+03  0.25736049221E+03 -0.62741429483E+03  0.68577909151E+03  0.00000000000E+00 0. -1.
         -1    1    3    3    0  502  0.66949358191E+02  0.14768257409E+03 -0.22292752182E+03  0.27566109489E+03  0.00000000000E+00 0.  1.
         11    1    5    5    0    0  0.33741283600E+02 -0.32835831878E+03 -0.94588098203E+03  0.10018225850E+04  0.00000000000E+00 0.  1.
        -11    1    5    5    0    0 -0.13954207148E+02 -0.23646659707E+03 -0.90261233529E+03  0.93317747468E+03  0.00000000000E+00 0. -1.
          3    1    6    6  503    0 -0.89047338869E+02  0.13383539818E+03 -0.99616769126E+02  0.18911595135E+03  0.00000000000E+00 0. -1.
         -3    1    6    6    0  503 -0.99717729233E+02  0.25946451380E+02 -0.61277863919E+02  0.11988252779E+03  0.00000000000E+00 0.  1.
<mgrwt>
<rscale>  0 0.14480273E+04</rscale>
<asrwt>0</asrwt>
<pdfrwt beam="1">  1        2 0.46655140E+00 0.14480273E+04</pdfrwt>
<pdfrwt beam="2">  1       -2 0.26592998E-01 0.14480273E+04</pdfrwt>
<totfact> 0.20826657E+01</totfact>
</mgrwt>
</event>
<event>
12    2  0.3552864E-008  0.1706196E+04  0.7818608E-02  0.8757839E-01
          4   -1    0    0  501    0  0.00000000000E+00  0.00000000000E+00  0.16997321422E+04  0.16997321422E+04  0.00000000000E+00 0. -1.
         -4   -1    0    0    0  501 -0.00000000000E+00 -0.00000000000E+00 -0.42817085888E+03  0.42817085888E+03  0.00000000000E+00 0.  1.
         23    2    1    2    0    0  0.29905626367E+03  0.93423887883E+02 -0.19298942823E+03  0.37940283934E+03  0.92406295399E+02 0.  0.
        254    2    1    2    0    0 -0.29905626367E+03 -0.93423887883E+02  0.14645507116E+04  0.17485001617E+04  0.90231998606E+03 0.  0.
         23    2    4    4    0    0 -0.42751220770E+03  0.20613268995E+03  0.12711644354E+04  0.13600018216E+04  0.92133377732E+02 0.  0.
         23    2    4    4    0    0  0.12845594403E+03 -0.29955657783E+03  0.19338627610E+03  0.38849834011E+03  0.85426199772E+02 0.  0.
          1    1    3    3  502    0  0.69517526976E+02  0.22107455985E+02 -0.29812157559E+01  0.73008998174E+02  0.00000000000E+00 0. -1.
         -1    1    3    3    0  502  0.22953873669E+03  0.71316431899E+02 -0.19000821247E+03  0.30639384117E+03  0.00000000000E+00 0.  1.
         11    1    5    5    0    0 -0.15597087505E+03  0.28049451422E+02  0.39573866884E+03  0.42628954902E+03  0.00000000000E+00 0. -1.
        -11    1    5    5    0    0 -0.27154133265E+03  0.17808323852E+03  0.87542576661E+03  0.93371227262E+03  0.00000000000E+00 0.  1.
          4    1    6    6  503    0  0.70526221291E+02 -0.70680937586E+02  0.44003385831E+02  0.10911480556E+03  0.00000000000E+00 0. -1.
         -4    1    6    6    0  503  0.57929722740E+02 -0.22887564024E+03  0.14938289027E+03  0.27938353455E+03  0.00000000000E+00 0.  1.
<mgrwt>
<rscale>  0 0.17061955E+04</rscale>
<asrwt>0</asrwt>
<pdfrwt beam="1">  1        4 0.26149725E+00 0.17061955E+04</pdfrwt>
<pdfrwt beam="2">  1       -4 0.65872440E-01 0.17061955E+04</pdfrwt>
<totfact> 0.21860351E-01</totfact>
</mgrwt>
</event>
<event>
12    2  0.3552864E-008  0.1976014E+04  0.7818608E-02  0.8617918E-01
          1   -1    0    0  501    0  0.00000000000E+00  0.00000000000E+00  0.57169747492E+03  0.57169747492E+03  0.00000000000E+00 0. -1.
         -1   -1    0    0    0  501 -0.00000000000E+00 -0.00000000000E+00 -0.17074721395E+04  0.17074721395E+04  0.00000000000E+00 0.  1.
         23    2    1    2    0    0  0.10997475454E+03  0.53865028585E+03  0.18469836442E+03  0.58691492430E+03  0.90094758283E+02 0.  0.
        254    2    1    2    0    0 -0.10997475454E+03 -0.53865028585E+03 -0.13204730290E+04  0.16922546901E+04  0.90434414843E+03 0.  0.
         23    2    4    4    0    0  0.21142775177E+03  0.97421036653E+02 -0.87138743872E+02  0.26485118529E+03  0.91435425647E+02 0.  0.
         23    2    4    4    0    0 -0.32140250631E+03 -0.63607132250E+03 -0.12333342851E+04  0.14274035048E+04  0.92092390168E+02 0.  0.
          2    1    3    3  502    0  0.69737049606E+02  0.16860763979E+03  0.86672193900E+02  0.20199965713E+03  0.00000000000E+00 0.  1.
         -2    1    3    3    0  502  0.40237704930E+02  0.37004264606E+03  0.98026170524E+02  0.38491526718E+03  0.00000000000E+00 0. -1.
         11    1    5    5    0    0  0.10035009372E+03 -0.27265844374E+01 -0.30362915703E+02  0.10487841638E+03  0.00000000000E+00 0.  1.
        -11    1    5    5    0    0  0.11107765806E+03  0.10014762109E+03 -0.56775828169E+02  0.15997276891E+03  0.00000000000E+00 0. -1.
          4    1    6    6  503    0 -0.31535154775E+03 -0.57512844887E+03 -0.11006792020E+04  0.12812938918E+04  0.00000000000E+00 0. -1.
         -4    1    6    6    0  503 -0.60509585563E+01 -0.60942873630E+02 -0.13265508313E+03  0.14610961305E+03  0.00000000000E+00 0.  1.
<mgrwt>
<rscale>  0 0.19760137E+04</rscale>
<asrwt>0</asrwt>
<pdfrwt beam="1">  1        1 0.87953459E-01 0.19760137E+04</pdfrwt>
<pdfrwt beam="2">  1       -1 0.26268802E+00 0.19760137E+04</pdfrwt>
<totfact> 0.19672805E+00</totfact>
</mgrwt>
</event>
<event>
12    2  0.3552864E-008  0.1717543E+04  0.7818608E-02  0.8751422E-01
         -2   -1    0    0    0  501 -0.00000000000E+00  0.00000000000E+00  0.58202340436E+03  0.58202340436E+03  0.00000000000E+00 0.  1.
          2   -1    0    0  501    0  0.00000000000E+00 -0.00000000000E+00 -0.12671118077E+04  0.12671118077E+04  0.00000000000E+00 0. -1.
         23    2    1    2    0    0 -0.56745124932E+03 -0.11822493771E+03  0.25740891323E+02  0.58744648433E+03  0.91938687254E+02 0.  0.
        254    2    1    2    0    0  0.56745124932E+03  0.11822493771E+03 -0.71082929466E+03  0.12616887277E+04  0.86637295852E+03 0.  0.
         23    2    4    4    0    0  0.48526233643E+03 -0.26105584187E+03 -0.16035196659E+03  0.58094432269E+03  0.90298754925E+02 0.  0.
         23    2    4    4    0    0  0.82188912890E+02  0.37928077957E+03 -0.55047732807E+03  0.68074440503E+03  0.98887456783E+02 0.  0.
          1    1    3    3  502    0 -0.35634353388E+03 -0.51229610306E+02  0.54481175623E+02  0.36410628340E+03  0.00000000000E+00 0. -1.
         -1    1    3    3    0  502 -0.21110771544E+03 -0.66995327400E+02 -0.28740284300E+02  0.22334020093E+03  0.00000000000E+00 0.  1.
         11    1    5    5    0    0  0.33562218414E+03 -0.21906514960E+03 -0.13823557615E+03  0.42395856492E+03  0.00000000000E+00 0. -1.
        -11    1    5    5    0    0  0.14964015229E+03 -0.41990692263E+02 -0.22116390436E+02  0.15698575776E+03  0.00000000000E+00 0.  1.
          1    1    6    6  503    0  0.57792453526E+02  0.31533091910E+03 -0.38076954136E+03  0.49775395514E+03  0.00000000000E+00 0. -1.
         -1    1    6    6    0  503  0.24396459365E+02  0.63949860473E+02 -0.16970778671E+03  0.18299044990E+03  0.00000000000E+00 0.  1.
<mgrwt>
<rscale>  0 0.17175433E+04</rscale>
<asrwt>0</asrwt>
<pdfrwt beam="1">  1        2 0.19494028E+00 0.17175433E+04</pdfrwt>
<pdfrwt beam="2">  1       -2 0.89542063E-01 0.17175433E+04</pdfrwt>
<totfact> 0.17562570E+01</totfact>
</mgrwt>
</event>
<event>
12    2  0.3552864E-008  0.1690033E+04  0.7818608E-02  0.8767070E-01
          1   -1    0    0  501    0  0.00000000000E+00  0.00000000000E+00  0.11328270124E+04  0.11328270124E+04  0.00000000000E+00 0. -1.
         -1   -1    0    0    0  501 -0.00000000000E+00 -0.00000000000E+00 -0.63032802130E+03  0.63032802130E+03  0.00000000000E+00 0.  1.
         23    2    1    2    0    0  0.14527831985E+03  0.19102266467E+03 -0.39642029532E+03  0.47201777120E+03  0.89756766595E+02 0.  0.
        254    2    1    2    0    0 -0.14527831985E+03 -0.19102266467E+03  0.89891928645E+03  0.12911372625E+04  0.89520059120E+03 0.  0.
         23    2    4    4    0    0 -0.21018947426E+03  0.31753225677E+03  0.50262305127E+03  0.63706102999E+03  0.90611671884E+02 0.  0.
         23    2    4    4    0    0  0.64911154409E+02 -0.50855492144E+03  0.39629623518E+03  0.65407623253E+03  0.89013739711E+02 0.  0.
          4    1    3    3  502    0 -0.51360486249E+01  0.34621679497E+02 -0.29678800778E+02  0.45889769037E+02  0.00000000000E+00 0. -1.
         -4    1    3    3    0  502  0.15041436847E+03  0.15640098517E+03 -0.36674149455E+03  0.42612800216E+03  0.00000000000E+00 0.  1.
         11    1    5    5    0    0 -0.15292891332E+03  0.27408642566E+03  0.44694546455E+03  0.54614180351E+03  0.00000000000E+00 0. -1.
        -11    1    5    5    0    0 -0.57260560941E+02  0.43445831118E+02  0.55677586718E+02  0.90919226479E+02  0.00000000000E+00 0.  1.
          1    1    6    6  503    0  0.68645245683E+02 -0.23923707593E+03  0.16094741215E+03  0.29639604878E+03  0.00000000000E+00 0. -1.
         -1    1    6    6    0  503 -0.37340912738E+01 -0.26931784552E+03  0.23534882302E+03  0.35768018375E+03  0.00000000000E+00 0.  1.
<mgrwt>
<rscale>  0 0.16900327E+04</rscale>
<asrwt>0</asrwt>
<pdfrwt beam="1">  1        1 0.17428108E+00 0.16900327E+04</pdfrwt>
<pdfrwt beam="2">  1       -1 0.96973542E-01 0.16900327E+04</pdfrwt>
<totfact> 0.11664728E+01</totfact>
</mgrwt>
</event>
<event>
12    2  0.3552864E-008  0.1527342E+04  0.7818608E-02  0.8866472E-01
          2   -1    0    0  501    0  0.00000000000E+00  0.00000000000E+00  0.14009423952E+04  0.14009423952E+04  0.00000000000E+00 0. -1.
         -2   -1    0    0    0  501 -0.00000000000E+00 -0.00000000000E+00 -0.41628635284E+03  0.41628635284E+03  0.00000000000E+00 0.  1.
         23    2    1    2    0    0  0.24180558328E+03 -0.23487914906E+03  0.72392499353E+03  0.80379584131E+03  0.91554374468E+02 0.  0.
        254    2    1    2    0    0 -0.24180558328E+03  0.23487914906E+03  0.26073104883E+03  0.10134329067E+04  0.91947127299E+03 0.  0.
         23    2    4    4    0    0 -0.11006390839E+03 -0.85516676354E+02  0.53735610192E+03  0.56239505525E+03  0.90052496000E+02 0.  0.
         23    2    4    4    0    0 -0.13174167489E+03  0.32039582541E+03 -0.27662505309E+03  0.45103785148E+03  0.83092536558E+02 0.  0.
          1    1    3    3  502    0  0.12733726714E+03 -0.15173037423E+03  0.51202602902E+03  0.54900595667E+03  0.00000000000E+00 0. -1.
         -1    1    3    3    0  502  0.11446831613E+03 -0.83148774829E+02  0.21189896452E+03  0.25478988464E+03  0.00000000000E+00 0.  1.
         11    1    5    5    0    0 -0.15724879382E+02  0.17448448197E+02  0.12054471497E+03  0.12281184179E+03  0.00000000000E+00 0. -1.
        -11    1    5    5    0    0 -0.94339029007E+02 -0.10296512455E+03  0.41681138695E+03  0.43958321346E+03  0.00000000000E+00 0.  1.
          3    1    6    6  503    0 -0.37121648149E+02  0.30241632549E+02 -0.60084017383E+02  0.76828785266E+02  0.00000000000E+00 0. -1.
         -3    1    6    6    0  503 -0.94620026738E+02  0.29015419286E+03 -0.21654103571E+03  0.37420906622E+03  0.00000000000E+00 0.  1.
<mgrwt>
<rscale>  0 0.15273417E+04</rscale>
<asrwt>0</asrwt>
<pdfrwt beam="1">  1        2 0.21552960E+00 0.15273417E+04</pdfrwt>
<pdfrwt beam="2">  1       -2 0.64044055E-01 0.15273417E+04</pdfrwt>
<totfact> 0.31405132E+01</totfact>
</mgrwt>
</event>
<event>
12    2  0.3552864E-008  0.1985021E+04  0.7818608E-02  0.8613656E-01
         -2   -1    0    0    0  501 -0.00000000000E+00  0.00000000000E+00  0.68214377606E+03  0.68214377606E+03  0.00000000000E+00 0.  1.
          2   -1    0    0  501    0  0.00000000000E+00 -0.00000000000E+00 -0.14440899018E+04  0.14440899018E+04  0.00000000000E+00 0. -1.
         23    2    1    2    0    0  0.74838911163E+03 -0.51678059242E+02 -0.44328370789E+03  0.87620701896E+03  0.92094571858E+02 0.  0.
        254    2    1    2    0    0 -0.74838911163E+03  0.51678059242E+02 -0.31866241785E+03  0.12500266589E+04  0.94776791844E+03 0.  0.
         23    2    4    4    0    0 -0.85297671382E+03 -0.48460569306E+02 -0.50541592822E+03  0.99683773587E+03  0.91227792108E+02 0.  0.
         23    2    4    4    0    0  0.10458760219E+03  0.10013862855E+03  0.18675351037E+03  0.25318892305E+03  0.90892495081E+02 0.  0.
          3    1    3    3  502    0  0.12303953784E+03 -0.10845006773E+02 -0.11492118701E+03  0.16871046579E+03  0.00000000000E+00 0. -1.
         -3    1    3    3    0  502  0.62534957379E+03 -0.40833052469E+02 -0.32836252088E+03  0.70749655316E+03  0.00000000000E+00 0.  1.
         11    1    5    5    0    0 -0.67517044016E+03 -0.18130120632E+02 -0.43404237907E+03  0.80285528670E+03  0.00000000000E+00 0. -1.
        -11    1    5    5    0    0 -0.17780627366E+03 -0.30330448674E+02 -0.71373549146E+02  0.19398244917E+03  0.00000000000E+00 0.  1.
          4    1    6    6  503    0  0.11319143380E+03  0.59020990731E+02  0.15327700926E+03  0.19947335562E+03  0.00000000000E+00 0.  1.
         -4    1    6    6    0  503 -0.86038316171E+01  0.41117637818E+02  0.33476501104E+02  0.53715567431E+02  0.00000000000E+00 0. -1.
<mgrwt>
<rscale>  0 0.19850208E+04</rscale>
<asrwt>0</asrwt>
<pdfrwt beam="1">  1        2 0.22216767E+00 0.19850208E+04</pdfrwt>
<pdfrwt beam="2">  1       -2 0.10494520E+00 0.19850208E+04</pdfrwt>
<totfact> 0.93501525E+00</totfact>
</mgrwt>
</event>
<event>
12    2  0.3552864E-008  0.1102106E+04  0.7818608E-02  0.9203142E-01
          2   -1    0    0  501    0  0.00000000000E+00  0.00000000000E+00  0.21047004567E+04  0.21047004567E+04  0.00000000000E+00 0. -1.
         -2   -1    0    0    0  501 -0.00000000000E+00 -0.00000000000E+00 -0.14427682020E+03  0.14427682020E+03  0.00000000000E+00 0.  1.
         23    2    1    2    0    0  0.88260065420E+02 -0.93750717795E+02  0.56436932623E+03  0.58597097615E+03  0.90940707435E+02 0.  0.
        254    2    1    2    0    0 -0.88260065420E+02  0.93750717795E+02  0.13960543103E+04  0.16630063008E+04  0.89445138655E+03 0.  0.
         23    2    4    4    0    0 -0.42803653144E+03  0.15276068534E+03  0.42649502058E+03  0.62992641135E+03  0.91423092836E+02 0.  0.
         23    2    4    4    0    0  0.33977646602E+03 -0.59009967542E+02  0.96955928973E+03  0.10330798894E+04  0.90986914102E+02 0.  0.
          2    1    3    3  502    0  0.29123202338E+02  0.12056972210E+02  0.66993777040E+02  0.74038487663E+02  0.00000000000E+00 0.  1.
         -2    1    3    3    0  502  0.59136863081E+02 -0.10580769000E+03  0.49737554919E+03  0.51193248849E+03  0.00000000000E+00 0. -1.
         11    1    5    5    0    0 -0.39870603278E+03  0.11347652589E+03  0.38305259670E+03  0.56442246088E+03  0.00000000000E+00 0.  1.
        -11    1    5    5    0    0 -0.29330498658E+02  0.39284159442E+02  0.43442423878E+02  0.65503950469E+02  0.00000000000E+00 0. -1.
          3    1    6    6  503    0  0.11949895711E+02 -0.37868062287E+01  0.12217164527E+03  0.12281307266E+03  0.00000000000E+00 0. -1.
         -3    1    6    6    0  503  0.32782657031E+03 -0.55223161313E+02  0.84738764446E+03  0.91026681678E+03  0.00000000000E+00 0.  1.
<mgrwt>
<rscale>  0 0.11021061E+04</rscale>
<asrwt>0</asrwt>
<pdfrwt beam="1">  1        2 0.32380005E+00 0.11021061E+04</pdfrwt>
<pdfrwt beam="2">  1       -2 0.22196435E-01 0.11021061E+04</pdfrwt>
<totfact> 0.10337339E+02</totfact>
</mgrwt>
</event>
<event>
12    2  0.3552864E-008  0.2032507E+04  0.7818608E-02  0.8591572E-01
         -1   -1    0    0    0  501 -0.00000000000E+00  0.00000000000E+00  0.53584233025E+03  0.53584233025E+03  0.00000000000E+00 0.  1.
          1   -1    0    0  501    0  0.00000000000E+00 -0.00000000000E+00 -0.19273783862E+04  0.19273783862E+04  0.00000000000E+00 0. -1.
         23    2    1    2    0    0  0.23768358777E+03  0.75101063993E+03 -0.80629109009E+03  0.11308295654E+04  0.90331140237E+02 0.  0.
        254    2    1    2    0    0 -0.23768358777E+03 -0.75101063993E+03 -0.58524496588E+03  0.13323911510E+04  0.90124582668E+03 0.  0.
         23    2    4    4    0    0  0.15468193490E+03 -0.19876180200E+03 -0.59052345390E+03  0.64867429382E+03  0.92885062996E+02 0.  0.
         23    2    4    4    0    0 -0.39236552268E+03 -0.55224883793E+03  0.52784880252E+01  0.68371685723E+03  0.92257227587E+02 0.  0.
          3    1    3    3  502    0  0.72413194195E+02  0.35203143977E+03 -0.40247041093E+03  0.53958524531E+03  0.00000000000E+00 0. -1.
         -3    1    3    3    0  502  0.16527039358E+03  0.39897920015E+03 -0.40382067916E+03  0.59124432011E+03  0.00000000000E+00 0.  1.
         11    1    5    5    0    0  0.23354852833E+02 -0.61289607864E+02 -0.25222565888E+03  0.26061398308E+03  0.00000000000E+00 0. -1.
        -11    1    5    5    0    0  0.13132708207E+03 -0.13747219414E+03 -0.33829779503E+03  0.38806031073E+03  0.00000000000E+00 0.  1.
          3    1    6    6  503    0 -0.26411397057E+03 -0.42927633067E+03 -0.19047091732E+02  0.50437798249E+03  0.00000000000E+00 0. -1.
         -3    1    6    6    0  503 -0.12825155211E+03 -0.12297250726E+03  0.24325579757E+02  0.17933887474E+03  0.00000000000E+00 0.  1.
<mgrwt>
<rscale>  0 0.20325068E+04</rscale>
<asrwt>0</asrwt>
<pdfrwt beam="1">  1        1 0.29651975E+00 0.20325068E+04</pdfrwt>
<pdfrwt beam="2">  1       -1 0.82437282E-01 0.20325068E+04</pdfrwt>
<totfact> 0.45165097E+00</totfact>
</mgrwt>
</event>
<event>
12    2  0.3552864E-008  0.2561357E+04  0.7818608E-02  0.8381447E-01
          2   -1    0    0  501    0  0.00000000000E+00  0.00000000000E+00  0.26322144475E+04  0.26322144475E+04  0.00000000000E+00 0. -1.
         -2   -1    0    0    0  501 -0.00000000000E+00 -0.00000000000E+00 -0.62310153409E+03  0.62310153409E+03  0.00000000000E+00 0.  1.
         23    2    1    2    0    0 -0.30722902414E+03  0.89047494336E+03  0.16460838445E+04  0.18991881737E+04  0.99941971691E+02 0.  0.
        254    2    1    2    0    0  0.30722902414E+03 -0.89047494336E+03  0.36302906887E+03  0.13561278079E+04  0.90551489692E+03 0.  0.
         23    2    4    4    0    0 -0.20027273478E+03 -0.21012279112E+03  0.39870110352E+03  0.50171721924E+03  0.92178318951E+02 0.  0.
         23    2    4    4    0    0  0.50750175892E+03 -0.68035215225E+03 -0.35672034653E+02  0.85441058869E+03  0.91147537688E+02 0.  0.
          2    1    3    3  502    0 -0.29909223873E+03  0.83578982885E+03  0.14999183400E+04  0.17429158993E+04  0.00000000000E+00 0. -1.
         -2    1    3    3    0  502 -0.81367854073E+01  0.54685114516E+02  0.14616550453E+03  0.15627227438E+03  0.00000000000E+00 0.  1.
         11    1    5    5    0    0  0.84295035612E+01 -0.68058817107E+01  0.50147423747E+01  0.11938349854E+02  0.00000000000E+00 0. -1.
        -11    1    5    5    0    0 -0.20870223835E+03 -0.20331690941E+03  0.39368636115E+03  0.48977886939E+03  0.00000000000E+00 0.  1.
          4    1    6    6  503    0  0.47013513089E+03 -0.58660290298E+03 -0.44745935177E+02  0.75308180551E+03  0.00000000000E+00 0.  1.
         -4    1    6    6    0  503  0.37366628035E+02 -0.93749249265E+02  0.90739005239E+01  0.10132878317E+03  0.00000000000E+00 0. -1.
<mgrwt>
<rscale>  0 0.25613566E+04</rscale>
<asrwt>0</asrwt>
<pdfrwt beam="1">  1        2 0.40495606E+00 0.25613566E+04</pdfrwt>
<pdfrwt beam="2">  1       -2 0.95861776E-01 0.25613566E+04</pdfrwt>
<totfact> 0.23584272E+00</totfact>
</mgrwt>
</event>
<event>
12    2  0.3552864E-008  0.1723398E+04  0.7818608E-02  0.8748131E-01
         -2   -1    0    0    0  501 -0.00000000000E+00  0.00000000000E+00  0.45908572941E+03  0.45908572941E+03  0.00000000000E+00 0. -1.
          2   -1    0    0  501    0  0.00000000000E+00 -0.00000000000E+00 -0.16174004621E+04  0.16174004621E+04  0.00000000000E+00 0.  1.
         23    2    1    2    0    0  0.31092985621E+03 -0.14954855860E+03 -0.10496675384E+04  0.11081833229E+04  0.85006994717E+02 0.  0.
        254    2    1    2    0    0 -0.31092985621E+03  0.14954855860E+03 -0.10864719434E+03  0.96830286864E+03  0.89820047078E+03 0.  0.
         23    2    4    4    0    0 -0.76477749587E+02 -0.31679108820E+03  0.16007979774E+03  0.37451933846E+03  0.91835469656E+02 0.  0.
         23    2    4    4    0    0 -0.23445210663E+03  0.46633964680E+03 -0.26872699208E+03  0.59378353018E+03  0.89018132746E+02 0.  0.
          1    1    3    3  502    0  0.59111756423E+02 -0.18789915920E+02 -0.30601509320E+03  0.31223788680E+03  0.00000000000E+00 0. -1.
         -1    1    3    3    0  502  0.25181809979E+03 -0.13075864268E+03 -0.74365244518E+03  0.79594543609E+03  0.00000000000E+00 0.  1.
         11    1    5    5    0    0 -0.48210364060E+02 -0.13530757277E+03  0.23310317241E+02  0.14551889685E+03  0.00000000000E+00 0. -1.
        -11    1    5    5    0    0 -0.28267385527E+02 -0.18148351544E+03  0.13676948050E+03  0.22900044161E+03  0.00000000000E+00 0.  1.
          4    1    6    6  503    0 -0.15457106849E+02  0.43405124063E+02  0.16773828268E+01  0.46105754090E+02  0.00000000000E+00 0. -1.
         -4    1    6    6    0  503 -0.21899499978E+03  0.42293452274E+03 -0.27040437491E+03  0.54767777609E+03  0.00000000000E+00 0.  1.
<mgrwt>
<rscale>  0 0.17233984E+04</rscale>
<asrwt>0</asrwt>
<pdfrwt beam="1">  1        2 0.24883084E+00 0.17233984E+04</pdfrwt>
<pdfrwt beam="2">  1       -2 0.70628573E-01 0.17233984E+04</pdfrwt>
<totfact> 0.18878650E+01</totfact>
</mgrwt>
</event>
<event>
12    2  0.3552864E-008  0.2035018E+04  0.7818608E-02  0.8590422E-01
          2   -1    0    0  501    0  0.00000000000E+00  0.00000000000E+00  0.12035052313E+04  0.12035052313E+04  0.00000000000E+00 0. -1.
         -2   -1    0    0    0  501 -0.00000000000E+00 -0.00000000000E+00 -0.86025732706E+03  0.86025732706E+03  0.00000000000E+00 0.  1.
         23    2    1    2    0    0  0.69008183193E+03  0.18230343710E+03  0.54477952140E+03  0.90255931859E+03  0.91548449978E+02 0.  0.
        254    2    1    2    0    0 -0.69008183193E+03 -0.18230343710E+03 -0.20153161716E+03  0.11612032398E+04  0.89349342102E+03 0.  0.
         23    2    4    4    0    0 -0.36783972291E+03  0.18088525430E+03  0.25324759494E+03  0.48963267302E+03  0.87064764221E+02 0.  0.
         23    2    4    4    0    0 -0.32224210903E+03 -0.36318869140E+03 -0.45477921210E+03  0.67157056675E+03  0.91852555664E+02 0.  0.
          4    1    3    3  502    0  0.38285859796E+03  0.69981044440E+02  0.33872147114E+03  0.51595570316E+03  0.00000000000E+00 0.  1.
         -4    1    3    3    0  502  0.30722323398E+03  0.11232239265E+03  0.20605805026E+03  0.38660361543E+03  0.00000000000E+00 0. -1.
         11    1    5    5    0    0 -0.19696980269E+03  0.55467964991E+02  0.97912211605E+02  0.22684928806E+03  0.00000000000E+00 0.  1.
        -11    1    5    5    0    0 -0.17086992022E+03  0.12541728931E+03  0.15533538334E+03  0.26278338496E+03  0.00000000000E+00 0. -1.
          4    1    6    6  503    0 -0.28467988726E+02 -0.61192869025E+02 -0.31951382557E+02  0.74671845088E+02  0.00000000000E+00 0. -1.
         -4    1    6    6    0  503 -0.29377412030E+03 -0.30199582237E+03 -0.42282782955E+03  0.59689872167E+03  0.00000000000E+00 0.  1.
<mgrwt>
<rscale>  0 0.20350176E+04</rscale>
<asrwt>0</asrwt>
<pdfrwt beam="1">  1        2 0.18515465E+00 0.20350176E+04</pdfrwt>
<pdfrwt beam="2">  1       -2 0.13234728E+00 0.20350176E+04</pdfrwt>
<totfact> 0.72481183E+00</totfact>
</mgrwt>
</event>
<event>
12    2  0.3552864E-008  0.1364629E+04  0.7818608E-02  0.8979828E-01
          2   -1    0    0  501    0  0.00000000000E+00  0.00000000000E+00  0.17734516796E+04  0.17734516796E+04  0.00000000000E+00 0. -1.
         -2   -1    0    0    0  501 -0.00000000000E+00 -0.00000000000E+00 -0.26251229770E+03  0.26251229770E+03  0.00000000000E+00 0.  1.
         23    2    1    2    0    0  0.18854242350E+03 -0.19226642241E+03  0.14364540943E+03  0.31849612946E+03  0.91055797107E+02 0.  0.
        254    2    1    2    0    0 -0.18854242350E+03  0.19226642241E+03  0.13672939724E+04  0.17174678478E+04  0.10038368286E+04 0.  0.
         23    2    4    4    0    0 -0.58891516369E+03  0.19749370977E+03  0.79945220613E+03  0.10166626578E+04  0.93028460398E+02 0.  0.
         23    2    4    4    0    0  0.40037274019E+03 -0.52272873611E+01  0.56784176631E+03  0.70080519000E+03  0.91422027677E+02 0.  0.
          1    1    3    3  502    0  0.48059669558E+02 -0.70564402510E+02  0.92162057638E+02  0.12563005854E+03  0.00000000000E+00 0. -1.
         -1    1    3    3    0  502  0.14048275394E+03 -0.12170201990E+03  0.51483351792E+02  0.19286607093E+03  0.00000000000E+00 0.  1.
         11    1    5    5    0    0 -0.21013545548E+03  0.11701135898E+03  0.29055454056E+03  0.37718763079E+03  0.00000000000E+00 0. -1.
        -11    1    5    5    0    0 -0.37877970821E+03  0.80482350791E+02  0.50889766557E+03  0.63947502701E+03  0.00000000000E+00 0.  1.
          3    1    6    6  503    0  0.10003847510E+03  0.34091053870E+02  0.17953411314E+03  0.20833241283E+03  0.00000000000E+00 0. -1.
         -3    1    6    6    0  503  0.30033426509E+03 -0.39318341232E+02  0.38830765318E+03  0.49247277718E+03  0.00000000000E+00 0.  1.
<mgrwt>
<rscale>  0 0.13646287E+04</rscale>
<asrwt>0</asrwt>
<pdfrwt beam="1">  1        2 0.27283871E+00 0.13646287E+04</pdfrwt>
<pdfrwt beam="2">  1       -2 0.40386509E-01 0.13646287E+04</pdfrwt>
<totfact> 0.50552622E+01</totfact>
</mgrwt>
</event>
<event>
12    2  0.3552864E-008  0.3053379E+04  0.7818608E-02  0.8228650E-01
         -2   -1    0    0    0  501 -0.00000000000E+00  0.00000000000E+00  0.73764218571E+03  0.73764218571E+03  0.00000000000E+00 0.  1.
          2   -1    0    0  501    0  0.00000000000E+00 -0.00000000000E+00 -0.31597722719E+04  0.31597722719E+04  0.00000000000E+00 0. -1.
         23    2    1    2    0    0  0.77033021034E+03 -0.58568241381E+03 -0.23762305029E+04  0.25673074466E+04  0.90352639864E+02 0.  0.
        254    2    1    2    0    0 -0.77033021034E+03  0.58568241381E+03 -0.45899583261E+02  0.13301070110E+04  0.91139747979E+03 0.  0.
         23    2    4    4    0    0 -0.17614206044E+03 -0.17394675073E+03  0.19963690433E+03  0.33065467336E+03  0.90521389191E+02 0.  0.
         23    2    4    4    0    0 -0.59418814990E+03  0.75962916454E+03 -0.24553648759E+03  0.99945233764E+03  0.92308089492E+02 0.  0.
          3    1    3    3  502    0  0.76877188161E+03 -0.57342397426E+03 -0.23539196547E+04  0.25418031004E+04  0.00000000000E+00 0. -1.
         -3    1    3    3    0  502  0.15583287320E+01 -0.12258439554E+02 -0.22310848212E+02  0.25504346231E+02  0.00000000000E+00 0.  1.
         11    1    5    5    0    0 -0.70920936775E+01 -0.32770060013E+02  0.20087648343E+00  0.33529315194E+02  0.00000000000E+00 0.  1.
        -11    1    5    5    0    0 -0.16904996676E+03 -0.14117669071E+03  0.19943602785E+03  0.29712535817E+03  0.00000000000E+00 0. -1.
          4    1    6    6  503    0 -0.24176886244E+03  0.23864713374E+03 -0.93783872819E+02  0.35242027764E+03  0.00000000000E+00 0. -1.
         -4    1    6    6    0  503 -0.35241928746E+03  0.52098203080E+03 -0.15175261477E+03  0.64703206001E+03  0.00000000000E+00 0.  1.
<mgrwt>
<rscale>  0 0.30533793E+04</rscale>
<asrwt>0</asrwt>
<pdfrwt beam="1">  1        2 0.48611881E+00 0.30533793E+04</pdfrwt>
<pdfrwt beam="2">  1       -2 0.11348341E+00 0.30533793E+04</pdfrwt>
<totfact> 0.71439263E-01</totfact>
</mgrwt>
</event>
<event>
12    2  0.3552864E-008  0.1192251E+04  0.7818608E-02  0.9119666E-01
         -1   -1    0    0    0  501 -0.00000000000E+00  0.00000000000E+00  0.49043708169E+03  0.49043708169E+03  0.00000000000E+00 0.  1.
          1   -1    0    0  501    0  0.00000000000E+00 -0.00000000000E+00 -0.72458987899E+03  0.72458987899E+03  0.00000000000E+00 0. -1.
         23    2    1    2    0    0 -0.18073406444E+02  0.12506581048E+03 -0.25031375485E+03  0.29622683024E+03  0.95526195975E+02 0.  0.
        254    2    1    2    0    0  0.18073406444E+02 -0.12506581048E+03  0.16160957552E+02  0.91880013044E+03  0.90992549045E+03 0.  0.
         23    2    4    4    0    0  0.65342765820E+02  0.25190953564E+03  0.32009619302E+03  0.42209849218E+03  0.89316701243E+02 0.  0.
         23    2    4    4    0    0 -0.47269359377E+02 -0.37697534613E+03 -0.30393523547E+03  0.49670163826E+03  0.99955420875E+02 0.  0.
          3    1    3    3  502    0  0.36359285993E+01  0.31965584294E+02 -0.16496617919E+03  0.16807396833E+03  0.00000000000E+00 0. -1.
         -3    1    3    3    0  502 -0.21709335043E+02  0.93100226187E+02 -0.85347575663E+02  0.12815286191E+03  0.00000000000E+00 0.  1.
         11    1    5    5    0    0  0.80964794237E+02  0.15705987669E+03  0.23266181590E+03  0.29215513576E+03  0.00000000000E+00 0.  1.
        -11    1    5    5    0    0 -0.15622028417E+02  0.94849658958E+02  0.87434377121E+02  0.12994335642E+03  0.00000000000E+00 0. -1.
          1    1    6    6  503    0  0.22664432166E+02 -0.24932148218E+02 -0.31104121522E+02  0.45855805258E+02  0.00000000000E+00 0. -1.
         -1    1    6    6    0  503 -0.69933791543E+02 -0.35204319791E+03 -0.27283111395E+03  0.45084583300E+03  0.00000000000E+00 0.  1.
<mgrwt>
<rscale>  0 0.11922512E+04</rscale>
<asrwt>0</asrwt>
<pdfrwt beam="1">  1        1 0.11147537E+00 0.11922512E+04</pdfrwt>
<pdfrwt beam="2">  1       -1 0.75451859E-01 0.11922512E+04</pdfrwt>
<totfact> 0.45195638E+01</totfact>
</mgrwt>
</event>
<event>
12    2  0.3552864E-008  0.2370288E+04  0.7818608E-02  0.8450712E-01
          1   -1    0    0  501    0  0.00000000000E+00  0.00000000000E+00  0.25771492268E+04  0.25771492268E+04  0.00000000000E+00 0. -1.
         -1   -1    0    0    0  501 -0.00000000000E+00 -0.00000000000E+00 -0.54500760198E+03  0.54500760198E+03  0.00000000000E+00 0.  1.
         23    2    1    2    0    0 -0.72112077082E+03  0.50224985412E+03  0.15333968987E+04  0.17696557222E+04  0.90029129645E+02 0.  0.
        254    2    1    2    0    0  0.72112077082E+03 -0.50224985412E+03  0.49874472614E+03  0.13525011066E+04  0.89902328076E+03 0.  0.
         23    2    4    4    0    0 -0.16545045136E+03  0.33552566500E+02 -0.13787037905E+02  0.19226105121E+03  0.90964843899E+02 0.  0.
         23    2    4    4    0    0  0.88657122218E+03 -0.53580242062E+03  0.51253176404E+03  0.11602400554E+04  0.10185976130E+03 0.  0.
          4    1    3    3  502    0 -0.61738075330E+03  0.42397038161E+03  0.12376215938E+04  0.14465880853E+04  0.00000000000E+00 0. -1.
         -4    1    3    3    0  502 -0.10374001752E+03  0.78279472514E+02  0.29577530494E+03  0.32306763698E+03  0.00000000000E+00 0.  1.
         11    1    5    5    0    0 -0.51095721991E+02  0.54787382399E+02  0.16316016204E+01  0.74933918887E+02  0.00000000000E+00 0.  1.
        -11    1    5    5    0    0 -0.11435472937E+03 -0.21234815898E+02 -0.15418639526E+02  0.11732713232E+03  0.00000000000E+00 0. -1.
          2    1    6    6  503    0  0.34816179583E+02 -0.58540566680E+01  0.39549477537E+01  0.35525736473E+02  0.00000000000E+00 0.  1.
         -2    1    6    6    0  503  0.85175504259E+03 -0.52994836396E+03  0.50857681629E+03  0.11247143189E+04  0.00000000000E+00 0. -1.
<mgrwt>
<rscale>  0 0.23702877E+04</rscale>
<asrwt>0</asrwt>
<pdfrwt beam="1">  1        1 0.39648449E+00 0.23702877E+04</pdfrwt>
<pdfrwt beam="2">  1       -1 0.83847325E-01 0.23702877E+04</pdfrwt>
<totfact> 0.15164426E+00</totfact>
</mgrwt>
</event>
<event>
12    2  0.3552864E-008  0.1385609E+04  0.7818608E-02  0.8964302E-01
         -2   -1    0    0    0  501 -0.00000000000E+00  0.00000000000E+00  0.91365802828E+03  0.91365802828E+03  0.00000000000E+00 0. -1.
          2   -1    0    0  501    0  0.00000000000E+00 -0.00000000000E+00 -0.52533653363E+03  0.52533653363E+03  0.00000000000E+00 0.  1.
         23    2    1    2    0    0  0.10325275511E+03 -0.37950484289E+03  0.70537189796E+02  0.41016379625E+03  0.92594748176E+02 0.  0.
        254    2    1    2    0    0 -0.10325275511E+03  0.37950484289E+03  0.31778430486E+03  0.10288307657E+04  0.89600269126E+03 0.  0.
         23    2    4    4    0    0  0.15365181020E+03 -0.31509507067E+02 -0.22833061241E+03  0.29283039776E+03  0.94937060621E+02 0.  0.
         23    2    4    4    0    0 -0.25690456531E+03  0.41101434996E+03  0.54611491727E+03  0.73600036790E+03  0.92316234417E+02 0.  0.
          3    1    3    3  502    0  0.82697748572E+02 -0.29799817781E+03  0.15415862002E+02  0.30964411894E+03  0.00000000000E+00 0. -1.
         -3    1    3    3    0  502  0.20555006540E+02 -0.81506665086E+02  0.55121327794E+02  0.10051967730E+03  0.00000000000E+00 0.  1.
         11    1    5    5    0    0  0.53843254294E+02 -0.27083593420E+01 -0.15912073836E+03  0.16800547795E+03  0.00000000000E+00 0. -1.
        -11    1    5    5    0    0  0.99808555903E+02 -0.28801147725E+02 -0.69209874046E+02  0.12482491982E+03  0.00000000000E+00 0.  1.
          4    1    6    6  503    0 -0.18839553422E+03  0.32565421236E+03  0.36376938040E+03  0.52332753172E+03  0.00000000000E+00 0. -1.
         -4    1    6    6    0  503 -0.68509031092E+02  0.85360137596E+02  0.18234553687E+03  0.21267283618E+03  0.00000000000E+00 0.  1.
<mgrwt>
<rscale>  0 0.13856088E+04</rscale>
<asrwt>0</asrwt>
<pdfrwt beam="1">  1        2 0.80821005E-01 0.13856088E+04</pdfrwt>
<pdfrwt beam="2">  1       -2 0.14056277E+00 0.13856088E+04</pdfrwt>
<totfact> 0.20112064E+01</totfact>
</mgrwt>
</event>
<event>
12    2  0.3552864E-008  0.1553883E+04  0.7818608E-02  0.8849391E-01
         -1   -1    0    0    0  501 -0.00000000000E+00  0.00000000000E+00  0.87411258728E+03  0.87411258728E+03  0.00000000000E+00 0.  1.
          1   -1    0    0  501    0  0.00000000000E+00 -0.00000000000E+00 -0.69057226016E+03  0.69057226016E+03  0.00000000000E+00 0. -1.
         23    2    1    2    0    0 -0.13000088026E+03 -0.36757648809E+03  0.34472871873E+03  0.52882344714E+03  0.93827742523E+02 0.  0.
        254    2    1    2    0    0  0.13000088026E+03  0.36757648809E+03 -0.16118839160E+03  0.10358614003E+04  0.94605202795E+03 0.  0.
         23    2    4    4    0    0  0.10912991471E+03 -0.29011674987E+03  0.73803680872E+02  0.33127490792E+03  0.90658780407E+02 0.  0.
         23    2    4    4    0    0  0.20870965553E+02  0.65769323796E+03 -0.23499207247E+03  0.70458649238E+03  0.90691006503E+02 0.  0.
          1    1    3    3  502    0 -0.52013129049E+02 -0.58038875393E+02  0.98944129053E+02  0.12595164677E+03  0.00000000000E+00 0. -1.
         -1    1    3    3    0  502 -0.77987751215E+02 -0.30953761269E+03  0.24578458968E+03  0.40287180037E+03  0.00000000000E+00 0.  1.
         11    1    5    5    0    0  0.33628707984E+02 -0.44899718679E+02 -0.17772562663E+02  0.58845039908E+02  0.00000000000E+00 0. -1.
        -11    1    5    5    0    0  0.75501206726E+02 -0.24521703119E+03  0.91576243534E+02  0.27242986801E+03  0.00000000000E+00 0.  1.
          3    1    6    6  503    0  0.23092821514E+02  0.42619851169E+03 -0.10689965429E+03  0.44000680206E+03  0.00000000000E+00 0. -1.
         -3    1    6    6    0  503 -0.22218559608E+01  0.23149472627E+03 -0.12809241818E+03  0.26457969032E+03  0.00000000000E+00 0.  1.
<mgrwt>
<rscale>  0 0.15538828E+04</rscale>
<asrwt>0</asrwt>
<pdfrwt beam="1">  1        1 0.10624189E+00 0.15538828E+04</pdfrwt>
<pdfrwt beam="2">  1       -1 0.13447886E+00 0.15538828E+04</pdfrwt>
<totfact> 0.12464456E+01</totfact>
</mgrwt>
</event>
<event>
12    2  0.3552864E-008  0.1624355E+04  0.7818608E-02  0.8805724E-01
          1   -1    0    0  501    0  0.00000000000E+00  0.00000000000E+00  0.31288242588E+04  0.31288242588E+04  0.00000000000E+00 0. -1.
         -1   -1    0    0    0  501 -0.00000000000E+00 -0.00000000000E+00 -0.21082445247E+03  0.21082445247E+03  0.00000000000E+00 0.  1.
         23    2    1    2    0    0  0.36190233059E+03  0.22399535635E+03  0.17332881076E+04  0.17877674622E+04  0.10333256188E+03 0.  0.
        254    2    1    2    0    0 -0.36190233059E+03 -0.22399535635E+03  0.11847116987E+04  0.15518812491E+04  0.90754966013E+03 0.  0.
         23    2    4    4    0    0 -0.18581724858E+03  0.30463512864E+02 -0.96707106439E+02  0.23036279604E+03  0.90877268201E+02 0.  0.
         23    2    4    4    0    0 -0.17608508200E+03 -0.25445886921E+03  0.12814188052E+04  0.13215184530E+04  0.92852545883E+02 0.  0.
          3    1    3    3  502    0  0.34983046354E+03  0.19469005816E+03  0.16653841107E+04  0.17128309339E+04  0.00000000000E+00 0. -1.
         -3    1    3    3    0  502  0.12071867048E+02  0.29305298189E+02  0.67903996936E+02  0.74936528315E+02  0.00000000000E+00 0.  1.
         11    1    5    5    0    0 -0.43805931493E+02  0.47125015603E+02 -0.16520897563E+02  0.66427906680E+02  0.00000000000E+00 0. -1.
        -11    1    5    5    0    0 -0.14201131709E+03 -0.16661502738E+02 -0.80186208875E+02  0.16393488936E+03  0.00000000000E+00 0.  1.
          3    1    6    6  503    0 -0.10064150767E+03 -0.10115316745E+03  0.42787210548E+03  0.45103793078E+03  0.00000000000E+00 0. -1.
         -3    1    6    6    0  503 -0.75443574331E+02 -0.15330570176E+03  0.85354669967E+03  0.87048052225E+03  0.00000000000E+00 0.  1.
<mgrwt>
<rscale>  0 0.16243555E+04</rscale>
<asrwt>0</asrwt>
<pdfrwt beam="1">  1        1 0.48135755E+00 0.16243555E+04</pdfrwt>
<pdfrwt beam="2">  1       -1 0.32434533E-01 0.16243555E+04</pdfrwt>
<totfact> 0.41132930E+00</totfact>
</mgrwt>
</event>
<event>
12    2  0.3552864E-008  0.2961060E+04  0.7818608E-02  0.8254939E-01
         -2   -1    0    0    0  501 -0.00000000000E+00  0.00000000000E+00  0.65341878357E+03  0.65341878357E+03  0.00000000000E+00 0.  1.
          2   -1    0    0  501    0  0.00000000000E+00 -0.00000000000E+00 -0.33546150160E+04  0.33546150160E+04  0.00000000000E+00 0. -1.
         23    2    1    2    0    0  0.51528277068E+03  0.93188140856E+03 -0.12369109816E+03  0.10761540775E+04  0.94280525034E+02 0.  0.
        254    2    1    2    0    0 -0.51528277068E+03 -0.93188140856E+03 -0.25775051343E+04  0.29318797221E+04  0.90469149112E+03 0.  0.
         23    2    4    4    0    0  0.13739325112E+03 -0.57860942511E+03 -0.78599121256E+03  0.99063721734E+03  0.99569763784E+02 0.  0.
         23    2    4    4    0    0 -0.65267602180E+03 -0.35327198345E+03 -0.17915139217E+04  0.19412425047E+04  0.90073563255E+02 0.  0.
          3    1    3    3  502    0  0.42378941201E+03  0.70515054108E+03 -0.68789592554E+02  0.82557056595E+03  0.00000000000E+00 0. -1.
         -3    1    3    3    0  502  0.91493358668E+02  0.22673086748E+03 -0.54901505607E+02  0.25058351156E+03  0.00000000000E+00 0.  1.
         11    1    5    5    0    0  0.37657973976E+02 -0.30894510106E+03 -0.34984055256E+03  0.46824524631E+03  0.00000000000E+00 0. -1.
        -11    1    5    5    0    0  0.99735277141E+02 -0.26966432405E+03 -0.43615066001E+03  0.52239197103E+03  0.00000000000E+00 0.  1.
          1    1    6    6  503    0 -0.13949896802E+03 -0.76701208969E+02 -0.48800872011E+03  0.51331817466E+03  0.00000000000E+00 0. -1.
         -1    1    6    6    0  503 -0.51317705377E+03 -0.27657077448E+03 -0.13035052016E+04  0.14279243301E+04  0.00000000000E+00 0.  1.
<mgrwt>
<rscale>  0 0.29610596E+04</rscale>
<asrwt>0</asrwt>
<pdfrwt beam="1">  1        2 0.51609461E+00 0.29610596E+04</pdfrwt>
<pdfrwt beam="2">  1       -2 0.10052597E+00 0.29610596E+04</pdfrwt>
<totfact> 0.71658968E-01</totfact>
</mgrwt>
</event>
<event>
12    2  0.3552864E-008  0.1758665E+04  0.7818608E-02  0.8728595E-01
          3   -1    0    0  501    0  0.00000000000E+00  0.00000000000E+00  0.10805691527E+04  0.10805691527E+04  0.00000000000E+00 0. -1.
         -3   -1    0    0    0  501 -0.00000000000E+00 -0.00000000000E+00 -0.71557296435E+03  0.71557296435E+03  0.00000000000E+00 0.  1.
         23    2    1    2    0    0 -0.40424536752E+03 -0.22000227184E+03  0.59841905085E+03  0.76146760542E+03  0.99560217467E+02 0.  0.
        254    2    1    2    0    0  0.40424536752E+03  0.22000227184E+03 -0.23342286250E+03  0.10346745116E+04  0.89679975216E+03 0.  0.
         23    2    4    4    0    0  0.60061168921E+03  0.27261298490E+03  0.57520549127E+02  0.66826011440E+03  0.90613057476E+02 0.  0.
         23    2    4    4    0    0 -0.19636632169E+03 -0.52610713051E+02 -0.29094341163E+03  0.36641439722E+03  0.91015505799E+02 0.  0.
          2    1    3    3  502    0 -0.37289403009E+03 -0.19571270502E+03  0.49046511227E+03  0.64645916107E+03  0.00000000000E+00 0. -1.
         -2    1    3    3    0  502 -0.31351337430E+02 -0.24289566828E+02  0.10795393858E+03  0.11500844435E+03  0.00000000000E+00 0.  1.
         11    1    5    5    0    0  0.90583922085E+02  0.72832640721E+02 -0.84644835586E+01  0.11654049930E+03  0.00000000000E+00 0. -1.
        -11    1    5    5    0    0  0.51002776712E+03  0.19978034417E+03  0.65985032685E+02  0.55171961511E+03  0.00000000000E+00 0.  1.
          4    1    6    6  503    0 -0.59121582861E+02 -0.60758301739E+02 -0.12272705230E+03  0.14916052479E+03  0.00000000000E+00 0.  1.
         -4    1    6    6    0  503 -0.13724473882E+03  0.81475886878E+01 -0.16821635933E+03  0.21725387242E+03  0.00000000000E+00 0. -1.
<mgrwt>
<rscale>  0 0.17586655E+04</rscale>
<asrwt>0</asrwt>
<pdfrwt beam="1">  1        3 0.16624141E+00 0.17586655E+04</pdfrwt>
<pdfrwt beam="2">  1       -3 0.11008815E+00 0.17586655E+04</pdfrwt>
<totfact> 0.42543606E-01</totfact>
</mgrwt>
</event>
<event>
12    2  0.3552864E-008  0.2127348E+04  0.7818608E-02  0.8549291E-01
          1   -1    0    0  501    0  0.00000000000E+00  0.00000000000E+00  0.83672093503E+03  0.83672093503E+03  0.00000000000E+00 0.  1.
         -1   -1    0    0    0  501 -0.00000000000E+00 -0.00000000000E+00 -0.13521856696E+04  0.13521856696E+04  0.00000000000E+00 0. -1.
         23    2    1    2    0    0  0.46323367629E+02 -0.55708899610E+02  0.67410938772E+03  0.68440753650E+03  0.93492638850E+02 0.  0.
        254    2    1    2    0    0 -0.46323367629E+02  0.55708899610E+02 -0.11895741223E+04  0.15044990681E+04  0.91824915881E+03 0.  0.
         23    2    4    4    0    0 -0.38878568580E+03 -0.81445610518E+02 -0.99950664795E+03  0.10795416336E+04  0.92784170739E+02 0.  0.
         23    2    4    4    0    0  0.34246231817E+03  0.13715451013E+03 -0.19006747431E+03  0.42495743453E+03  0.91495231354E+02 0.  0.
          4    1    3    3  502    0 -0.14731612262E+02 -0.48588030990E+02  0.20062335507E+03  0.20694817650E+03  0.00000000000E+00 0. -1.
         -4    1    3    3    0  502  0.61054979892E+02 -0.71208686203E+01  0.47348603265E+03  0.47745936000E+03  0.00000000000E+00 0.  1.
         11    1    5    5    0    0 -0.35899331459E+03 -0.86088382004E+02 -0.84505311764E+03  0.92217253325E+03  0.00000000000E+00 0. -1.
        -11    1    5    5    0    0 -0.29792371207E+02  0.46427714860E+01 -0.15445353030E+03  0.15736910031E+03  0.00000000000E+00 0.  1.
          3    1    6    6  503    0  0.17115369846E+03  0.90143505494E+02 -0.14481583994E+03  0.24164243745E+03  0.00000000000E+00 0.  1.
         -3    1    6    6    0  503  0.17130861971E+03  0.47011004634E+02 -0.45251634378E+02  0.18331499709E+03  0.00000000000E+00 0. -1.
<mgrwt>
<rscale>  0 0.21273477E+04</rscale>
<asrwt>0</asrwt>
<pdfrwt beam="1">  1        1 0.12872630E+00 0.21273477E+04</pdfrwt>
<pdfrwt beam="2">  1       -1 0.20802856E+00 0.21273477E+04</pdfrwt>
<totfact> 0.25002053E+00</totfact>
</mgrwt>
</event>
<event>
12    2  0.3552864E-008  0.1706272E+04  0.7818608E-02  0.8757795E-01
          2   -1    0    0  501    0  0.00000000000E+00  0.00000000000E+00  0.32370762812E+03  0.32370762812E+03  0.00000000000E+00 0.  1.
         -2   -1    0    0    0  501 -0.00000000000E+00 -0.00000000000E+00 -0.22484510980E+04  0.22484510980E+04  0.00000000000E+00 0. -1.
         23    2    1    2    0    0  0.11621329267E+03 -0.34316769646E+03  0.45033803747E+02  0.37646672613E+03  0.91812608695E+02 0.  0.
        254    2    1    2    0    0 -0.11621329267E+03  0.34316769646E+03 -0.19697772736E+04  0.21956920000E+04  0.89987290984E+03 0.  0.
         23    2    4    4    0    0 -0.79784275292E+02  0.68014066073E+02  0.55536843561E+02  0.14929162977E+03  0.90621222460E+02 0.  0.
         23    2    4    4    0    0 -0.36429017374E+02  0.27515363039E+03 -0.20253141172E+04  0.20464003702E+04  0.93918093819E+02 0.  0.
          4    1    3    3  502    0  0.25350111888E+01 -0.15923723304E+02 -0.18201194129E+02  0.24316141004E+02  0.00000000000E+00 0. -1.
         -4    1    3    3    0  502  0.11367828148E+03 -0.32724397316E+03  0.63234997877E+02  0.35215058513E+03  0.00000000000E+00 0.  1.
         11    1    5    5    0    0 -0.47832457829E+02  0.50541012209E+02  0.79533954218E+02  0.10567870084E+03  0.00000000000E+00 0. -1.
        -11    1    5    5    0    0 -0.31951817463E+02  0.17473053864E+02 -0.23997110657E+02  0.43612928937E+02  0.00000000000E+00 0.  1.
          2    1    6    6  503    0  0.11300194585E+02  0.14835534816E+03 -0.80939828602E+03  0.82295965220E+03  0.00000000000E+00 0. -1.
         -2    1    6    6    0  503 -0.47729211959E+02  0.12679828223E+03 -0.12159158311E+04  0.12234407180E+04  0.00000000000E+00 0.  1.
<mgrwt>
<rscale>  0 0.17062717E+04</rscale>
<asrwt>0</asrwt>
<pdfrwt beam="1">  1        2 0.49801173E-01 0.17062717E+04</pdfrwt>
<pdfrwt beam="2">  1       -2 0.34591555E+00 0.17062717E+04</pdfrwt>
<totfact> 0.15903589E+00</totfact>
</mgrwt>
</event>
<event>
12    2  0.3552864E-008  0.1794981E+04  0.7818608E-02  0.8708973E-01
         -2   -1    0    0    0  501 -0.00000000000E+00  0.00000000000E+00  0.34063642880E+03  0.34063642880E+03  0.00000000000E+00 0.  1.
          2   -1    0    0  501    0  0.00000000000E+00 -0.00000000000E+00 -0.23646608849E+04  0.23646608849E+04  0.00000000000E+00 0. -1.
         23    2    1    2    0    0  0.14279375662E+03  0.64741752643E+01 -0.17703975864E+04  0.17785053650E+04  0.91333167883E+02 0.  0.
        254    2    1    2    0    0 -0.14279375662E+03 -0.64741752643E+01 -0.25362686970E+03  0.92679194869E+03  0.87987769335E+03 0.  0.
         23    2    4    4    0    0 -0.34523070618E+03 -0.32490250557E+03 -0.23370310246E+03  0.53808770391E+03  0.10087298146E+03 0.  0.
         23    2    4    4    0    0  0.20243694956E+03  0.31842833030E+03 -0.19923767241E+02  0.38870424479E+03  0.91196015959E+02 0.  0.
          2    1    3    3  502    0  0.92609028137E+02 -0.92951283686E+01 -0.15089775951E+04  0.15118453009E+04  0.00000000000E+00 0. -1.
         -2    1    3    3    0  502  0.50184728479E+02  0.15769303633E+02 -0.26141999130E+03  0.26666006406E+03  0.00000000000E+00 0.  1.
         11    1    5    5    0    0 -0.14650161759E+03 -0.18722845963E+03 -0.15517299854E+03  0.28389413437E+03  0.00000000000E+00 0. -1.
        -11    1    5    5    0    0 -0.19872908859E+03 -0.13767404594E+03 -0.78530103918E+02  0.25419356954E+03  0.00000000000E+00 0.  1.
          3    1    6    6  503    0  0.26454666790E+02  0.98805806179E+02  0.20688494868E+02  0.10435732150E+03  0.00000000000E+00 0. -1.
         -3    1    6    6    0  503  0.17598228277E+03  0.21962252412E+03 -0.40612262109E+02  0.28434692329E+03  0.00000000000E+00 0.  1.
<mgrwt>
<rscale>  0 0.17949815E+04</rscale>
<asrwt>0</asrwt>
<pdfrwt beam="1">  1        2 0.36379397E+00 0.17949815E+04</pdfrwt>
<pdfrwt beam="2">  1       -2 0.52405606E-01 0.17949815E+04</pdfrwt>
<totfact> 0.13527151E+01</totfact>
</mgrwt>
</event>
<event>
12    2  0.3552864E-008  0.3399327E+04  0.7818608E-02  0.8138072E-01
         -2   -1    0    0    0  501 -0.00000000000E+00  0.00000000000E+00  0.15387057619E+04  0.15387057619E+04  0.00000000000E+00 0. -1.
          2   -1    0    0  501    0  0.00000000000E+00 -0.00000000000E+00 -0.18774582882E+04  0.18774582882E+04  0.00000000000E+00 0.  1.
         23    2    1    2    0    0  0.13102088833E+04 -0.24229656945E+03  0.70260432324E+03  0.15093475499E+04  0.95510447975E+02 0.  0.
        254    2    1    2    0    0 -0.13102088833E+04  0.24229656945E+03 -0.10413568495E+04  0.19068165002E+04  0.88100518258E+03 0.  0.
         23    2    4    4    0    0  0.54424628632E+02 -0.13028459457E+03 -0.18873293308E+03  0.25271550088E+03  0.91153105099E+02 0.  0.
         23    2    4    4    0    0 -0.13646335120E+04  0.37258116402E+03 -0.85262391645E+03  0.16541009993E+04  0.89672890026E+02 0.  0.
          1    1    3    3  502    0  0.91269664173E+03 -0.13823615456E+03  0.44934159180E+03  0.10266607328E+04  0.00000000000E+00 0. -1.
         -1    1    3    3    0  502  0.39751224162E+03 -0.10406041489E+03  0.25326273144E+03  0.48268681702E+03  0.00000000000E+00 0.  1.
         11    1    5    5    0    0  0.19718299896E+02 -0.66027035630E+02 -0.16004961169E+03  0.17425343322E+03  0.00000000000E+00 0. -1.
        -11    1    5    5    0    0  0.34706328736E+02 -0.64257558943E+02 -0.28683321389E+02  0.78462067660E+02  0.00000000000E+00 0.  1.
          4    1    6    6  503    0 -0.12957055112E+04  0.35739475022E+03 -0.78599979286E+03  0.15570418921E+04  0.00000000000E+00 0. -1.
         -4    1    6    6    0  503 -0.68928000740E+02  0.15186413809E+02 -0.66624123589E+02  0.97059107220E+02  0.00000000000E+00 0.  1.
<mgrwt>
<rscale>  0 0.33993269E+04</rscale>
<asrwt>0</asrwt>
<pdfrwt beam="1">  1        2 0.28883974E+00 0.33993269E+04</pdfrwt>
<pdfrwt beam="2">  1       -2 0.23672396E+00 0.33993269E+04</pdfrwt>
<totfact> 0.50265667E-01</totfact>
</mgrwt>
</event>
<event>
12    2  0.3552864E-008  0.1837264E+04  0.7818608E-02  0.8686730E-01
          2   -1    0    0  501    0  0.00000000000E+00  0.00000000000E+00  0.25079376853E+04  0.25079376853E+04  0.00000000000E+00 0. -1.
         -2   -1    0    0    0  501 -0.00000000000E+00 -0.00000000000E+00 -0.33648545749E+03  0.33648545749E+03  0.00000000000E+00 0.  1.
         23    2    1    2    0    0  0.20050061508E+02 -0.64690648036E+03  0.12051716967E+04  0.13709961657E+04  0.91113491725E+02 0.  0.
        254    2    1    2    0    0 -0.20050061508E+02  0.64690648036E+03  0.96628053105E+03  0.14734269771E+04  0.90465407358E+03 0.  0.
         23    2    4    4    0    0  0.25671758322E+03  0.74967961761E+03  0.62689997940E+03  0.10144000009E+04  0.89890662228E+02 0.  0.
         23    2    4    4    0    0 -0.27676764472E+03 -0.10277313725E+03  0.33938055165E+03  0.45902697615E+03  0.91454683271E+02 0.  0.
          1    1    3    3  502    0  0.37558535702E+02 -0.59050530375E+03  0.11285411250E+04  0.12742496727E+04  0.00000000000E+00 0. -1.
         -1    1    3    3    0  502 -0.17508474194E+02 -0.56401176617E+02  0.76630571677E+02  0.96746493000E+02  0.00000000000E+00 0.  1.
         11    1    5    5    0    0  0.39993440385E+02  0.21572314075E+03  0.14274553646E+03  0.26174842293E+03  0.00000000000E+00 0. -1.
        -11    1    5    5    0    0  0.21672414283E+03  0.53395647686E+03  0.48415444295E+03  0.75265157802E+03  0.00000000000E+00 0.  1.
          2    1    6    6  503    0 -0.22471328648E+03 -0.10526053235E+03  0.31632375354E+03  0.40204049280E+03  0.00000000000E+00 0. -1.
         -2    1    6    6    0  503 -0.52054358241E+02  0.24873951002E+01  0.23056798102E+02  0.56986483354E+02  0.00000000000E+00 0.  1.
<mgrwt>
<rscale>  0 0.18372638E+04</rscale>
<asrwt>0</asrwt>
<pdfrwt beam="1">  1        2 0.38583656E+00 0.18372638E+04</pdfrwt>
<pdfrwt beam="2">  1       -2 0.51766995E-01 0.18372638E+04</pdfrwt>
<totfact> 0.11437708E+01</totfact>
</mgrwt>
</event>
<event>
12    2  0.3552864E-008  0.1291909E+04  0.7818608E-02  0.9036006E-01
          1   -1    0    0  501    0  0.00000000000E+00  0.00000000000E+00  0.29824599600E+04  0.29824599600E+04  0.00000000000E+00 0.  1.
         -1   -1    0    0    0  501 -0.00000000000E+00 -0.00000000000E+00 -0.13990378983E+03  0.13990378983E+03  0.00000000000E+00 0. -1.
         23    2    1    2    0    0  0.15899576991E+03 -0.17505528372E+03  0.20931966696E+03  0.32870493963E+03  0.91149367267E+02 0.  0.
        254    2    1    2    0    0 -0.15899576991E+03  0.17505528372E+03  0.26332365032E+04  0.27936588102E+04  0.90259130220E+03 0.  0.
         23    2    4    4    0    0 -0.16721107147E+03  0.92602546135E+02  0.26601120074E+04  0.26685320350E+04  0.91282836429E+02 0.  0.
         23    2    4    4    0    0  0.82153015574E+01  0.82452737581E+02 -0.26875504214E+02  0.12512677513E+03  0.89824673749E+02 0.  0.
          2    1    3    3  502    0  0.17801214538E+02 -0.28276582973E+02 -0.41428143386E+01  0.33669144543E+02  0.00000000000E+00 0. -1.
         -2    1    3    3    0  502  0.14119455537E+03 -0.14677870074E+03  0.21346248130E+03  0.29503579509E+03  0.00000000000E+00 0.  1.
         11    1    5    5    0    0 -0.74986683568E+02  0.71958473980E+00  0.13144869592E+04  0.13166242769E+04  0.00000000000E+00 0. -1.
        -11    1    5    5    0    0 -0.92224387897E+02  0.91882961395E+02  0.13456250481E+04  0.13519077581E+04  0.00000000000E+00 0.  1.
          3    1    6    6  503    0  0.15537753256E+01  0.98266803438E+02 -0.65082331605E+01  0.98494344886E+02  0.00000000000E+00 0. -1.
         -3    1    6    6    0  503  0.66615262318E+01 -0.15814065857E+02 -0.20367271053E+02  0.26632430246E+02  0.00000000000E+00 0.  1.
<mgrwt>
<rscale>  0 0.12919094E+04</rscale>
<asrwt>0</asrwt>
<pdfrwt beam="1">  1        1 0.45883995E+00 0.12919094E+04</pdfrwt>
<pdfrwt beam="2">  1       -1 0.21523662E-01 0.12919094E+04</pdfrwt>
<totfact> 0.11051447E+01</totfact>
</mgrwt>
</event>
<event>
12    2  0.3552864E-008  0.2073600E+04  0.7818608E-02  0.8572963E-01
          2   -1    0    0  501    0  0.00000000000E+00  0.00000000000E+00  0.18634949494E+04  0.18634949494E+04  0.00000000000E+00 0. -1.
         -2   -1    0    0    0  501 -0.00000000000E+00 -0.00000000000E+00 -0.57684854289E+03  0.57684854289E+03  0.00000000000E+00 0.  1.
         23    2    1    2    0    0  0.53578901371E+03  0.62812972126E+03  0.69493875742E+03  0.10829409069E+04  0.90577686641E+02 0.  0.
        254    2    1    2    0    0 -0.53578901371E+03 -0.62812972126E+03  0.59170764913E+03  0.13574025854E+04  0.90044823447E+03 0.  0.
         23    2    4    4    0    0 -0.69643940281E+03 -0.16797199840E+03  0.31671290697E+03  0.78872325513E+03  0.92384380166E+02 0.  0.
         23    2    4    4    0    0  0.16065038910E+03 -0.46015772286E+03  0.27499474216E+03  0.56867933031E+03  0.10109596967E+03 0.  0.
          4    1    3    3  502    0  0.34265276907E+02  0.30369574904E+02  0.68076029560E+02  0.82041246224E+02  0.00000000000E+00 0. -1.
         -4    1    3    3    0  502  0.50152373681E+03  0.59776014635E+03  0.62686272786E+03  0.10008996607E+04  0.00000000000E+00 0.  1.
         11    1    5    5    0    0 -0.52020747418E+03 -0.15359142340E+03  0.20659908587E+03  0.58042167759E+03  0.00000000000E+00 0. -1.
        -11    1    5    5    0    0 -0.17623192863E+03 -0.14380575004E+02  0.11011382110E+03  0.20830157753E+03  0.00000000000E+00 0.  1.
          1    1    6    6  503    0  0.87977037933E+02 -0.30862606911E+03  0.22960887055E+03  0.39460137249E+03  0.00000000000E+00 0. -1.
         -1    1    6    6    0  503  0.72673351167E+02 -0.15153165374E+03  0.45385871616E+02  0.17407795782E+03  0.00000000000E+00 0.  1.
<mgrwt>
<rscale>  0 0.20736001E+04</rscale>
<asrwt>0</asrwt>
<pdfrwt beam="1">  1        2 0.28669153E+00 0.20736001E+04</pdfrwt>
<pdfrwt beam="2">  1       -2 0.88745931E-01 0.20736001E+04</pdfrwt>
<totfact> 0.80201206E+00</totfact>
</mgrwt>
</event>
<event>
12    2  0.3552864E-008  0.3125150E+04  0.7818608E-02  0.8208869E-01
         -2   -1    0    0    0  501 -0.00000000000E+00  0.00000000000E+00  0.88014196264E+03  0.88014196264E+03  0.00000000000E+00 0.  1.
          2   -1    0    0  501    0  0.00000000000E+00 -0.00000000000E+00 -0.27741436482E+04  0.27741436482E+04  0.00000000000E+00 0. -1.
         23    2    1    2    0    0 -0.25542805019E+03 -0.12623523882E+04 -0.14688926274E+03  0.12994983603E+04  0.91337244562E+02 0.  0.
        254    2    1    2    0    0  0.25542805019E+03  0.12623523882E+04 -0.17471124229E+04  0.23547872506E+04  0.91315066475E+03 0.  0.
         23    2    4    4    0    0  0.50950119029E+03  0.34429188606E+03 -0.67820296610E+03  0.92016057061E+03  0.92778482265E+02 0.  0.
         23    2    4    4    0    0 -0.25407314010E+03  0.91806050211E+03 -0.10689094568E+04  0.14346266799E+04  0.90543017357E+02 0.  0.
          4    1    3    3  502    0 -0.17663538668E+03 -0.91990233341E+03 -0.14654086470E+03  0.94810051570E+03  0.00000000000E+00 0. -1.
         -4    1    3    3    0  502 -0.78792663516E+02 -0.34245005476E+03 -0.34839803203E+00  0.35139784463E+03  0.00000000000E+00 0.  1.
         11    1    5    5    0    0  0.67181979343E+02  0.51113848494E+02 -0.14571218179E+03  0.16839858603E+03  0.00000000000E+00 0. -1.
        -11    1    5    5    0    0  0.44231921095E+03  0.29317803757E+03 -0.53249078431E+03  0.75176198458E+03  0.00000000000E+00 0.  1.
          1    1    6    6  503    0 -0.79632003589E+02  0.45398750930E+03 -0.50153394881E+03  0.68116240090E+03  0.00000000000E+00 0. -1.
         -1    1    6    6    0  503 -0.17444113651E+03  0.46407299281E+03 -0.56737550796E+03  0.75346427904E+03  0.00000000000E+00 0.  1.
<mgrwt>
<rscale>  0 0.31251497E+04</rscale>
<asrwt>0</asrwt>
<pdfrwt beam="1">  1        2 0.42679133E+00 0.31251497E+04</pdfrwt>
<pdfrwt beam="2">  1       -2 0.13540646E+00 0.31251497E+04</pdfrwt>
<totfact> 0.79476308E-01</totfact>
</mgrwt>
</event>
<event>
12    2  0.3552864E-008  0.1626280E+04  0.7818608E-02  0.8804564E-01
          1   -1    0    0  501    0  0.00000000000E+00  0.00000000000E+00  0.14650854256E+04  0.14650854256E+04  0.00000000000E+00 0. -1.
         -1   -1    0    0    0  501 -0.00000000000E+00 -0.00000000000E+00 -0.45130258502E+03  0.45130258502E+03  0.00000000000E+00 0.  1.
         23    2    1    2    0    0 -0.51757909125E+03  0.20413569618E+03  0.30486140938E+03  0.64354739321E+03  0.10795031365E+03 0.  0.
        254    2    1    2    0    0  0.51757909125E+03 -0.20413569618E+03  0.70892143116E+03  0.12728406174E+04  0.89888494454E+03 0.  0.
         23    2    4    4    0    0  0.47976829513E+03 -0.50096076763E+03  0.31089728129E+03  0.76547544419E+03  0.90311839923E+02 0.  0.
         23    2    4    4    0    0  0.37810796124E+02  0.29682507145E+03  0.39802414986E+03  0.50736517318E+03  0.97269808961E+02 0.  0.
          1    1    3    3  502    0 -0.11749928902E+02  0.38598304342E+01  0.33258255211E+02  0.35483385687E+02  0.00000000000E+00 0. -1.
         -1    1    3    3    0  502 -0.50582916235E+03  0.20027586575E+03  0.27160315417E+03  0.60806400752E+03  0.00000000000E+00 0.  1.
         11    1    5    5    0    0  0.10727511117E+03 -0.14440524124E+03  0.45549993467E+02  0.18556838384E+03  0.00000000000E+00 0. -1.
        -11    1    5    5    0    0  0.37249318396E+03 -0.35655552639E+03  0.26534728782E+03  0.57990706036E+03  0.00000000000E+00 0.  1.
          4    1    6    6  503    0 -0.65529292380E+00  0.76024108651E+02  0.42523252210E+02  0.87110972234E+02  0.00000000000E+00 0. -1.
         -4    1    6    6    0  503  0.38466089048E+02  0.22080096280E+03  0.35550089765E+03  0.42025420095E+03  0.00000000000E+00 0.  1.
<mgrwt>
<rscale>  0 0.16262802E+04</rscale>
<asrwt>0</asrwt>
<pdfrwt beam="1">  1        1 0.22539776E+00 0.16262802E+04</pdfrwt>
<pdfrwt beam="2">  1       -1 0.69431168E-01 0.16262802E+04</pdfrwt>
<totfact> 0.13896413E+01</totfact>
</mgrwt>
</event>
<event>
12    2  0.3552864E-008  0.1526455E+04  0.7818608E-02  0.8867049E-01
         -3   -1    0    0    0  501 -0.00000000000E+00  0.00000000000E+00  0.20054090150E+04  0.20054090150E+04  0.00000000000E+00 0.  1.
          3   -1    0    0  501    0  0.00000000000E+00 -0.00000000000E+00 -0.29047254434E+03  0.29047254434E+03  0.00000000000E+00 0. -1.
         23    2    1    2    0    0  0.26785147006E+03 -0.32986440274E+03  0.19089185881E+03  0.47425159282E+03  0.88994029724E+02 0.  0.
        254    2    1    2    0    0 -0.26785147006E+03  0.32986440274E+03  0.15240446118E+04  0.18216299665E+04  0.90281162032E+03 0.  0.
         23    2    4    4    0    0  0.16079697853E+03 -0.19301976990E+03  0.71559603151E+03  0.76381111756E+03  0.90650113723E+02 0.  0.
         23    2    4    4    0    0 -0.42864844858E+03  0.52288417264E+03  0.80844858030E+03  0.10578188489E+04  0.90797905648E+02 0.  0.
          1    1    3    3  502    0  0.26814419352E+03 -0.33072524008E+03  0.19624596443E+03  0.46882083091E+03  0.00000000000E+00 0. -1.
         -1    1    3    3    0  502 -0.29272346165E+00  0.86083734380E+00 -0.53541056143E+01  0.54307619066E+01  0.00000000000E+00 0.  1.
         11    1    5    5    0    0  0.70241138069E+02 -0.28918694680E+02  0.26799073948E+03  0.27854828096E+03  0.00000000000E+00 0.  1.
        -11    1    5    5    0    0  0.90555840457E+02 -0.16410107522E+03  0.44760529203E+03  0.48526283660E+03  0.00000000000E+00 0. -1.
          3    1    6    6  503    0 -0.78263814070E+02  0.94019646423E+02  0.20534637776E+03  0.23902312307E+03  0.00000000000E+00 0. -1.
         -3    1    6    6    0  503 -0.35038463451E+03  0.42886452622E+03  0.60310220254E+03  0.81879572584E+03  0.00000000000E+00 0.  1.
<mgrwt>
<rscale>  0 0.15264551E+04</rscale>
<asrwt>0</asrwt>
<pdfrwt beam="1">  1        3 0.44688085E-01 0.15264551E+04</pdfrwt>
<pdfrwt beam="2">  1       -3 0.30852446E+00 0.15264551E+04</pdfrwt>
<totfact> 0.43057210E-01</totfact>
</mgrwt>
</event>
<event>
12    2  0.3552864E-008  0.1803943E+04  0.7818608E-02  0.8704206E-01
          2   -1    0    0  501    0  0.00000000000E+00  0.00000000000E+00  0.84477591471E+03  0.84477591471E+03  0.00000000000E+00 0. -1.
         -2   -1    0    0    0  501 -0.00000000000E+00 -0.00000000000E+00 -0.96303935415E+03  0.96303935415E+03  0.00000000000E+00 0.  1.
         23    2    1    2    0    0  0.24508609750E+03  0.30203836333E+03  0.50649602985E+03  0.64551793406E+03  0.94131858744E+02 0.  0.
        254    2    1    2    0    0 -0.24508609750E+03 -0.30203836333E+03 -0.62475946929E+03  0.11622973348E+04  0.89962010420E+03 0.  0.
         23    2    4    4    0    0 -0.56380210806E+03 -0.82176993876E+02 -0.42855617890E+03  0.71794600179E+03  0.84617891961E+02 0.  0.
         23    2    4    4    0    0  0.31871601056E+03 -0.21986136946E+03 -0.19620329040E+03  0.44435133300E+03  0.95044509631E+02 0.  0.
          3    1    3    3  502    0  0.20378484548E+03  0.20673936668E+03  0.41886679115E+03  0.50962615486E+03  0.00000000000E+00 0. -1.
         -3    1    3    3    0  502  0.41301252017E+02  0.95298996653E+02  0.87629238699E+02  0.13589177921E+03  0.00000000000E+00 0.  1.
         11    1    5    5    0    0 -0.53878036549E+03 -0.92689177704E+02 -0.42027676635E+03  0.68957097259E+03  0.00000000000E+00 0. -1.
        -11    1    5    5    0    0 -0.25021742572E+02  0.10512183828E+02 -0.82794125443E+01  0.28375029203E+02  0.00000000000E+00 0.  1.
          2    1    6    6  503    0  0.92537587043E+02 -0.35978253349E+02 -0.13169896274E+02  0.10015530888E+03  0.00000000000E+00 0. -1.
         -2    1    6    6    0  503  0.22617842352E+03 -0.18388311611E+03 -0.18303339412E+03  0.34419602412E+03  0.00000000000E+00 0.  1.
<mgrwt>
<rscale>  0 0.18039428E+04</rscale>
<asrwt>0</asrwt>
<pdfrwt beam="1">  1        2 0.12996553E+00 0.18039428E+04</pdfrwt>
<pdfrwt beam="2">  1       -2 0.14815990E+00 0.18039428E+04</pdfrwt>
<totfact> 0.93486842E+00</totfact>
</mgrwt>
</event>
<event>
12    2  0.3552864E-008  0.2082458E+04  0.7818608E-02  0.8569010E-01
          2   -1    0    0  501    0  0.00000000000E+00  0.00000000000E+00  0.18771231836E+04  0.18771231836E+04  0.00000000000E+00 0. -1.
         -2   -1    0    0    0  501 -0.00000000000E+00 -0.00000000000E+00 -0.57756341782E+03  0.57756341782E+03  0.00000000000E+00 0.  1.
         23    2    1    2    0    0  0.27624953487E+03 -0.29461556534E+03  0.14014427215E+04  0.14612524000E+04  0.90026318012E+02 0.  0.
        254    2    1    2    0    0 -0.27624953487E+03  0.29461556534E+03 -0.10188295576E+03  0.99343420141E+03  0.90189757677E+03 0.  0.
         23    2    4    4    0    0  0.13368857118E+03  0.20394914636E+03  0.30521854424E+03  0.40114628525E+03  0.91060935952E+02 0.  0.
         23    2    4    4    0    0 -0.40993810605E+03  0.90666418980E+02 -0.40710150001E+03  0.59228791615E+03  0.93828002158E+02 0.  0.
          3    1    3    3  502    0  0.21711364591E+03 -0.27477138053E+03  0.11465837463E+04  0.11988711082E+04  0.00000000000E+00 0. -1.
         -3    1    3    3    0  502  0.59135888952E+02 -0.19844184813E+02  0.25485897527E+03  0.26238129184E+03  0.00000000000E+00 0.  1.
         11    1    5    5    0    0  0.11831956114E+03  0.21170219439E+03  0.29105903719E+03  0.37885709811E+03  0.00000000000E+00 0. -1.
        -11    1    5    5    0    0  0.15369010041E+02 -0.77530480325E+01  0.14159507054E+02  0.22289187142E+02  0.00000000000E+00 0.  1.
          3    1    6    6  503    0 -0.11152334755E+03  0.68290683179E+02 -0.13170345906E+03  0.18559869500E+03  0.00000000000E+00 0. -1.
         -3    1    6    6    0  503 -0.29841475849E+03  0.22375735801E+02 -0.27539804095E+03  0.40668922115E+03  0.00000000000E+00 0.  1.
<mgrwt>
<rscale>  0 0.20824579E+04</rscale>
<asrwt>0</asrwt>
<pdfrwt beam="1">  1        2 0.28878818E+00 0.20824579E+04</pdfrwt>
<pdfrwt beam="2">  1       -2 0.88855911E-01 0.20824579E+04</pdfrwt>
<totfact> 0.78535035E+00</totfact>
</mgrwt>
</event>
<event>
12    2  0.3552864E-008  0.1399761E+04  0.7818608E-02  0.8953992E-01
         -3   -1    0    0    0  501 -0.00000000000E+00  0.00000000000E+00  0.15710878668E+04  0.15710878668E+04  0.00000000000E+00 0.  1.
          3   -1    0    0  501    0  0.00000000000E+00 -0.00000000000E+00 -0.31177921779E+03  0.31177921779E+03  0.00000000000E+00 0. -1.
         23    2    1    2    0    0  0.21385336794E+03 -0.99712451895E+02  0.80341115830E+03  0.84230679265E+03  0.91298453539E+02 0.  0.
        254    2    1    2    0    0 -0.21385336794E+03  0.99712451895E+02  0.45589749070E+03  0.10405602919E+04  0.90512284419E+03 0.  0.
         23    2    4    4    0    0  0.31195956434E+03  0.18654809110E+03  0.28860382741E+03  0.47365074936E+03  0.94519326558E+02 0.  0.
         23    2    4    4    0    0 -0.52581293228E+03 -0.86835639206E+02  0.16729366329E+03  0.56690954257E+03  0.96848292153E+02 0.  0.
          1    1    3    3  502    0 -0.62306936377E+01 -0.97339951141E+01  0.15712171874E+02  0.19504987800E+02  0.00000000000E+00 0. -1.
         -1    1    3    3    0  502  0.22008406158E+03 -0.89978456781E+02  0.78769898642E+03  0.82280180485E+03  0.00000000000E+00 0.  1.
         11    1    5    5    0    0  0.24301795303E+03  0.16519045441E+03  0.27014405759E+03  0.39915338351E+03  0.00000000000E+00 0.  1.
        -11    1    5    5    0    0  0.68941611317E+02  0.21357636694E+02  0.18459769827E+02  0.74497365848E+02  0.00000000000E+00 0. -1.
          2    1    6    6  503    0 -0.79167264631E+02  0.15027306037E+02  0.44143625544E+01  0.80701687174E+02  0.00000000000E+00 0. -1.
         -2    1    6    6    0  503 -0.44664566765E+03 -0.10186294524E+03  0.16287930073E+03  0.48620785540E+03  0.00000000000E+00 0.  1.
<mgrwt>
<rscale>  0 0.13997608E+04</rscale>
<asrwt>0</asrwt>
<pdfrwt beam="1">  1        3 0.47966034E-01 0.13997608E+04</pdfrwt>
<pdfrwt beam="2">  1       -3 0.24170582E+00 0.13997608E+04</pdfrwt>
<totfact> 0.90204805E-01</totfact>
</mgrwt>
</event>
<event>
12    2  0.3552864E-008  0.1904021E+04  0.7818608E-02  0.8652858E-01
         -2   -1    0    0    0  501 -0.00000000000E+00  0.00000000000E+00  0.29663989476E+03  0.29663989476E+03  0.00000000000E+00 0.  1.
          2   -1    0    0  501    0  0.00000000000E+00 -0.00000000000E+00 -0.30552995287E+04  0.30552995287E+04  0.00000000000E+00 0. -1.
         23    2    1    2    0    0  0.20566444306E+03  0.70620025275E+03 -0.98377811886E+03  0.12315979586E+04  0.89428655685E+02 0.  0.
        254    2    1    2    0    0 -0.20566444306E+03 -0.70620025275E+03 -0.17748815151E+04  0.21203414648E+04  0.89700996354E+03 0.  0.
         23    2    4    4    0    0 -0.10439097485E+03 -0.37688232202E+01  0.59419082497E+02  0.15142806004E+03  0.92131158375E+02 0.  0.
         23    2    4    4    0    0 -0.10127346822E+03 -0.70243142953E+03 -0.18343005976E+04  0.19689134048E+04  0.91077355389E+02 0.  0.
          2    1    3    3  502    0  0.14983816567E+03  0.45608242656E+03 -0.57409608713E+03  0.74836419808E+03  0.00000000000E+00 0. -1.
         -2    1    3    3    0  502  0.55826277397E+02  0.25011782620E+03 -0.40968203173E+03  0.48323376057E+03  0.00000000000E+00 0.  1.
         11    1    5    5    0    0 -0.82724154017E+02  0.38258735701E+02  0.46964668086E+02  0.10253144183E+03  0.00000000000E+00 0. -1.
        -11    1    5    5    0    0 -0.21666820831E+02 -0.42027558921E+02  0.12454414411E+02  0.48896618207E+02  0.00000000000E+00 0.  1.
          4    1    6    6  503    0 -0.85304616708E+02 -0.60565447865E+03 -0.14830037501E+04  0.16041802729E+04  0.00000000000E+00 0. -1.
         -4    1    6    6    0  503 -0.15968851509E+02 -0.96776950888E+02 -0.35129684751E+03  0.36473313191E+03  0.00000000000E+00 0.  1.
<mgrwt>
<rscale>  0 0.19040207E+04</rscale>
<asrwt>0</asrwt>
<pdfrwt beam="1">  1        2 0.47004608E+00 0.19040207E+04</pdfrwt>
<pdfrwt beam="2">  1       -2 0.45636907E-01 0.19040207E+04</pdfrwt>
<totfact> 0.68726293E+00</totfact>
</mgrwt>
</event>
<event>
12    2  0.3552864E-008  0.2417272E+04  0.7818608E-02  0.8433065E-01
          2   -1    0    0  501    0  0.00000000000E+00  0.00000000000E+00  0.18669014766E+04  0.18669014766E+04  0.00000000000E+00 0.  1.
         -2   -1    0    0    0  501 -0.00000000000E+00 -0.00000000000E+00 -0.78247350486E+03  0.78247350486E+03  0.00000000000E+00 0. -1.
         23    2    1    2    0    0 -0.77389582701E+03  0.56422125564E+03  0.53080390911E+02  0.96392744079E+03  0.95279624363E+02 0.  0.
        254    2    1    2    0    0  0.77389582701E+03 -0.56422125564E+03  0.10313475808E+04  0.16854475407E+04  0.92725142410E+03 0.  0.
         23    2    4    4    0    0  0.32704187138E+03 -0.30072599891E+03  0.10655151845E+04  0.11580615795E+04  0.91605138465E+02 0.  0.
         23    2    4    4    0    0  0.44685395564E+03 -0.26349525673E+03 -0.34167603677E+02  0.52738596119E+03  0.88658439736E+02 0.  0.
          3    1    3    3  502    0 -0.32555364795E+02  0.37079577544E+01 -0.26345511677E+01  0.32871592409E+02  0.00000000000E+00 0. -1.
         -3    1    3    3    0  502 -0.74134046222E+03  0.56051329788E+03  0.55714942079E+02  0.93105584838E+03  0.00000000000E+00 0.  1.
         11    1    5    5    0    0  0.13367991848E+03 -0.14940290674E+03  0.58589746268E+03  0.61924743513E+03  0.00000000000E+00 0.  1.
        -11    1    5    5    0    0  0.19336195290E+03 -0.15132309217E+03  0.47961772183E+03  0.53881414434E+03  0.00000000000E+00 0. -1.
          2    1    6    6  503    0  0.37577407133E+03 -0.25617050756E+03 -0.31657365399E+02  0.45588558917E+03  0.00000000000E+00 0. -1.
         -2    1    6    6    0  503  0.71079884304E+02 -0.73247491665E+01 -0.25102382785E+01  0.71500372022E+02  0.00000000000E+00 0.  1.
<mgrwt>
<rscale>  0 0.24172720E+04</rscale>
<asrwt>0</asrwt>
<pdfrwt beam="1">  1        2 0.28721561E+00 0.24172720E+04</pdfrwt>
<pdfrwt beam="2">  1       -2 0.12038054E+00 0.24172720E+04</pdfrwt>
<totfact> 0.37477353E+00</totfact>
</mgrwt>
</event>
<event>
12    2  0.3552864E-008  0.1764615E+04  0.7818608E-02  0.8725346E-01
          4   -1    0    0  501    0  0.00000000000E+00  0.00000000000E+00  0.19496106759E+04  0.19496106759E+04  0.00000000000E+00 0. -1.
         -4   -1    0    0    0  501 -0.00000000000E+00 -0.00000000000E+00 -0.39929329516E+03  0.39929329516E+03  0.00000000000E+00 0.  1.
         23    2    1    2    0    0 -0.47421818146E+03  0.42310588508E+03  0.40085855457E+03  0.75712772165E+03  0.93023290141E+02 0.  0.
        254    2    1    2    0    0  0.47421818146E+03 -0.42310588508E+03  0.11494588262E+04  0.15917762494E+04  0.89921886187E+03 0.  0.
         23    2    4    4    0    0  0.61183550993E+03 -0.17436325115E+03  0.11206082598E+04  0.12919407224E+04  0.92750869001E+02 0.  0.
         23    2    4    4    0    0 -0.13761732848E+03 -0.24874263393E+03  0.28850566401E+02  0.29983552704E+03  0.90871123352E+02 0.  0.
          2    1    3    3  502    0 -0.40824260289E+03  0.37614058720E+03  0.38238187622E+03  0.67406206200E+03  0.00000000000E+00 0. -1.
         -2    1    3    3    0  502 -0.65975578561E+02  0.46965297875E+02  0.18476678348E+02  0.83065659654E+02  0.00000000000E+00 0.  1.
         11    1    5    5    0    0  0.20709191172E+03 -0.79451738533E+02  0.47229819824E+03  0.52179040497E+03  0.00000000000E+00 0. -1.
        -11    1    5    5    0    0  0.40474359822E+03 -0.94911512613E+02  0.64831006156E+03  0.77015031743E+03  0.00000000000E+00 0.  1.
          1    1    6    6  503    0 -0.97813636850E+01 -0.68915775448E+02  0.37433703775E+02  0.79033798842E+02  0.00000000000E+00 0. -1.
         -1    1    6    6    0  503 -0.12783596479E+03 -0.17982685848E+03 -0.85831373739E+01  0.22080172820E+03  0.00000000000E+00 0.  1.
<mgrwt>
<rscale>  0 0.17646149E+04</rscale>
<asrwt>0</asrwt>
<pdfrwt beam="1">  1        4 0.29994010E+00 0.17646149E+04</pdfrwt>
<pdfrwt beam="2">  1       -4 0.61429739E-01 0.17646149E+04</pdfrwt>
<totfact> 0.14641752E-01</totfact>
</mgrwt>
</event>
<event>
12    2  0.4433683E-008  0.3232011E+04  0.7818608E-02  0.8180414E-01
          1   -1    0    0  501    0  0.00000000000E+00  0.00000000000E+00  0.15999860227E+04  0.15999860227E+04  0.00000000000E+00 0. -1.
         -1   -1    0    0    0  501 -0.00000000000E+00 -0.00000000000E+00 -0.16321851154E+04  0.16321851154E+04  0.00000000000E+00 0.  1.
         23    2    1    2    0    0 -0.43874759468E+03  0.25975079300E+03  0.13839593859E+04  0.14776761221E+04  0.90626782130E+02 0.  0.
        254    2    1    2    0    0  0.43874759468E+03 -0.25975079300E+03 -0.14161584786E+04  0.17544950160E+04  0.90154201140E+03 0.  0.
         23    2    4    4    0    0 -0.10737988393E+03  0.18699418024E+03 -0.93579379469E+02  0.25267681248E+03  0.92688771632E+02 0.  0.
         23    2    4    4    0    0  0.54612747861E+03 -0.44674497325E+03 -0.13225790991E+04  0.15018182035E+04  0.91685052878E+02 0.  0.
          3    1    3    3  502    0 -0.41067227907E+03  0.21176338205E+03  0.12479572789E+04  0.13307489699E+04  0.00000000000E+00 0. -1.
         -3    1    3    3    0  502 -0.28075315618E+02  0.47987410952E+02  0.13600210697E+03  0.14692715221E+03  0.00000000000E+00 0.  1.
         11    1    5    5    0    0 -0.11998794116E+03  0.16809345017E+03 -0.65723809571E+02  0.21673055428E+03  0.00000000000E+00 0.  1.
        -11    1    5    5    0    0  0.12608057229E+02  0.18900730069E+02 -0.27855569898E+02  0.35946258200E+02  0.00000000000E+00 0. -1.
          2    1    6    6  503    0  0.52552434775E+03 -0.40212999424E+03 -0.12139798721E+04  0.13826176269E+04  0.00000000000E+00 0.  1.
         -2    1    6    6    0  503  0.20603130859E+02 -0.44614979006E+02 -0.10859922701E+03  0.11920057659E+03  0.00000000000E+00 0. -1.
<mgrwt>
<rscale>  0 0.32320107E+04</rscale>
<asrwt>0</asrwt>
<pdfrwt beam="1">  1        1 0.24615170E+00 0.32320107E+04</pdfrwt>
<pdfrwt beam="2">  1       -1 0.25110540E+00 0.32320107E+04</pdfrwt>
<totfact> 0.31926013E-01</totfact>
</mgrwt>
</event>
<event>
12    2  0.3552864E-008  0.1195551E+04  0.7818608E-02  0.9116760E-01
         -2   -1    0    0    0  501 -0.00000000000E+00  0.00000000000E+00  0.75630498163E+03  0.75630498163E+03  0.00000000000E+00 0.  1.
          2   -1    0    0  501    0  0.00000000000E+00 -0.00000000000E+00 -0.47247526892E+03  0.47247526892E+03  0.00000000000E+00 0. -1.
         23    2    1    2    0    0 -0.17945181053E+03 -0.16455055917E+03  0.23792312896E+02  0.26074076193E+03  0.90221017260E+02 0.  0.
        254    2    1    2    0    0  0.17945181053E+03  0.16455055917E+03  0.26003739981E+03  0.96803948862E+03  0.90011175050E+03 0.  0.
         23    2    4    4    0    0  0.12667478798E+03  0.45617856424E+03  0.40116506138E+03  0.62749873747E+03  0.93144375466E+02 0.  0.
         23    2    4    4    0    0  0.52777022546E+02 -0.29162800507E+03 -0.14112766156E+03  0.34054075114E+03  0.90656929583E+02 0.  0.
          3    1    3    3  502    0 -0.41810098087E+01 -0.46159706985E+02 -0.74261583358E+01  0.46939825517E+02  0.00000000000E+00 0. -1.
         -3    1    3    3    0  502 -0.17527080072E+03 -0.11839085218E+03  0.31218471232E+02  0.21380093642E+03  0.00000000000E+00 0.  1.
         11    1    5    5    0    0  0.36609102321E+02  0.10273305262E+03  0.45875488879E+02  0.11831680757E+03  0.00000000000E+00 0. -1.
        -11    1    5    5    0    0  0.90065685664E+02  0.35344551162E+03  0.35528957250E+03  0.50918192991E+03  0.00000000000E+00 0.  1.
          3    1    6    6  503    0  0.43123536451E+02 -0.22565128694E+03 -0.63789582463E+02  0.23842662084E+03  0.00000000000E+00 0. -1.
         -3    1    6    6    0  503  0.96534860951E+01 -0.65976718128E+02 -0.77338079100E+02  0.10211413030E+03  0.00000000000E+00 0.  1.
<mgrwt>
<rscale>  0 0.11955508E+04</rscale>
<asrwt>0</asrwt>
<pdfrwt beam="1">  1        2 0.72688503E-01 0.11955508E+04</pdfrwt>
<pdfrwt beam="2">  1       -2 0.11635461E+00 0.11955508E+04</pdfrwt>
<totfact> 0.37181707E+01</totfact>
</mgrwt>
</event>
<event>
12    2  0.3552864E-008  0.1280772E+04  0.7818608E-02  0.9044953E-01
          1   -1    0    0  501    0  0.00000000000E+00  0.00000000000E+00  0.26738913156E+04  0.26738913156E+04  0.00000000000E+00 0. -1.
         -1   -1    0    0    0  501 -0.00000000000E+00 -0.00000000000E+00 -0.15336987126E+03  0.15336987126E+03  0.00000000000E+00 0.  1.
         23    2    1    2    0    0  0.26529289627E+03 -0.12969998821E+03  0.66150981702E+03  0.73002622085E+03  0.90225480671E+02 0.  0.
        254    2    1    2    0    0 -0.26529289627E+03  0.12969998821E+03  0.18590116274E+04  0.20972349661E+04  0.92480693360E+03 0.  0.
         23    2    4    4    0    0  0.11954061597E+03  0.33172977752E+03  0.28663640098E+03  0.46342712604E+03  0.90937729414E+02 0.  0.
         23    2    4    4    0    0 -0.38483351224E+03 -0.20202978931E+03  0.15723752264E+04  0.16338078400E+04  0.89729246236E+02 0.  0.
          3    1    3    3  502    0  0.12033767198E+03 -0.50728924351E+02  0.39997379033E+03  0.42075362389E+03  0.00000000000E+00 0. -1.
         -3    1    3    3    0  502  0.14495522429E+03 -0.78971063857E+02  0.26153602669E+03  0.30927259696E+03  0.00000000000E+00 0.  1.
         11    1    5    5    0    0  0.69683854239E+02  0.83957244094E+02  0.63245828876E+02  0.12611381069E+03  0.00000000000E+00 0. -1.
        -11    1    5    5    0    0  0.49856761727E+02  0.24777253342E+03  0.22339057210E+03  0.33731331535E+03  0.00000000000E+00 0.  1.
          4    1    6    6  503    0 -0.11078136371E+03 -0.16066977204E+02  0.43757870257E+03  0.45166998931E+03  0.00000000000E+00 0. -1.
         -4    1    6    6    0  503 -0.27405214853E+03 -0.18596281211E+03  0.11347965238E+04  0.11821378507E+04  0.00000000000E+00 0.  1.
<mgrwt>
<rscale>  0 0.12807722E+04</rscale>
<asrwt>0</asrwt>
<pdfrwt beam="1">  1        1 0.41136786E+00 0.12807722E+04</pdfrwt>
<pdfrwt beam="2">  1       -1 0.23595367E-01 0.12807722E+04</pdfrwt>
<totfact> 0.15684100E+01</totfact>
</mgrwt>
</event>
<event>
12    2  0.3552864E-008  0.1324749E+04  0.7818608E-02  0.9010166E-01
         -2   -1    0    0    0  501 -0.00000000000E+00  0.00000000000E+00  0.31488259781E+03  0.31488259781E+03  0.00000000000E+00 0.  1.
          2   -1    0    0  501    0  0.00000000000E+00 -0.00000000000E+00 -0.13933446954E+04  0.13933446954E+04  0.00000000000E+00 0. -1.
         23    2    1    2    0    0 -0.14680677426E+03 -0.31107068757E+03 -0.38571721931E+03  0.52465593925E+03  0.90381854848E+02 0.  0.
        254    2    1    2    0    0  0.14680677426E+03  0.31107068757E+03 -0.69274487826E+03  0.11835713539E+04  0.89589535206E+03 0.  0.
         23    2    4    4    0    0  0.18764947336E+03  0.14714418303E+02 -0.82014114775E+03  0.84680598854E+03  0.94973896532E+02 0.  0.
         23    2    4    4    0    0 -0.40842699106E+02  0.29635626927E+03  0.12739626950E+03  0.33676536539E+03  0.87669478382E+02 0.  0.
          3    1    3    3  502    0 -0.56371049975E+02 -0.18675715968E+03 -0.16399338318E+03  0.25485243121E+03  0.00000000000E+00 0. -1.
         -3    1    3    3    0  502 -0.90435724283E+02 -0.12431352789E+03 -0.22172383613E+03  0.26980350804E+03  0.00000000000E+00 0.  1.
         11    1    5    5    0    0  0.14025086408E+02  0.68828311712E+01 -0.10748057936E+02  0.18963047304E+02  0.00000000000E+00 0. -1.
        -11    1    5    5    0    0  0.17362438696E+03  0.78315871316E+01 -0.80939308982E+03  0.82784294123E+03  0.00000000000E+00 0.  1.
          1    1    6    6  503    0 -0.54355020510E+02  0.10322817822E+03  0.32200361296E+02  0.12102639505E+03  0.00000000000E+00 0. -1.
         -1    1    6    6    0  503  0.13512321403E+02  0.19312809105E+03  0.95195908199E+02  0.21573897034E+03  0.00000000000E+00 0.  1.
<mgrwt>
<rscale>  0 0.13247490E+04</rscale>
<asrwt>0</asrwt>
<pdfrwt beam="1">  1        2 0.21436072E+00 0.13247490E+04</pdfrwt>
<pdfrwt beam="2">  1       -2 0.48443477E-01 0.13247490E+04</pdfrwt>
<totfact> 0.57635875E+01</totfact>
</mgrwt>
</event>
<event>
12    2  0.3552864E-008  0.1469736E+04  0.7818608E-02  0.8904831E-01
         -1   -1    0    0    0  501 -0.00000000000E+00  0.00000000000E+00  0.24174402225E+04  0.24174402225E+04  0.00000000000E+00 0.  1.
          1   -1    0    0  501    0  0.00000000000E+00 -0.00000000000E+00 -0.22338952888E+03  0.22338952888E+03  0.00000000000E+00 0. -1.
         23    2    1    2    0    0 -0.44459033409E+02 -0.19877741611E+03  0.12572948454E+04  0.12769899582E+04  0.91782122629E+02 0.  0.
        254    2    1    2    0    0  0.44459033409E+02  0.19877741611E+03  0.93675584819E+03  0.13638397933E+04  0.97008164385E+03 0.  0.
         23    2    4    4    0    0 -0.17062288942E+02 -0.37785623392E+03  0.49199121653E+03  0.62731487453E+03  0.91663184753E+02 0.  0.
         23    2    4    4    0    0  0.61521322351E+02  0.57663365003E+03  0.44476463166E+03  0.73652491872E+03  0.91444731267E+02 0.  0.
          3    1    3    3  502    0  0.55037713798E+01 -0.15700200163E+03  0.82615832203E+03  0.84096224236E+03  0.00000000000E+00 0. -1.
         -3    1    3    3    0  502 -0.49962804789E+02 -0.41775414476E+02  0.43113652341E+03  0.43602771579E+03  0.00000000000E+00 0.  1.
         11    1    5    5    0    0 -0.11249719450E+02 -0.36734443638E+03  0.49338626362E+03  0.61522231450E+03  0.00000000000E+00 0. -1.
        -11    1    5    5    0    0 -0.58125694916E+01 -0.10511797544E+02 -0.13950470872E+01  0.12092560030E+02  0.00000000000E+00 0.  1.
          1    1    6    6  503    0  0.37517860778E+02  0.52877043936E+03  0.37864207657E+03  0.65144116355E+03  0.00000000000E+00 0. -1.
         -1    1    6    6    0  503  0.24003461573E+02  0.47863210667E+02  0.66122555084E+02  0.85083755169E+02  0.00000000000E+00 0.  1.
<mgrwt>
<rscale>  0 0.14697358E+04</rscale>
<asrwt>0</asrwt>
<pdfrwt beam="1">  1        1 0.34367621E-01 0.14697358E+04</pdfrwt>
<pdfrwt beam="2">  1       -1 0.37191386E+00 0.14697358E+04</pdfrwt>
<totfact> 0.13943710E+00</totfact>
</mgrwt>
</event>
<event>
12    2  0.3552864E-008  0.1464521E+04  0.7818608E-02  0.8908395E-01
         -2   -1    0    0    0  501 -0.00000000000E+00  0.00000000000E+00  0.92723766407E+03  0.92723766407E+03  0.00000000000E+00 0.  1.
          2   -1    0    0  501    0  0.00000000000E+00 -0.00000000000E+00 -0.57828228941E+03  0.57828228941E+03  0.00000000000E+00 0. -1.
         23    2    1    2    0    0  0.10143003039E+03  0.32838630301E+03  0.42044412054E+03  0.55049616413E+03  0.90261581852E+02 0.  0.
        254    2    1    2    0    0 -0.10143003039E+03 -0.32838630301E+03 -0.71488745869E+02  0.95502378935E+03  0.88816337594E+03 0.  0.
         23    2    4    4    0    0 -0.29320938647E+03  0.13198245479E+03 -0.25025820120E+03  0.41739906600E+03  0.90563239463E+02 0.  0.
         23    2    4    4    0    0  0.19177935608E+03 -0.46036875780E+03  0.17876945533E+03  0.53762472335E+03  0.91450043282E+02 0.  0.
          4    1    3    3  502    0  0.92151862540E+02  0.29728602925E+03  0.32639195947E+03  0.45100184053E+03  0.00000000000E+00 0.  1.
         -4    1    3    3    0  502  0.92781678529E+01  0.31100273760E+02  0.94052161072E+02  0.99494323602E+02  0.00000000000E+00 0. -1.
         11    1    5    5    0    0 -0.13635790611E+03  0.11083312946E+03 -0.13575465395E+03  0.22205131662E+03  0.00000000000E+00 0. -1.
        -11    1    5    5    0    0 -0.15685148037E+03  0.21149325328E+02 -0.11450354725E+03  0.19534774938E+03  0.00000000000E+00 0.  1.
          4    1    6    6  503    0  0.19861141437E+03 -0.44748112496E+03  0.18263667194E+03  0.52253421424E+03  0.00000000000E+00 0. -1.
         -4    1    6    6    0  503 -0.68320582887E+01 -0.12887632839E+02 -0.38672166155E+01  0.15090509104E+02  0.00000000000E+00 0.  1.
<mgrwt>
<rscale>  0 0.14645206E+04</rscale>
<asrwt>0</asrwt>
<pdfrwt beam="1">  1        2 0.88966506E-01 0.14645206E+04</pdfrwt>
<pdfrwt beam="2">  1       -2 0.14265195E+00 0.14645206E+04</pdfrwt>
<totfact> 0.17168073E+01</totfact>
</mgrwt>
</event>
<event>
12    2  0.3552864E-008  0.1717628E+04  0.7818608E-02  0.8751374E-01
         -2   -1    0    0    0  501 -0.00000000000E+00  0.00000000000E+00  0.40477058879E+03  0.40477058879E+03  0.00000000000E+00 0.  1.
          2   -1    0    0  501    0  0.00000000000E+00 -0.00000000000E+00 -0.18221719764E+04  0.18221719764E+04  0.00000000000E+00 0. -1.
         23    2    1    2    0    0  0.31424563437E+03  0.13278498570E+03  0.14973398443E+03  0.38474932961E+03  0.96070856124E+02 0.  0.
        254    2    1    2    0    0 -0.31424563437E+03 -0.13278498570E+03 -0.15671353720E+04  0.18421932356E+04  0.90630043127E+03 0.  0.
         23    2    4    4    0    0  0.10237843394E+03  0.12574859644E+03 -0.12214959452E+04  0.12356637570E+04  0.92295845753E+02 0.  0.
         23    2    4    4    0    0 -0.41662406831E+03 -0.25853358214E+03 -0.34563942689E+03  0.60652947855E+03  0.89421292410E+02 0.  0.
          3    1    3    3  502    0  0.26065334596E+03  0.13013419754E+03  0.15643191873E+03  0.33067509935E+03  0.00000000000E+00 0.  1.
         -3    1    3    3    0  502  0.53592288409E+02  0.26507881559E+01 -0.66979343018E+01  0.54074230265E+02  0.00000000000E+00 0. -1.
         11    1    5    5    0    0  0.11849415495E+02  0.42429507486E+02 -0.13012780917E+03  0.13738238050E+03  0.00000000000E+00 0. -1.
        -11    1    5    5    0    0  0.90529018444E+02  0.83319088955E+02 -0.10913681360E+04  0.10982813765E+04  0.00000000000E+00 0.  1.
          3    1    6    6  503    0 -0.17336449475E+03 -0.13191403713E+03 -0.20135824072E+03  0.29665080876E+03  0.00000000000E+00 0. -1.
         -3    1    6    6    0  503 -0.24325957356E+03 -0.12661954501E+03 -0.14428118617E+03  0.30987866979E+03  0.00000000000E+00 0.  1.
<mgrwt>
<rscale>  0 0.17176282E+04</rscale>
<asrwt>0</asrwt>
<pdfrwt beam="1">  1        2 0.28033415E+00 0.17176282E+04</pdfrwt>
<pdfrwt beam="2">  1       -2 0.62272399E-01 0.17176282E+04</pdfrwt>
<totfact> 0.19072933E+01</totfact>
</mgrwt>
</event>
<event>
12    2  0.3552864E-008  0.2132846E+04  0.7818608E-02  0.8546911E-01
          2   -1    0    0  501    0  0.00000000000E+00  0.00000000000E+00  0.21208559328E+04  0.21208559328E+04  0.00000000000E+00 0. -1.
         -2   -1    0    0    0  501 -0.00000000000E+00 -0.00000000000E+00 -0.53622611540E+03  0.53622611540E+03  0.00000000000E+00 0.  1.
         23    2    1    2    0    0  0.63468051784E+03  0.24898963915E+03  0.13252485303E+04  0.14931715224E+04  0.91990912474E+02 0.  0.
        254    2    1    2    0    0 -0.63468051784E+03 -0.24898963915E+03  0.25938128712E+03  0.11639105259E+04  0.90696960257E+03 0.  0.
         23    2    4    4    0    0 -0.56682013987E+03 -0.52239204126E+03  0.89452301333E+01  0.77626475586E+03  0.91260277909E+02 0.  0.
         23    2    4    4    0    0 -0.67860377973E+02  0.27340240210E+03  0.25043605698E+03  0.38764577000E+03  0.90537947783E+02 0.  0.
          3    1    3    3  502    0  0.43850614320E+03  0.18957491038E+03  0.83884501868E+03  0.96534307354E+03  0.00000000000E+00 0. -1.
         -3    1    3    3    0  502  0.19617437464E+03  0.59414728777E+02  0.48640351162E+03  0.52782844882E+03  0.00000000000E+00 0.  1.
         11    1    5    5    0    0 -0.41556581388E+03 -0.37610978989E+03  0.46887703063E+02  0.56245175474E+03  0.00000000000E+00 0.  1.
        -11    1    5    5    0    0 -0.15125432599E+03 -0.14628225137E+03 -0.37942472930E+02  0.21381300112E+03  0.00000000000E+00 0. -1.
          2    1    6    6  503    0 -0.30111469000E+02  0.21987229801E+02  0.57338335622E+02  0.68394616539E+02  0.00000000000E+00 0. -1.
         -2    1    6    6    0  503 -0.37748908973E+02  0.25141517230E+03  0.19309772136E+03  0.31925115346E+03  0.00000000000E+00 0.  1.
<mgrwt>
<rscale>  0 0.21328463E+04</rscale>
<asrwt>0</asrwt>
<pdfrwt beam="1">  1        2 0.32628552E+00 0.21328463E+04</pdfrwt>
<pdfrwt beam="2">  1       -2 0.82496326E-01 0.21328463E+04</pdfrwt>
<totfact> 0.67791046E+00</totfact>
</mgrwt>
</event>
<event>
12    2  0.3552864E-008  0.2705119E+04  0.7818608E-02  0.8333346E-01
         -2   -1    0    0    0  501 -0.00000000000E+00  0.00000000000E+00  0.15170736420E+04  0.15170736420E+04  0.00000000000E+00 0. -1.
          2   -1    0    0  501    0  0.00000000000E+00 -0.00000000000E+00 -0.12058854252E+04  0.12058854252E+04  0.00000000000E+00 0.  1.
         23    2    1    2    0    0 -0.53093036808E+03 -0.22873489738E+03 -0.92750485606E+03  0.10967517772E+04  0.91610555168E+02 0.  0.
        254    2    1    2    0    0  0.53093036808E+03  0.22873489738E+03  0.12386930729E+04  0.16262072899E+04  0.88089892264E+03 0.  0.
         23    2    4    4    0    0 -0.10166769122E+03 -0.18158140698E+03  0.57151011962E+03  0.61525525335E+03  0.92774366830E+02 0.  0.
         23    2    4    4    0    0  0.63259805931E+03  0.41031630436E+03  0.66718295325E+03  0.10109520366E+04  0.91384642286E+02 0.  0.
          1    1    3    3  502    0 -0.15398196712E+03 -0.34996509837E+02 -0.30837894711E+03  0.34645746769E+03  0.00000000000E+00 0. -1.
         -1    1    3    3    0  502 -0.37694840096E+03 -0.19373838755E+03 -0.61912590894E+03  0.75029430954E+03  0.00000000000E+00 0.  1.
         11    1    5    5    0    0 -0.88310882690E+02 -0.10211181606E+03  0.25365175131E+03  0.28734099242E+03  0.00000000000E+00 0.  1.
        -11    1    5    5    0    0 -0.13356808534E+02 -0.79469590917E+02  0.31785836831E+03  0.32791426093E+03  0.00000000000E+00 0. -1.
          3    1    6    6  503    0  0.49700004441E+03  0.29610008865E+03  0.46650556207E+03  0.74317679329E+03  0.00000000000E+00 0. -1.
         -3    1    6    6    0  503  0.13559801490E+03  0.11421621571E+03  0.20067739119E+03  0.26777524327E+03  0.00000000000E+00 0.  1.
<mgrwt>
<rscale>  0 0.27051188E+04</rscale>
<asrwt>0</asrwt>
<pdfrwt beam="1">  1        2 0.18552083E+00 0.27051188E+04</pdfrwt>
<pdfrwt beam="2">  1       -2 0.23339595E+00 0.27051188E+04</pdfrwt>
<totfact> 0.13414241E+00</totfact>
</mgrwt>
</event>
<event>
12    2  0.3552864E-008  0.1148084E+04  0.7818608E-02  0.9159553E-01
         -1   -1    0    0    0  501 -0.00000000000E+00  0.00000000000E+00  0.19339160373E+03  0.19339160373E+03  0.00000000000E+00 0.  1.
          1   -1    0    0  501    0  0.00000000000E+00 -0.00000000000E+00 -0.17039233884E+04  0.17039233884E+04  0.00000000000E+00 0. -1.
         23    2    1    2    0    0 -0.36799948159E+02 -0.87371512195E+02  0.46376028658E+01  0.13133477558E+03  0.90770582181E+02 0.  0.
        254    2    1    2    0    0  0.36799948159E+02  0.87371512195E+02 -0.15151693875E+04  0.17659802165E+04  0.90219722621E+03 0.  0.
         23    2    4    4    0    0  0.42266457499E+03 -0.96467303644E+01 -0.44622954351E+03  0.62132004595E+03  0.90439989144E+02 0.  0.
         23    2    4    4    0    0 -0.38586462683E+03  0.97018242559E+02 -0.10689398440E+04  0.11446601706E+04  0.96490758122E+02 0.  0.
          1    1    3    3  502    0  0.94199727458E+00 -0.22215551365E+02  0.41814784360E+02  0.47359204728E+02  0.00000000000E+00 0. -1.
         -1    1    3    3    0  502 -0.37741945433E+02 -0.65155960829E+02 -0.37177181494E+02  0.83975570856E+02  0.00000000000E+00 0.  1.
         11    1    5    5    0    0  0.28084533539E+03 -0.11242850627E+01 -0.35424488899E+03  0.45206726026E+03  0.00000000000E+00 0.  1.
        -11    1    5    5    0    0  0.14181923960E+03 -0.85224453017E+01 -0.91984654525E+02  0.16925278569E+03  0.00000000000E+00 0. -1.
          2    1    6    6  503    0  0.25545902715E+01 -0.17537120181E+01 -0.44588711459E+02  0.44696248465E+02  0.00000000000E+00 0. -1.
         -2    1    6    6    0  503 -0.38841921710E+03  0.98771954577E+02 -0.10243511325E+04  0.10999639221E+04  0.00000000000E+00 0.  1.
<mgrwt>
<rscale>  0 0.11480845E+04</rscale>
<asrwt>0</asrwt>
<pdfrwt beam="1">  1        1 0.26214206E+00 0.11480845E+04</pdfrwt>
<pdfrwt beam="2">  1       -1 0.29752554E-01 0.11480845E+04</pdfrwt>
<totfact> 0.48736548E+01</totfact>
</mgrwt>
</event>
<event>
12    2  0.3552864E-008  0.2322955E+04  0.7818608E-02  0.8468925E-01
          1   -1    0    0  501    0  0.00000000000E+00  0.00000000000E+00  0.14046151552E+04  0.14046151552E+04  0.00000000000E+00 0. -1.
         -1   -1    0    0    0  501 -0.00000000000E+00 -0.00000000000E+00 -0.96042640233E+03  0.96042640233E+03  0.00000000000E+00 0.  1.
         23    2    1    2    0    0 -0.19476686652E+03  0.13947399667E+03 -0.78261739409E+03  0.82354570178E+03  0.91380574226E+02 0.  0.
        254    2    1    2    0    0  0.19476686652E+03 -0.13947399667E+03  0.12268061469E+04  0.15414958557E+04  0.90209147152E+03 0.  0.
         23    2    4    4    0    0  0.21373678177E+03 -0.48471800139E+03  0.94048871349E+03  0.10833399531E+04  0.92040648313E+02 0.  0.
         23    2    4    4    0    0 -0.18969915251E+02  0.34524400472E+03  0.28631743342E+03  0.45815590264E+03  0.91519822753E+02 0.  0.
          2    1    3    3  502    0 -0.12932985827E+03  0.13697824862E+03 -0.52646465620E+03  0.55915497589E+03  0.00000000000E+00 0. -1.
         -2    1    3    3    0  502 -0.65437008257E+02  0.24957480469E+01 -0.25615273789E+03  0.26439072589E+03  0.00000000000E+00 0.  1.
         11    1    5    5    0    0  0.20577832052E+03 -0.43353310016E+03  0.79166045458E+03  0.92575479555E+03  0.00000000000E+00 0.  1.
        -11    1    5    5    0    0  0.79584612583E+01 -0.51184901235E+02  0.14882825891E+03  0.15758515752E+03  0.00000000000E+00 0. -1.
          3    1    6    6  503    0  0.71847561733E+01  0.10258294595E+02  0.38952205426E+02  0.40916104859E+02  0.00000000000E+00 0. -1.
         -3    1    6    6    0  503 -0.26154671424E+02  0.33498571013E+03  0.24736522800E+03  0.41723979778E+03  0.00000000000E+00 0.  1.
<mgrwt>
<rscale>  0 0.23229546E+04</rscale>
<asrwt>0</asrwt>
<pdfrwt beam="1">  1        1 0.21609464E+00 0.23229546E+04</pdfrwt>
<pdfrwt beam="2">  1       -1 0.14775791E+00 0.23229546E+04</pdfrwt>
<totfact> 0.24995312E+00</totfact>
</mgrwt>
</event>
<event>
12    2  0.3552864E-008  0.1510984E+04  0.7818608E-02  0.8877181E-01
          1   -1    0    0  501    0  0.00000000000E+00  0.00000000000E+00  0.20710504553E+04  0.20710504553E+04  0.00000000000E+00 0. -1.
         -1   -1    0    0    0  501 -0.00000000000E+00 -0.00000000000E+00 -0.27559352803E+03  0.27559352803E+03  0.00000000000E+00 0.  1.
         23    2    1    2    0    0 -0.41952011481E+03  0.24261504521E+03  0.60003084972E+03  0.77682514900E+03  0.92526237423E+02 0.  0.
        254    2    1    2    0    0  0.41952011481E+03 -0.24261504521E+03  0.11954260776E+04  0.15698188343E+04  0.89466668588E+03 0.  0.
         23    2    4    4    0    0  0.67949901580E+03 -0.23414018057E+03  0.98593183513E+03  0.12234426804E+04  0.90608344688E+02 0.  0.
         23    2    4    4    0    0 -0.25997890099E+03 -0.84748646385E+01  0.20949424242E+03  0.34637615390E+03  0.91802778239E+02 0.  0.
          4    1    3    3  502    0 -0.24430258220E+03  0.15906285535E+03  0.29115166349E+03  0.41201217794E+03  0.00000000000E+00 0. -1.
         -4    1    3    3    0  502 -0.17521753261E+03  0.83552189860E+02  0.30887918623E+03  0.36481297106E+03  0.00000000000E+00 0.  1.
         11    1    5    5    0    0  0.44579348669E+03 -0.19530140028E+03  0.68954579289E+03  0.84400703209E+03  0.00000000000E+00 0.  1.
        -11    1    5    5    0    0  0.23370552911E+03 -0.38838780292E+02  0.29638604225E+03  0.37943564834E+03  0.00000000000E+00 0. -1.
          4    1    6    6  503    0 -0.20621980627E+03  0.31771728907E+02  0.15615817891E+03  0.26061739791E+03  0.00000000000E+00 0.  1.
         -4    1    6    6    0  503 -0.53759094722E+02 -0.40246593546E+02  0.53336063515E+02  0.85758755988E+02  0.00000000000E+00 0. -1.
<mgrwt>
<rscale>  0 0.15109839E+04</rscale>
<asrwt>0</asrwt>
<pdfrwt beam="1">  1        1 0.31862314E+00 0.15109839E+04</pdfrwt>
<pdfrwt beam="2">  1       -1 0.42399006E-01 0.15109839E+04</pdfrwt>
<totfact> 0.14111764E+01</totfact>
</mgrwt>
</event>
<event>
12    2  0.3552864E-008  0.1574581E+04  0.7818608E-02  0.8836318E-01
          1   -1    0    0  501    0  0.00000000000E+00  0.00000000000E+00  0.35564290356E+04  0.35564290356E+04  0.00000000000E+00 0. -1.
         -1   -1    0    0    0  501 -0.00000000000E+00 -0.00000000000E+00 -0.17428344200E+03  0.17428344200E+03  0.00000000000E+00 0.  1.
         23    2    1    2    0    0 -0.24439255020E+03 -0.16786068570E+03  0.21595535082E+04  0.21816987103E+04  0.90735764738E+02 0.  0.
        254    2    1    2    0    0  0.24439255020E+03  0.16786068570E+03  0.12225920854E+04  0.15490137674E+04  0.90377392962E+03 0.  0.
         23    2    4    4    0    0  0.40473267817E+03 -0.20462457749E+03  0.93721536481E+03  0.10451215972E+04  0.90701457035E+02 0.  0.
         23    2    4    4    0    0 -0.16034012796E+03  0.37248526319E+03  0.28537672058E+03  0.50389217022E+03  0.89516583010E+02 0.  0.
          3    1    3    3  502    0 -0.10433057946E+03 -0.11635612505E+03  0.91784119031E+03  0.93105105568E+03  0.00000000000E+00 0. -1.
         -3    1    3    3    0  502 -0.14006197074E+03 -0.51504560646E+02  0.12417123179E+04  0.12506476546E+04  0.00000000000E+00 0.  1.
         11    1    5    5    0    0  0.16045915073E+03 -0.39807183432E+02  0.28615543654E+03  0.33047947707E+03  0.00000000000E+00 0. -1.
        -11    1    5    5    0    0  0.24427352744E+03 -0.16481739406E+03  0.65105992828E+03  0.71464212008E+03  0.00000000000E+00 0.  1.
          2    1    6    6  503    0 -0.39170028127E+02  0.24995629138E+02  0.22434950084E+02  0.51598445371E+02  0.00000000000E+00 0. -1.
         -2    1    6    6    0  503 -0.12117009984E+03  0.34748963405E+03  0.26294177050E+03  0.45229372485E+03  0.00000000000E+00 0.  1.
<mgrwt>
<rscale>  0 0.15745815E+04</rscale>
<asrwt>0</asrwt>
<pdfrwt beam="1">  1        1 0.54714287E+00 0.15745815E+04</pdfrwt>
<pdfrwt beam="2">  1       -1 0.26812840E-01 0.15745815E+04</pdfrwt>
<totfact> 0.27199308E+00</totfact>
</mgrwt>
</event>
<event>
12    2  0.3552864E-008  0.2316936E+04  0.7818608E-02  0.8471273E-01
          2   -1    0    0  501    0  0.00000000000E+00  0.00000000000E+00  0.36128163373E+04  0.36128163373E+04  0.00000000000E+00 0. -1.
         -2   -1    0    0    0  501 -0.00000000000E+00 -0.00000000000E+00 -0.37146854801E+03  0.37146854801E+03  0.00000000000E+00 0.  1.
         23    2    1    2    0    0 -0.26153586663E+03  0.49041170082E+03 -0.10082674821E+02  0.56373202802E+03  0.93741630261E+02 0.  0.
        254    2    1    2    0    0  0.26153586663E+03 -0.49041170082E+03  0.32514304641E+04  0.34205528573E+04  0.90524976707E+03 0.  0.
         23    2    4    4    0    0  0.57297375193E+03 -0.32217240651E+03  0.24740417565E+04  0.25615241708E+04  0.91812226458E+02 0.  0.
         23    2    4    4    0    0 -0.31143788530E+03 -0.16823929432E+03  0.77738870759E+03  0.85902868645E+03  0.91099203628E+02 0.  0.
          4    1    3    3  502    0 -0.26338209377E+02  0.10120213830E+03  0.25339781916E+02  0.10759962183E+03  0.00000000000E+00 0. -1.
         -4    1    3    3    0  502 -0.23519765725E+03  0.38920956252E+03 -0.35422456737E+02  0.45613240619E+03  0.00000000000E+00 0.  1.
         11    1    5    5    0    0  0.15176863972E+03 -0.42688550524E+02  0.63435131560E+03  0.65364946565E+03  0.00000000000E+00 0. -1.
        -11    1    5    5    0    0  0.42120511221E+03 -0.27948385598E+03  0.18396904409E+04  0.19078747051E+04  0.00000000000E+00 0.  1.
          3    1    6    6  503    0 -0.19982803261E+03 -0.12485129638E+03  0.41322988973E+03  0.47568690395E+03  0.00000000000E+00 0.  1.
         -3    1    6    6    0  503 -0.11160985269E+03 -0.43387997932E+02  0.36415881787E+03  0.38334178250E+03  0.00000000000E+00 0. -1.
<mgrwt>
<rscale>  0 0.23169356E+04</rscale>
<asrwt>0</asrwt>
<pdfrwt beam="1">  1        2 0.55581787E+00 0.23169356E+04</pdfrwt>
<pdfrwt beam="2">  1       -2 0.57149010E-01 0.23169356E+04</pdfrwt>
<totfact> 0.17614991E+00</totfact>
</mgrwt>
</event>
<event>
12    2  0.3552864E-008  0.1455468E+04  0.7818608E-02  0.8914618E-01
          1   -1    0    0  501    0  0.00000000000E+00  0.00000000000E+00  0.11305827170E+04  0.11305827170E+04  0.00000000000E+00 0. -1.
         -1   -1    0    0    0  501 -0.00000000000E+00 -0.00000000000E+00 -0.46842827672E+03  0.46842827672E+03  0.00000000000E+00 0.  1.
         23    2    1    2    0    0 -0.51824966093E+02  0.11955704543E+03 -0.26059509640E+03  0.30399586618E+03  0.86740810270E+02 0.  0.
        254    2    1    2    0    0  0.51824966093E+02 -0.11955704543E+03  0.92274953670E+03  0.12950151276E+04  0.89923176039E+03 0.  0.
         23    2    4    4    0    0 -0.57872974780E+02 -0.46557016967E+03  0.28752118412E+03  0.55773309080E+03  0.91065389437E+02 0.  0.
         23    2    4    4    0    0  0.10969794087E+03  0.34601312424E+03  0.63522835258E+03  0.73728203675E+03  0.91164803624E+02 0.  0.
          3    1    3    3  502    0 -0.43691715125E+02  0.23315284079E+02 -0.14576074500E+03  0.15394402627E+03  0.00000000000E+00 0. -1.
         -3    1    3    3    0  502 -0.81332509681E+01  0.96241761351E+02 -0.11483435141E+03  0.15005183992E+03  0.00000000000E+00 0.  1.
         11    1    5    5    0    0 -0.41046073843E+02 -0.45627792163E+03  0.27025436375E+03  0.53189448490E+03  0.00000000000E+00 0. -1.
        -11    1    5    5    0    0 -0.16826900938E+02 -0.92922480437E+01  0.17266820370E+02  0.25838605894E+02  0.00000000000E+00 0.  1.
          2    1    6    6  503    0  0.10673625719E+03  0.34866072993E+03  0.63611511980E+03  0.73321168760E+03  0.00000000000E+00 0. -1.
         -2    1    6    6    0  503  0.29616836856E+01 -0.26476056913E+01 -0.88676721787E+00  0.40703491556E+01  0.00000000000E+00 0.  1.
<mgrwt>
<rscale>  0 0.14554682E+04</rscale>
<asrwt>0</asrwt>
<pdfrwt beam="1">  1        1 0.17393580E+00 0.14554682E+04</pdfrwt>
<pdfrwt beam="2">  1       -1 0.72065889E-01 0.14554682E+04</pdfrwt>
<totfact> 0.22686441E+01</totfact>
</mgrwt>
</event>
<event>
12    2  0.3552864E-008  0.1227272E+04  0.7818608E-02  0.9089314E-01
         -2   -1    0    0    0  501 -0.00000000000E+00  0.00000000000E+00  0.25475055976E+03  0.25475055976E+03  0.00000000000E+00 0.  1.
          2   -1    0    0  501    0  0.00000000000E+00 -0.00000000000E+00 -0.14781101169E+04  0.14781101169E+04  0.00000000000E+00 0. -1.
         23    2    1    2    0    0 -0.28721584464E+02  0.27188069768E+03 -0.35478836871E+03  0.45709380545E+03  0.91191651066E+02 0.  0.
        254    2    1    2    0    0  0.28721584464E+02 -0.27188069768E+03 -0.86857118843E+03  0.12757668712E+04  0.89354415510E+03 0.  0.
         23    2    4    4    0    0  0.35844927229E+03  0.10983844027E+03 -0.20351276644E+03  0.43601145137E+03  0.90211838757E+02 0.  0.
         23    2    4    4    0    0 -0.32972768783E+03 -0.38171913795E+03 -0.66505842199E+03  0.83975541984E+03  0.91959839609E+02 0.  0.
          2    1    3    3  502    0  0.20946384053E+02  0.33925080589E+02 -0.85372015498E+02  0.94223368269E+02  0.00000000000E+00 0. -1.
         -2    1    3    3    0  502 -0.49667968517E+02  0.23795561709E+03 -0.26941635321E+03  0.36287043718E+03  0.00000000000E+00 0.  1.
         11    1    5    5    0    0  0.14714981996E+03  0.85133450835E+02 -0.64220801086E+02  0.18172805303E+03  0.00000000000E+00 0. -1.
        -11    1    5    5    0    0  0.21129945233E+03  0.24704989437E+02 -0.13929196536E+03  0.25428339834E+03  0.00000000000E+00 0.  1.
          1    1    6    6  503    0 -0.15610057144E+03 -0.11360713058E+03 -0.23822416564E+03  0.30663450820E+03  0.00000000000E+00 0. -1.
         -1    1    6    6    0  503 -0.17362711638E+03 -0.26811200737E+03 -0.42683425634E+03  0.53312091164E+03  0.00000000000E+00 0.  1.
<mgrwt>
<rscale>  0 0.12272724E+04</rscale>
<asrwt>0</asrwt>
<pdfrwt beam="1">  1        2 0.22740156E+00 0.12272724E+04</pdfrwt>
<pdfrwt beam="2">  1       -2 0.39192393E-01 0.12272724E+04</pdfrwt>
<totfact> 0.79144327E+01</totfact>
</mgrwt>
</event>
<event>
12    2  0.3552864E-008  0.1951642E+04  0.7818608E-02  0.8629569E-01
          2   -1    0    0  501    0  0.00000000000E+00  0.00000000000E+00  0.16800397681E+04  0.16800397681E+04  0.00000000000E+00 0.  1.
         -2   -1    0    0    0  501 -0.00000000000E+00 -0.00000000000E+00 -0.56678830115E+03  0.56678830115E+03  0.00000000000E+00 0. -1.
         23    2    1    2    0    0  0.63274989946E+03 -0.19677214841E+03  0.89834689569E+03  0.11196015998E+04  0.85958616182E+02 0.  0.
        254    2    1    2    0    0 -0.63274989946E+03  0.19677214841E+03  0.21490457122E+03  0.11272264694E+04  0.88620755181E+03 0.  0.
         23    2    4    4    0    0 -0.82601845050E+02  0.20465288259E+03 -0.28938509368E+03  0.37523239758E+03  0.91376980645E+02 0.  0.
         23    2    4    4    0    0 -0.55014805441E+03 -0.78807341866E+01  0.50428966490E+03  0.75199407180E+03  0.91989293709E+02 0.  0.
          3    1    3    3  502    0  0.35192530486E+03 -0.10538702142E+03  0.56850593926E+03  0.67687284438E+03  0.00000000000E+00 0. -1.
         -3    1    3    3    0  502  0.28082459460E+03 -0.91385126992E+02  0.32984095643E+03  0.44272875545E+03  0.00000000000E+00 0.  1.
         11    1    5    5    0    0 -0.46479442412E+02  0.10842257212E+03 -0.22470770088E+03  0.25378995951E+03  0.00000000000E+00 0.  1.
        -11    1    5    5    0    0 -0.36122402638E+02  0.96230310471E+02 -0.64677392797E+02  0.12144243807E+03  0.00000000000E+00 0. -1.
          1    1    6    6  503    0 -0.10404264339E+03 -0.25190980103E+02  0.13713451826E+03  0.17396934564E+03  0.00000000000E+00 0. -1.
         -1    1    6    6    0  503 -0.44610541102E+03  0.17310245917E+02  0.36715514663E+03  0.57802472616E+03  0.00000000000E+00 0.  1.
<mgrwt>
<rscale>  0 0.19516423E+04</rscale>
<asrwt>0</asrwt>
<pdfrwt beam="1">  1        2 0.25846765E+00 0.19516423E+04</pdfrwt>
<pdfrwt beam="2">  1       -2 0.87198201E-01 0.19516423E+04</pdfrwt>
<totfact> 0.10665541E+01</totfact>
</mgrwt>
</event>
<event>
12    2  0.3552864E-008  0.2706482E+04  0.7818608E-02  0.8332905E-01
          2   -1    0    0  501    0  0.00000000000E+00  0.00000000000E+00  0.87348316529E+03  0.87348316529E+03  0.00000000000E+00 0. -1.
         -2   -1    0    0    0  501 -0.00000000000E+00 -0.00000000000E+00 -0.20965036199E+04  0.20965036199E+04  0.00000000000E+00 0.  1.
         23    2    1    2    0    0 -0.91065073851E+03 -0.76373433584E+03 -0.39237903504E+03  0.12549191933E+04  0.91027311280E+02 0.  0.
        254    2    1    2    0    0  0.91065073851E+03  0.76373433584E+03 -0.83064141962E+03  0.17150675919E+04  0.91592399985E+03 0.  0.
         23    2    4    4    0    0  0.15453408213E+03  0.35678431822E+03 -0.74734350101E+03  0.84711399741E+03  0.88904352160E+02 0.  0.
         23    2    4    4    0    0  0.75611665638E+03  0.40695001761E+03 -0.83297918610E+02  0.86795359449E+03  0.95310985983E+02 0.  0.
          3    1    3    3  502    0 -0.11018613915E+03 -0.92808000365E+02 -0.17029874409E+02  0.14506662888E+03  0.00000000000E+00 0. -1.
         -3    1    3    3    0  502 -0.80046459936E+03 -0.67092633547E+03 -0.37534916063E+03  0.11098525645E+04  0.00000000000E+00 0.  1.
         11    1    5    5    0    0  0.31989573425E+02  0.61965522858E+02 -0.21859350843E+03  0.22944755558E+03  0.00000000000E+00 0.  1.
        -11    1    5    5    0    0  0.12254450870E+03  0.29481879537E+03 -0.52874999257E+03  0.61766644183E+03  0.00000000000E+00 0. -1.
          2    1    6    6  503    0  0.30673169451E+03  0.12647874647E+03 -0.43898734625E+00  0.33178516910E+03  0.00000000000E+00 0. -1.
         -2    1    6    6    0  503  0.44938496187E+03  0.28047127114E+03 -0.82858931264E+02  0.53616842539E+03  0.00000000000E+00 0.  1.
<mgrwt>
<rscale>  0 0.27064816E+04</rscale>
<asrwt>0</asrwt>
<pdfrwt beam="1">  1        2 0.13438203E+00 0.27064816E+04</pdfrwt>
<pdfrwt beam="2">  1       -2 0.32253902E+00 0.27064816E+04</pdfrwt>
<totfact> 0.61907300E-01</totfact>
</mgrwt>
</event>
<event>
12    2  0.3552864E-008  0.1613171E+04  0.7818608E-02  0.8812497E-01
          2   -1    0    0  501    0  0.00000000000E+00  0.00000000000E+00  0.12723399137E+04  0.12723399137E+04  0.00000000000E+00 0. -1.
         -2   -1    0    0    0  501 -0.00000000000E+00 -0.00000000000E+00 -0.51132575102E+03  0.51132575102E+03  0.00000000000E+00 0.  1.
         23    2    1    2    0    0 -0.58072485143E+01 -0.55353207967E+03  0.25406431039E+03  0.61593848842E+03  0.91651843111E+02 0.  0.
        254    2    1    2    0    0  0.58072485143E+01  0.55353207967E+03  0.50694985227E+03  0.11677271763E+04  0.89451501839E+03 0.  0.
         23    2    4    4    0    0  0.27129666169E+03  0.17942149976E+01  0.46487828969E+03  0.54734690498E+03  0.99356491049E+02 0.  0.
         23    2    4    4    0    0 -0.26548941317E+03  0.55173786467E+03  0.42071562588E+02  0.62038027130E+03  0.90566907937E+02 0.  0.
          4    1    3    3  502    0  0.21429134701E+02 -0.12376527771E+03  0.92531549440E+02  0.15601006193E+03  0.00000000000E+00 0. -1.
         -4    1    3    3    0  502 -0.27236383215E+02 -0.42976680196E+03  0.16153276095E+03  0.45992842649E+03  0.00000000000E+00 0.  1.
         11    1    5    5    0    0  0.10874831690E+03 -0.17632239319E+02  0.10594672730E+03  0.15284567811E+03  0.00000000000E+00 0. -1.
        -11    1    5    5    0    0  0.16254834479E+03  0.19426454317E+02  0.35893156238E+03  0.39450122686E+03  0.00000000000E+00 0.  1.
          4    1    6    6  503    0 -0.17148038838E+03  0.36026156827E+03  0.70542863071E+02  0.40517924022E+03  0.00000000000E+00 0. -1.
         -4    1    6    6    0  503 -0.94009024797E+02  0.19147629640E+03 -0.28471300483E+02  0.21520103108E+03  0.00000000000E+00 0.  1.
<mgrwt>
<rscale>  0 0.16131710E+04</rscale>
<asrwt>0</asrwt>
<pdfrwt beam="1">  1        2 0.19574460E+00 0.16131710E+04</pdfrwt>
<pdfrwt beam="2">  1       -2 0.78665500E-01 0.16131710E+04</pdfrwt>
<totfact> 0.23600223E+01</totfact>
</mgrwt>
</event>
<event>
12    2  0.3552864E-008  0.2659709E+04  0.7818608E-02  0.8348198E-01
          2   -1    0    0  501    0  0.00000000000E+00  0.00000000000E+00  0.26773268247E+04  0.26773268247E+04  0.00000000000E+00 0. -1.
         -2   -1    0    0    0  501 -0.00000000000E+00 -0.00000000000E+00 -0.66055189401E+03  0.66055189401E+03  0.00000000000E+00 0.  1.
         23    2    1    2    0    0  0.16565499003E+03 -0.82234308587E+02  0.23575786736E+04  0.23663536013E+04  0.85135815069E+02 0.  0.
        254    2    1    2    0    0 -0.16565499003E+03  0.82234308587E+02 -0.34080374293E+03  0.97152511737E+03  0.89079167332E+03 0.  0.
         23    2    4    4    0    0  0.13954370988E+03 -0.19175780518E+03  0.17328728296E+03  0.30748346266E+03  0.90962050109E+02 0.  0.
         23    2    4    4    0    0 -0.30519869991E+03  0.27399211377E+03 -0.51409102589E+03  0.66404165471E+03  0.91890214118E+02 0.  0.
          4    1    3    3  502    0  0.10492047514E+03 -0.89868192394E+02  0.18373139296E+04  0.18425002236E+04  0.00000000000E+00 0. -1.
         -4    1    3    3    0  502  0.60734514885E+02  0.76338838068E+01  0.52026474404E+03  0.52385337774E+03  0.00000000000E+00 0.  1.
         11    1    5    5    0    0  0.23403020920E+02 -0.18406580448E+02  0.66987242682E+02  0.73306168049E+02  0.00000000000E+00 0.  1.
        -11    1    5    5    0    0  0.11614068896E+03 -0.17335122473E+03  0.10630004027E+03  0.23417729461E+03  0.00000000000E+00 0. -1.
          3    1    6    6  503    0 -0.26095928989E+03  0.26624759937E+03 -0.47935915680E+03  0.60726661061E+03  0.00000000000E+00 0. -1.
         -3    1    6    6    0  503 -0.44239410016E+02  0.77445143982E+01 -0.34731869092E+02  0.56775044099E+02  0.00000000000E+00 0.  1.
<mgrwt>
<rscale>  0 0.26597092E+04</rscale>
<asrwt>0</asrwt>
<pdfrwt beam="1">  1        2 0.41189643E+00 0.26597092E+04</pdfrwt>
<pdfrwt beam="2">  1       -2 0.10162337E+00 0.26597092E+04</pdfrwt>
<totfact> 0.19161933E+00</totfact>
</mgrwt>
</event>
<event>
12    2  0.3552864E-008  0.1105939E+04  0.7818608E-02  0.9199423E-01
          2   -1    0    0  501    0  0.00000000000E+00  0.00000000000E+00  0.57199598117E+03  0.57199598117E+03  0.00000000000E+00 0. -1.
         -2   -1    0    0    0  501 -0.00000000000E+00 -0.00000000000E+00 -0.53457550557E+03  0.53457550557E+03  0.00000000000E+00 0.  1.
         23    2    1    2    0    0 -0.14562154205E+03  0.49064255987E+02 -0.63150927199E+02  0.18891602246E+03  0.89934916520E+02 0.  0.
        254    2    1    2    0    0  0.14562154205E+03 -0.49064255987E+02  0.10057140280E+03  0.91765546429E+03  0.89909065691E+03 0.  0.
         23    2    4    4    0    0  0.11978804051E+02 -0.71448390429E+02  0.48597919754E+03  0.49920527452E+03  0.88214292632E+02 0.  0.
         23    2    4    4    0    0  0.13364273800E+03  0.22384134442E+02 -0.38540779475E+03  0.41845018977E+03  0.90553642494E+02 0.  0.
          4    1    3    3  502    0 -0.39425780384E+02  0.34047704443E+01 -0.61713847886E+02  0.73311551897E+02  0.00000000000E+00 0. -1.
         -4    1    3    3    0  502 -0.10619576167E+03  0.45659485542E+02 -0.14370793122E+01  0.11560447056E+03  0.00000000000E+00 0.  1.
         11    1    5    5    0    0 -0.30998779543E+02 -0.23145263177E+01  0.99356255731E+02  0.10410546056E+03  0.00000000000E+00 0.  1.
        -11    1    5    5    0    0  0.42977583594E+02 -0.69133864111E+02  0.38662294181E+03  0.39509981396E+03  0.00000000000E+00 0. -1.
          2    1    6    6  503    0  0.51532784843E+02  0.19727903679E+02 -0.27693427111E+03  0.28237813055E+03  0.00000000000E+00 0. -1.
         -2    1    6    6    0  503  0.82109953158E+02  0.26562307630E+01 -0.10847352364E+03  0.13607205922E+03  0.00000000000E+00 0.  1.
<mgrwt>
<rscale>  0 0.11059386E+04</rscale>
<asrwt>0</asrwt>
<pdfrwt beam="1">  1        2 0.87999382E-01 0.11059386E+04</pdfrwt>
<pdfrwt beam="2">  1       -2 0.82242385E-01 0.11059386E+04</pdfrwt>
<totfact> 0.67756708E+01</totfact>
</mgrwt>
</event>
<event>
12    2  0.3552864E-008  0.1325998E+04  0.7818608E-02  0.9009199E-01
          1   -1    0    0  501    0  0.00000000000E+00  0.00000000000E+00  0.20079058416E+04  0.20079058416E+04  0.00000000000E+00 0. -1.
         -1   -1    0    0    0  501 -0.00000000000E+00 -0.00000000000E+00 -0.21891836108E+03  0.21891836108E+03  0.00000000000E+00 0.  1.
         23    2    1    2    0    0  0.26625204912E+03  0.10638387496E+03  0.82173158006E+03  0.87512605164E+03  0.91624964257E+02 0.  0.
        254    2    1    2    0    0 -0.26625204912E+03 -0.10638387496E+03  0.96725590041E+03  0.13516981510E+04  0.89960893281E+03 0.  0.
         23    2    4    4    0    0 -0.24151070904E+03 -0.21213978968E+03 -0.38229549684E+02  0.33657131533E+03  0.92130553504E+02 0.  0.
         23    2    4    4    0    0 -0.24741340084E+02  0.10575591472E+03  0.10054854501E+04  0.10151268357E+04  0.87664443790E+02 0.  0.
          3    1    3    3  502    0  0.24057920111E+03  0.71239893421E+02  0.62183167732E+03  0.67054314503E+03  0.00000000000E+00 0. -1.
         -3    1    3    3    0  502  0.25672848018E+02  0.35143981541E+02  0.19989990274E+03  0.20458290662E+03  0.00000000000E+00 0.  1.
         11    1    5    5    0    0 -0.18065158982E+03 -0.17879128148E+03 -0.64739259736E+02  0.26228322666E+03  0.00000000000E+00 0. -1.
        -11    1    5    5    0    0 -0.60859119218E+02 -0.33348508209E+02  0.26509710052E+02  0.74288088673E+02  0.00000000000E+00 0.  1.
          3    1    6    6  503    0 -0.39179830841E+02  0.99414558625E+01  0.38577770603E+03  0.38788958501E+03  0.00000000000E+00 0. -1.
         -3    1    6    6    0  503  0.14438490757E+02  0.95814458859E+02  0.61970774407E+03  0.62723725064E+03  0.00000000000E+00 0.  1.
<mgrwt>
<rscale>  0 0.13259977E+04</rscale>
<asrwt>0</asrwt>
<pdfrwt beam="1">  1        1 0.30890858E+00 0.13259977E+04</pdfrwt>
<pdfrwt beam="2">  1       -1 0.33679749E-01 0.13259977E+04</pdfrwt>
<totfact> 0.24022815E+01</totfact>
</mgrwt>
</event>
<event>
12    2  0.3552864E-008  0.1188231E+04  0.7818608E-02  0.9123220E-01
          2   -1    0    0  501    0  0.00000000000E+00  0.00000000000E+00  0.77247952509E+03  0.77247952509E+03  0.00000000000E+00 0. -1.
         -2   -1    0    0    0  501 -0.00000000000E+00 -0.00000000000E+00 -0.45693575149E+03  0.45693575149E+03  0.00000000000E+00 0.  1.
         23    2    1    2    0    0 -0.10104972866E+03 -0.26472959223E+02  0.29733718951E+03  0.32836341947E+03  0.92202308803E+02 0.  0.
        254    2    1    2    0    0  0.10104972866E+03  0.26472959223E+02  0.18206584088E+02  0.90105185711E+03  0.89479109533E+03 0.  0.
         23    2    4    4    0    0  0.45975358217E+03 -0.13963977671E+03 -0.41564885921E+02  0.49080337733E+03  0.91036761252E+02 0.  0.
         23    2    4    4    0    0 -0.35870385351E+03  0.16611273594E+03  0.59771470009E+02  0.41024847978E+03  0.92028750800E+02 0.  0.
          3    1    3    3  502    0 -0.11195648164E+03 -0.61557242913E+01  0.21030578451E+03  0.23832891079E+03  0.00000000000E+00 0. -1.
         -3    1    3    3    0  502  0.10906752984E+02 -0.20317234931E+02  0.87031404998E+02  0.90034508672E+02  0.00000000000E+00 0.  1.
         11    1    5    5    0    0  0.15863269827E+03 -0.94176537414E+02 -0.18075814421E+02  0.18536528323E+03  0.00000000000E+00 0. -1.
        -11    1    5    5    0    0  0.30112088390E+03 -0.45463239299E+02 -0.23489071500E+02  0.30543809410E+03  0.00000000000E+00 0.  1.
          3    1    6    6  503    0 -0.18669200480E+02  0.10073748853E+02  0.27499822813E+02  0.34731249866E+02  0.00000000000E+00 0. -1.
         -3    1    6    6    0  503 -0.34003465303E+03  0.15603898708E+03  0.32271647196E+02  0.37551722992E+03  0.00000000000E+00 0.  1.
<mgrwt>
<rscale>  0 0.11882315E+04</rscale>
<asrwt>0</asrwt>
<pdfrwt beam="1">  1        2 0.11884300E+00 0.11882315E+04</pdfrwt>
<pdfrwt beam="2">  1       -2 0.70297808E-01 0.11882315E+04</pdfrwt>
<totfact> 0.65649787E+01</totfact>
</mgrwt>
</event>
<event>
12    2  0.3552864E-008  0.1200628E+04  0.7818608E-02  0.9112307E-01
          2   -1    0    0  501    0  0.00000000000E+00  0.00000000000E+00  0.10838475702E+04  0.10838475702E+04  0.00000000000E+00 0. -1.
         -2   -1    0    0    0  501 -0.00000000000E+00 -0.00000000000E+00 -0.33249786432E+03  0.33249786432E+03  0.00000000000E+00 0.  1.
         23    2    1    2    0    0  0.22980443048E+03  0.22305696799E+02  0.33324089111E+03  0.41633649529E+03  0.94757403010E+02 0.  0.
        254    2    1    2    0    0 -0.22980443048E+03 -0.22305696799E+02  0.41810881476E+03  0.10000089392E+04  0.87857570942E+03 0.  0.
         23    2    4    4    0    0 -0.23399223852E+03  0.36660503657E+03  0.40273721855E+03  0.59954912945E+03  0.90057042431E+02 0.  0.
         23    2    4    4    0    0  0.41878080490E+01 -0.38891073337E+03  0.15371596209E+02  0.40045980978E+03  0.94141792038E+02 0.  0.
          4    1    3    3  502    0  0.16451903212E+03 -0.10318439500E+02  0.16637683331E+03  0.23420980506E+03  0.00000000000E+00 0. -1.
         -4    1    3    3    0  502  0.65285398351E+02  0.32624136299E+02  0.16686405780E+03  0.18212669023E+03  0.00000000000E+00 0.  1.
         11    1    5    5    0    0 -0.33222835234E+02  0.42129675210E+02  0.15359834520E+02  0.55808519339E+02  0.00000000000E+00 0.  1.
        -11    1    5    5    0    0 -0.20076940329E+03  0.32447536136E+03  0.38737738403E+03  0.54374061011E+03  0.00000000000E+00 0. -1.
          4    1    6    6  503    0  0.32322761431E+01 -0.34784078828E+03  0.43654308089E+02  0.35058431256E+03  0.00000000000E+00 0.  1.
         -4    1    6    6    0  503  0.95553190599E+00 -0.41069945094E+02 -0.28282711880E+02  0.49875497216E+02  0.00000000000E+00 0. -1.
<mgrwt>
<rscale>  0 0.12006282E+04</rscale>
<asrwt>0</asrwt>
<pdfrwt beam="1">  1        2 0.16674578E+00 0.12006282E+04</pdfrwt>
<pdfrwt beam="2">  1       -2 0.51153518E-01 0.12006282E+04</pdfrwt>
<totfact> 0.79431721E+01</totfact>
</mgrwt>
</event>
<event>
12    2  0.3552864E-008  0.2376129E+04  0.7818608E-02  0.8448495E-01
         -2   -1    0    0    0  501 -0.00000000000E+00  0.00000000000E+00  0.11556758302E+04  0.11556758302E+04  0.00000000000E+00 0.  1.
          2   -1    0    0  501    0  0.00000000000E+00 -0.00000000000E+00 -0.12213607875E+04  0.12213607875E+04  0.00000000000E+00 0. -1.
         23    2    1    2    0    0 -0.72004110020E+03 -0.18401162658E+03 -0.72332039917E+03  0.10411808656E+04  0.92443119603E+02 0.  0.
        254    2    1    2    0    0  0.72004110020E+03  0.18401162658E+03  0.65763544189E+03  0.13358557521E+04  0.89426324502E+03 0.  0.
         23    2    4    4    0    0 -0.33241636617E+02 -0.65517376763E+02  0.51100444175E+03  0.52393493064E+03  0.89357366722E+02 0.  0.
         23    2    4    4    0    0  0.75328273682E+03  0.24952900334E+03  0.14663100013E+03  0.81192082150E+03  0.89527454384E+02 0.  0.
          3    1    3    3  502    0 -0.42998206471E+03 -0.67698285910E+02 -0.44892963641E+03  0.62530428779E+03  0.00000000000E+00 0. -1.
         -3    1    3    3    0  502 -0.29005903549E+03 -0.11631334067E+03 -0.27439076276E+03  0.41587657782E+03  0.00000000000E+00 0.  1.
         11    1    5    5    0    0 -0.57571236211E+01  0.14868781651E+02  0.19721263924E+02  0.25360469059E+02  0.00000000000E+00 0. -1.
        -11    1    5    5    0    0 -0.27484512996E+02 -0.80386158414E+02  0.49128317783E+03  0.49857446158E+03  0.00000000000E+00 0.  1.
          4    1    6    6  503    0  0.43861707327E+03  0.98757357781E+02  0.78010918253E+02  0.45631530333E+03  0.00000000000E+00 0. -1.
         -4    1    6    6    0  503  0.31466566355E+03  0.15077164556E+03  0.68620081880E+02  0.35560551817E+03  0.00000000000E+00 0.  1.
<mgrwt>
<rscale>  0 0.23761289E+04</rscale>
<asrwt>0</asrwt>
<pdfrwt beam="1">  1        2 0.18790166E+00 0.23761289E+04</pdfrwt>
<pdfrwt beam="2">  1       -2 0.17779628E+00 0.23761289E+04</pdfrwt>
<totfact> 0.31126986E+00</totfact>
</mgrwt>
</event>
<event>
12    2  0.3552864E-008  0.1730272E+04  0.7818608E-02  0.8744285E-01
          1   -1    0    0  501    0  0.00000000000E+00  0.00000000000E+00  0.21615736948E+04  0.21615736948E+04  0.00000000000E+00 0. -1.
         -1   -1    0    0    0  501 -0.00000000000E+00 -0.00000000000E+00 -0.34625731413E+03  0.34625731413E+03  0.00000000000E+00 0.  1.
         23    2    1    2    0    0 -0.12248800513E+03  0.54914820853E+03  0.10672035700E+04  0.12099914627E+04  0.92675853206E+02 0.  0.
        254    2    1    2    0    0  0.12248800513E+03 -0.54914820853E+03  0.74811281072E+03  0.12978395462E+04  0.89897032423E+03 0.  0.
         23    2    4    4    0    0  0.49545201080E+03 -0.31070719396E+03  0.52982559817E+03  0.79457815378E+03  0.92884996634E+02 0.  0.
         23    2    4    4    0    0 -0.37296400567E+03 -0.23844101457E+03  0.21828721255E+03  0.50326139244E+03  0.98318131641E+02 0.  0.
          1    1    3    3  502    0 -0.48909346803E+00  0.48694381199E+02  0.49983910495E+02  0.69783760870E+02  0.00000000000E+00 0. -1.
         -1    1    3    3    0  502 -0.12199891166E+03  0.50045382733E+03  0.10172196595E+04  0.11402077019E+04  0.00000000000E+00 0.  1.
         11    1    5    5    0    0  0.27489815810E+03 -0.22565312097E+03  0.32577207096E+03  0.48230257158E+03  0.00000000000E+00 0.  1.
        -11    1    5    5    0    0  0.22055385270E+03 -0.85054072987E+02  0.20405352721E+03  0.31227558220E+03  0.00000000000E+00 0. -1.
          3    1    6    6  503    0 -0.14723925792E+01 -0.24778357066E+02  0.14154797772E+02  0.28574345465E+02  0.00000000000E+00 0. -1.
         -3    1    6    6    0  503 -0.37149161309E+03 -0.21366265750E+03  0.20413241477E+03  0.47468704698E+03  0.00000000000E+00 0.  1.
<mgrwt>
<rscale>  0 0.17302725E+04</rscale>
<asrwt>0</asrwt>
<pdfrwt beam="1">  1        1 0.33254979E+00 0.17302725E+04</pdfrwt>
<pdfrwt beam="2">  1       -1 0.53270357E-01 0.17302725E+04</pdfrwt>
<totfact> 0.78109373E+00</totfact>
</mgrwt>
</event>
<event>
12    2  0.3552864E-008  0.1562406E+04  0.7818608E-02  0.8843982E-01
          2   -1    0    0  501    0  0.00000000000E+00  0.00000000000E+00  0.17079674062E+04  0.17079674062E+04  0.00000000000E+00 0. -1.
         -2   -1    0    0    0  501 -0.00000000000E+00 -0.00000000000E+00 -0.35731237448E+03  0.35731237448E+03  0.00000000000E+00 0.  1.
         23    2    1    2    0    0 -0.29490055850E+03 -0.19640746060E+03  0.96750214110E+03  0.10339402606E+04  0.86196516364E+02 0.  0.
        254    2    1    2    0    0  0.29490055850E+03  0.19640746060E+03  0.38315289058E+03  0.10313395201E+04  0.88955766430E+03 0.  0.
         23    2    4    4    0    0  0.45408992022E+03  0.23698092608E+03 -0.85292054848E+02  0.52719539349E+03  0.91118786884E+02 0.  0.
         23    2    4    4    0    0 -0.15918936172E+03 -0.40573465477E+02  0.46844494543E+03  0.50414412658E+03  0.87938469855E+02 0.  0.
          1    1    3    3  502    0 -0.21150294577E+03 -0.16442320237E+03  0.62525571637E+03  0.68023025249E+03  0.00000000000E+00 0. -1.
         -1    1    3    3    0  502 -0.83397612726E+02 -0.31984258227E+02  0.34224642473E+03  0.35371000809E+03  0.00000000000E+00 0.  1.
         11    1    5    5    0    0  0.99033622982E+02  0.18070634003E+02  0.35112745561E+01  0.10073001213E+03  0.00000000000E+00 0.  1.
        -11    1    5    5    0    0  0.35505629724E+03  0.21891029207E+03 -0.88803329404E+02  0.42646538136E+03  0.00000000000E+00 0. -1.
          2    1    6    6  503    0 -0.14405339335E+03 -0.64434786784E+02  0.38707851847E+03  0.41801076702E+03  0.00000000000E+00 0. -1.
         -2    1    6    6    0  503 -0.15135968373E+02  0.23861321306E+02  0.81366426961E+02  0.86133359562E+02  0.00000000000E+00 0.  1.
<mgrwt>
<rscale>  0 0.15624057E+04</rscale>
<asrwt>0</asrwt>
<pdfrwt beam="1">  1        2 0.26276421E+00 0.15624057E+04</pdfrwt>
<pdfrwt beam="2">  1       -2 0.54971136E-01 0.15624057E+04</pdfrwt>
<totfact> 0.29051314E+01</totfact>
</mgrwt>
</event>
<event>
12    2  0.3552864E-008  0.2699114E+04  0.7818608E-02  0.8335293E-01
         -3   -1    0    0    0  501 -0.00000000000E+00  0.00000000000E+00  0.15806579040E+04  0.15806579040E+04  0.00000000000E+00 0.  1.
          3   -1    0    0  501    0  0.00000000000E+00 -0.00000000000E+00 -0.11522439510E+04  0.11522439510E+04  0.00000000000E+00 0. -1.
         23    2    1    2    0    0 -0.74385060650E+03 -0.78241282704E+03 -0.34491562177E+03  0.11369339676E+04  0.90379775468E+02 0.  0.
        254    2    1    2    0    0  0.74385060650E+03  0.78241282704E+03  0.77332957471E+03  0.15959678874E+04  0.88520693050E+03 0.  0.
         23    2    4    4    0    0  0.52373106544E+03  0.75370079001E+03  0.15815565248E+03  0.93571736701E+03  0.90524420714E+02 0.  0.
         23    2    4    4    0    0  0.22011954106E+03  0.28712037038E+02  0.61517392222E+03  0.66025052040E+03  0.90635543141E+02 0.  0.
          4    1    3    3  502    0 -0.49997876329E+03 -0.51039540511E+03 -0.27132804959E+03  0.76426510047E+03  0.00000000000E+00 0. -1.
         -4    1    3    3    0  502 -0.24387184320E+03 -0.27201742193E+03 -0.73587572185E+02  0.37266886712E+03  0.00000000000E+00 0.  1.
         11    1    5    5    0    0  0.26148291986E+03  0.34227007488E+03  0.11557810402E+03  0.44596010994E+03  0.00000000000E+00 0.  1.
        -11    1    5    5    0    0  0.26224814558E+03  0.41143071513E+03  0.42577548466E+02  0.48975725706E+03  0.00000000000E+00 0. -1.
          3    1    6    6  503    0  0.13522729678E+03  0.58285590406E+01  0.24627962987E+03  0.28102321965E+03  0.00000000000E+00 0. -1.
         -3    1    6    6    0  503  0.84892244284E+02  0.22883477997E+02  0.36889429235E+03  0.37922730075E+03  0.00000000000E+00 0.  1.
<mgrwt>
<rscale>  0 0.26991136E+04</rscale>
<asrwt>0</asrwt>
<pdfrwt beam="1">  1        3 0.17726830E+00 0.26991136E+04</pdfrwt>
<pdfrwt beam="2">  1       -3 0.24317814E+00 0.26991136E+04</pdfrwt>
<totfact> 0.37867183E-02</totfact>
</mgrwt>
</event>
<event>
12    2  0.3552864E-008  0.1517874E+04  0.7818608E-02  0.8872653E-01
         -2   -1    0    0    0  501 -0.00000000000E+00  0.00000000000E+00  0.50781897396E+03  0.50781897396E+03  0.00000000000E+00 0. -1.
          2   -1    0    0  501    0  0.00000000000E+00 -0.00000000000E+00 -0.11342335735E+04  0.11342335735E+04  0.00000000000E+00 0.  1.
         23    2    1    2    0    0  0.30948614450E+03  0.94802456498E+02 -0.55558078754E+03  0.64939507445E+03  0.90965772916E+02 0.  0.
        254    2    1    2    0    0 -0.30948614450E+03 -0.94802456498E+02 -0.70833811991E+02  0.99265747301E+03  0.93572552087E+03 0.  0.
         23    2    4    4    0    0 -0.37985098148E+03  0.28049007659E+03  0.19433486459E+03  0.51915243656E+03  0.93764394061E+02 0.  0.
         23    2    4    4    0    0  0.70364836982E+02 -0.37529253309E+03 -0.26516867658E+03  0.47350503645E+03  0.89982758492E+02 0.  0.
          3    1    3    3  502    0  0.27330260960E+02  0.37116197097E+02 -0.10457006092E+03  0.11427796328E+03  0.00000000000E+00 0. -1.
         -3    1    3    3    0  502  0.28215588354E+03  0.57686259401E+02 -0.45101072663E+03  0.53511711117E+03  0.00000000000E+00 0.  1.
         11    1    5    5    0    0 -0.31910087310E+03  0.25739144571E+03  0.13634181888E+03  0.43204723713E+03  0.00000000000E+00 0. -1.
        -11    1    5    5    0    0 -0.60750108382E+02  0.23098630883E+02  0.57993045711E+02  0.87105199431E+02  0.00000000000E+00 0.  1.
          3    1    6    6  503    0  0.81393079336E+02 -0.36844979431E+03 -0.24630039413E+03  0.45060400402E+03  0.00000000000E+00 0. -1.
         -3    1    6    6    0  503 -0.11028242354E+02 -0.68427387748E+01 -0.18868282455E+02  0.22901032426E+02  0.00000000000E+00 0.  1.
<mgrwt>
<rscale>  0 0.15178739E+04</rscale>
<asrwt>0</asrwt>
<pdfrwt beam="1">  1        2 0.17449747E+00 0.15178739E+04</pdfrwt>
<pdfrwt beam="2">  1       -2 0.78125998E-01 0.15178739E+04</pdfrwt>
<totfact> 0.29202541E+01</totfact>
</mgrwt>
</event>
<event>
12    2  0.3552864E-008  0.1185279E+04  0.7818608E-02  0.9125840E-01
         -1   -1    0    0    0  501 -0.00000000000E+00  0.00000000000E+00  0.23973428499E+03  0.23973428499E+03  0.00000000000E+00 0.  1.
          1   -1    0    0  501    0  0.00000000000E+00 -0.00000000000E+00 -0.14650456854E+04  0.14650456854E+04  0.00000000000E+00 0. -1.
         23    2    1    2    0    0 -0.26390928622E+02 -0.18479287903E+02  0.74518806372E+02  0.12288891150E+03  0.92253275667E+02 0.  0.
        254    2    1    2    0    0  0.26390928622E+02  0.18479287903E+02 -0.12998302068E+04  0.15818910589E+04  0.90098989480E+03 0.  0.
         23    2    4    4    0    0  0.29133081907E+03  0.32620981439E+03 -0.90036438574E+03  0.10049133532E+04  0.88928798469E+02 0.  0.
         23    2    4    4    0    0 -0.26493989044E+03 -0.30773052649E+03 -0.39946582102E+03  0.57697770567E+03  0.91864618819E+02 0.  0.
          1    1    3    3  502    0 -0.33194662558E+02 -0.45842405652E+02  0.17438560367E+02  0.59224278518E+02  0.00000000000E+00 0. -1.
         -1    1    3    3    0  502  0.68037339367E+01  0.27363117749E+02  0.57080246005E+02  0.63664632980E+02  0.00000000000E+00 0.  1.
         11    1    5    5    0    0  0.27009842490E+03  0.27933425501E+03 -0.84050530182E+03  0.92597513333E+03  0.00000000000E+00 0.  1.
        -11    1    5    5    0    0  0.21232394161E+02  0.46875559381E+02 -0.59859083916E+02  0.78938219871E+02  0.00000000000E+00 0. -1.
          3    1    6    6  503    0 -0.54831198187E+01  0.28311780943E+01 -0.24565395585E+02  0.25328616871E+02  0.00000000000E+00 0. -1.
         -3    1    6    6    0  503 -0.25945677063E+03 -0.31056170458E+03 -0.37490042544E+03  0.55164908880E+03  0.00000000000E+00 0.  1.
<mgrwt>
<rscale>  0 0.11852792E+04</rscale>
<asrwt>0</asrwt>
<pdfrwt beam="1">  1        1 0.22539165E+00 0.11852792E+04</pdfrwt>
<pdfrwt beam="2">  1       -1 0.36882197E-01 0.11852792E+04</pdfrwt>
<totfact> 0.48381772E+01</totfact>
</mgrwt>
</event>
<event>
12    2  0.3552864E-008  0.2108144E+04  0.7818608E-02  0.8557665E-01
          2   -1    0    0  501    0  0.00000000000E+00  0.00000000000E+00  0.15551272090E+04  0.15551272090E+04  0.00000000000E+00 0.  1.
         -2   -1    0    0    0  501 -0.00000000000E+00 -0.00000000000E+00 -0.71445431978E+03  0.71445431978E+03  0.00000000000E+00 0. -1.
         23    2    1    2    0    0  0.51519385159E+03 -0.43355349460E+03 -0.22959099237E+03  0.71738405083E+03  0.92382439924E+02 0.  0.
        254    2    1    2    0    0 -0.51519385159E+03  0.43355349460E+03  0.10702638816E+04  0.15521974779E+04  0.90025490664E+03 0.  0.
         23    2    4    4    0    0  0.10912962369E+03  0.35210363541E+03  0.10233498442E+03  0.39390286631E+03  0.93812441677E+02 0.  0.
         23    2    4    4    0    0 -0.62432347528E+03  0.81449859193E+02  0.96792889716E+03  0.11582946116E+04  0.91357408225E+02 0.  0.
          4    1    3    3  502    0  0.20671540505E+03 -0.11832388188E+03 -0.68599195311E+02  0.24786619234E+03  0.00000000000E+00 0. -1.
         -4    1    3    3    0  502  0.30847844654E+03 -0.31522961273E+03 -0.16099179706E+03  0.46951785849E+03  0.00000000000E+00 0.  1.
         11    1    5    5    0    0  0.32420533611E+01 -0.50833313662E+01  0.72099912085E+01  0.93986776198E+01  0.00000000000E+00 0.  1.
        -11    1    5    5    0    0  0.10588757033E+03  0.35718696678E+03  0.95124993210E+02  0.38450418869E+03  0.00000000000E+00 0. -1.
          3    1    6    6  503    0 -0.52236597423E+03  0.65279407152E+02  0.74070253772E+03  0.90871770171E+03  0.00000000000E+00 0. -1.
         -3    1    6    6    0  503 -0.10195750105E+03  0.16170452041E+02  0.22722635944E+03  0.24957690992E+03  0.00000000000E+00 0.  1.
<mgrwt>
<rscale>  0 0.21081436E+04</rscale>
<asrwt>0</asrwt>
<pdfrwt beam="1">  1        2 0.23925034E+00 0.21081436E+04</pdfrwt>
<pdfrwt beam="2">  1       -2 0.10991605E+00 0.21081436E+04</pdfrwt>
<totfact> 0.71645556E+00</totfact>
</mgrwt>
</event>
<event>
12    2  0.3552864E-008  0.1761564E+04  0.7818608E-02  0.8727010E-01
         -1   -1    0    0    0  501 -0.00000000000E+00  0.00000000000E+00  0.37556888555E+03  0.37556888555E+03  0.00000000000E+00 0.  1.
          1   -1    0    0  501    0  0.00000000000E+00 -0.00000000000E+00 -0.20656059132E+04  0.20656059132E+04  0.00000000000E+00 0. -1.
         23    2    1    2    0    0  0.11029165851E+03  0.98122257760E+02  0.24980379764E+03  0.30322477125E+03  0.88040315647E+02 0.  0.
        254    2    1    2    0    0 -0.11029165851E+03 -0.98122257760E+02 -0.19398408253E+04  0.21379500275E+04  0.88659780349E+03 0.  0.
         23    2    4    4    0    0 -0.18457921067E+03 -0.24177813069E+03 -0.19259569756E+04  0.19520144540E+04  0.92325549336E+02 0.  0.
         23    2    4    4    0    0  0.74287552166E+02  0.14365587293E+03 -0.13883849625E+02  0.18593557348E+03  0.90684210137E+02 0.  0.
          3    1    3    3  502    0  0.88257583530E+01 -0.16524224371E+02  0.29565042204E+02  0.35000510312E+02  0.00000000000E+00 0. -1.
         -3    1    3    3    0  502  0.10146590015E+03  0.11464648213E+03  0.22023875544E+03  0.26822426094E+03  0.00000000000E+00 0.  1.
         11    1    5    5    0    0 -0.12831929590E+03 -0.98962256910E+02 -0.11068192383E+04  0.11186188789E+04  0.00000000000E+00 0. -1.
        -11    1    5    5    0    0 -0.56259914770E+02 -0.14281587378E+03 -0.81913773738E+03  0.83339557511E+03  0.00000000000E+00 0.  1.
          2    1    6    6  503    0  0.88202572414E+02  0.11324447570E+03 -0.33177954216E+02  0.14732542789E+03  0.00000000000E+00 0.  1.
         -2    1    6    6    0  503 -0.13915020248E+02  0.30411397229E+02  0.19294104591E+02  0.38610145582E+02  0.00000000000E+00 0. -1.
<mgrwt>
<rscale>  0 0.17615644E+04</rscale>
<asrwt>0</asrwt>
<pdfrwt beam="1">  1        1 0.31778553E+00 0.17615644E+04</pdfrwt>
<pdfrwt beam="2">  1       -1 0.57779828E-01 0.17615644E+04</pdfrwt>
<totfact> 0.77272044E+00</totfact>
</mgrwt>
</event>
<event>
12    2  0.3552864E-008  0.1955089E+04  0.7818608E-02  0.8627911E-01
          2   -1    0    0  501    0  0.00000000000E+00  0.00000000000E+00  0.10422064372E+04  0.10422064372E+04  0.00000000000E+00 0. -1.
         -2   -1    0    0    0  501 -0.00000000000E+00 -0.00000000000E+00 -0.91689414951E+03  0.91689414951E+03  0.00000000000E+00 0.  1.
         23    2    1    2    0    0  0.36941032506E+03  0.14789925055E+03 -0.60458679791E+03  0.72948991408E+03  0.91061308771E+02 0.  0.
        254    2    1    2    0    0 -0.36941032506E+03 -0.14789925055E+03  0.72989908564E+03  0.12296106727E+04  0.90600858414E+03 0.  0.
         23    2    4    4    0    0 -0.17065934694E+03  0.36274448538E+03  0.18126437744E+03  0.44896473877E+03  0.89467244064E+02 0.  0.
         23    2    4    4    0    0 -0.19875097812E+03 -0.51064373594E+03  0.54863470820E+03  0.78064593389E+03  0.90272114738E+02 0.  0.
          2    1    3    3  502    0  0.20720254762E+03  0.43111235065E+02 -0.36318996728E+03  0.42035511971E+03  0.00000000000E+00 0. -1.
         -2    1    3    3    0  502  0.16220777744E+03  0.10478801549E+03 -0.24139683063E+03  0.30913479437E+03  0.00000000000E+00 0.  1.
         11    1    5    5    0    0  0.68359154551E+01  0.51668742611E+02  0.15980301895E+02  0.54513840002E+02  0.00000000000E+00 0.  1.
        -11    1    5    5    0    0 -0.17749526239E+03  0.31107574277E+03  0.16528407554E+03  0.39445089877E+03  0.00000000000E+00 0. -1.
          2    1    6    6  503    0 -0.88714587402E+02 -0.12119585800E+03  0.13467005897E+03  0.20172937019E+03  0.00000000000E+00 0.  1.
         -2    1    6    6    0  503 -0.11003639072E+03 -0.38944787794E+03  0.41396464923E+03  0.57891656370E+03  0.00000000000E+00 0. -1.
<mgrwt>
<rscale>  0 0.19550887E+04</rscale>
<asrwt>0</asrwt>
<pdfrwt beam="1">  1        2 0.16033945E+00 0.19550887E+04</pdfrwt>
<pdfrwt beam="2">  1       -2 0.14106064E+00 0.19550887E+04</pdfrwt>
<totfact> 0.77741283E+00</totfact>
</mgrwt>
</event>
<event>
12    2  0.3552864E-008  0.2451901E+04  0.7818608E-02  0.8420324E-01
          1   -1    0    0  501    0  0.00000000000E+00  0.00000000000E+00  0.15371982692E+04  0.15371982692E+04  0.00000000000E+00 0. -1.
         -1   -1    0    0    0  501 -0.00000000000E+00 -0.00000000000E+00 -0.97772363186E+03  0.97772363186E+03  0.00000000000E+00 0.  1.
         23    2    1    2    0    0  0.15038177559E+03 -0.92307985484E+03 -0.28313531112E+03  0.98173035694E+03  0.94539898980E+02 0.  0.
        254    2    1    2    0    0 -0.15038177559E+03  0.92307985484E+03  0.84260994845E+03  0.15331915441E+04  0.87521065399E+03 0.  0.
         23    2    4    4    0    0  0.12715754025E+03 -0.11992832312E+03  0.15327154439E+03  0.24941661697E+03  0.90358396260E+02 0.  0.
         23    2    4    4    0    0 -0.27753931584E+03  0.10430081780E+04  0.68933840407E+03  0.12837749271E+04  0.89423135205E+02 0.  0.
          4    1    3    3  502    0  0.47332854526E+02 -0.10453135777E+03 -0.27106417059E+02  0.11790658048E+03  0.00000000000E+00 0. -1.
         -4    1    3    3    0  502  0.10304892106E+03 -0.81854849707E+03 -0.25602889406E+03  0.86382377646E+03  0.00000000000E+00 0.  1.
         11    1    5    5    0    0  0.12257125553E+03 -0.13410632932E+03  0.13868708911E+03  0.22856580875E+03  0.00000000000E+00 0.  1.
        -11    1    5    5    0    0  0.45862847268E+01  0.14178006207E+02  0.14584455280E+02  0.20850808219E+02  0.00000000000E+00 0. -1.
          1    1    6    6  503    0 -0.64364000078E+02  0.17800852581E+03  0.86624760300E+02  0.20816726175E+03  0.00000000000E+00 0. -1.
         -1    1    6    6    0  503 -0.21317531576E+03  0.86499965214E+03  0.60271364377E+03  0.10756076654E+04  0.00000000000E+00 0.  1.
<mgrwt>
<rscale>  0 0.24519014E+04</rscale>
<asrwt>0</asrwt>
<pdfrwt beam="1">  1        1 0.23649204E+00 0.24519014E+04</pdfrwt>
<pdfrwt beam="2">  1       -1 0.15041902E+00 0.24519014E+04</pdfrwt>
<totfact> 0.19045262E+00</totfact>
</mgrwt>
</event>
<event>
12    2  0.3552864E-008  0.2127458E+04  0.7818608E-02  0.8549243E-01
          1   -1    0    0  501    0  0.00000000000E+00  0.00000000000E+00  0.23720633103E+04  0.23720633103E+04  0.00000000000E+00 0. -1.
         -1   -1    0    0    0  501 -0.00000000000E+00 -0.00000000000E+00 -0.47701905281E+03  0.47701905281E+03  0.00000000000E+00 0.  1.
         23    2    1    2    0    0  0.55770040709E+03 -0.59725581744E+03  0.11822335926E+04  0.14415845927E+04  0.11289647798E+03 0.  0.
        254    2    1    2    0    0 -0.55770040709E+03  0.59725581744E+03  0.71281066482E+03  0.14074977704E+04  0.89733308993E+03 0.  0.
         23    2    4    4    0    0 -0.64041758844E+01  0.14678759083E+03 -0.18536815443E+03  0.25785756118E+03  0.10267209402E+03 0.  0.
         23    2    4    4    0    0 -0.55129623120E+03  0.45046822661E+03  0.89817881926E+03  0.11496402092E+04  0.89990341627E+02 0.  0.
          1    1    3    3  502    0  0.41945831024E+03 -0.44798325751E+03  0.79675930191E+03  0.10057135070E+04  0.00000000000E+00 0. -1.
         -1    1    3    3    0  502  0.13824209684E+03 -0.14927255992E+03  0.38547429073E+03  0.43587108564E+03  0.00000000000E+00 0.  1.
         11    1    5    5    0    0 -0.26593608691E+01 -0.10691296316E+02 -0.46740378805E+02  0.48021235178E+02  0.00000000000E+00 0. -1.
        -11    1    5    5    0    0 -0.37448150153E+01  0.15747888714E+03 -0.13862777563E+03  0.20983632600E+03  0.00000000000E+00 0.  1.
          2    1    6    6  503    0 -0.45775595196E+03  0.40928408321E+03  0.74414737936E+03  0.96478458452E+03  0.00000000000E+00 0. -1.
         -2    1    6    6    0  503 -0.93540279244E+02  0.41184143402E+02  0.15403143989E+03  0.18485562470E+03  0.00000000000E+00 0.  1.
<mgrwt>
<rscale>  0 0.21274580E+04</rscale>
<asrwt>0</asrwt>
<pdfrwt beam="1">  1        1 0.36493281E+00 0.21274580E+04</pdfrwt>
<pdfrwt beam="2">  1       -1 0.73387548E-01 0.21274580E+04</pdfrwt>
<totfact> 0.28508015E+00</totfact>
</mgrwt>
</event>
<event>
12    2  0.3552864E-008  0.1323115E+04  0.7818608E-02  0.9011433E-01
         -2   -1    0    0    0  501 -0.00000000000E+00  0.00000000000E+00  0.27390475328E+03  0.27390475328E+03  0.00000000000E+00 0.  1.
          2   -1    0    0  501    0  0.00000000000E+00 -0.00000000000E+00 -0.15978475522E+04  0.15978475522E+04  0.00000000000E+00 0. -1.
         23    2    1    2    0    0  0.29638911444E+03  0.24012908837E+02 -0.88302185991E+02  0.32367604198E+03  0.92443372682E+02 0.  0.
        254    2    1    2    0    0 -0.29638911444E+03 -0.24012908837E+02 -0.12356406130E+04  0.15480762635E+04  0.88391700198E+03 0.  0.
         23    2    4    4    0    0 -0.84851618142E+02  0.40989667119E+03 -0.70220721767E+03  0.82296418552E+03  0.94657255099E+02 0.  0.
         23    2    4    4    0    0 -0.21153749629E+03 -0.43390958002E+03 -0.53343339528E+03  0.72511207802E+03  0.90612926824E+02 0.  0.
          4    1    3    3  502    0  0.97003623343E+02  0.31827841948E+02 -0.68965100842E+02  0.12320267691E+03  0.00000000000E+00 0. -1.
         -4    1    3    3    0  502  0.19938549109E+03 -0.78149331112E+01 -0.19337085149E+02  0.20047336506E+03  0.00000000000E+00 0.  1.
         11    1    5    5    0    0 -0.95751039913E+02  0.33361128241E+03 -0.52067713855E+03  0.62575508948E+03  0.00000000000E+00 0.  1.
        -11    1    5    5    0    0  0.10899421770E+02  0.76285388776E+02 -0.18153007912E+03  0.19720909604E+03  0.00000000000E+00 0. -1.
          1    1    6    6  503    0 -0.34277770499E+02 -0.17289150784E+02 -0.42563721446E+02  0.57319723208E+02  0.00000000000E+00 0. -1.
         -1    1    6    6    0  503 -0.17725972579E+03 -0.41662042924E+03 -0.49086967384E+03  0.66779235481E+03  0.00000000000E+00 0.  1.
<mgrwt>
<rscale>  0 0.13231146E+04</rscale>
<asrwt>0</asrwt>
<pdfrwt beam="1">  1        2 0.24582270E+00 0.13231146E+04</pdfrwt>
<pdfrwt beam="2">  1       -2 0.42139192E-01 0.13231146E+04</pdfrwt>
<totfact> 0.58394870E+01</totfact>
</mgrwt>
</event>
<event>
12    2  0.3552864E-008  0.1696645E+04  0.7818608E-02  0.8763280E-01
          1   -1    0    0  501    0  0.00000000000E+00  0.00000000000E+00  0.26792885011E+04  0.26792885011E+04  0.00000000000E+00 0. -1.
         -1   -1    0    0    0  501 -0.00000000000E+00 -0.00000000000E+00 -0.26859789229E+03  0.26859789229E+03  0.00000000000E+00 0.  1.
         23    2    1    2    0    0 -0.82196904046E+02  0.45171800087E+03  0.23535523458E+03  0.52351223574E+03  0.88698879237E+02 0.  0.
        254    2    1    2    0    0  0.82196904046E+02 -0.45171800087E+03  0.21753353742E+04  0.24243741576E+04  0.96679914282E+03 0.  0.
         23    2    4    4    0    0 -0.12494993731E+03 -0.40956429181E+03  0.21481706054E+04  0.21923848322E+04  0.92514358396E+02 0.  0.
         23    2    4    4    0    0  0.20714684135E+03 -0.42153709056E+02  0.27164768777E+02  0.23198932542E+03  0.91620813012E+02 0.  0.
          1    1    3    3  502    0  0.10624017767E+02  0.10492360779E+03  0.28766609575E+02  0.10931308729E+03  0.00000000000E+00 0. -1.
         -1    1    3    3    0  502 -0.92820921813E+02  0.34679439308E+03  0.20658862500E+03  0.41419914845E+03  0.00000000000E+00 0.  1.
         11    1    5    5    0    0 -0.91837057171E+02 -0.29039178862E+03  0.12973582843E+04  0.13326289633E+04  0.00000000000E+00 0. -1.
        -11    1    5    5    0    0 -0.33112880137E+02 -0.11917250319E+03  0.85081232115E+03  0.85975586893E+03  0.00000000000E+00 0.  1.
          1    1    6    6  503    0  0.15307248086E+03  0.89370946551E+01  0.16482415119E+01  0.15334201237E+03  0.00000000000E+00 0. -1.
         -1    1    6    6    0  503  0.54074360494E+02 -0.51090803711E+02  0.25516527265E+02  0.78647313052E+02  0.00000000000E+00 0.  1.
<mgrwt>
<rscale>  0 0.16966452E+04</rscale>
<asrwt>0</asrwt>
<pdfrwt beam="1">  1        1 0.41219821E+00 0.16966452E+04</pdfrwt>
<pdfrwt beam="2">  1       -1 0.41322755E-01 0.16966452E+04</pdfrwt>
<totfact> 0.55556858E+00</totfact>
</mgrwt>
</event>
<event>
12    2  0.3552864E-008  0.2174838E+04  0.7818608E-02  0.8528975E-01
         -3   -1    0    0    0  501 -0.00000000000E+00  0.00000000000E+00  0.76678663935E+03  0.76678663935E+03  0.00000000000E+00 0.  1.
          3   -1    0    0  501    0  0.00000000000E+00 -0.00000000000E+00 -0.15421237282E+04  0.15421237282E+04  0.00000000000E+00 0. -1.
         23    2    1    2    0    0  0.68351134676E+03 -0.51303077998E+02  0.31710466230E+03  0.76081304976E+03  0.91985666670E+02 0.  0.
        254    2    1    2    0    0 -0.68351134676E+03  0.51303077998E+02 -0.10924417512E+04  0.15480973178E+04  0.85636239921E+03 0.  0.
         23    2    4    4    0    0 -0.35933825614E+03 -0.38594735374E+03 -0.64286098093E+03  0.83660253242E+03  0.92488995352E+02 0.  0.
         23    2    4    4    0    0 -0.32417309061E+03  0.43725043174E+03 -0.44958077026E+03  0.71149478541E+03  0.88463709781E+02 0.  0.
          2    1    3    3  502    0  0.48474938572E+03 -0.98285322766E+01  0.18699276212E+03  0.51965840712E+03  0.00000000000E+00 0. -1.
         -2    1    3    3    0  502  0.19876196103E+03 -0.41474545721E+02  0.13011190019E+03  0.24115464264E+03  0.00000000000E+00 0.  1.
         11    1    5    5    0    0 -0.77518716167E+01  0.49324975435E+00  0.55582189072E+00  0.77874095087E+01  0.00000000000E+00 0.  1.
        -11    1    5    5    0    0 -0.35158638453E+03 -0.38644060350E+03 -0.64341680282E+03  0.82881512291E+03  0.00000000000E+00 0. -1.
          1    1    6    6  503    0 -0.19308401871E+03  0.25679332982E+03 -0.32040479098E+03  0.45374385131E+03  0.00000000000E+00 0. -1.
         -1    1    6    6    0  503 -0.13108907191E+03  0.18045710192E+03 -0.12917597928E+03  0.25775093410E+03  0.00000000000E+00 0.  1.
<mgrwt>
<rscale>  0 0.21748378E+04</rscale>
<asrwt>0</asrwt>
<pdfrwt beam="1">  1        3 0.23724980E+00 0.21748378E+04</pdfrwt>
<pdfrwt beam="2">  1       -3 0.11796718E+00 0.21748378E+04</pdfrwt>
<totfact> 0.12347122E-01</totfact>
</mgrwt>
</event>
<event>
12    2  0.3552864E-008  0.1456881E+04  0.7818608E-02  0.8913644E-01
          1   -1    0    0  501    0  0.00000000000E+00  0.00000000000E+00  0.31936738723E+04  0.31936738723E+04  0.00000000000E+00 0. -1.
         -1   -1    0    0    0  501 -0.00000000000E+00 -0.00000000000E+00 -0.16614905314E+03  0.16614905314E+03  0.00000000000E+00 0.  1.
         23    2    1    2    0    0 -0.39858555006E+03 -0.14119003341E+03  0.63338506904E+03  0.76690763425E+03  0.90363751215E+02 0.  0.
        254    2    1    2    0    0  0.39858555006E+03  0.14119003341E+03  0.23941397501E+04  0.25929152912E+04  0.90138754040E+03 0.  0.
         23    2    4    4    0    0  0.87513700001E+02 -0.31622069404E+03  0.41573247862E+03  0.53704363165E+03  0.89040403701E+02 0.  0.
         23    2    4    4    0    0  0.31107185006E+03  0.45741072744E+03  0.19784072715E+04  0.20558716596E+04  0.80763105047E+02 0.  0.
          3    1    3    3  502    0 -0.52945351740E+02 -0.35189729557E+02  0.51308920048E+02  0.81695364701E+02  0.00000000000E+00 0. -1.
         -3    1    3    3    0  502 -0.34564019832E+03 -0.10600030385E+03  0.58207614899E+03  0.68521226955E+03  0.00000000000E+00 0.  1.
         11    1    5    5    0    0 -0.16626009237E+02 -0.53930042458E+02  0.52616104044E+02  0.77157812744E+02  0.00000000000E+00 0. -1.
        -11    1    5    5    0    0  0.10413970924E+03 -0.26229065158E+03  0.36311637457E+03  0.45988581890E+03  0.00000000000E+00 0.  1.
          4    1    6    6  503    0  0.30067871194E+03  0.42206830806E+03  0.17727590686E+04  0.18469499343E+04  0.00000000000E+00 0.  1.
         -4    1    6    6    0  503  0.10393138122E+02  0.35342419384E+02  0.20564820295E+03  0.20892172531E+03  0.00000000000E+00 0. -1.
<mgrwt>
<rscale>  0 0.14568815E+04</rscale>
<asrwt>0</asrwt>
<pdfrwt beam="1">  1        1 0.49133440E+00 0.14568815E+04</pdfrwt>
<pdfrwt beam="2">  1       -1 0.25561395E-01 0.14568815E+04</pdfrwt>
<totfact> 0.56747915E+00</totfact>
</mgrwt>
</event>
<event>
12    2  0.3552864E-008  0.2254227E+04  0.7818608E-02  0.8496191E-01
         -1   -1    0    0    0  501 -0.00000000000E+00  0.00000000000E+00  0.25209092078E+04  0.25209092078E+04  0.00000000000E+00 0.  1.
          1   -1    0    0  501    0  0.00000000000E+00 -0.00000000000E+00 -0.50393906830E+03  0.50393906830E+03  0.00000000000E+00 0. -1.
         23    2    1    2    0    0  0.62202413499E+03 -0.68118859152E+02  0.17926683525E+04  0.19008772242E+04  0.90112130543E+02 0.  0.
        254    2    1    2    0    0 -0.62202413499E+03  0.68118859152E+02  0.22430178705E+03  0.11239710519E+04  0.90633626783E+03 0.  0.
         23    2    4    4    0    0 -0.39670770224E+03  0.26806990477E+03  0.50538349621E+03  0.70228072434E+03  0.92451407042E+02 0.  0.
         23    2    4    4    0    0 -0.22531643275E+03 -0.19995104562E+03 -0.28108170916E+03  0.42169032758E+03  0.89821431932E+02 0.  0.
          1    1    3    3  502    0  0.12962407259E+03 -0.24596999284E+02  0.28085538612E+03  0.31030172490E+03  0.00000000000E+00 0. -1.
         -1    1    3    3    0  502  0.49240006241E+03 -0.43521859868E+02  0.15118129664E+04  0.15905754993E+04  0.00000000000E+00 0.  1.
         11    1    5    5    0    0 -0.25444307034E+03  0.12974064301E+03  0.25568062303E+03  0.38333600338E+03  0.00000000000E+00 0. -1.
        -11    1    5    5    0    0 -0.14226463190E+03  0.13832926176E+03  0.24970287319E+03  0.31894472096E+03  0.00000000000E+00 0.  1.
          3    1    6    6  503    0 -0.20745596801E+03 -0.15706533996E+03 -0.19978866325E+03  0.32805946053E+03  0.00000000000E+00 0. -1.
         -3    1    6    6    0  503 -0.17860464745E+02 -0.42885705658E+02 -0.81293045912E+02  0.93630867049E+02  0.00000000000E+00 0.  1.
<mgrwt>
<rscale>  0 0.22542268E+04</rscale>
<asrwt>0</asrwt>
<pdfrwt beam="1">  1        1 0.77529089E-01 0.22542268E+04</pdfrwt>
<pdfrwt beam="2">  1       -1 0.38783218E+00 0.22542268E+04</pdfrwt>
<totfact> 0.34477070E-01</totfact>
</mgrwt>
</event>
<event>
12    2  0.3552864E-008  0.1401956E+04  0.7818608E-02  0.8952404E-01
         -2   -1    0    0    0  501 -0.00000000000E+00  0.00000000000E+00  0.27152724863E+03  0.27152724863E+03  0.00000000000E+00 0.  1.
          2   -1    0    0  501    0  0.00000000000E+00 -0.00000000000E+00 -0.18096543567E+04  0.18096543567E+04  0.00000000000E+00 0. -1.
         23    2    1    2    0    0 -0.19984704761E+03 -0.14003290661E+03  0.23759398924E+02  0.26246191998E+03  0.93667993628E+02 0.  0.
        254    2    1    2    0    0  0.19984704761E+03  0.14003290661E+03 -0.15618865070E+04  0.18187196854E+04  0.89927958710E+03 0.  0.
         23    2    4    4    0    0  0.89098373017E+02  0.37610310335E+03 -0.22645371720E+03  0.45515462427E+03  0.80575315943E+02 0.  0.
         23    2    4    4    0    0  0.11074867459E+03 -0.23607019674E+03 -0.13354327898E+04  0.13635650611E+04  0.89075995672E+02 0.  0.
          4    1    3    3  502    0 -0.67203346315E+02 -0.79915197269E+02 -0.27663296481E+02  0.10801845436E+03  0.00000000000E+00 0. -1.
         -4    1    3    3    0  502 -0.13264370129E+03 -0.60117709340E+02  0.51422695405E+02  0.15444346561E+03  0.00000000000E+00 0.  1.
         11    1    5    5    0    0  0.54435210688E+02  0.28621008520E+03 -0.20559143236E+03  0.35657711942E+03  0.00000000000E+00 0. -1.
        -11    1    5    5    0    0  0.34663162329E+02  0.89893018149E+02 -0.20862284842E+02  0.98577504854E+02  0.00000000000E+00 0.  1.
          1    1    6    6  503    0  0.11063370529E+03 -0.15913806687E+03 -0.83123163998E+03  0.85352842974E+03  0.00000000000E+00 0. -1.
         -1    1    6    6    0  503  0.11496930092E+00 -0.76932129873E+02 -0.50420114985E+03  0.51003663137E+03  0.00000000000E+00 0.  1.
<mgrwt>
<rscale>  0 0.14019564E+04</rscale>
<asrwt>0</asrwt>
<pdfrwt beam="1">  1        2 0.27840836E+00 0.14019564E+04</pdfrwt>
<pdfrwt beam="2">  1       -2 0.41773423E-01 0.14019564E+04</pdfrwt>
<totfact> 0.45042481E+01</totfact>
</mgrwt>
</event>
<event>
12    2  0.3552864E-008  0.1970741E+04  0.7818608E-02  0.8620424E-01
          2   -1    0    0  501    0  0.00000000000E+00  0.00000000000E+00  0.23527119742E+04  0.23527119742E+04  0.00000000000E+00 0.  1.
         -2   -1    0    0    0  501 -0.00000000000E+00 -0.00000000000E+00 -0.41269593171E+03  0.41269593171E+03  0.00000000000E+00 0. -1.
         23    2    1    2    0    0 -0.45184310463E+03  0.28848263317E+03 -0.19069324373E+02  0.54428123306E+03  0.92162902989E+02 0.  0.
        254    2    1    2    0    0  0.45184310463E+03 -0.28848263317E+03  0.19590853669E+04  0.22211266729E+04  0.89889031667E+03 0.  0.
         23    2    4    4    0    0 -0.22830204166E+02  0.56954829191E+02 -0.50813111204E+02  0.12525849678E+03  0.96657374034E+02 0.  0.
         23    2    4    4    0    0  0.47467330880E+03 -0.34543746236E+03  0.20098984781E+04  0.20958681761E+04  0.91267348387E+02 0.  0.
          3    1    3    3  502    0 -0.44659121206E+03  0.28056515311E+03 -0.31833626927E+02  0.52836909035E+03  0.00000000000E+00 0. -1.
         -3    1    3    3    0  502 -0.52518925679E+01  0.79174800601E+01  0.12764302554E+02  0.15912142714E+02  0.00000000000E+00 0.  1.
         11    1    5    5    0    0  0.82835370741E+01 -0.59228251917E+01 -0.54077584765E+02  0.55028011219E+02  0.00000000000E+00 0.  1.
        -11    1    5    5    0    0 -0.31113741240E+02  0.62877654383E+02  0.32644735613E+01  0.70230485562E+02  0.00000000000E+00 0. -1.
          2    1    6    6  503    0  0.19178699237E+03 -0.11895388089E+03  0.92126966170E+03  0.94850939152E+03  0.00000000000E+00 0.  1.
         -2    1    6    6    0  503  0.28288631643E+03 -0.22648358147E+03  0.10886288164E+04  0.11473587846E+04  0.00000000000E+00 0. -1.
<mgrwt>
<rscale>  0 0.19707406E+04</rscale>
<asrwt>0</asrwt>
<pdfrwt beam="1">  1        2 0.36195568E+00 0.19707406E+04</pdfrwt>
<pdfrwt beam="2">  1       -2 0.63491683E-01 0.19707406E+04</pdfrwt>
<totfact> 0.90493232E+00</totfact>
</mgrwt>
</event>
<event>
12    2  0.3552864E-008  0.1637008E+04  0.7818608E-02  0.8798130E-01
          2   -1    0    0  501    0  0.00000000000E+00  0.00000000000E+00  0.29588743250E+03  0.29588743250E+03  0.00000000000E+00 0. -1.
         -2   -1    0    0    0  501 -0.00000000000E+00 -0.00000000000E+00 -0.22642024276E+04  0.22642024276E+04  0.00000000000E+00 0.  1.
         23    2    1    2    0    0 -0.38079046309E+03 -0.39718577711E+03 -0.45329901070E+03  0.71909945731E+03  0.94160066306E+02 0.  0.
        254    2    1    2    0    0  0.38079046309E+03  0.39718577711E+03 -0.15150159844E+04  0.18409904028E+04  0.88950228324E+03 0.  0.
         23    2    4    4    0    0  0.18824436999E+03  0.15954919506E+00  0.46549259315E+02  0.21572176767E+03  0.94514968204E+02 0.  0.
         23    2    4    4    0    0  0.19254609310E+03  0.39702622791E+03 -0.15615652437E+04  0.16252686351E+04  0.91149889413E+02 0.  0.
          2    1    3    3  502    0 -0.26845722863E+03 -0.30981637743E+03 -0.28809895439E+03  0.50105536506E+03  0.00000000000E+00 0. -1.
         -2    1    3    3    0  502 -0.11233323445E+03 -0.87369399677E+02 -0.16520005630E+03  0.21804409225E+03  0.00000000000E+00 0.  1.
         11    1    5    5    0    0  0.10048631493E+03 -0.47078665160E+02  0.25434895911E+02  0.11384565926E+03  0.00000000000E+00 0. -1.
        -11    1    5    5    0    0  0.87758055056E+02  0.47238214355E+02  0.21114363404E+02  0.10187610841E+03  0.00000000000E+00 0.  1.
          2    1    6    6  503    0  0.33750904313E+01  0.18618650930E+02 -0.16363124160E+03  0.16472167017E+03  0.00000000000E+00 0. -1.
         -2    1    6    6    0  503  0.18917100267E+03  0.37840757698E+03 -0.13979340021E+04  0.14605469649E+04  0.00000000000E+00 0.  1.
<mgrwt>
<rscale>  0 0.16370083E+04</rscale>
<asrwt>0</asrwt>
<pdfrwt beam="1">  1        2 0.45521144E-01 0.16370083E+04</pdfrwt>
<pdfrwt beam="2">  1       -2 0.34833883E+00 0.16370083E+04</pdfrwt>
<totfact> 0.17081338E+00</totfact>
</mgrwt>
</event>
<event>
12    2  0.3552864E-008  0.1491176E+04  0.7818608E-02  0.8890342E-01
         -1   -1    0    0    0  501 -0.00000000000E+00  0.00000000000E+00  0.23219142215E+03  0.23219142215E+03  0.00000000000E+00 0.  1.
          1   -1    0    0  501    0  0.00000000000E+00 -0.00000000000E+00 -0.23941501992E+04  0.23941501992E+04  0.00000000000E+00 0. -1.
         23    2    1    2    0    0  0.16291680062E+03  0.31906417268E+03 -0.12237804419E+04  0.12784220360E+04  0.91545082436E+02 0.  0.
        254    2    1    2    0    0 -0.16291680062E+03 -0.31906417268E+03 -0.93817833517E+03  0.13479195853E+04  0.89909109085E+03 0.  0.
         23    2    4    4    0    0  0.31134660992E+03 -0.35637432284E+03 -0.49966925171E+03  0.69455894875E+03  0.93826449901E+02 0.  0.
         23    2    4    4    0    0 -0.47426341054E+03  0.37310150157E+02 -0.43850908346E+03  0.65336063655E+03  0.90950949596E+02 0.  0.
          4    1    3    3  502    0  0.40897161269E+01  0.38887068427E+02 -0.66312078295E+02  0.76981956305E+02  0.00000000000E+00 0.  1.
         -4    1    3    3    0  502  0.15882708450E+03  0.28017710425E+03 -0.11574683636E+04  0.12014400797E+04  0.00000000000E+00 0. -1.
         11    1    5    5    0    0  0.20810823503E+03 -0.29768674091E+03 -0.38943798864E+03  0.53253016834E+03  0.00000000000E+00 0.  1.
        -11    1    5    5    0    0  0.10323837489E+03 -0.58687581924E+02 -0.11023126308E+03  0.16202878041E+03  0.00000000000E+00 0. -1.
          1    1    6    6  503    0 -0.22266512766E+01  0.74721423030E+00  0.44313037388E+01  0.50152525200E+01  0.00000000000E+00 0. -1.
         -1    1    6    6    0  503 -0.47203675927E+03  0.36562935927E+02 -0.44294038720E+03  0.64834538403E+03  0.00000000000E+00 0.  1.
<mgrwt>
<rscale>  0 0.14911756E+04</rscale>
<asrwt>0</asrwt>
<pdfrwt beam="1">  1        1 0.36833082E+00 0.14911756E+04</pdfrwt>
<pdfrwt beam="2">  1       -1 0.35721755E-01 0.14911756E+04</pdfrwt>
<totfact> 0.11636288E+01</totfact>
</mgrwt>
</event>
<event>
12    2  0.3552864E-008  0.2233055E+04  0.7818608E-02  0.8504794E-01
          1   -1    0    0  501    0  0.00000000000E+00  0.00000000000E+00  0.83139691703E+03  0.83139691703E+03  0.00000000000E+00 0. -1.
         -1   -1    0    0    0  501 -0.00000000000E+00 -0.00000000000E+00 -0.14994449992E+04  0.14994449992E+04  0.00000000000E+00 0.  1.
         23    2    1    2    0    0  0.26242373567E+02  0.54246667059E+03 -0.10585699335E+04  0.11931993307E+04  0.90529485130E+02 0.  0.
        254    2    1    2    0    0 -0.26242373567E+02 -0.54246667059E+03  0.39052185138E+03  0.11376425855E+04  0.92019812277E+03 0.  0.
         23    2    4    4    0    0  0.28029446546E+03  0.67156069148E+02 -0.69568875758E+02  0.31045586570E+03  0.92022231438E+02 0.  0.
         23    2    4    4    0    0 -0.30653683903E+03 -0.60962273974E+03  0.46009072713E+03  0.82718671984E+03  0.83364703481E+02 0.  0.
          1    1    3    3  502    0  0.73663715502E+01  0.41493619597E+02 -0.14636494016E+03  0.15231112765E+03  0.00000000000E+00 0. -1.
         -1    1    3    3    0  502  0.18876002017E+02  0.50097305100E+03 -0.91220499338E+03  0.10408882030E+04  0.00000000000E+00 0.  1.
         11    1    5    5    0    0  0.15237436474E+03 -0.10458520313E+02 -0.40828126743E+02  0.15809574191E+03  0.00000000000E+00 0. -1.
        -11    1    5    5    0    0  0.12792010072E+03  0.77614589461E+02 -0.28740749016E+02  0.15236012379E+03  0.00000000000E+00 0.  1.
          4    1    6    6  503    0 -0.15563844313E+03 -0.34425960215E+03  0.30037379256E+03  0.48266180076E+03  0.00000000000E+00 0. -1.
         -4    1    6    6    0  503 -0.15089839590E+03 -0.26536313759E+03  0.15971693458E+03  0.34452491908E+03  0.00000000000E+00 0.  1.
<mgrwt>
<rscale>  0 0.22330553E+04</rscale>
<asrwt>0</asrwt>
<pdfrwt beam="1">  1        1 0.12790722E+00 0.22330553E+04</pdfrwt>
<pdfrwt beam="2">  1       -1 0.23068384E+00 0.22330553E+04</pdfrwt>
<totfact> 0.17637055E+00</totfact>
</mgrwt>
</event>
<event>
12    2  0.3552864E-008  0.2633599E+04  0.7818608E-02  0.8356877E-01
         -1   -1    0    0    0  501 -0.00000000000E+00  0.00000000000E+00  0.15235685382E+04  0.15235685382E+04  0.00000000000E+00 0.  1.
          1   -1    0    0  501    0  0.00000000000E+00 -0.00000000000E+00 -0.11380919230E+04  0.11380919230E+04  0.00000000000E+00 0. -1.
         23    2    1    2    0    0  0.27524458763E+02  0.90238706902E+03  0.91324392415E+03  0.12874316372E+04  0.91682808126E+02 0.  0.
        254    2    1    2    0    0 -0.27524458763E+02 -0.90238706902E+03 -0.52776730894E+03  0.13742288240E+04  0.89157529702E+03 0.  0.
         23    2    4    4    0    0  0.20662536207E+03 -0.67311945080E+03 -0.69616494613E+03  0.99462575044E+03  0.94079306507E+02 0.  0.
         23    2    4    4    0    0 -0.23414982083E+03 -0.22926761821E+03  0.16839763719E+03  0.37960307359E+03  0.91383531954E+02 0.  0.
          4    1    3    3  502    0  0.10177050318E+02  0.85470573944E+03  0.84080629832E+03  0.11989915365E+04  0.00000000000E+00 0.  1.
         -4    1    3    3    0  502  0.17347408445E+02  0.47681329580E+02  0.72437625828E+02  0.88440100667E+02  0.00000000000E+00 0. -1.
         11    1    5    5    0    0  0.95578978124E+02 -0.43618856035E+03 -0.40083904479E+03  0.60005644824E+03  0.00000000000E+00 0. -1.
        -11    1    5    5    0    0  0.11104638394E+03 -0.23693089045E+03 -0.29532590134E+03  0.39456930220E+03  0.00000000000E+00 0.  1.
          3    1    6    6  503    0 -0.73875394673E+02 -0.63735518237E+02  0.98928386709E+02  0.13894824907E+03  0.00000000000E+00 0. -1.
         -3    1    6    6    0  503 -0.16027442616E+03 -0.16553209998E+03  0.69469250484E+02  0.24065482452E+03  0.00000000000E+00 0.  1.
<mgrwt>
<rscale>  0 0.26335991E+04</rscale>
<asrwt>0</asrwt>
<pdfrwt beam="1">  1        1 0.17509106E+00 0.26335991E+04</pdfrwt>
<pdfrwt beam="2">  1       -1 0.23439516E+00 0.26335991E+04</pdfrwt>
<totfact> 0.92028618E-01</totfact>
</mgrwt>
</event>
<event>
12    2  0.3552864E-008  0.1687807E+04  0.7818608E-02  0.8768349E-01
          2   -1    0    0  501    0  0.00000000000E+00  0.00000000000E+00  0.94818380925E+03  0.94818380925E+03  0.00000000000E+00 0. -1.
         -2   -1    0    0    0  501 -0.00000000000E+00 -0.00000000000E+00 -0.75109148194E+03  0.75109148194E+03  0.00000000000E+00 0.  1.
         23    2    1    2    0    0  0.33282874722E+03 -0.29273925735E+03 -0.33237787945E+03  0.56155634527E+03  0.91647293426E+02 0.  0.
        254    2    1    2    0    0 -0.33282874722E+03  0.29273925735E+03  0.52947020677E+03  0.11377189459E+04  0.90420929672E+03 0.  0.
         23    2    4    4    0    0 -0.23248206948E+03 -0.26072619414E+03  0.52279313117E+00  0.36030261935E+03  0.88270285246E+02 0.  0.
         23    2    4    4    0    0 -0.10034667775E+03  0.55346545149E+03  0.52894741364E+03  0.77741632657E+03  0.90539034142E+02 0.  0.
          1    1    3    3  502    0  0.17909376656E+02 -0.22101579916E+02  0.18694902863E+01  0.28508254961E+02  0.00000000000E+00 0. -1.
         -1    1    3    3    0  502  0.31491937057E+03 -0.27063767744E+03 -0.33424736974E+03  0.53304809031E+03  0.00000000000E+00 0.  1.
         11    1    5    5    0    0 -0.11819233382E+03 -0.85897984061E+02 -0.30161733275E+02  0.14918988435E+03  0.00000000000E+00 0.  1.
        -11    1    5    5    0    0 -0.11428973566E+03 -0.17482821008E+03  0.30684526406E+02  0.21111273499E+03  0.00000000000E+00 0. -1.
          1    1    6    6  503    0 -0.11560961909E+03  0.42803155429E+03  0.41159145177E+03  0.60496621283E+03  0.00000000000E+00 0. -1.
         -1    1    6    6    0  503  0.15262941344E+02  0.12543389719E+03  0.11735596186E+03  0.17245011374E+03  0.00000000000E+00 0.  1.
<mgrwt>
<rscale>  0 0.16878066E+04</rscale>
<asrwt>0</asrwt>
<pdfrwt beam="1">  1        2 0.14587443E+00 0.16878066E+04</pdfrwt>
<pdfrwt beam="2">  1       -2 0.11555254E+00 0.16878066E+04</pdfrwt>
<totfact> 0.15112863E+01</totfact>
</mgrwt>
</event>
<event>
12    2  0.3552864E-008  0.1518972E+04  0.7818608E-02  0.8871934E-01
          2   -1    0    0  501    0  0.00000000000E+00  0.00000000000E+00  0.64248030437E+03  0.64248030437E+03  0.00000000000E+00 0. -1.
         -2   -1    0    0    0  501 -0.00000000000E+00 -0.00000000000E+00 -0.89780014377E+03  0.89780014377E+03  0.00000000000E+00 0.  1.
         23    2    1    2    0    0 -0.30290315033E+03  0.31449105149E+03  0.14329629161E+03  0.46855812838E+03  0.91421838394E+02 0.  0.
        254    2    1    2    0    0  0.30290315033E+03 -0.31449105149E+03 -0.39861613102E+03  0.10717223198E+04  0.89388979792E+03 0.  0.
         23    2    4    4    0    0 -0.14608678914E+02  0.28948746540E+03 -0.81995998183E+02  0.31484484531E+03  0.91583441597E+02 0.  0.
         23    2    4    4    0    0  0.31751182924E+03 -0.60397851689E+03 -0.31662013283E+03  0.75687747445E+03  0.83734056632E+02 0.  0.
          2    1    3    3  502    0 -0.26037639199E+03  0.22088204555E+03  0.12781021352E+03  0.36458221876E+03  0.00000000000E+00 0. -1.
         -2    1    3    3    0  502 -0.42526758339E+02  0.93609005936E+02  0.15486078089E+02  0.10397590962E+03  0.00000000000E+00 0.  1.
         11    1    5    5    0    0  0.16522034968E+02  0.39370281890E+02  0.14301890028E+02  0.45028222194E+02  0.00000000000E+00 0.  1.
        -11    1    5    5    0    0 -0.31130713882E+02  0.25011718351E+03 -0.96297888211E+02  0.26981662311E+03  0.00000000000E+00 0. -1.
          1    1    6    6  503    0  0.19777278263E+03 -0.37338333974E+03 -0.15073608767E+03  0.44860958535E+03  0.00000000000E+00 0. -1.
         -1    1    6    6    0  503  0.11973904661E+03 -0.23059517715E+03 -0.16588404516E+03  0.30826788910E+03  0.00000000000E+00 0.  1.
<mgrwt>
<rscale>  0 0.15189719E+04</rscale>
<asrwt>0</asrwt>
<pdfrwt beam="1">  1        2 0.98843124E-01 0.15189719E+04</pdfrwt>
<pdfrwt beam="2">  1       -2 0.13812310E+00 0.15189719E+04</pdfrwt>
<totfact> 0.16362093E+01</totfact>
</mgrwt>
</event>
<event>
12    2  0.3552864E-008  0.1696855E+04  0.7818608E-02  0.8763160E-01
         -1   -1    0    0    0  501 -0.00000000000E+00  0.00000000000E+00  0.59004840123E+03  0.59004840123E+03  0.00000000000E+00 0.  1.
          1   -1    0    0  501    0  0.00000000000E+00 -0.00000000000E+00 -0.12199489904E+04  0.12199489904E+04  0.00000000000E+00 0. -1.
         23    2    1    2    0    0  0.23505040271E+02 -0.60314345049E+03 -0.17063057560E+03  0.63418556598E+03  0.93498823405E+02 0.  0.
        254    2    1    2    0    0 -0.23505040271E+02  0.60314345049E+03 -0.45927001359E+03  0.11758118257E+04  0.89848205059E+03 0.  0.
         23    2    4    4    0    0  0.14726244649E+03  0.16696167875E+03 -0.62562254343E+03  0.66981402950E+03  0.87663201760E+02 0.  0.
         23    2    4    4    0    0 -0.17076748676E+03  0.43618177174E+03  0.16635252985E+03  0.50599779618E+03  0.94575541325E+02 0.  0.
          2    1    3    3  502    0 -0.18209787705E+02 -0.47343983430E+03 -0.14561197073E+03  0.49566089122E+03  0.00000000000E+00 0.  1.
         -2    1    3    3    0  502  0.41714827976E+02 -0.12970361619E+03 -0.25018604875E+02  0.13852467475E+03  0.00000000000E+00 0. -1.
         11    1    5    5    0    0  0.15773020075E+03  0.14246112988E+03 -0.55034662018E+03  0.58996219549E+03  0.00000000000E+00 0.  1.
        -11    1    5    5    0    0 -0.10467754256E+02  0.24500548867E+02 -0.75275923248E+02  0.79851834010E+02  0.00000000000E+00 0. -1.
          2    1    6    6  503    0 -0.12391388319E+03  0.39960729753E+03  0.14814817694E+03  0.44383389350E+03  0.00000000000E+00 0.  1.
         -2    1    6    6    0  503 -0.46853603574E+02  0.36574474205E+02  0.18204352906E+02  0.62163902676E+02  0.00000000000E+00 0. -1.
<mgrwt>
<rscale>  0 0.16968547E+04</rscale>
<asrwt>0</asrwt>
<pdfrwt beam="1">  1        1 0.18768446E+00 0.16968547E+04</pdfrwt>
<pdfrwt beam="2">  1       -1 0.90776678E-01 0.16968547E+04</pdfrwt>
<totfact> 0.11658217E+01</totfact>
</mgrwt>
</event>
<event>
12    2  0.3552864E-008  0.2192912E+04  0.7818608E-02  0.8521384E-01
          2   -1    0    0  501    0  0.00000000000E+00  0.00000000000E+00  0.17434155875E+04  0.17434155875E+04  0.00000000000E+00 0. -1.
         -2   -1    0    0    0  501 -0.00000000000E+00 -0.00000000000E+00 -0.68957484955E+03  0.68957484955E+03  0.00000000000E+00 0.  1.
         23    2    1    2    0    0  0.30348893463E+03 -0.34430132451E+03 -0.43218121937E+03  0.63655088834E+03  0.88133373740E+02 0.  0.
        254    2    1    2    0    0 -0.30348893463E+03  0.34430132451E+03  0.14860219573E+04  0.17964395487E+04  0.89904663896E+03 0.  0.
         23    2    4    4    0    0 -0.13008903059E+03  0.57784627480E+03  0.55629721768E+03  0.81789048446E+03  0.92998801033E+02 0.  0.
         23    2    4    4    0    0 -0.17339990403E+03 -0.23354495029E+03  0.92972473964E+03  0.97854906425E+03  0.92517074730E+02 0.  0.
          4    1    3    3  502    0  0.55255321312E+02 -0.24735245743E+02 -0.78401208170E+02  0.99054188997E+02  0.00000000000E+00 0. -1.
         -4    1    3    3    0  502  0.24823361332E+03 -0.31956607876E+03 -0.35378001120E+03  0.53749669934E+03  0.00000000000E+00 0.  1.
         11    1    5    5    0    0 -0.11186415465E+03  0.48678393801E+03  0.41799008426E+03  0.65129709192E+03  0.00000000000E+00 0.  1.
        -11    1    5    5    0    0 -0.18224875946E+02  0.91062336786E+02  0.13830713341E+03  0.16659339254E+03  0.00000000000E+00 0. -1.
          3    1    6    6  503    0 -0.39668758160E+02 -0.11617669363E+03  0.29936412112E+03  0.32355758611E+03  0.00000000000E+00 0. -1.
         -3    1    6    6    0  503 -0.13373114587E+03 -0.11736825665E+03  0.63036061852E+03  0.65499147814E+03  0.00000000000E+00 0.  1.
<mgrwt>
<rscale>  0 0.21929118E+04</rscale>
<asrwt>0</asrwt>
<pdfrwt beam="1">  1        2 0.26821778E+00 0.21929118E+04</pdfrwt>
<pdfrwt beam="2">  1       -2 0.10608844E+00 0.21929118E+04</pdfrwt>
<totfact> 0.60839598E+00</totfact>
</mgrwt>
</event>
<event>
12    2  0.3552864E-008  0.1447132E+04  0.7818608E-02  0.8920391E-01
          2   -1    0    0  501    0  0.00000000000E+00  0.00000000000E+00  0.10611445906E+04  0.10611445906E+04  0.00000000000E+00 0. -1.
         -2   -1    0    0    0  501 -0.00000000000E+00 -0.00000000000E+00 -0.49338029456E+03  0.49338029456E+03  0.00000000000E+00 0.  1.
         23    2    1    2    0    0  0.83691711244E+02 -0.11996336690E+03 -0.23311803986E+03  0.28969008017E+03  0.90447830892E+02 0.  0.
        254    2    1    2    0    0 -0.83691711244E+02  0.11996336690E+03  0.80088233592E+03  0.12648348050E+04  0.96798711563E+03 0.  0.
         23    2    4    4    0    0  0.26544668593E+03  0.29297201906E+03  0.43989351276E+02  0.40863966102E+03  0.93577574856E+02 0.  0.
         23    2    4    4    0    0 -0.34913839717E+03 -0.17300865216E+03  0.75689298464E+03  0.85619514398E+03  0.91397594440E+02 0.  0.
          4    1    3    3  502    0 -0.19286237637E+02 -0.19307231799E+02 -0.47277282176E+02  0.54588181614E+02  0.00000000000E+00 0. -1.
         -4    1    3    3    0  502  0.10297794888E+03 -0.10065613510E+03 -0.18584075768E+03  0.23510189856E+03  0.00000000000E+00 0.  1.
         11    1    5    5    0    0  0.21078565907E+03  0.24710793375E+03  0.70784994477E+02  0.33242057764E+03  0.00000000000E+00 0.  1.
        -11    1    5    5    0    0  0.54661026854E+02  0.45864085305E+02 -0.26795643201E+02  0.76219083386E+02  0.00000000000E+00 0. -1.
          1    1    6    6  503    0 -0.73791462499E+02 -0.81730380790E+02  0.21319400715E+03  0.23995149461E+03  0.00000000000E+00 0. -1.
         -1    1    6    6    0  503 -0.27534693467E+03 -0.91278271366E+02  0.54369897749E+03  0.61624364936E+03  0.00000000000E+00 0.  1.
<mgrwt>
<rscale>  0 0.14471321E+04</rscale>
<asrwt>0</asrwt>
<pdfrwt beam="1">  1        2 0.16325301E+00 0.14471321E+04</pdfrwt>
<pdfrwt beam="2">  1       -2 0.75904661E-01 0.14471321E+04</pdfrwt>
<totfact> 0.34745749E+01</totfact>
</mgrwt>
</event>
<event>
12    2  0.3552864E-008  0.2488948E+04  0.7818608E-02  0.8406933E-01
          1   -1    0    0  501    0  0.00000000000E+00  0.00000000000E+00  0.13962746351E+04  0.13962746351E+04  0.00000000000E+00 0. -1.
         -1   -1    0    0    0  501 -0.00000000000E+00 -0.00000000000E+00 -0.11091772399E+04  0.11091772399E+04  0.00000000000E+00 0.  1.
         23    2    1    2    0    0 -0.26817822234E+03  0.55464458228E+03  0.10357771380E+04  0.12088344557E+04  0.94320147672E+02 0.  0.
        254    2    1    2    0    0  0.26817822234E+03 -0.55464458228E+03 -0.74867974275E+03  0.12966174192E+04  0.86089790509E+03 0.  0.
         23    2    4    4    0    0 -0.10301586501E+03 -0.64878595976E+03 -0.50755768383E+03  0.83504361010E+03  0.90263715493E+02 0.  0.
         23    2    4    4    0    0  0.37119408735E+03  0.94141377476E+02 -0.24112205893E+03  0.46157380910E+03  0.90900409849E+02 0.  0.
          2    1    3    3  502    0 -0.11154171151E+03  0.32350438030E+03  0.52381508350E+03  0.62568273045E+03  0.00000000000E+00 0. -1.
         -2    1    3    3    0  502 -0.15663651082E+03  0.23114020199E+03  0.51196205445E+03  0.58315172528E+03  0.00000000000E+00 0.  1.
         11    1    5    5    0    0 -0.18163802992E+02 -0.14970717371E+02 -0.20446566085E+02  0.31178649464E+02  0.00000000000E+00 0. -1.
        -11    1    5    5    0    0 -0.84852062022E+02 -0.63381524239E+03 -0.48711111774E+03  0.80386496064E+03  0.00000000000E+00 0.  1.
          3    1    6    6  503    0  0.63486959012E+02  0.30965084905E+02 -0.94668918704E+01  0.71267471468E+02  0.00000000000E+00 0. -1.
         -3    1    6    6    0  503  0.30770712834E+03  0.63176292571E+02 -0.23165516706E+03  0.39030633764E+03  0.00000000000E+00 0.  1.
<mgrwt>
<rscale>  0 0.24889484E+04</rscale>
<asrwt>0</asrwt>
<pdfrwt beam="1">  1        1 0.21481148E+00 0.24889484E+04</pdfrwt>
<pdfrwt beam="2">  1       -1 0.17064265E+00 0.24889484E+04</pdfrwt>
<totfact> 0.16730844E+00</totfact>
</mgrwt>
</event>
<event>
12    2  0.3552864E-008  0.2318338E+04  0.7818608E-02  0.8470726E-01
          2   -1    0    0  501    0  0.00000000000E+00  0.00000000000E+00  0.16896085715E+04  0.16896085715E+04  0.00000000000E+00 0. -1.
         -2   -1    0    0    0  501 -0.00000000000E+00 -0.00000000000E+00 -0.79525698514E+03  0.79525698514E+03  0.00000000000E+00 0.  1.
         23    2    1    2    0    0  0.50759446523E+03 -0.56497881756E+03  0.10419602086E+04  0.12946683954E+04  0.11675603699E+03 0.  0.
        254    2    1    2    0    0 -0.50759446523E+03  0.56497881756E+03 -0.14760862224E+03  0.11901971613E+04  0.90439359352E+03 0.  0.
         23    2    4    4    0    0 -0.33669236085E+03  0.64272338235E+03 -0.42253475257E+03  0.84485066906E+03  0.93712025983E+02 0.  0.
         23    2    4    4    0    0 -0.17090210437E+03 -0.77744564781E+02  0.27492613033E+03  0.34534649225E+03  0.91804552907E+02 0.  0.
          1    1    3    3  502    0  0.50691373624E+03 -0.53112564704E+03  0.98735202333E+03  0.12304145671E+04  0.00000000000E+00 0. -1.
         -1    1    3    3    0  502  0.68072898139E+00 -0.33853170521E+02  0.54608185316E+02  0.64253828288E+02  0.00000000000E+00 0.  1.
         11    1    5    5    0    0 -0.21099407821E+03  0.30782989862E+03 -0.23412097118E+03  0.44055689380E+03  0.00000000000E+00 0.  1.
        -11    1    5    5    0    0 -0.12569828264E+03  0.33489348372E+03 -0.18841378139E+03  0.40429377527E+03  0.00000000000E+00 0. -1.
          2    1    6    6  503    0 -0.78993400441E+02 -0.77695140226E+02  0.10764511096E+03  0.15447964928E+03  0.00000000000E+00 0. -1.
         -2    1    6    6    0  503 -0.91908703931E+02 -0.49424555370E-01  0.16728101937E+03  0.19086684297E+03  0.00000000000E+00 0.  1.
<mgrwt>
<rscale>  0 0.23183382E+04</rscale>
<asrwt>0</asrwt>
<pdfrwt beam="1">  1        2 0.25993978E+00 0.23183382E+04</pdfrwt>
<pdfrwt beam="2">  1       -2 0.12234723E+00 0.23183382E+04</pdfrwt>
<totfact> 0.45526071E+00</totfact>
</mgrwt>
</event>
<event>
12    2  0.3552864E-008  0.1301743E+04  0.7818608E-02  0.9028184E-01
         -1   -1    0    0    0  501 -0.00000000000E+00  0.00000000000E+00  0.42725625258E+03  0.42725625258E+03  0.00000000000E+00 0.  1.
          1   -1    0    0  501    0  0.00000000000E+00 -0.00000000000E+00 -0.99152179290E+03  0.99152179290E+03  0.00000000000E+00 0. -1.
         23    2    1    2    0    0 -0.99575996069E+02 -0.96709943198E+02 -0.48646188395E+03  0.51413784494E+03  0.91784350329E+02 0.  0.
        254    2    1    2    0    0  0.99575996069E+02  0.96709943198E+02 -0.77803656380E+02  0.90464020054E+03  0.89053483445E+03 0.  0.
         23    2    4    4    0    0 -0.31109158175E+03  0.15976185717E+03  0.18351395982E+03  0.40529664783E+03  0.91028435390E+02 0.  0.
         23    2    4    4    0    0  0.41066757782E+03 -0.63051913973E+02 -0.26131761620E+03  0.49934355271E+03  0.91835090047E+02 0.  0.
          3    1    3    3  502    0 -0.12980589562E+02 -0.69333840990E+02 -0.27688412935E+03  0.28572801455E+03  0.00000000000E+00 0. -1.
         -3    1    3    3    0  502 -0.86595406506E+02 -0.27376102208E+02 -0.20957775460E+03  0.22840983040E+03  0.00000000000E+00 0.  1.
         11    1    5    5    0    0 -0.11411473407E+03  0.28355257943E+02  0.99544996160E+02  0.15406297234E+03  0.00000000000E+00 0. -1.
        -11    1    5    5    0    0 -0.19697684768E+03  0.13140659923E+03  0.83968963662E+02  0.25123367549E+03  0.00000000000E+00 0.  1.
          2    1    6    6  503    0  0.23306071107E+02 -0.56209009719E+01  0.66021061570E+01  0.24866750569E+02  0.00000000000E+00 0. -1.
         -2    1    6    6    0  503  0.38736150671E+03 -0.57431013001E+02 -0.26791972236E+03  0.47447680214E+03  0.00000000000E+00 0.  1.
<mgrwt>
<rscale>  0 0.13017433E+04</rscale>
<asrwt>0</asrwt>
<pdfrwt beam="1">  1        1 0.15254181E+00 0.13017433E+04</pdfrwt>
<pdfrwt beam="2">  1       -1 0.65731732E-01 0.13017433E+04</pdfrwt>
<totfact> 0.35414188E+01</totfact>
</mgrwt>
</event>
<event>
12    2  0.3552864E-008  0.2851368E+04  0.7818608E-02  0.8287496E-01
          1   -1    0    0  501    0  0.00000000000E+00  0.00000000000E+00  0.82124303405E+03  0.82124303405E+03  0.00000000000E+00 0. -1.
         -1   -1    0    0    0  501 -0.00000000000E+00 -0.00000000000E+00 -0.24749986202E+04  0.24749986202E+04  0.00000000000E+00 0.  1.
         23    2    1    2    0    0  0.38493482023E+03 -0.41770766324E+03  0.58394963910E+03  0.81934448967E+03  0.87599680343E+02 0.  0.
        254    2    1    2    0    0 -0.38493482023E+03  0.41770766324E+03 -0.22377052253E+04  0.24768971646E+04  0.89724042547E+03 0.  0.
         23    2    4    4    0    0 -0.23774309414E+03  0.36755583323E+03 -0.22535678982E+04  0.22974913605E+04  0.90990168184E+02 0.  0.
         23    2    4    4    0    0 -0.14719172608E+03  0.50151830008E+02  0.15862672883E+02  0.17940580409E+03  0.88057980159E+02 0.  0.
          1    1    3    3  502    0  0.33139959066E+03 -0.36892309845E+03  0.54593122323E+03  0.73754378972E+03  0.00000000000E+00 0. -1.
         -1    1    3    3    0  502  0.53535229569E+02 -0.48784564794E+02  0.38018415865E+02  0.81800699949E+02  0.00000000000E+00 0.  1.
         11    1    5    5    0    0 -0.24098247528E+03  0.33731235387E+03 -0.20329169923E+04  0.20747538830E+04  0.00000000000E+00 0. -1.
        -11    1    5    5    0    0  0.32393811376E+01  0.30243479358E+02 -0.22065090583E+03  0.22273747749E+03  0.00000000000E+00 0.  1.
          2    1    6    6  503    0 -0.12857939436E+03  0.52867142693E+02  0.43770296882E+02  0.14575127553E+03  0.00000000000E+00 0. -1.
         -2    1    6    6    0  503 -0.18612331727E+02 -0.27153126847E+01 -0.27907623999E+02  0.33654528560E+02  0.00000000000E+00 0.  1.
<mgrwt>
<rscale>  0 0.28513684E+04</rscale>
<asrwt>0</asrwt>
<pdfrwt beam="1">  1        1 0.12634508E+00 0.28513684E+04</pdfrwt>
<pdfrwt beam="2">  1       -1 0.38076902E+00 0.28513684E+04</pdfrwt>
<totfact> 0.17652133E-01</totfact>
</mgrwt>
</event>
<event>
12    2  0.3552864E-008  0.1366977E+04  0.7818608E-02  0.8978075E-01
          1   -1    0    0  501    0  0.00000000000E+00  0.00000000000E+00  0.83116249337E+03  0.83116249337E+03  0.00000000000E+00 0. -1.
         -1   -1    0    0    0  501 -0.00000000000E+00 -0.00000000000E+00 -0.56205201762E+03  0.56205201762E+03  0.00000000000E+00 0.  1.
         23    2    1    2    0    0 -0.29530578067E+03  0.22800858911E+03  0.79255472297E+02  0.39150607822E+03  0.88329828412E+02 0.  0.
        254    2    1    2    0    0  0.29530578067E+03 -0.22800858911E+03  0.18985500345E+03  0.10017084328E+04  0.91004474678E+03 0.  0.
         23    2    4    4    0    0  0.29285785515E+03 -0.17502978938E+03 -0.32241732077E+03  0.47875318862E+03  0.94077289414E+02 0.  0.
         23    2    4    4    0    0  0.24479255237E+01 -0.52978799726E+02  0.51227232422E+03  0.52295524416E+03  0.90810283938E+02 0.  0.
          1    1    3    3  502    0 -0.12479915061E+03  0.91865893799E+02  0.77599893230E+02  0.17330872415E+03  0.00000000000E+00 0. -1.
         -1    1    3    3    0  502 -0.17050663006E+03  0.13614269531E+03  0.16555790665E+01  0.21819735407E+03  0.00000000000E+00 0.  1.
         11    1    5    5    0    0  0.98057722171E+02 -0.41626410234E+02 -0.48274515190E+02  0.11695513551E+03  0.00000000000E+00 0.  1.
        -11    1    5    5    0    0  0.19480013298E+03 -0.13340337915E+03 -0.27414280558E+03  0.36179805310E+03  0.00000000000E+00 0. -1.
          2    1    6    6  503    0 -0.17284832979E+02 -0.26500150614E+02  0.46025445613E+03  0.46134064185E+03  0.00000000000E+00 0. -1.
         -2    1    6    6    0  503  0.19732758503E+02 -0.26478649113E+02  0.52017868093E+02  0.61614602310E+02  0.00000000000E+00 0.  1.
<mgrwt>
<rscale>  0 0.13669770E+04</rscale>
<asrwt>0</asrwt>
<pdfrwt beam="1">  1        1 0.12787115E+00 0.13669770E+04</pdfrwt>
<pdfrwt beam="2">  1       -1 0.86469541E-01 0.13669770E+04</pdfrwt>
<totfact> 0.26803011E+01</totfact>
</mgrwt>
</event>
<event>
12    2  0.3552864E-008  0.1382631E+04  0.7818608E-02  0.8966488E-01
         -1   -1    0    0    0  501 -0.00000000000E+00  0.00000000000E+00  0.19233330413E+03  0.19233330413E+03  0.00000000000E+00 0.  1.
          1   -1    0    0  501    0  0.00000000000E+00 -0.00000000000E+00 -0.24848393269E+04  0.24848393269E+04  0.00000000000E+00 0. -1.
         23    2    1    2    0    0  0.26812583438E+03 -0.19414820460E+03 -0.25899494917E+03  0.43005588223E+03  0.91020271027E+02 0.  0.
        254    2    1    2    0    0 -0.26812583438E+03  0.19414820460E+03 -0.20335110736E+04  0.22471167488E+04  0.89709609733E+03 0.  0.
         23    2    4    4    0    0 -0.33529890822E+03  0.38451248398E+03 -0.19389529037E+04  0.20068812091E+04  0.88083008283E+02 0.  0.
         23    2    4    4    0    0  0.67173073842E+02 -0.19036427938E+03 -0.94558169824E+02  0.24023553966E+03  0.89560517645E+02 0.  0.
          4    1    3    3  502    0  0.10396072738E+03 -0.34311213552E+02 -0.51680510522E+02  0.12106183288E+03  0.00000000000E+00 0. -1.
         -4    1    3    3    0  502  0.16416510700E+03 -0.15983699105E+03 -0.20731443864E+03  0.30899404935E+03  0.00000000000E+00 0.  1.
         11    1    5    5    0    0 -0.28580588228E+03  0.35485858176E+03 -0.17916854766E+04  0.18487148137E+04  0.00000000000E+00 0.  1.
        -11    1    5    5    0    0 -0.49493025938E+02  0.29653902222E+02 -0.14726742710E+03  0.15816639535E+03  0.00000000000E+00 0. -1.
          2    1    6    6  503    0  0.83200056157E+02 -0.15855468059E+03 -0.55697970188E+02  0.18752093207E+03  0.00000000000E+00 0.  1.
         -2    1    6    6    0  503 -0.16026982315E+02 -0.31809598790E+02 -0.38860199636E+02  0.52714607587E+02  0.00000000000E+00 0. -1.
<mgrwt>
<rscale>  0 0.13826313E+04</rscale>
<asrwt>0</asrwt>
<pdfrwt beam="1">  1        1 0.38228297E+00 0.13826313E+04</pdfrwt>
<pdfrwt beam="2">  1       -1 0.29589740E-01 0.13826313E+04</pdfrwt>
<totfact> 0.14217368E+01</totfact>
</mgrwt>
</event>
<event>
12    2  0.3552864E-008  0.1480383E+04  0.7818608E-02  0.8897604E-01
         -2   -1    0    0    0  501 -0.00000000000E+00  0.00000000000E+00  0.27227902908E+03  0.27227902908E+03  0.00000000000E+00 0.  1.
          2   -1    0    0  501    0  0.00000000000E+00 -0.00000000000E+00 -0.20122129076E+04  0.20122129076E+04  0.00000000000E+00 0. -1.
         23    2    1    2    0    0 -0.39085084408E+02  0.21974797701E+03  0.73006915562E+02  0.25050954583E+03  0.87225028568E+02 0.  0.
        254    2    1    2    0    0  0.39085084408E+02 -0.21974797701E+03 -0.18129407941E+04  0.20339823908E+04  0.89471404715E+03 0.  0.
         23    2    4    4    0    0 -0.17207601916E+03 -0.51266299288E+03 -0.11162335564E+04  0.12437682875E+04  0.92459178918E+02 0.  0.
         23    2    4    4    0    0  0.21116110357E+03  0.29291501587E+03 -0.69670723765E+03  0.79021410337E+03  0.93000731104E+02 0.  0.
          4    1    3    3  502    0  0.11088095566E+02  0.10769863575E+03  0.67562654119E+02  0.12761917661E+03  0.00000000000E+00 0.  1.
         -4    1    3    3    0  502 -0.50173179974E+02  0.11204934126E+03  0.54442614428E+01  0.12289036922E+03  0.00000000000E+00 0. -1.
         11    1    5    5    0    0 -0.13914316323E+03 -0.46300717072E+03 -0.92883263267E+03  0.10471229725E+04  0.00000000000E+00 0. -1.
        -11    1    5    5    0    0 -0.32932855930E+02 -0.49655822162E+02 -0.18740092377E+03  0.19664531498E+03  0.00000000000E+00 0.  1.
          2    1    6    6  503    0  0.20254448527E+03  0.27231958926E+03 -0.68619800733E+03  0.76553898168E+03  0.00000000000E+00 0. -1.
         -2    1    6    6    0  503  0.86166183050E+01  0.20595426616E+02 -0.10509230316E+02  0.24675121689E+02  0.00000000000E+00 0.  1.
<mgrwt>
<rscale>  0 0.14803829E+04</rscale>
<asrwt>0</asrwt>
<pdfrwt beam="1">  1        2 0.30957122E+00 0.14803829E+04</pdfrwt>
<pdfrwt beam="2">  1       -2 0.41889081E-01 0.14803829E+04</pdfrwt>
<totfact> 0.34387449E+01</totfact>
</mgrwt>
</event>
<event>
12    2  0.3552864E-008  0.1763288E+04  0.7818608E-02  0.8726070E-01
          2   -1    0    0  501    0  0.00000000000E+00  0.00000000000E+00  0.16730522688E+04  0.16730522688E+04  0.00000000000E+00 0. -1.
         -2   -1    0    0    0  501 -0.00000000000E+00 -0.00000000000E+00 -0.46459748322E+03  0.46459748322E+03  0.00000000000E+00 0.  1.
         23    2    1    2    0    0 -0.35485814666E+03 -0.53384209893E+03  0.33442593712E+03  0.72880610825E+03  0.91683941713E+02 0.  0.
        254    2    1    2    0    0  0.35485814666E+03  0.53384209893E+03  0.87402884845E+03  0.14088436438E+04  0.90000127433E+03 0.  0.
         23    2    4    4    0    0  0.26914122274E+03  0.28162072662E+03  0.10170229484E+04  0.10930726418E+04  0.93407125811E+02 0.  0.
         23    2    4    4    0    0  0.85716923918E+02  0.25222137231E+03 -0.14299409998E+03  0.31577100197E+03  0.91109831290E+02 0.  0.
          3    1    3    3  502    0 -0.31657967924E+03 -0.43111421985E+03  0.30315772561E+03  0.61480628694E+03  0.00000000000E+00 0. -1.
         -3    1    3    3    0  502 -0.38278467422E+02 -0.10272787908E+03  0.31268211505E+02  0.11399982131E+03  0.00000000000E+00 0.  1.
         11    1    5    5    0    0  0.34249892311E+02  0.16669637368E+02  0.18432539524E+03  0.18822003948E+03  0.00000000000E+00 0. -1.
        -11    1    5    5    0    0  0.23489133043E+03  0.26495108925E+03  0.83269755319E+03  0.90485260231E+03  0.00000000000E+00 0.  1.
          3    1    6    6  503    0  0.56424391254E+02  0.10649084047E+03 -0.18599160088E+02  0.12194236257E+03  0.00000000000E+00 0. -1.
         -3    1    6    6    0  503  0.29292532665E+02  0.14573053184E+03 -0.12439493990E+03  0.19382863940E+03  0.00000000000E+00 0.  1.
<mgrwt>
<rscale>  0 0.17632877E+04</rscale>
<asrwt>0</asrwt>
<pdfrwt beam="1">  1        2 0.25739265E+00 0.17632877E+04</pdfrwt>
<pdfrwt beam="2">  1       -2 0.71476537E-01 0.17632877E+04</pdfrwt>
<totfact> 0.17067280E+01</totfact>
</mgrwt>
</event>
<event>
12    2  0.3552864E-008  0.3600069E+04  0.7818608E-02  0.8090476E-01
          2   -1    0    0  501    0  0.00000000000E+00  0.00000000000E+00  0.21550399222E+04  0.21550399222E+04  0.00000000000E+00 0. -1.
         -2   -1    0    0    0  501 -0.00000000000E+00 -0.00000000000E+00 -0.15035102762E+04  0.15035102762E+04  0.00000000000E+00 0.  1.
         23    2    1    2    0    0  0.16284754447E+04  0.44166293526E+03  0.12049598296E+02  0.16899504040E+04  0.93748347667E+02 0.  0.
        254    2    1    2    0    0 -0.16284754447E+04 -0.44166293526E+03  0.63948004772E+03  0.19685997944E+04  0.78705272805E+03 0.  0.
         23    2    4    4    0    0 -0.13012133165E+04 -0.19685048264E+03  0.15502402406E+03  0.13282536543E+04  0.91209181266E+02 0.  0.
         23    2    4    4    0    0 -0.32726212824E+03 -0.24481245263E+03  0.48445602365E+03  0.64034614008E+03  0.91169637031E+02 0.  0.
          3    1    3    3  502    0  0.13952974331E+03  0.58302148148E+02 -0.16975050205E+02  0.15217043759E+03  0.00000000000E+00 0. -1.
         -3    1    3    3    0  502  0.14889457014E+04  0.38336078712E+03  0.29024648501E+02  0.15377799664E+04  0.00000000000E+00 0.  1.
         11    1    5    5    0    0 -0.10795302874E+04 -0.19651209605E+03  0.11983466677E+03  0.11037948146E+04  0.00000000000E+00 0. -1.
        -11    1    5    5    0    0 -0.22168302904E+03 -0.33838658512E+00  0.35189357297E+02  0.22445883973E+03  0.00000000000E+00 0.  1.
          4    1    6    6  503    0 -0.14195201520E+03 -0.15744656181E+03  0.27663163583E+03  0.34851808617E+03  0.00000000000E+00 0. -1.
         -4    1    6    6    0  503 -0.18531011304E+03 -0.87365890814E+02  0.20782438782E+03  0.29182805391E+03  0.00000000000E+00 0.  1.
<mgrwt>
<rscale>  0 0.36000693E+04</rscale>
<asrwt>0</asrwt>
<pdfrwt beam="1">  1        2 0.33154460E+00 0.36000693E+04</pdfrwt>
<pdfrwt beam="2">  1       -2 0.23130927E+00 0.36000693E+04</pdfrwt>
<totfact> 0.37428519E-01</totfact>
</mgrwt>
</event>
<event>
12    2  0.3552864E-008  0.1631964E+04  0.7818608E-02  0.8801149E-01
         -2   -1    0    0    0  501 -0.00000000000E+00  0.00000000000E+00  0.10447085230E+04  0.10447085230E+04  0.00000000000E+00 0.  1.
          2   -1    0    0  501    0  0.00000000000E+00 -0.00000000000E+00 -0.63733214504E+03  0.63733214504E+03  0.00000000000E+00 0. -1.
         23    2    1    2    0    0 -0.45966733186E+03  0.31241372093E+03  0.23404980731E+03  0.61060862787E+03  0.95745470508E+02 0.  0.
        254    2    1    2    0    0  0.45966733186E+03 -0.31241372093E+03  0.17332657067E+03  0.10714320402E+04  0.89945990887E+03 0.  0.
         23    2    4    4    0    0 -0.69382477680E+00 -0.50442153082E+03  0.22847214274E+03  0.56108756224E+03  0.90433236939E+02 0.  0.
         23    2    4    4    0    0  0.46036115664E+03  0.19200780990E+03 -0.55145572067E+02  0.51034447796E+03  0.92795789050E+02 0.  0.
          1    1    3    3  502    0 -0.28329601391E+02  0.81383032873E+01 -0.70305167613E+01  0.30302251753E+02  0.00000000000E+00 0. -1.
         -1    1    3    3    0  502 -0.43133773047E+03  0.30427541764E+03  0.24108032407E+03  0.58030637612E+03  0.00000000000E+00 0.  1.
         11    1    5    5    0    0 -0.45255341379E+02 -0.27936275896E+03  0.12928868134E+03  0.31113849029E+03  0.00000000000E+00 0. -1.
        -11    1    5    5    0    0  0.44561516602E+02 -0.22505877186E+03  0.99183461398E+02  0.24994907195E+03  0.00000000000E+00 0.  1.
          2    1    6    6  503    0  0.12363154076E+02 -0.52696397284E+01  0.96766109995E+01  0.16560600291E+02  0.00000000000E+00 0. -1.
         -2    1    6    6    0  503  0.44799800256E+03  0.19727744962E+03 -0.64822183067E+02  0.49378387767E+03  0.00000000000E+00 0.  1.
<mgrwt>
<rscale>  0 0.16319636E+04</rscale>
<asrwt>0</asrwt>
<pdfrwt beam="1">  1        2 0.98051099E-01 0.16319636E+04</pdfrwt>
<pdfrwt beam="2">  1       -2 0.16072439E+00 0.16319636E+04</pdfrwt>
<totfact> 0.10956365E+01</totfact>
</mgrwt>
</event>
<event>
12    2  0.3552864E-008  0.2049790E+04  0.7818608E-02  0.8583690E-01
         -2   -1    0    0    0  501 -0.00000000000E+00  0.00000000000E+00  0.60297680903E+03  0.60297680903E+03  0.00000000000E+00 0.  1.
          2   -1    0    0  501    0  0.00000000000E+00 -0.00000000000E+00 -0.17420397155E+04  0.17420397155E+04  0.00000000000E+00 0. -1.
         23    2    1    2    0    0 -0.41075624441E+03 -0.39688016736E+03  0.21935781116E+03  0.61896805641E+03  0.93643184305E+02 0.  0.
        254    2    1    2    0    0  0.41075624441E+03  0.39688016736E+03 -0.13584207177E+04  0.17260484682E+04  0.89872237576E+03 0.  0.
         23    2    4    4    0    0  0.43482210857E+03  0.33708072148E+03 -0.24769972876E+03  0.60941530065E+03  0.85663143477E+02 0.  0.
         23    2    4    4    0    0 -0.24065864154E+02  0.59799445879E+02 -0.11107209889E+04  0.11166331675E+04  0.94938801542E+02 0.  0.
          2    1    3    3  502    0 -0.21523005994E+03 -0.19721609297E+03  0.16138384948E+03  0.33356095830E+03  0.00000000000E+00 0.  1.
         -2    1    3    3    0  502 -0.19552618447E+03 -0.19966407439E+03  0.57973961674E+02  0.28540709811E+03  0.00000000000E+00 0. -1.
         11    1    5    5    0    0  0.16205594353E+03  0.14336386623E+03 -0.54677167866E+02  0.22317015854E+03  0.00000000000E+00 0.  1.
        -11    1    5    5    0    0  0.27276616504E+03  0.19371685525E+03 -0.19302256089E+03  0.38624514212E+03  0.00000000000E+00 0. -1.
          4    1    6    6  503    0 -0.13775591826E+02  0.46293760153E+02 -0.10833319833E+04  0.10844081635E+04  0.00000000000E+00 0. -1.
         -4    1    6    6    0  503 -0.10290272328E+02  0.13505685726E+02 -0.27389005634E+02  0.32225003974E+02  0.00000000000E+00 0.  1.
<mgrwt>
<rscale>  0 0.20497898E+04</rscale>
<asrwt>0</asrwt>
<pdfrwt beam="1">  1        2 0.26800611E+00 0.20497898E+04</pdfrwt>
<pdfrwt beam="2">  1       -2 0.92765664E-01 0.20497898E+04</pdfrwt>
<totfact> 0.84716278E+00</totfact>
</mgrwt>
</event>
<event>
12    2  0.3552864E-008  0.1977369E+04  0.7818608E-02  0.8617275E-01
          2   -1    0    0  501    0  0.00000000000E+00  0.00000000000E+00  0.13159915123E+04  0.13159915123E+04  0.00000000000E+00 0. -1.
         -2   -1    0    0    0  501 -0.00000000000E+00 -0.00000000000E+00 -0.74278372029E+03  0.74278372029E+03  0.00000000000E+00 0.  1.
         23    2    1    2    0    0 -0.45671902521E+03  0.45383050097E+03 -0.22464162639E+03  0.68952555136E+03  0.10211382896E+03 0.  0.
        254    2    1    2    0    0  0.45671902521E+03 -0.45383050097E+03  0.79784941839E+03  0.13692496812E+04  0.90759385383E+03 0.  0.
         23    2    4    4    0    0  0.10758070153E+03 -0.36957975202E+03  0.90224583651E+03  0.98518999218E+03  0.91591324608E+02 0.  0.
         23    2    4    4    0    0  0.34913832369E+03 -0.84250748951E+02 -0.10439641812E+03  0.38405968905E+03  0.87220839651E+02 0.  0.
          3    1    3    3  502    0 -0.18896064028E+03  0.14461122727E+03 -0.12387208566E+03  0.26825887540E+03  0.00000000000E+00 0. -1.
         -3    1    3    3    0  502 -0.26775838494E+03  0.30921927370E+03 -0.10076954073E+03  0.42126667595E+03  0.00000000000E+00 0.  1.
         11    1    5    5    0    0 -0.17682132839E+01 -0.31933977335E+02  0.31492889148E+02  0.44885493798E+02  0.00000000000E+00 0. -1.
        -11    1    5    5    0    0  0.10934891481E+03 -0.33764577469E+03  0.87075294736E+03  0.94030449838E+03  0.00000000000E+00 0.  1.
          2    1    6    6  503    0  0.14030498437E+03 -0.35709361902E+01 -0.87957971380E+01  0.14062576674E+03  0.00000000000E+00 0. -1.
         -2    1    6    6    0  503  0.20883333932E+03 -0.80679812761E+02 -0.95600620985E+02  0.24343392231E+03  0.00000000000E+00 0.  1.
<mgrwt>
<rscale>  0 0.19773690E+04</rscale>
<asrwt>0</asrwt>
<pdfrwt beam="1">  1        2 0.20246023E+00 0.19773690E+04</pdfrwt>
<pdfrwt beam="2">  1       -2 0.11427442E+00 0.19773690E+04</pdfrwt>
<totfact> 0.90200832E+00</totfact>
</mgrwt>
</event>
<event>
12    2  0.3552864E-008  0.1507046E+04  0.7818608E-02  0.8879781E-01
         -2   -1    0    0    0  501 -0.00000000000E+00  0.00000000000E+00  0.15260153526E+04  0.15260153526E+04  0.00000000000E+00 0. -1.
          2   -1    0    0  501    0  0.00000000000E+00 -0.00000000000E+00 -0.37207802079E+03  0.37207802079E+03  0.00000000000E+00 0.  1.
         23    2    1    2    0    0 -0.53574086912E+02 -0.99421455086E+02  0.96398455426E+03  0.97516275436E+03  0.94452994167E+02 0.  0.
        254    2    1    2    0    0  0.53574086912E+02  0.99421455086E+02  0.18995277758E+03  0.92293061906E+03  0.89608261972E+03 0.  0.
         23    2    4    4    0    0 -0.38635293330E+03  0.10215213506E+03 -0.50879206975E+02  0.41305271032E+03  0.91215130530E+02 0.  0.
         23    2    4    4    0    0  0.43992702021E+03 -0.27306799737E+01  0.24083198456E+03  0.50987790874E+03  0.91826996663E+02 0.  0.
          1    1    3    3  502    0 -0.14400779069E+02 -0.62454755760E+02  0.79990853967E+03  0.80247221185E+03  0.00000000000E+00 0. -1.
         -1    1    3    3    0  502 -0.39173307842E+02 -0.36966699326E+02  0.16407601459E+03  0.17269054250E+03  0.00000000000E+00 0.  1.
         11    1    5    5    0    0 -0.85790652411E+02  0.37080878979E+02  0.24100054282E+02  0.96518600504E+02  0.00000000000E+00 0. -1.
        -11    1    5    5    0    0 -0.30056228088E+03  0.65071256080E+02 -0.74979261257E+02  0.31653410982E+03  0.00000000000E+00 0.  1.
          1    1    6    6  503    0  0.13683323477E+02 -0.16882701360E+02  0.20374383668E+02  0.29788831068E+02  0.00000000000E+00 0. -1.
         -1    1    6    6    0  503  0.42624369673E+03  0.14152021386E+02  0.22045760089E+03  0.48008907767E+03  0.00000000000E+00 0.  1.
<mgrwt>
<rscale>  0 0.15070458E+04</rscale>
<asrwt>0</asrwt>
<pdfrwt beam="1">  1        2 0.57242773E-01 0.15070458E+04</pdfrwt>
<pdfrwt beam="2">  1       -2 0.23477159E+00 0.15070458E+04</pdfrwt>
<totfact> 0.66501751E+00</totfact>
</mgrwt>
</event>
<event>
12    2  0.3552864E-008  0.2181959E+04  0.7818608E-02  0.8525975E-01
          2   -1    0    0  501    0  0.00000000000E+00  0.00000000000E+00  0.70343153802E+03  0.70343153802E+03  0.00000000000E+00 0. -1.
         -2   -1    0    0    0  501 -0.00000000000E+00 -0.00000000000E+00 -0.16920429492E+04  0.16920429492E+04  0.00000000000E+00 0.  1.
         23    2    1    2    0    0  0.85003409939E+03 -0.21456616505E+03 -0.65817777469E+03  0.11000625908E+04  0.91340633622E+02 0.  0.
        254    2    1    2    0    0 -0.85003409939E+03  0.21456616505E+03 -0.33043363653E+03  0.12954118964E+04  0.89459990159E+03 0.  0.
         23    2    4    4    0    0 -0.66862880488E+03 -0.45502433717E+02 -0.57265404959E+03  0.88627504868E+03  0.91737948654E+02 0.  0.
         23    2    4    4    0    0 -0.18140529452E+03  0.26006859876E+03  0.24222041305E+03  0.40913684774E+03  0.90436025651E+02 0.  0.
          2    1    3    3  502    0  0.14648796434E+03 -0.38987618301E+02 -0.15931877962E+03  0.21991187239E+03  0.00000000000E+00 0. -1.
         -2    1    3    3    0  502  0.70354613505E+03 -0.17557854675E+03 -0.49885899507E+03  0.88015071845E+03  0.00000000000E+00 0.  1.
         11    1    5    5    0    0 -0.46570359806E+03 -0.22670010691E+02 -0.45040480567E+03  0.64827329083E+03  0.00000000000E+00 0.  1.
        -11    1    5    5    0    0 -0.20292520682E+03 -0.22832423026E+02 -0.12224924391E+03  0.23800175785E+03  0.00000000000E+00 0. -1.
          4    1    6    6  503    0 -0.39420263162E+02  0.37129860589E+02  0.87404898450E+02  0.10282120388E+03  0.00000000000E+00 0.  1.
         -4    1    6    6    0  503 -0.14198503135E+03  0.22293873818E+03  0.15481551460E+03  0.30631564385E+03  0.00000000000E+00 0. -1.
<mgrwt>
<rscale>  0 0.21819591E+04</rscale>
<asrwt>0</asrwt>
<pdfrwt beam="1">  1        2 0.10822024E+00 0.21819591E+04</pdfrwt>
<pdfrwt beam="2">  1       -2 0.26031430E+00 0.21819591E+04</pdfrwt>
<totfact> 0.20702826E+00</totfact>
</mgrwt>
</event>
<event>
12    2  0.3552864E-008  0.1393556E+04  0.7818608E-02  0.8958496E-01
         -1   -1    0    0    0  501 -0.00000000000E+00  0.00000000000E+00  0.25071142745E+03  0.25071142745E+03  0.00000000000E+00 0.  1.
          1   -1    0    0  501    0  0.00000000000E+00 -0.00000000000E+00 -0.19364870231E+04  0.19364870231E+04  0.00000000000E+00 0. -1.
         23    2    1    2    0    0 -0.34576956952E+03  0.30622809299E+02 -0.80449079557E+03  0.88251126042E+03  0.10548143413E+03 0.  0.
        254    2    1    2    0    0  0.34576956952E+03 -0.30622809299E+02 -0.88128480010E+03  0.13046871902E+04  0.89724657349E+03 0.  0.
         23    2    4    4    0    0  0.62307133570E+03 -0.14799035710E+03 -0.56407034270E+03  0.85840716302E+03  0.92566035080E+02 0.  0.
         23    2    4    4    0    0 -0.27730176618E+03  0.11736754780E+03 -0.31721445740E+03  0.44628002714E+03  0.88709863248E+02 0.  0.
          1    1    3    3  502    0 -0.19709615723E+03  0.45958368973E+02 -0.56559092700E+03  0.60070971657E+03  0.00000000000E+00 0. -1.
         -1    1    3    3    0  502 -0.14867341229E+03 -0.15335559673E+02 -0.23889986857E+03  0.28180154384E+03  0.00000000000E+00 0.  1.
         11    1    5    5    0    0  0.36155308812E+03 -0.38891975116E+02 -0.31125139296E+03  0.47865504372E+03  0.00000000000E+00 0.  1.
        -11    1    5    5    0    0  0.26151824758E+03 -0.10909838199E+03 -0.25281894974E+03  0.37975211930E+03  0.00000000000E+00 0. -1.
          2    1    6    6  503    0 -0.12738206756E+03  0.76824336883E+01 -0.14212006297E+03  0.19100608164E+03  0.00000000000E+00 0. -1.
         -2    1    6    6    0  503 -0.14991969862E+03  0.10968511412E+03 -0.17509439442E+03  0.25527394550E+03  0.00000000000E+00 0.  1.
<mgrwt>
<rscale>  0 0.13935558E+04</rscale>
<asrwt>0</asrwt>
<pdfrwt beam="1">  1        1 0.29792110E+00 0.13935558E+04</pdfrwt>
<pdfrwt beam="2">  1       -1 0.38570987E-01 0.13935558E+04</pdfrwt>
<totfact> 0.20914319E+01</totfact>
</mgrwt>
</event>
<event>
12    2  0.3552864E-008  0.2081994E+04  0.7818608E-02  0.8569217E-01
          2   -1    0    0  501    0  0.00000000000E+00  0.00000000000E+00  0.31575493881E+04  0.31575493881E+04  0.00000000000E+00 0. -1.
         -2   -1    0    0    0  501 -0.00000000000E+00 -0.00000000000E+00 -0.34320131872E+03  0.34320131872E+03  0.00000000000E+00 0.  1.
         23    2    1    2    0    0 -0.20952860122E+02 -0.29856036864E+03  0.24734091257E+04  0.24930882578E+04  0.90327414899E+02 0.  0.
        254    2    1    2    0    0  0.20952860122E+02  0.29856036864E+03  0.34093894366E+03  0.10076624490E+04  0.89975937439E+03 0.  0.
         23    2    4    4    0    0 -0.12538447401E+02 -0.15066442337E+03 -0.22038547592E+03  0.28255060082E+03  0.91695708150E+02 0.  0.
         23    2    4    4    0    0  0.33491307523E+02  0.44922479201E+03  0.56132441958E+03  0.72511184821E+03  0.88190174946E+02 0.  0.
          4    1    3    3  502    0 -0.52948298192E+02 -0.23798707211E+03  0.18829304777E+04  0.18986491389E+04  0.00000000000E+00 0. -1.
         -4    1    3    3    0  502  0.31995438070E+02 -0.60573296532E+02  0.59047864806E+03  0.59443911894E+03  0.00000000000E+00 0.  1.
         11    1    5    5    0    0  0.23319892035E+02 -0.63833361793E+01 -0.13209024922E+02  0.27550729295E+02  0.00000000000E+00 0.  1.
        -11    1    5    5    0    0 -0.35858339436E+02 -0.14428108719E+03 -0.20717645100E+03  0.25499987152E+03  0.00000000000E+00 0. -1.
          1    1    6    6  503    0 -0.12519992982E+01  0.37862366355E+03  0.43970119240E+03  0.58025389675E+03  0.00000000000E+00 0. -1.
         -1    1    6    6    0  503  0.34743306821E+02  0.70601128459E+02  0.12162322719E+03  0.14485795145E+03  0.00000000000E+00 0.  1.
<mgrwt>
<rscale>  0 0.20819943E+04</rscale>
<asrwt>0</asrwt>
<pdfrwt beam="1">  1        2 0.48577681E+00 0.20819943E+04</pdfrwt>
<pdfrwt beam="2">  1       -2 0.52800205E-01 0.20819943E+04</pdfrwt>
<totfact> 0.43264677E+00</totfact>
</mgrwt>
</event>
<event>
12    2  0.3552864E-008  0.1311646E+04  0.7818608E-02  0.9020380E-01
          1   -1    0    0  501    0  0.00000000000E+00  0.00000000000E+00  0.11498941006E+04  0.11498941006E+04  0.00000000000E+00 0. -1.
         -1   -1    0    0    0  501 -0.00000000000E+00 -0.00000000000E+00 -0.37403780381E+03  0.37403780381E+03  0.00000000000E+00 0.  1.
         23    2    1    2    0    0 -0.52009881447E+02  0.45850330214E+02  0.59247249998E+03  0.60361522923E+03  0.92306019155E+02 0.  0.
        254    2    1    2    0    0  0.52009881447E+02 -0.45850330214E+02  0.18338379685E+03  0.92031667523E+03  0.89919179557E+03 0.  0.
         23    2    4    4    0    0  0.41484427171E+03 -0.99093938021E+02 -0.99081246515E+02  0.44749613600E+03  0.92305579452E+02 0.  0.
         23    2    4    4    0    0 -0.36283439026E+03  0.53243607807E+02  0.28246504336E+03  0.47282053923E+03  0.96379899721E+02 0.  0.
          4    1    3    3  502    0  0.15283642613E+02  0.39081452902E+02  0.32617656965E+03  0.32886487237E+03  0.00000000000E+00 0. -1.
         -4    1    3    3    0  502 -0.67293524060E+02  0.67688773122E+01  0.26629593033E+03  0.27475035686E+03  0.00000000000E+00 0.  1.
         11    1    5    5    0    0  0.37966673517E+03 -0.98205843957E+02 -0.11528412617E+03  0.40875621992E+03  0.00000000000E+00 0. -1.
        -11    1    5    5    0    0  0.35177536544E+02 -0.88809406385E+00  0.16202879654E+02  0.38739916074E+02  0.00000000000E+00 0.  1.
          3    1    6    6  503    0 -0.30569493935E+03  0.57530059874E+02  0.27470716618E+03  0.41499774805E+03  0.00000000000E+00 0. -1.
         -3    1    6    6    0  503 -0.57139450916E+02 -0.42864520679E+01  0.77578771784E+01  0.57822791187E+02  0.00000000000E+00 0.  1.
<mgrwt>
<rscale>  0 0.13116461E+04</rscale>
<asrwt>0</asrwt>
<pdfrwt beam="1">  1        1 0.17690678E+00 0.13116461E+04</pdfrwt>
<pdfrwt beam="2">  1       -1 0.57544278E-01 0.13116461E+04</pdfrwt>
<totfact> 0.34930599E+01</totfact>
</mgrwt>
</event>
<event>
12    2  0.3552864E-008  0.1394201E+04  0.7818608E-02  0.8958027E-01
         -2   -1    0    0    0  501 -0.00000000000E+00  0.00000000000E+00  0.27407525574E+03  0.27407525574E+03  0.00000000000E+00 0. -1.
          2   -1    0    0  501    0  0.00000000000E+00 -0.00000000000E+00 -0.17730511799E+04  0.17730511799E+04  0.00000000000E+00 0.  1.
         23    2    1    2    0    0  0.15763503617E+03 -0.31996269940E+03 -0.70704982752E+03  0.79694375695E+03  0.89302628814E+02 0.  0.
        254    2    1    2    0    0 -0.15763503617E+03  0.31996269940E+03 -0.79192609669E+03  0.12501826787E+04  0.89921346407E+03 0.  0.
         23    2    4    4    0    0  0.33983382192E+03  0.14412662264E+03 -0.13980930604E+03  0.40607937740E+03  0.95364085582E+02 0.  0.
         23    2    4    4    0    0 -0.49746885809E+03  0.17583607676E+03 -0.65211679066E+03  0.84410330135E+03  0.94130144092E+02 0.  0.
          1    1    3    3  502    0  0.17600674205E+02 -0.98162298706E+02 -0.26208869932E+03  0.28042130256E+03  0.00000000000E+00 0. -1.
         -1    1    3    3    0  502  0.14003436197E+03 -0.22180040069E+03 -0.44496112819E+03  0.51652245438E+03  0.00000000000E+00 0.  1.
         11    1    5    5    0    0  0.17225110275E+03  0.48678251322E+02 -0.11219828199E+03  0.21125451246E+03  0.00000000000E+00 0. -1.
        -11    1    5    5    0    0  0.16758271917E+03  0.95448371319E+02 -0.27611024045E+02  0.19482486494E+03  0.00000000000E+00 0.  1.
          2    1    6    6  503    0 -0.50823694184E+02  0.18206703617E+02 -0.12082784507E+03  0.13234009253E+03  0.00000000000E+00 0. -1.
         -2    1    6    6    0  503 -0.44664516391E+03  0.15762937314E+03 -0.53128894559E+03  0.71176320881E+03  0.00000000000E+00 0.  1.
<mgrwt>
<rscale>  0 0.13942015E+04</rscale>
<asrwt>0</asrwt>
<pdfrwt beam="1">  1        2 0.27277711E+00 0.13942015E+04</pdfrwt>
<pdfrwt beam="2">  1       -2 0.42165423E-01 0.13942015E+04</pdfrwt>
<totfact> 0.46359472E+01</totfact>
</mgrwt>
</event>
<event>
12    2  0.3552864E-008  0.2214720E+04  0.7818608E-02  0.8512326E-01
          2   -1    0    0  501    0  0.00000000000E+00  0.00000000000E+00  0.36647169853E+04  0.36647169853E+04  0.00000000000E+00 0.  1.
         -2   -1    0    0    0  501 -0.00000000000E+00 -0.00000000000E+00 -0.33460868121E+03  0.33460868121E+03  0.00000000000E+00 0. -1.
         23    2    1    2    0    0 -0.57738681898E+03  0.35591967361E+02  0.10002238969E+03  0.59433037374E+03  0.92637939482E+02 0.  0.
        254    2    1    2    0    0  0.57738681898E+03 -0.35591967361E+02  0.32300859144E+04  0.34049952928E+04  0.90878798548E+03 0.  0.
         23    2    4    4    0    0  0.12938082596E+03  0.40301683173E+03  0.15517273904E+04  0.16109901547E+04  0.90936350144E+02 0.  0.
         23    2    4    4    0    0  0.44800599302E+03 -0.43860879909E+03  0.16783585241E+04  0.17940051381E+04  0.92087196654E+02 0.  0.
          3    1    3    3  502    0 -0.55256117196E+03  0.53636418910E+02  0.95295689463E+02  0.56327789112E+03  0.00000000000E+00 0. -1.
         -3    1    3    3    0  502 -0.24825647020E+02 -0.18044451549E+02  0.47267002224E+01  0.31052482617E+02  0.00000000000E+00 0.  1.
         11    1    5    5    0    0  0.23135496674E+02  0.32567088000E+02  0.77089170010E+02  0.86825149352E+02  0.00000000000E+00 0. -1.
        -11    1    5    5    0    0  0.10624532929E+03  0.37044974373E+03  0.14746382203E+04  0.15241650053E+04  0.00000000000E+00 0.  1.
          1    1    6    6  503    0  0.23767083199E+02 -0.61946793879E+02  0.18043494309E+03  0.19224736202E+03  0.00000000000E+00 0. -1.
         -1    1    6    6    0  503  0.42423890982E+03 -0.37666200521E+03  0.14979235810E+04  0.16017577761E+04  0.00000000000E+00 0.  1.
<mgrwt>
<rscale>  0 0.22147200E+04</rscale>
<asrwt>0</asrwt>
<pdfrwt beam="1">  1        2 0.56380259E+00 0.22147200E+04</pdfrwt>
<pdfrwt beam="2">  1       -2 0.51478261E-01 0.22147200E+04</pdfrwt>
<totfact> 0.20255661E+00</totfact>
</mgrwt>
</event>
<event>
12    2  0.3552864E-008  0.2125501E+04  0.7818608E-02  0.8550092E-01
          2   -1    0    0  501    0  0.00000000000E+00  0.00000000000E+00  0.20665588083E+04  0.20665588083E+04  0.00000000000E+00 0. -1.
         -2   -1    0    0    0  501 -0.00000000000E+00 -0.00000000000E+00 -0.54653109669E+03  0.54653109669E+03  0.00000000000E+00 0.  1.
         23    2    1    2    0    0 -0.15136132348E+03 -0.58154865755E+03 -0.14058689636E+03  0.62372389042E+03  0.90320123510E+02 0.  0.
        254    2    1    2    0    0  0.15136132348E+03  0.58154865755E+03  0.16606146080E+04  0.19893660146E+04  0.91587508558E+03 0.  0.
         23    2    4    4    0    0 -0.90602488681E+02  0.61748598000E+03  0.15975630714E+04  0.17176050708E+04  0.91987312156E+02 0.  0.
         23    2    4    4    0    0  0.24196381216E+03 -0.35937322447E+02  0.63051536531E+02  0.27176094376E+03  0.10020247879E+03 0.  0.
          3    1    3    3  502    0 -0.11510916209E+02 -0.89559525429E+02  0.91975576325E+01  0.90763455495E+02  0.00000000000E+00 0. -1.
         -3    1    3    3    0  502 -0.13985040727E+03 -0.49198913212E+03 -0.14978445399E+03  0.53296043493E+03  0.00000000000E+00 0.  1.
         11    1    5    5    0    0 -0.84207826261E+02  0.60091870957E+03  0.14938731222E+04  0.16124053952E+04  0.00000000000E+00 0. -1.
        -11    1    5    5    0    0 -0.63946624199E+01  0.16567270432E+02  0.10368994928E+03  0.10519967557E+03  0.00000000000E+00 0.  1.
          4    1    6    6  503    0  0.24644166106E+03 -0.35838347723E+02  0.74112205713E+02  0.25982782474E+03  0.00000000000E+00 0. -1.
         -4    1    6    6    0  503 -0.44778489018E+01 -0.98974724176E-01 -0.11060669181E+02  0.11933119019E+02  0.00000000000E+00 0.  1.
<mgrwt>
<rscale>  0 0.21255010E+04</rscale>
<asrwt>0</asrwt>
<pdfrwt beam="1">  1        2 0.31793212E+00 0.21255010E+04</pdfrwt>
<pdfrwt beam="2">  1       -2 0.84081708E-01 0.21255010E+04</pdfrwt>
<totfact> 0.69666310E+00</totfact>
</mgrwt>
</event>
<event>
12    2  0.3552864E-008  0.1209997E+04  0.7818608E-02  0.9104151E-01
          2   -1    0    0  501    0  0.00000000000E+00  0.00000000000E+00  0.19344469573E+04  0.19344469573E+04  0.00000000000E+00 0. -1.
         -2   -1    0    0    0  501 -0.00000000000E+00 -0.00000000000E+00 -0.18921349138E+03  0.18921349138E+03  0.00000000000E+00 0.  1.
         23    2    1    2    0    0  0.11319197330E+02  0.12187503586E+03  0.71706724317E+02  0.16760556210E+03  0.89264335207E+02 0.  0.
        254    2    1    2    0    0 -0.11319197330E+02 -0.12187503586E+03  0.16735267416E+04  0.19560548866E+04  0.10052250076E+04 0.  0.
         23    2    4    4    0    0  0.30072129377E+03 -0.44758664787E+03  0.97150905513E+03  0.11153343347E+04  0.96818025263E+02 0.  0.
         23    2    4    4    0    0 -0.31204049110E+03  0.32571161200E+03  0.70201768651E+03  0.84072055195E+03  0.10259089636E+03 0.  0.
          3    1    3    3  502    0  0.78034076498E+01 -0.12622190589E+02  0.16458376849E+02  0.22160573880E+02  0.00000000000E+00 0. -1.
         -3    1    3    3    0  502  0.35157896805E+01  0.13449722645E+03  0.55248347468E+02  0.14544498822E+03  0.00000000000E+00 0.  1.
         11    1    5    5    0    0  0.20786993850E+03 -0.35023662144E+03  0.65328664546E+03  0.76984351882E+03  0.00000000000E+00 0.  1.
        -11    1    5    5    0    0  0.92851355273E+02 -0.97350026425E+02  0.31822240967E+03  0.34549081585E+03  0.00000000000E+00 0. -1.
          1    1    6    6  503    0 -0.71651074053E+02  0.66281058517E+02  0.84560329906E+02  0.12914141290E+03  0.00000000000E+00 0. -1.
         -1    1    6    6    0  503 -0.24038941705E+03  0.25943055348E+03  0.61745735660E+03  0.71157913905E+03  0.00000000000E+00 0.  1.
<mgrwt>
<rscale>  0 0.12099975E+04</rscale>
<asrwt>0</asrwt>
<pdfrwt beam="1">  1        2 0.29760721E+00 0.12099975E+04</pdfrwt>
<pdfrwt beam="2">  1       -2 0.29109769E-01 0.12099975E+04</pdfrwt>
<totfact> 0.77787997E+01</totfact>
</mgrwt>
</event>
<event>
12    2  0.3552864E-008  0.1599915E+04  0.7818608E-02  0.8820600E-01
          2   -1    0    0  501    0  0.00000000000E+00  0.00000000000E+00  0.85130843794E+03  0.85130843794E+03  0.00000000000E+00 0. -1.
         -2   -1    0    0    0  501 -0.00000000000E+00 -0.00000000000E+00 -0.75170376042E+03  0.75170376042E+03  0.00000000000E+00 0.  1.
         23    2    1    2    0    0 -0.25981915460E+03  0.71955338344E+02 -0.43313165461E+03  0.51843075214E+03  0.92107821201E+02 0.  0.
        254    2    1    2    0    0  0.25981915460E+03 -0.71955338344E+02  0.53273633213E+03  0.10845814462E+04  0.90544207440E+03 0.  0.
         23    2    4    4    0    0  0.22541737119E+03 -0.24408626092E+03 -0.14790646437E+03  0.37541268605E+03  0.93098166706E+02 0.  0.
         23    2    4    4    0    0  0.34401783415E+02  0.17213092257E+03  0.68064279649E+03  0.70916876016E+03  0.93984981606E+02 0.  0.
          3    1    3    3  502    0 -0.28682630985E+02 -0.81820460384E+01 -0.10492999232E+03  0.10908685753E+03  0.00000000000E+00 0. -1.
         -3    1    3    3    0  502 -0.23113652362E+03  0.80137384383E+02 -0.32820166229E+03  0.40934389461E+03  0.00000000000E+00 0.  1.
         11    1    5    5    0    0  0.23211145379E+03 -0.24184389232E+03 -0.15106958085E+03  0.36767677856E+03  0.00000000000E+00 0. -1.
        -11    1    5    5    0    0 -0.66940826003E+01 -0.22423685958E+01  0.31631164875E+01  0.77359074899E+01  0.00000000000E+00 0.  1.
          3    1    6    6  503    0  0.50768861040E+02  0.71983746677E+02  0.42678738982E+03  0.43578275912E+03  0.00000000000E+00 0. -1.
         -3    1    6    6    0  503 -0.16367077625E+02  0.10014717589E+03  0.25385540667E+03  0.27338600104E+03  0.00000000000E+00 0.  1.
<mgrwt>
<rscale>  0 0.15999147E+04</rscale>
<asrwt>0</asrwt>
<pdfrwt beam="1">  1        2 0.13097053E+00 0.15999147E+04</pdfrwt>
<pdfrwt beam="2">  1       -2 0.11564673E+00 0.15999147E+04</pdfrwt>
<totfact> 0.17665112E+01</totfact>
</mgrwt>
</event>
<event>
12    2  0.3552864E-008  0.2334740E+04  0.7818608E-02  0.8464348E-01
         -2   -1    0    0    0  501 -0.00000000000E+00  0.00000000000E+00  0.86699420422E+03  0.86699420422E+03  0.00000000000E+00 0.  1.
          2   -1    0    0  501    0  0.00000000000E+00 -0.00000000000E+00 -0.15718124869E+04  0.15718124869E+04  0.00000000000E+00 0. -1.
         23    2    1    2    0    0 -0.73731640143E+03  0.11263739439E+03  0.37256379093E+03  0.83870048151E+03  0.91060754109E+02 0.  0.
        254    2    1    2    0    0  0.73731640143E+03 -0.11263739439E+03 -0.10773820736E+04  0.16001062096E+04  0.91829466463E+03 0.  0.
         23    2    4    4    0    0  0.31896323344E+03 -0.39860097756E+03 -0.93021763495E+03  0.10646722766E+04  0.87189016491E+02 0.  0.
         23    2    4    4    0    0  0.41835316799E+03  0.28596358317E+03 -0.14716443863E+03  0.53543393300E+03  0.90761118002E+02 0.  0.
          1    1    3    3  502    0 -0.41809607808E+03  0.78995014151E+02  0.16454211698E+03  0.45620023129E+03  0.00000000000E+00 0. -1.
         -1    1    3    3    0  502 -0.31922032336E+03  0.33642380239E+02  0.20802167394E+03  0.38250025022E+03  0.00000000000E+00 0.  1.
         11    1    5    5    0    0  0.11749546708E+03 -0.99988106592E+02 -0.33724881944E+03  0.37086328001E+03  0.00000000000E+00 0.  1.
        -11    1    5    5    0    0  0.20146776636E+03 -0.29861287096E+03 -0.59296881550E+03  0.69380899659E+03  0.00000000000E+00 0. -1.
          3    1    6    6  503    0  0.38148447754E+03  0.25779060192E+03 -0.10391099075E+03  0.47199988882E+03  0.00000000000E+00 0. -1.
         -3    1    6    6    0  503  0.36868690451E+02  0.28172981245E+02 -0.43253447877E+02  0.63434044180E+02  0.00000000000E+00 0.  1.
<mgrwt>
<rscale>  0 0.23347397E+04</rscale>
<asrwt>0</asrwt>
<pdfrwt beam="1">  1        2 0.24181730E+00 0.23347397E+04</pdfrwt>
<pdfrwt beam="2">  1       -2 0.13338372E+00 0.23347397E+04</pdfrwt>
<totfact> 0.42543745E+00</totfact>
</mgrwt>
</event>
<event>
12    2  0.3552864E-008  0.1617160E+04  0.7818608E-02  0.8810075E-01
          2   -1    0    0  501    0  0.00000000000E+00  0.00000000000E+00  0.10776029819E+04  0.10776029819E+04  0.00000000000E+00 0. -1.
         -2   -1    0    0    0  501 -0.00000000000E+00 -0.00000000000E+00 -0.60671814606E+03  0.60671814606E+03  0.00000000000E+00 0.  1.
         23    2    1    2    0    0 -0.42589878257E+03 -0.13825961669E+03  0.53385689592E+03  0.70271610240E+03  0.91111144529E+02 0.  0.
        254    2    1    2    0    0  0.42589878257E+03  0.13825961669E+03 -0.62972060026E+02  0.98160502560E+03  0.87125051010E+03 0.  0.
         23    2    4    4    0    0  0.21718250239E+03 -0.24963447023E+03  0.25851168929E+03  0.42920356905E+03  0.88892081278E+02 0.  0.
         23    2    4    4    0    0  0.20871628018E+03  0.38789408691E+03 -0.32148374932E+03  0.55240145656E+03  0.88154749466E+02 0.  0.
          1    1    3    3  502    0 -0.38474006104E+03 -0.12386902863E+03  0.51634462991E+03  0.65572877599E+03  0.00000000000E+00 0. -1.
         -1    1    3    3    0  502 -0.41158721536E+02 -0.14390588056E+02  0.17512266004E+02  0.46987326415E+02  0.00000000000E+00 0.  1.
         11    1    5    5    0    0  0.58635915820E+01  0.25268495869E+01 -0.46526602182E+01  0.79002482355E+01  0.00000000000E+00 0.  1.
        -11    1    5    5    0    0  0.21131891081E+03 -0.25216131981E+03  0.26316434951E+03  0.42130332081E+03  0.00000000000E+00 0. -1.
          1    1    6    6  503    0  0.17365324020E+03  0.33459483033E+03 -0.30891163926E+03  0.48737618857E+03  0.00000000000E+00 0. -1.
         -1    1    6    6    0  503  0.35063039985E+02  0.53299256585E+02 -0.12572110060E+02  0.65025267988E+02  0.00000000000E+00 0.  1.
<mgrwt>
<rscale>  0 0.16171596E+04</rscale>
<asrwt>0</asrwt>
<pdfrwt beam="1">  1        2 0.16578507E+00 0.16171596E+04</pdfrwt>
<pdfrwt beam="2">  1       -2 0.93341253E-01 0.16171596E+04</pdfrwt>
<totfact> 0.20924720E+01</totfact>
</mgrwt>
</event>
<event>
12    2  0.3552864E-008  0.2431259E+04  0.7818608E-02  0.8427892E-01
          1   -1    0    0  501    0  0.00000000000E+00  0.00000000000E+00  0.21090228075E+04  0.21090228075E+04  0.00000000000E+00 0. -1.
         -1   -1    0    0    0  501 -0.00000000000E+00 -0.00000000000E+00 -0.70068255355E+03  0.70068255355E+03  0.00000000000E+00 0.  1.
         23    2    1    2    0    0  0.56511267102E+02  0.66540782170E+03  0.15607820216E+04  0.16996723286E+04  0.82972362777E+02 0.  0.
        254    2    1    2    0    0 -0.56511267102E+02 -0.66540782170E+03 -0.15244176764E+03  0.11100330325E+04  0.87348368518E+03 0.  0.
         23    2    4    4    0    0 -0.43895727047E+03 -0.39163037731E+03  0.33081568575E+02  0.59622159872E+03  0.91257694795E+02 0.  0.
         23    2    4    4    0    0  0.38244600337E+03 -0.27377744439E+03 -0.18552333622E+03  0.51381143380E+03  0.91456255521E+02 0.  0.
          1    1    3    3  502    0  0.31914022747E+02  0.54985214124E+03  0.13501189856E+04  0.14581416794E+04  0.00000000000E+00 0. -1.
         -1    1    3    3    0  502  0.24597244356E+02  0.11555568046E+03  0.21066303605E+03  0.24153064914E+03  0.00000000000E+00 0.  1.
         11    1    5    5    0    0 -0.11076427444E+03 -0.72824954532E+02 -0.25344337021E+02  0.13496123115E+03  0.00000000000E+00 0.  1.
        -11    1    5    5    0    0 -0.32819299603E+03 -0.31880542278E+03  0.58425905597E+02  0.46126036756E+03  0.00000000000E+00 0. -1.
          1    1    6    6  503    0  0.35702274417E+03 -0.27839452896E+03 -0.16959634020E+03  0.48345803564E+03  0.00000000000E+00 0. -1.
         -1    1    6    6    0  503  0.25423259197E+02  0.46170845696E+01 -0.15926996017E+02  0.30353398166E+02  0.00000000000E+00 0.  1.
<mgrwt>
<rscale>  0 0.24312593E+04</rscale>
<asrwt>0</asrwt>
<pdfrwt beam="1">  1        1 0.32446505E+00 0.24312593E+04</pdfrwt>
<pdfrwt beam="2">  1       -1 0.10779732E+00 0.24312593E+04</pdfrwt>
<totfact> 0.17971920E+00</totfact>
</mgrwt>
</event>
<event>
12    2  0.3552864E-008  0.1288954E+04  0.7818608E-02  0.9038371E-01
         -1   -1    0    0    0  501 -0.00000000000E+00  0.00000000000E+00  0.27032017708E+03  0.27032017708E+03  0.00000000000E+00 0.  1.
          1   -1    0    0  501    0  0.00000000000E+00 -0.00000000000E+00 -0.15365145207E+04  0.15365145207E+04  0.00000000000E+00 0. -1.
         23    2    1    2    0    0  0.29526497870E+03 -0.14271092068E+03 -0.36274173639E+03  0.49660805479E+03  0.86545815789E+02 0.  0.
        254    2    1    2    0    0 -0.29526497870E+03  0.14271092068E+03 -0.90345260723E+03  0.13102266430E+04  0.89046023381E+03 0.  0.
         23    2    4    4    0    0 -0.17227749132E+03  0.31566889210E+03  0.68516416538E+01  0.37093083889E+03  0.90644132709E+02 0.  0.
         23    2    4    4    0    0 -0.12298748738E+03 -0.17295797142E+03 -0.91030424889E+03  0.93929580411E+03  0.92641244347E+02 0.  0.
          3    1    3    3  502    0  0.23131248670E+03 -0.12435369052E+03 -0.23425335873E+03  0.35191468132E+03  0.00000000000E+00 0. -1.
         -3    1    3    3    0  502  0.63952492001E+02 -0.18357230162E+02 -0.12848837767E+03  0.14469337348E+03  0.00000000000E+00 0.  1.
         11    1    5    5    0    0 -0.98557546889E+02  0.25838837038E+03 -0.64992828982E+01  0.27662317451E+03  0.00000000000E+00 0. -1.
        -11    1    5    5    0    0 -0.73719944433E+02  0.57280521715E+02  0.13350924552E+02  0.94307664384E+02  0.00000000000E+00 0.  1.
          3    1    6    6  503    0 -0.11698389719E+03 -0.17001231915E+03 -0.72311609516E+03  0.75198823658E+03  0.00000000000E+00 0. -1.
         -3    1    6    6    0  503 -0.60035901958E+01 -0.29456522668E+01 -0.18718815372E+03  0.18730756754E+03  0.00000000000E+00 0.  1.
<mgrwt>
<rscale>  0 0.12889544E+04</rscale>
<asrwt>0</asrwt>
<pdfrwt beam="1">  1        1 0.23638685E+00 0.12889544E+04</pdfrwt>
<pdfrwt beam="2">  1       -1 0.41587720E-01 0.12889544E+04</pdfrwt>
<totfact> 0.34406292E+01</totfact>
</mgrwt>
</event>
<event>
12    2  0.3552864E-008  0.1808801E+04  0.7818608E-02  0.8701633E-01
          2   -1    0    0  501    0  0.00000000000E+00  0.00000000000E+00  0.64714371882E+03  0.64714371882E+03  0.00000000000E+00 0. -1.
         -2   -1    0    0    0  501 -0.00000000000E+00 -0.00000000000E+00 -0.12639235256E+04  0.12639235256E+04  0.00000000000E+00 0.  1.
         23    2    1    2    0    0  0.30516653733E+03 -0.66215745704E+02  0.38190365445E+03  0.50148117233E+03  0.90121165261E+02 0.  0.
        254    2    1    2    0    0 -0.30516653733E+03  0.66215745704E+02 -0.99868346123E+03  0.14095860721E+04  0.94448562636E+03 0.  0.
         23    2    4    4    0    0  0.96885618578E+02 -0.16624512066E+03  0.82249588200E+02  0.22945867162E+03  0.94138323719E+02 0.  0.
         23    2    4    4    0    0 -0.40205215591E+03  0.23246086637E+03 -0.10809330494E+04  0.11801274005E+04  0.92738522281E+02 0.  0.
          2    1    3    3  502    0  0.27482221684E+03 -0.28371786813E+02  0.33129726959E+03  0.43138160600E+03  0.00000000000E+00 0. -1.
         -2    1    3    3    0  502  0.30344320493E+02 -0.37843958891E+02  0.50606384861E+02  0.70099566328E+02  0.00000000000E+00 0.  1.
         11    1    5    5    0    0  0.13580722325E+02 -0.10882994752E+03  0.62963880156E+02  0.12646281549E+03  0.00000000000E+00 0. -1.
        -11    1    5    5    0    0  0.83304896253E+02 -0.57415173138E+02  0.19285708045E+02  0.10299585613E+03  0.00000000000E+00 0.  1.
          1    1    6    6  503    0 -0.28121988373E+03  0.20759876498E+03 -0.82595024553E+03  0.89686993389E+03  0.00000000000E+00 0. -1.
         -1    1    6    6    0  503 -0.12083227218E+03  0.24862101389E+02 -0.25498280390E+03  0.28325746658E+03  0.00000000000E+00 0.  1.
<mgrwt>
<rscale>  0 0.18088009E+04</rscale>
<asrwt>0</asrwt>
<pdfrwt beam="1">  1        2 0.99560572E-01 0.18088009E+04</pdfrwt>
<pdfrwt beam="2">  1       -2 0.19444977E+00 0.18088009E+04</pdfrwt>
<totfact> 0.61679252E+00</totfact>
</mgrwt>
</event>
<event>
12    2  0.3552864E-008  0.1859849E+04  0.7818608E-02  0.8675104E-01
         -2   -1    0    0    0  501 -0.00000000000E+00  0.00000000000E+00  0.22434854886E+03  0.22434854886E+03  0.00000000000E+00 0.  1.
          2   -1    0    0  501    0  0.00000000000E+00 -0.00000000000E+00 -0.38545381458E+04  0.38545381458E+04  0.00000000000E+00 0. -1.
         23    2    1    2    0    0  0.70843147918E+03 -0.21779278884E+02 -0.12473911542E+04  0.14373907833E+04  0.88079932384E+02 0.  0.
        254    2    1    2    0    0 -0.70843147918E+03  0.21779278884E+02 -0.23827984427E+04  0.26414959113E+04  0.89298529305E+03 0.  0.
         23    2    4    4    0    0  0.56241084608E+02  0.17406740852E+03 -0.99786083274E+02  0.22731813684E+03  0.90850154737E+02 0.  0.
         23    2    4    4    0    0 -0.76467256379E+03 -0.15228812963E+03 -0.22830123594E+04  0.24141777745E+04  0.90515686736E+02 0.  0.
          3    1    3    3  502    0  0.48450155736E+03 -0.88841399027E+01 -0.93093535819E+03  0.10495052778E+04  0.00000000000E+00 0. -1.
         -3    1    3    3    0  502  0.22392992182E+03 -0.12895138982E+02 -0.31645579606E+03  0.38788550547E+03  0.00000000000E+00 0.  1.
         11    1    5    5    0    0  0.50679128221E+02  0.10229890548E+03 -0.10505071959E+03  0.15514217282E+03  0.00000000000E+00 0. -1.
        -11    1    5    5    0    0  0.55619563866E+01  0.71768503038E+02  0.52646363182E+01  0.72175964024E+02  0.00000000000E+00 0.  1.
          1    1    6    6  503    0 -0.10204589950E+03 -0.51053228850E+02 -0.30254885575E+03  0.32335059594E+03  0.00000000000E+00 0. -1.
         -1    1    6    6    0  503 -0.66262666429E+03 -0.10123490078E+03 -0.19804635036E+04  0.20908271786E+04  0.00000000000E+00 0.  1.
<mgrwt>
<rscale>  0 0.18598495E+04</rscale>
<asrwt>0</asrwt>
<pdfrwt beam="1">  1        2 0.59300582E+00 0.18598495E+04</pdfrwt>
<pdfrwt beam="2">  1       -2 0.34515164E-01 0.18598495E+04</pdfrwt>
<totfact> 0.33347372E+00</totfact>
</mgrwt>
</event>
<event>
12    2  0.3552864E-008  0.2756761E+04  0.7818608E-02  0.8316819E-01
          2   -1    0    0  501    0  0.00000000000E+00  0.00000000000E+00  0.19454880012E+04  0.19454880012E+04  0.00000000000E+00 0. -1.
         -2   -1    0    0    0  501 -0.00000000000E+00 -0.00000000000E+00 -0.97658416763E+03  0.97658416763E+03  0.00000000000E+00 0.  1.
         23    2    1    2    0    0  0.77412428939E+03  0.28868071216E+03 -0.53268474918E+03  0.98791016457E+03  0.98022865919E+02 0.  0.
        254    2    1    2    0    0 -0.77412428939E+03 -0.28868071216E+03  0.15015885828E+04  0.19341620043E+04  0.89644264617E+03 0.  0.
         23    2    4    4    0    0 -0.68563638894E+03 -0.23977151620E+02  0.41086746462E+03  0.80486365840E+03  0.91221014526E+02 0.  0.
         23    2    4    4    0    0 -0.88487900449E+02 -0.26470356054E+03  0.10907211181E+04  0.11292983459E+04  0.88000641662E+02 0.  0.
          2    1    3    3  502    0  0.16187822318E+03  0.39908595952E+02 -0.14986362386E+03  0.22417930531E+03  0.00000000000E+00 0. -1.
         -2    1    3    3    0  502  0.61224606621E+03  0.24877211621E+03 -0.38282112532E+03  0.76373085926E+03  0.00000000000E+00 0.  1.
         11    1    5    5    0    0 -0.26816782974E+03  0.33215439663E+02  0.14554957656E+03  0.30692332849E+03  0.00000000000E+00 0. -1.
        -11    1    5    5    0    0 -0.41746855921E+03 -0.57192591284E+02  0.26531788806E+03  0.49794032991E+03  0.00000000000E+00 0.  1.
          3    1    6    6  503    0 -0.10396108235E+03 -0.25208505585E+03  0.10161865675E+04  0.10521358857E+04  0.00000000000E+00 0. -1.
         -3    1    6    6    0  503  0.15473181901E+02 -0.12618504693E+02  0.74534550648E+02  0.77162460168E+02  0.00000000000E+00 0.  1.
<mgrwt>
<rscale>  0 0.27567610E+04</rscale>
<asrwt>0</asrwt>
<pdfrwt beam="1">  1        2 0.29930585E+00 0.27567610E+04</pdfrwt>
<pdfrwt beam="2">  1       -2 0.15024372E+00 0.27567610E+04</pdfrwt>
<totfact> 0.18665574E+00</totfact>
</mgrwt>
</event>
<event>
12    2  0.3552864E-008  0.2302729E+04  0.7818608E-02  0.8476846E-01
          2   -1    0    0  501    0  0.00000000000E+00  0.00000000000E+00  0.21037832177E+04  0.21037832177E+04  0.00000000000E+00 0. -1.
         -2   -1    0    0    0  501 -0.00000000000E+00 -0.00000000000E+00 -0.63012216453E+03  0.63012216453E+03  0.00000000000E+00 0.  1.
         23    2    1    2    0    0  0.55745149298E+03 -0.32100229538E+03 -0.24072972683E+03  0.69331907631E+03  0.94582765498E+02 0.  0.
        254    2    1    2    0    0 -0.55745149298E+03  0.32100229538E+03  0.17143907800E+04  0.20405863059E+04  0.90058985374E+03 0.  0.
         23    2    4    4    0    0 -0.49841541126E+03  0.47981390039E+03  0.63396843631E+03  0.94290415898E+03  0.92265776956E+02 0.  0.
         23    2    4    4    0    0 -0.59036081723E+02 -0.15881160501E+03  0.10804223437E+04  0.10976821469E+04  0.94272318966E+02 0.  0.
          4    1    3    3  502    0  0.28373373556E+03 -0.20567074214E+03 -0.98608022142E+02  0.36404509185E+03  0.00000000000E+00 0. -1.
         -4    1    3    3    0  502  0.27371775742E+03 -0.11533155324E+03 -0.14212170468E+03  0.32927398446E+03  0.00000000000E+00 0.  1.
         11    1    5    5    0    0 -0.32903846963E+03  0.35177787552E+03  0.39235433677E+03  0.62125350203E+03  0.00000000000E+00 0. -1.
        -11    1    5    5    0    0 -0.16937694163E+03  0.12803602487E+03  0.24161409955E+03  0.32165065695E+03  0.00000000000E+00 0.  1.
          3    1    6    6  503    0 -0.46892282400E+02 -0.14526441180E+03  0.10572914747E+04  0.10682536674E+04  0.00000000000E+00 0. -1.
         -3    1    6    6    0  503 -0.12143799323E+02 -0.13547193210E+02  0.23130868955E+02  0.29428479480E+02  0.00000000000E+00 0.  1.
<mgrwt>
<rscale>  0 0.23027292E+04</rscale>
<asrwt>0</asrwt>
<pdfrwt beam="1">  1        2 0.32365895E+00 0.23027292E+04</pdfrwt>
<pdfrwt beam="2">  1       -2 0.96941872E-01 0.23027292E+04</pdfrwt>
<totfact> 0.47103098E+00</totfact>
</mgrwt>
</event>
<event>
12    2  0.3552864E-008  0.1500551E+04  0.7818608E-02  0.8884086E-01
         -2   -1    0    0    0  501 -0.00000000000E+00  0.00000000000E+00  0.54166928718E+03  0.54166928718E+03  0.00000000000E+00 0.  1.
          2   -1    0    0  501    0  0.00000000000E+00 -0.00000000000E+00 -0.10392202076E+04  0.10392202076E+04  0.00000000000E+00 0. -1.
         23    2    1    2    0    0 -0.28269657762E+03 -0.51888898641E+02 -0.55285032402E+03  0.63213117638E+03  0.10647314492E+03 0.  0.
        254    2    1    2    0    0  0.28269657762E+03  0.51888898641E+02  0.55299403590E+02  0.94875831840E+03  0.90248241528E+03 0.  0.
         23    2    4    4    0    0  0.53929150050E+03  0.21021108238E+03  0.17418929960E+03  0.61124357761E+03  0.90844798494E+02 0.  0.
         23    2    4    4    0    0 -0.25659492287E+03 -0.15832218374E+03 -0.11888989601E+03  0.33751474079E+03  0.94204695026E+02 0.  0.
          1    1    3    3  502    0 -0.21578914384E+03 -0.11075094658E+02 -0.47415449877E+03  0.52106631154E+03  0.00000000000E+00 0. -1.
         -1    1    3    3    0  502 -0.66907433783E+02 -0.40813803983E+02 -0.78695825247E+02  0.11106486484E+03  0.00000000000E+00 0.  1.
         11    1    5    5    0    0  0.64521636749E+01  0.15920762156E+02 -0.21341029775E+01  0.17310559761E+02  0.00000000000E+00 0. -1.
        -11    1    5    5    0    0  0.53283933682E+03  0.19429032023E+03  0.17632340258E+03  0.59393301785E+03  0.00000000000E+00 0.  1.
          1    1    6    6  503    0 -0.10442221605E+03 -0.11084659474E+03 -0.85509549713E+02  0.17465065090E+03  0.00000000000E+00 0. -1.
         -1    1    6    6    0  503 -0.15217270683E+03 -0.47475589005E+02 -0.33380346301E+02  0.16286408988E+03  0.00000000000E+00 0.  1.
<mgrwt>
<rscale>  0 0.15005515E+04</rscale>
<asrwt>0</asrwt>
<pdfrwt beam="1">  1        2 0.15988003E+00 0.15005515E+04</pdfrwt>
<pdfrwt beam="2">  1       -2 0.83333737E-01 0.15005515E+04</pdfrwt>
<totfact> 0.28962218E+01</totfact>
</mgrwt>
</event>
<event>
12    2  0.3552864E-008  0.1840315E+04  0.7818608E-02  0.8685149E-01
         -2   -1    0    0    0  501 -0.00000000000E+00  0.00000000000E+00  0.69595027344E+03  0.69595027344E+03  0.00000000000E+00 0.  1.
          2   -1    0    0  501    0  0.00000000000E+00 -0.00000000000E+00 -0.12165955569E+04  0.12165955569E+04  0.00000000000E+00 0. -1.
         23    2    1    2    0    0 -0.18921056410E+03  0.22373935498E+03  0.45080631467E+03  0.54536913355E+03  0.91330290392E+02 0.  0.
        254    2    1    2    0    0  0.18921056410E+03 -0.22373935498E+03 -0.97145159818E+03  0.13671766968E+04  0.91629360809E+03 0.  0.
         23    2    4    4    0    0  0.55180426559E+03 -0.15138784841E+03 -0.60903940365E+03  0.84062933868E+03  0.91227526965E+02 0.  0.
         23    2    4    4    0    0 -0.36259370149E+03 -0.72351506568E+02 -0.36241219453E+03  0.52654735816E+03  0.95919699636E+02 0.  0.
          3    1    3    3  502    0 -0.19040762113E+03  0.19379473081E+03  0.36885962482E+03  0.45811448645E+03  0.00000000000E+00 0. -1.
         -3    1    3    3    0  502  0.11970570248E+01  0.29944624169E+02  0.81946689857E+02  0.87254647101E+02  0.00000000000E+00 0.  1.
         11    1    5    5    0    0  0.55235852911E+03 -0.15253879392E+03 -0.61139045414E+03  0.83795364773E+03  0.00000000000E+00 0.  1.
        -11    1    5    5    0    0 -0.55426352126E+00  0.11509455099E+01  0.23510504914E+01  0.26756909445E+01  0.00000000000E+00 0. -1.
          1    1    6    6  503    0 -0.64132448915E+02 -0.34556441845E+02 -0.11915416275E+03  0.13965970492E+03  0.00000000000E+00 0. -1.
         -1    1    6    6    0  503 -0.29846125257E+03 -0.37795064723E+02 -0.24325803178E+03  0.38688765324E+03  0.00000000000E+00 0.  1.
<mgrwt>
<rscale>  0 0.18403152E+04</rscale>
<asrwt>0</asrwt>
<pdfrwt beam="1">  1        2 0.18716855E+00 0.18403152E+04</pdfrwt>
<pdfrwt beam="2">  1       -2 0.10706927E+00 0.18403152E+04</pdfrwt>
<totfact> 0.12220919E+01</totfact>
</mgrwt>
</event>
<event>
12    2  0.3552864E-008  0.1581984E+04  0.7818608E-02  0.8831693E-01
         -1   -1    0    0    0  501 -0.00000000000E+00  0.00000000000E+00  0.33860396280E+03  0.33860396280E+03  0.00000000000E+00 0.  1.
          1   -1    0    0  501    0  0.00000000000E+00 -0.00000000000E+00 -0.18477889680E+04  0.18477889680E+04  0.00000000000E+00 0. -1.
         23    2    1    2    0    0  0.30296907109E+03 -0.92924222614E+02 -0.11121814703E+04  0.11599464861E+04  0.90016990598E+02 0.  0.
        254    2    1    2    0    0 -0.30296907109E+03  0.92924222614E+02 -0.39700353494E+03  0.10264464447E+04  0.89193908310E+03 0.  0.
         23    2    4    4    0    0 -0.27259108761E+03  0.46798783804E+03 -0.16250773676E+03  0.57286799519E+03  0.91926371673E+02 0.  0.
         23    2    4    4    0    0 -0.30377983480E+02 -0.37506361543E+03 -0.23449579819E+03  0.45357844954E+03  0.95653505038E+02 0.  0.
          1    1    3    3  502    0  0.16994032210E+03 -0.45305061421E+02 -0.76820826932E+03  0.78808388305E+03  0.00000000000E+00 0. -1.
         -1    1    3    3    0  502  0.13302874899E+03 -0.47619161193E+02 -0.34397320093E+03  0.37186260303E+03  0.00000000000E+00 0.  1.
         11    1    5    5    0    0 -0.21489436215E+03  0.39215219432E+03 -0.16733825573E+03  0.47745682760E+03  0.00000000000E+00 0. -1.
        -11    1    5    5    0    0 -0.57696725458E+02  0.75835643719E+02  0.48305189666E+01  0.95411167587E+02  0.00000000000E+00 0.  1.
          4    1    6    6  503    0 -0.35418479395E+02 -0.33663622801E+03 -0.17111504963E+03  0.37928719844E+03  0.00000000000E+00 0. -1.
         -4    1    6    6    0  503  0.50404959156E+01 -0.38427387420E+02 -0.63380748560E+02  0.74291251107E+02  0.00000000000E+00 0.  1.
<mgrwt>
<rscale>  0 0.15819844E+04</rscale>
<asrwt>0</asrwt>
<pdfrwt beam="1">  1        1 0.28427523E+00 0.15819844E+04</pdfrwt>
<pdfrwt beam="2">  1       -1 0.52092917E-01 0.15819844E+04</pdfrwt>
<totfact> 0.13483260E+01</totfact>
</mgrwt>
</event>
<event>
12    2  0.3552864E-008  0.3229613E+04  0.7818608E-02  0.8181040E-01
          1   -1    0    0  501    0  0.00000000000E+00  0.00000000000E+00  0.25683583542E+04  0.25683583542E+04  0.00000000000E+00 0. -1.
         -1   -1    0    0    0  501 -0.00000000000E+00 -0.00000000000E+00 -0.10152791175E+04  0.10152791175E+04  0.00000000000E+00 0.  1.
         23    2    1    2    0    0  0.33189769237E+02 -0.66915814923E+03 -0.75742609529E+03  0.10155859484E+04  0.94054980316E+02 0.  0.
        254    2    1    2    0    0 -0.33189769237E+02  0.66915814923E+03  0.23105053320E+04  0.25680515232E+04  0.89865429803E+03 0.  0.
         23    2    4    4    0    0  0.26619381628E+03  0.72616194946E+03  0.13811753040E+04  0.15855180161E+04  0.89732014211E+02 0.  0.
         23    2    4    4    0    0 -0.29938358552E+03 -0.57003800232E+02  0.92933002799E+03  0.98253350712E+03  0.94009718465E+02 0.  0.
          2    1    3    3  502    0  0.30020919804E+02 -0.10462166358E+03 -0.88575470686E+02  0.14033018963E+03  0.00000000000E+00 0. -1.
         -2    1    3    3    0  502  0.31688494333E+01 -0.56453648565E+03 -0.66885062461E+03  0.87525575878E+03  0.00000000000E+00 0.  1.
         11    1    5    5    0    0  0.18428557744E+03  0.60427480840E+03  0.11204793767E+04  0.12863060490E+04  0.00000000000E+00 0. -1.
        -11    1    5    5    0    0  0.81908238840E+02  0.12188714107E+03  0.26069592729E+03  0.29921196709E+03  0.00000000000E+00 0.  1.
          4    1    6    6  503    0 -0.14283981912E+03 -0.59138428087E+02  0.56969536341E+03  0.59029939411E+03  0.00000000000E+00 0. -1.
         -4    1    6    6    0  503 -0.15654376640E+03  0.21346278552E+01  0.35963466459E+03  0.39223411301E+03  0.00000000000E+00 0.  1.
<mgrwt>
<rscale>  0 0.32296134E+04</rscale>
<asrwt>0</asrwt>
<pdfrwt beam="1">  1        1 0.39513205E+00 0.32296134E+04</pdfrwt>
<pdfrwt beam="2">  1       -1 0.15619679E+00 0.32296134E+04</pdfrwt>
<totfact> 0.31645338E-01</totfact>
</mgrwt>
</event>
<event>
12    2  0.3552864E-008  0.2425246E+04  0.7818608E-02  0.8430112E-01
          2   -1    0    0  501    0  0.00000000000E+00  0.00000000000E+00  0.81064940218E+03  0.81064940218E+03  0.00000000000E+00 0. -1.
         -2   -1    0    0    0  501 -0.00000000000E+00 -0.00000000000E+00 -0.18139219393E+04  0.18139219393E+04  0.00000000000E+00 0.  1.
         23    2    1    2    0    0 -0.77764501598E+03 -0.36685920244E+03 -0.10803371042E+04  0.13837648486E+04  0.91430040056E+02 0.  0.
        254    2    1    2    0    0  0.77764501598E+03  0.36685920244E+03  0.77064567085E+02  0.12408064929E+04  0.89125998450E+03 0.  0.
         23    2    4    4    0    0 -0.48647847762E+02 -0.17245023989E+03 -0.10817206375E+03  0.23262036524E+03  0.10151522358E+03 0.  0.
         23    2    4    4    0    0  0.82629286374E+03  0.53930944232E+03  0.18523663084E+03  0.10081861276E+04  0.92260973931E+02 0.  0.
          4    1    3    3  502    0 -0.25218426059E+03 -0.10295923836E+03 -0.27993993538E+03  0.39059425683E+03  0.00000000000E+00 0. -1.
         -4    1    3    3    0  502 -0.52546075539E+03 -0.26389996408E+03 -0.80039716881E+03  0.99317059176E+03  0.00000000000E+00 0.  1.
         11    1    5    5    0    0 -0.43180502116E+02 -0.18464881631E+03 -0.89587721902E+02  0.20972768306E+03  0.00000000000E+00 0. -1.
        -11    1    5    5    0    0 -0.54673456460E+01  0.12198576423E+02 -0.18584341849E+02  0.22892682174E+02  0.00000000000E+00 0.  1.
          3    1    6    6  503    0  0.69773959871E+03  0.45287485660E+03  0.12139997317E+03  0.84063912402E+03  0.00000000000E+00 0. -1.
         -3    1    6    6    0  503  0.12855326504E+03  0.86434585724E+02  0.63836657668E+02  0.16754700362E+03  0.00000000000E+00 0.  1.
<mgrwt>
<rscale>  0 0.24252462E+04</rscale>
<asrwt>0</asrwt>
<pdfrwt beam="1">  1        2 0.12471529E+00 0.24252462E+04</pdfrwt>
<pdfrwt beam="2">  1       -2 0.27906491E+00 0.24252462E+04</pdfrwt>
<totfact> 0.12959012E+00</totfact>
</mgrwt>
</event>
<event>
12    2  0.3552864E-008  0.3696834E+04  0.7818608E-02  0.8068664E-01
          1   -1    0    0  501    0  0.00000000000E+00  0.00000000000E+00  0.36395165316E+04  0.36395165316E+04  0.00000000000E+00 0. -1.
         -1   -1    0    0    0  501 -0.00000000000E+00 -0.00000000000E+00 -0.93876339747E+03  0.93876339747E+03  0.00000000000E+00 0.  1.
         23    2    1    2    0    0 -0.14165965301E+04  0.86660000437E+03  0.61412917158E+03  0.17728622441E+04  0.90247440084E+02 0.  0.
        254    2    1    2    0    0  0.14165965301E+04 -0.86660000437E+03  0.20866239625E+04  0.28054176849E+04  0.87099226714E+03 0.  0.
         23    2    4    4    0    0  0.89130596261E+03 -0.14297092123E+03  0.66958357421E+03  0.11274868161E+04  0.89539679999E+02 0.  0.
         23    2    4    4    0    0  0.52529056750E+03 -0.72362908314E+03  0.14170403883E+04  0.16779308689E+04  0.88765468174E+02 0.  0.
          1    1    3    3  502    0 -0.10962721338E+03  0.62297372341E+02  0.72575961968E+02  0.14548662746E+03  0.00000000000E+00 0. -1.
         -1    1    3    3    0  502 -0.13069693167E+04  0.80430263203E+03  0.54155320961E+03  0.16273756166E+04  0.00000000000E+00 0.  1.
         11    1    5    5    0    0  0.61137824475E+03 -0.81327628602E+02  0.50370721083E+03  0.79631557537E+03  0.00000000000E+00 0. -1.
        -11    1    5    5    0    0  0.27992771786E+03 -0.61643292625E+02  0.16587636338E+03  0.33117124072E+03  0.00000000000E+00 0.  1.
          2    1    6    6  503    0  0.11734689415E+03 -0.22589014889E+03  0.37736476711E+03  0.45519316821E+03  0.00000000000E+00 0. -1.
         -2    1    6    6    0  503  0.40794367335E+03 -0.49773893425E+03  0.10396756212E+04  0.12227377007E+04  0.00000000000E+00 0.  1.
<mgrwt>
<rscale>  0 0.36968337E+04</rscale>
<asrwt>0</asrwt>
<pdfrwt beam="1">  1        1 0.55992561E+00 0.36968337E+04</pdfrwt>
<pdfrwt beam="2">  1       -1 0.14442514E+00 0.36968337E+04</pdfrwt>
<totfact> 0.59782915E-02</totfact>
</mgrwt>
</event>
<event>
12    2  0.3552864E-008  0.1513096E+04  0.7818608E-02  0.8875791E-01
          2   -1    0    0  501    0  0.00000000000E+00  0.00000000000E+00  0.90817653728E+03  0.90817653728E+03  0.00000000000E+00 0. -1.
         -2   -1    0    0    0  501 -0.00000000000E+00 -0.00000000000E+00 -0.63023513905E+03  0.63023513905E+03  0.00000000000E+00 0.  1.
         23    2    1    2    0    0  0.27772961279E+03 -0.26898783798E+03 -0.20294076545E+03  0.44634621641E+03  0.92475920252E+02 0.  0.
        254    2    1    2    0    0 -0.27772961279E+03  0.26898783798E+03  0.48088216368E+03  0.10920654599E+04  0.90103891070E+03 0.  0.
         23    2    4    4    0    0 -0.56269791841E+02  0.22049500160E+03 -0.23267237873E+03  0.33786812740E+03  0.90741944486E+02 0.  0.
         23    2    4    4    0    0 -0.22145982095E+03  0.48492836381E+02  0.71355454241E+03  0.75419733251E+03  0.90870918949E+02 0.  0.
          3    1    3    3  502    0 -0.55756423588E+01 -0.97818778206E+01  0.14394086788E+01  0.11350983163E+02  0.00000000000E+00 0. -1.
         -3    1    3    3    0  502  0.28330525515E+03 -0.25920596016E+03 -0.20438017412E+03  0.43499523325E+03  0.00000000000E+00 0.  1.
         11    1    5    5    0    0  0.24203968122E+02  0.72898175732E+02 -0.69363768987E+02  0.10349545181E+03  0.00000000000E+00 0.  1.
        -11    1    5    5    0    0 -0.80473759962E+02  0.14759682587E+03 -0.16330860974E+03  0.23437267559E+03  0.00000000000E+00 0. -1.
          3    1    6    6  503    0 -0.22412958697E+03  0.34986850694E+02  0.69506382614E+03  0.73114422235E+03  0.00000000000E+00 0. -1.
         -3    1    6    6    0  503  0.26697660227E+01  0.13505985687E+02  0.18490716270E+02  0.23053110162E+02  0.00000000000E+00 0.  1.
<mgrwt>
<rscale>  0 0.15130959E+04</rscale>
<asrwt>0</asrwt>
<pdfrwt beam="1">  1        2 0.13971947E+00 0.15130959E+04</pdfrwt>
<pdfrwt beam="2">  1       -2 0.96959252E-01 0.15130959E+04</pdfrwt>
<totfact> 0.24832913E+01</totfact>
</mgrwt>
</event>
<event>
12    2  0.3552864E-008  0.1638813E+04  0.7818608E-02  0.8797052E-01
          1   -1    0    0  501    0  0.00000000000E+00  0.00000000000E+00  0.10537746176E+04  0.10537746176E+04  0.00000000000E+00 0. -1.
         -1   -1    0    0    0  501 -0.00000000000E+00 -0.00000000000E+00 -0.63716363460E+03  0.63716363460E+03  0.00000000000E+00 0.  1.
         23    2    1    2    0    0  0.46366093299E+03  0.25525356408E+03  0.34589181926E+03  0.63923971003E+03  0.94076636313E+02 0.  0.
        254    2    1    2    0    0 -0.46366093299E+03 -0.25525356408E+03  0.70719163739E+02  0.10516985422E+04  0.90605340943E+03 0.  0.
         23    2    4    4    0    0  0.22047094203E+02  0.26066895139E+03  0.17735800503E+03  0.32931309296E+03  0.92503376509E+02 0.  0.
         23    2    4    4    0    0 -0.48570802719E+03 -0.51592251547E+03 -0.10663884129E+03  0.72238544921E+03  0.91545426498E+02 0.  0.
          1    1    3    3  502    0  0.60468885571E+02  0.21476959691E+02  0.80377090345E+02  0.10285048649E+03  0.00000000000E+00 0.  1.
         -1    1    3    3    0  502  0.40319204742E+03  0.23377660439E+03  0.26551472891E+03  0.53638922354E+03  0.00000000000E+00 0. -1.
         11    1    5    5    0    0  0.51833458911E+02  0.21835568027E+03  0.15608523172E+03  0.27336515895E+03  0.00000000000E+00 0. -1.
        -11    1    5    5    0    0 -0.29786364708E+02  0.42313271120E+02  0.21272773314E+02  0.55947934009E+02  0.00000000000E+00 0.  1.
          3    1    6    6  503    0 -0.46369966306E+03 -0.51415177005E+03 -0.10226284465E+03  0.69987649594E+03  0.00000000000E+00 0. -1.
         -3    1    6    6    0  503 -0.22008364127E+02 -0.17707454227E+01 -0.43759966402E+01  0.22508953274E+02  0.00000000000E+00 0.  1.
<mgrwt>
<rscale>  0 0.16388128E+04</rscale>
<asrwt>0</asrwt>
<pdfrwt beam="1">  1        1 0.16211917E+00 0.16388128E+04</pdfrwt>
<pdfrwt beam="2">  1       -1 0.98025175E-01 0.16388128E+04</pdfrwt>
<totfact> 0.13118473E+01</totfact>
</mgrwt>
</event>
<event>
12    2  0.3552864E-008  0.1665938E+04  0.7818608E-02  0.8781033E-01
          2   -1    0    0  501    0  0.00000000000E+00  0.00000000000E+00  0.10816239463E+04  0.10816239463E+04  0.00000000000E+00 0. -1.
         -2   -1    0    0    0  501 -0.00000000000E+00 -0.00000000000E+00 -0.64147771964E+03  0.64147771964E+03  0.00000000000E+00 0.  1.
         23    2    1    2    0    0 -0.20437880221E+03 -0.43709982290E+03 -0.18218702507E+03  0.52372843584E+03  0.90952803322E+02 0.  0.
        254    2    1    2    0    0  0.20437880221E+03  0.43709982290E+03  0.62233325171E+03  0.11993732301E+04  0.90463833595E+03 0.  0.
         23    2    4    4    0    0  0.33791421997E+03  0.47708506134E+03  0.40022985673E+02  0.59300188920E+03  0.90847264144E+02 0.  0.
         23    2    4    4    0    0 -0.13353541776E+03 -0.39985238436E+02  0.58231026604E+03  0.60637134088E+03  0.95762362229E+02 0.  0.
          3    1    3    3  502    0 -0.12713176045E+02 -0.14826895322E+02  0.97651941918E+01  0.21836224208E+02  0.00000000000E+00 0. -1.
         -3    1    3    3    0  502 -0.19166562617E+03 -0.42227292758E+03 -0.19195221926E+03  0.50189221163E+03  0.00000000000E+00 0.  1.
         11    1    5    5    0    0  0.18899160978E+03  0.34085999917E+03  0.21973284401E+02  0.39036674145E+03  0.00000000000E+00 0. -1.
        -11    1    5    5    0    0  0.14892261019E+03  0.13622506216E+03  0.18049701272E+02  0.20263514775E+03  0.00000000000E+00 0.  1.
          1    1    6    6  503    0  0.11919122431E+02 -0.56518402857E+00  0.10893474038E+03  0.10958632476E+03  0.00000000000E+00 0. -1.
         -1    1    6    6    0  503 -0.14545454019E+03 -0.39420054408E+02  0.47337552566E+03  0.49678501612E+03  0.00000000000E+00 0.  1.
<mgrwt>
<rscale>  0 0.16659384E+04</rscale>
<asrwt>0</asrwt>
<pdfrwt beam="1">  1        2 0.16640368E+00 0.16659384E+04</pdfrwt>
<pdfrwt beam="2">  1       -2 0.98688880E-01 0.16659384E+04</pdfrwt>
<totfact> 0.18187872E+01</totfact>
</mgrwt>
</event>
<event>
12    2  0.3552864E-008  0.1352700E+04  0.7818608E-02  0.8988786E-01
         -1   -1    0    0    0  501 -0.00000000000E+00  0.00000000000E+00  0.32535991117E+03  0.32535991117E+03  0.00000000000E+00 0.  1.
          1   -1    0    0  501    0  0.00000000000E+00 -0.00000000000E+00 -0.14059801851E+04  0.14059801851E+04  0.00000000000E+00 0. -1.
         23    2    1    2    0    0  0.22433067608E+03  0.42207941733E+02 -0.68925657040E+03  0.73410009498E+03  0.10827080419E+03 0.  0.
        254    2    1    2    0    0 -0.22433067608E+03 -0.42207941733E+02 -0.39136370357E+03  0.99724000132E+03  0.88837847182E+03 0.  0.
         23    2    4    4    0    0  0.15171529903E+03 -0.36775820729E+03 -0.22197860520E+03  0.46416510341E+03  0.88944426876E+02 0.  0.
         23    2    4    4    0    0 -0.37604597510E+03  0.32555026556E+03 -0.16938509838E+03  0.53307489791E+03  0.89910980616E+02 0.  0.
          3    1    3    3  502    0  0.17819028551E+03  0.76412368933E+02 -0.49819758176E+03  0.53459466743E+03  0.00000000000E+00 0. -1.
         -3    1    3    3    0  502  0.46140390568E+02 -0.34204427200E+02 -0.19105898864E+03  0.19950542755E+03  0.00000000000E+00 0.  1.
         11    1    5    5    0    0  0.14120246328E+03 -0.32647024506E+03 -0.16264519671E+03  0.39111944027E+03  0.00000000000E+00 0. -1.
        -11    1    5    5    0    0  0.10512835744E+02 -0.41287962230E+02 -0.59333408491E+02  0.73045663140E+02  0.00000000000E+00 0.  1.
          4    1    6    6  503    0 -0.26900996345E+02  0.44811113933E+02 -0.42708572268E+02  0.67496086415E+02  0.00000000000E+00 0.  1.
         -4    1    6    6    0  503 -0.34914497876E+03  0.28073915162E+03 -0.12667652611E+03  0.46557881150E+03  0.00000000000E+00 0. -1.
<mgrwt>
<rscale>  0 0.13527004E+04</rscale>
<asrwt>0</asrwt>
<pdfrwt beam="1">  1        1 0.21630464E+00 0.13527004E+04</pdfrwt>
<pdfrwt beam="2">  1       -1 0.50055371E-01 0.13527004E+04</pdfrwt>
<totfact> 0.29820932E+01</totfact>
</mgrwt>
</event>
<event>
12    2  0.3552864E-008  0.1606504E+04  0.7818608E-02  0.8816563E-01
          1   -1    0    0  501    0  0.00000000000E+00  0.00000000000E+00  0.29372160504E+04  0.29372160504E+04  0.00000000000E+00 0. -1.
         -1   -1    0    0    0  501 -0.00000000000E+00 -0.00000000000E+00 -0.21966837958E+03  0.21966837958E+03  0.00000000000E+00 0.  1.
         23    2    1    2    0    0 -0.20334425644E+03 -0.30808113339E+03  0.17344863632E+04  0.17756160043E+04  0.90035434253E+02 0.  0.
        254    2    1    2    0    0  0.20334425644E+03  0.30808113339E+03  0.98306130764E+03  0.13812684256E+04  0.89734611924E+03 0.  0.
         23    2    4    4    0    0  0.46417218788E+03 -0.68129471895E+02  0.33846866006E+03  0.58600801850E+03  0.93524964362E+02 0.  0.
         23    2    4    4    0    0 -0.26082793144E+03  0.37621060528E+03  0.64459264758E+03  0.79526040714E+03  0.85870859514E+02 0.  0.
          1    1    3    3  502    0 -0.19830745988E+03 -0.24930870155E+03  0.13830202477E+04  0.14192341888E+04  0.00000000000E+00 0. -1.
         -1    1    3    3    0  502 -0.50367965651E+01 -0.58772431835E+02  0.35146611551E+03  0.35638181550E+03  0.00000000000E+00 0.  1.
         11    1    5    5    0    0  0.44518667388E+03 -0.81679542472E+02  0.33335693666E+03  0.56212949529E+03  0.00000000000E+00 0.  1.
        -11    1    5    5    0    0  0.18985514000E+02  0.13550070576E+02  0.51117234069E+01  0.23878523209E+02  0.00000000000E+00 0. -1.
          3    1    6    6  503    0 -0.96377333933E+02  0.13033764551E+03  0.30105634243E+03  0.34192311073E+03  0.00000000000E+00 0. -1.
         -3    1    6    6    0  503 -0.16445059750E+03  0.24587295977E+03  0.34353630515E+03  0.45333729642E+03  0.00000000000E+00 0.  1.
<mgrwt>
<rscale>  0 0.16065036E+04</rscale>
<asrwt>0</asrwt>
<pdfrwt beam="1">  1        1 0.45187937E+00 0.16065036E+04</pdfrwt>
<pdfrwt beam="2">  1       -1 0.33795137E-01 0.16065036E+04</pdfrwt>
<totfact> 0.52851605E+00</totfact>
</mgrwt>
</event>
<event>
12    2  0.3552864E-008  0.2277522E+04  0.7818608E-02  0.8486837E-01
         -1   -1    0    0    0  501 -0.00000000000E+00  0.00000000000E+00  0.11774055044E+04  0.11774055044E+04  0.00000000000E+00 0.  1.
          1   -1    0    0  501    0  0.00000000000E+00 -0.00000000000E+00 -0.11013848736E+04  0.11013848736E+04  0.00000000000E+00 0. -1.
         23    2    1    2    0    0 -0.36563817071E+03 -0.47790845938E+03 -0.71508816814E+03  0.93914996762E+03  0.92540834474E+02 0.  0.
        254    2    1    2    0    0  0.36563817071E+03  0.47790845938E+03  0.79110879892E+03  0.13396404103E+04  0.89816230707E+03 0.  0.
         23    2    4    4    0    0 -0.25302023501E+03  0.11866961093E+03  0.36652913157E+02  0.29588970797E+03  0.90030924446E+02 0.  0.
         23    2    4    4    0    0  0.61865840571E+03  0.35923884845E+03  0.75445588577E+03  0.10437507024E+04  0.91766398675E+02 0.  0.
          3    1    3    3  502    0 -0.35278443266E+03 -0.41606265520E+03 -0.64707649392E+03  0.84632911917E+03  0.00000000000E+00 0. -1.
         -3    1    3    3    0  502 -0.12853738051E+02 -0.61845804180E+02 -0.68011674225E+02  0.92820848453E+02  0.00000000000E+00 0.  1.
         11    1    5    5    0    0 -0.17919972669E+03  0.47079934294E+02  0.50723850465E+02  0.19209885805E+03  0.00000000000E+00 0.  1.
        -11    1    5    5    0    0 -0.73820508315E+02  0.71589676640E+02 -0.14070937308E+02  0.10379084991E+03  0.00000000000E+00 0. -1.
          3    1    6    6  503    0  0.49485226376E+03  0.24574538564E+03  0.55747076267E+03  0.78488420085E+03  0.00000000000E+00 0. -1.
         -3    1    6    6    0  503  0.12380614195E+03  0.11349346280E+03  0.19698512310E+03  0.25886650152E+03  0.00000000000E+00 0.  1.
<mgrwt>
<rscale>  0 0.22775220E+04</rscale>
<asrwt>0</asrwt>
<pdfrwt beam="1">  1        1 0.16944383E+00 0.22775220E+04</pdfrwt>
<pdfrwt beam="2">  1       -1 0.18113931E+00 0.22775220E+04</pdfrwt>
<totfact> 0.23394540E+00</totfact>
</mgrwt>
</event>
<event>
12    2  0.3552864E-008  0.1538885E+04  0.7818608E-02  0.8858999E-01
         -2   -1    0    0    0  501 -0.00000000000E+00  0.00000000000E+00  0.32900969535E+03  0.32900969535E+03  0.00000000000E+00 0.  1.
          2   -1    0    0  501    0  0.00000000000E+00 -0.00000000000E+00 -0.17994664310E+04  0.17994664310E+04  0.00000000000E+00 0. -1.
         23    2    1    2    0    0 -0.13576224065E+03  0.41979590386E+03 -0.24147936921E+03  0.51133575240E+03  0.92151934539E+02 0.  0.
        254    2    1    2    0    0  0.13576224065E+03 -0.41979590386E+03 -0.12289773665E+04  0.16171403740E+04  0.95399037468E+03 0.  0.
         23    2    4    4    0    0  0.11651477372E+03 -0.71719686794E+03 -0.94517774251E+03  0.11955680728E+04  0.89861070157E+02 0.  0.
         23    2    4    4    0    0  0.19247466929E+02  0.29740096408E+03 -0.28379962398E+03  0.42157230118E+03  0.91450424466E+02 0.  0.
          3    1    3    3  502    0 -0.13588634490E+03  0.40458262007E+03 -0.24925805955E+03  0.49424869797E+03  0.00000000000E+00 0. -1.
         -3    1    3    3    0  502  0.12410424572E+00  0.15213283788E+02  0.77786903421E+01  0.17087054425E+02  0.00000000000E+00 0.  1.
         11    1    5    5    0    0  0.78875793824E+02 -0.50798869944E+03 -0.73235095818E+03  0.89476915211E+03  0.00000000000E+00 0. -1.
        -11    1    5    5    0    0  0.37638979900E+02 -0.20920816850E+03 -0.21282678432E+03  0.30079892071E+03  0.00000000000E+00 0.  1.
          1    1    6    6  503    0 -0.97278459617E+01 -0.57595407249E+00 -0.10958497095E+01  0.98063039283E+01  0.00000000000E+00 0. -1.
         -1    1    6    6    0  503  0.28975312891E+02  0.29797691815E+03 -0.28270377427E+03  0.41176599725E+03  0.00000000000E+00 0.  1.
<mgrwt>
<rscale>  0 0.15388852E+04</rscale>
<asrwt>0</asrwt>
<pdfrwt beam="1">  1        2 0.27684099E+00 0.15388852E+04</pdfrwt>
<pdfrwt beam="2">  1       -2 0.50616877E-01 0.15388852E+04</pdfrwt>
<totfact> 0.30697984E+01</totfact>
</mgrwt>
</event>
<event>
12    2  0.3552864E-008  0.1457130E+04  0.7818608E-02  0.8913472E-01
          2   -1    0    0  501    0  0.00000000000E+00  0.00000000000E+00  0.96161742218E+03  0.96161742218E+03  0.00000000000E+00 0. -1.
         -2   -1    0    0    0  501 -0.00000000000E+00 -0.00000000000E+00 -0.55199396986E+03  0.55199396986E+03  0.00000000000E+00 0.  1.
         23    2    1    2    0    0  0.20963201501E+03 -0.23727013981E+03 -0.20491731973E+03  0.38571465549E+03  0.80882547966E+02 0.  0.
        254    2    1    2    0    0 -0.20963201501E+03  0.23727013981E+03  0.61454077205E+03  0.11278967365E+04  0.89120591719E+03 0.  0.
         23    2    4    4    0    0  0.84844290260E+02 -0.19473554745E+03  0.54579892036E+03  0.59243680117E+03  0.89243570562E+02 0.  0.
         23    2    4    4    0    0 -0.29447630527E+03  0.43200568727E+03  0.68741851689E+02  0.53545993537E+03  0.92987590665E+02 0.  0.
          3    1    3    3  502    0  0.17279890135E+03 -0.19500163319E+03 -0.12734617856E+03  0.29000370075E+03  0.00000000000E+00 0. -1.
         -3    1    3    3    0  502  0.36833113660E+02 -0.42268506625E+02 -0.77571141167E+02  0.95710954734E+02  0.00000000000E+00 0.  1.
         11    1    5    5    0    0  0.67103345480E+01 -0.19773868788E+02  0.95123932645E+01  0.22946025848E+02  0.00000000000E+00 0. -1.
        -11    1    5    5    0    0  0.78133955712E+02 -0.17496167866E+03  0.53628652710E+03  0.56949077533E+03  0.00000000000E+00 0.  1.
          1    1    6    6  503    0 -0.11392460195E+03  0.17962492584E+03 -0.17384244803E+02  0.21341541856E+03  0.00000000000E+00 0. -1.
         -1    1    6    6    0  503 -0.18055170332E+03  0.25238076143E+03  0.86126096492E+02  0.32204451681E+03  0.00000000000E+00 0.  1.
<mgrwt>
<rscale>  0 0.14571301E+04</rscale>
<asrwt>0</asrwt>
<pdfrwt beam="1">  1        2 0.14794114E+00 0.14571301E+04</pdfrwt>
<pdfrwt beam="2">  1       -2 0.84922149E-01 0.14571301E+04</pdfrwt>
<totfact> 0.31228727E+01</totfact>
</mgrwt>
</event>
<event>
12    2  0.3552864E-008  0.1252496E+04  0.7818608E-02  0.9068109E-01
         -1   -1    0    0    0  501 -0.00000000000E+00  0.00000000000E+00  0.14228464763E+03  0.14228464763E+03  0.00000000000E+00 0.  1.
          1   -1    0    0  501    0  0.00000000000E+00 -0.00000000000E+00 -0.27563505250E+04  0.27563505250E+04  0.00000000000E+00 0. -1.
         23    2    1    2    0    0  0.23361950082E+03  0.14476746553E+03 -0.73708609003E+03  0.79156593435E+03  0.88005875137E+02 0.  0.
        254    2    1    2    0    0 -0.23361950082E+03 -0.14476746553E+03 -0.18769797873E+04  0.21070692383E+04  0.91714337081E+03 0.  0.
         23    2    4    4    0    0  0.47408549767E+02  0.75666759615E+02  0.55479545754E+02  0.13973826281E+03  0.92063961431E+02 0.  0.
         23    2    4    4    0    0 -0.28102805059E+03 -0.22043422514E+03 -0.19324593331E+04  0.19673309754E+04  0.91782788112E+02 0.  0.
          2    1    3    3  502    0  0.61773796983E+02  0.89003388588E+01 -0.24670535261E+03  0.25447740377E+03  0.00000000000E+00 0. -1.
         -2    1    3    3    0  502  0.17184570384E+03  0.13586712667E+03 -0.49038073743E+03  0.53708853058E+03  0.00000000000E+00 0.  1.
         11    1    5    5    0    0 -0.18107153742E+02  0.56240382864E+02  0.33687618133E+02  0.68012537791E+02  0.00000000000E+00 0.  1.
        -11    1    5    5    0    0  0.65515703510E+02  0.19426376752E+02  0.21791927621E+02  0.71725725019E+02  0.00000000000E+00 0. -1.
          1    1    6    6  503    0  0.46053751936E+00 -0.22452818754E+01 -0.13012995669E+03  0.13015014028E+03  0.00000000000E+00 0.  1.
         -1    1    6    6    0  503 -0.28148858810E+03 -0.21818894327E+03 -0.18023293764E+04  0.18371808352E+04  0.00000000000E+00 0. -1.
<mgrwt>
<rscale>  0 0.12524957E+04</rscale>
<asrwt>0</asrwt>
<pdfrwt beam="1">  1        1 0.42405397E+00 0.12524957E+04</pdfrwt>
<pdfrwt beam="2">  1       -1 0.21889944E-01 0.12524957E+04</pdfrwt>
<totfact> 0.15634094E+01</totfact>
</mgrwt>
</event>
<event>
12    2  0.3552864E-008  0.2221684E+04  0.7818608E-02  0.8509457E-01
         -2   -1    0    0    0  501 -0.00000000000E+00  0.00000000000E+00  0.41349426682E+03  0.41349426682E+03  0.00000000000E+00 0.  1.
          2   -1    0    0  501    0  0.00000000000E+00 -0.00000000000E+00 -0.29842486877E+04  0.29842486877E+04  0.00000000000E+00 0. -1.
         23    2    1    2    0    0  0.13864326046E+03 -0.63419197525E+03 -0.21075183267E+04  0.22079621584E+04  0.10973595777E+03 0.  0.
        254    2    1    2    0    0 -0.13864326046E+03  0.63419197525E+03 -0.46323609425E+03  0.11897807962E+04  0.88293218813E+03 0.  0.
         23    2    4    4    0    0  0.30329912440E+03  0.55018828313E+03 -0.23277712904E+03  0.67612136285E+03  0.90870235684E+02 0.  0.
         23    2    4    4    0    0 -0.44194238486E+03  0.84003692123E+02 -0.23045896521E+03  0.51365943335E+03  0.91460302847E+02 0.  0.
          4    1    3    3  502    0  0.41819745269E+02 -0.32882308137E+03 -0.12267706633E+04  0.12707634596E+04  0.00000000000E+00 0. -1.
         -4    1    3    3    0  502  0.96823515188E+02 -0.30536889388E+03 -0.88074766334E+03  0.93719869874E+03  0.00000000000E+00 0.  1.
         11    1    5    5    0    0  0.18479315405E+03  0.26010964796E+03 -0.88274780132E+02  0.33105584960E+03  0.00000000000E+00 0. -1.
        -11    1    5    5    0    0  0.11850597035E+03  0.29007863517E+03 -0.14450234891E+03  0.34506551325E+03  0.00000000000E+00 0.  1.
          1    1    6    6  503    0 -0.27592356327E+03  0.12659696301E+02 -0.11483440394E+03  0.29913378446E+03  0.00000000000E+00 0. -1.
         -1    1    6    6    0  503 -0.16601882159E+03  0.71343995822E+02 -0.11562456127E+03  0.21452564888E+03  0.00000000000E+00 0.  1.
<mgrwt>
<rscale>  0 0.22216838E+04</rscale>
<asrwt>0</asrwt>
<pdfrwt beam="1">  1        2 0.45911518E+00 0.22216838E+04</pdfrwt>
<pdfrwt beam="2">  1       -2 0.63614503E-01 0.22216838E+04</pdfrwt>
<totfact> 0.37199791E+00</totfact>
</mgrwt>
</event>
<event>
12    2  0.3552864E-008  0.2702657E+04  0.7818608E-02  0.8334144E-01
         -2   -1    0    0    0  501 -0.00000000000E+00  0.00000000000E+00  0.69927816463E+03  0.69927816463E+03  0.00000000000E+00 0. -1.
          2   -1    0    0  501    0  0.00000000000E+00 -0.00000000000E+00 -0.26113901828E+04  0.26113901828E+04  0.00000000000E+00 0.  1.
         23    2    1    2    0    0  0.20484653149E+03  0.76842685905E+03 -0.19415971028E+04  0.21000591713E+04  0.89483373449E+02 0.  0.
        254    2    1    2    0    0 -0.20484653149E+03 -0.76842685905E+03  0.29485084591E+02  0.12106091762E+04  0.91228464203E+03 0.  0.
         23    2    4    4    0    0  0.30165356203E+02 -0.20327696683E+02 -0.32912145674E+03  0.34325519020E+03  0.90443509163E+02 0.  0.
         23    2    4    4    0    0 -0.23501188769E+03 -0.74809916236E+03  0.35860654133E+03  0.86735398598E+03  0.93921996500E+02 0.  0.
          2    1    3    3  502    0  0.54591942902E+02  0.21320728001E+03 -0.43765962637E+03  0.48988118257E+03  0.00000000000E+00 0. -1.
         -2    1    3    3    0  502  0.15025458859E+03  0.55521957904E+03 -0.15039374764E+04  0.16101779887E+04  0.00000000000E+00 0.  1.
         11    1    5    5    0    0  0.16669041512E+02  0.42696554680E+01 -0.49961347353E+01  0.17917819762E+02  0.00000000000E+00 0.  1.
        -11    1    5    5    0    0  0.13496314691E+02 -0.24597352151E+02 -0.32412532200E+03  0.32533737044E+03  0.00000000000E+00 0. -1.
          2    1    6    6  503    0 -0.20523771792E+03 -0.63350014873E+03  0.26617072263E+03  0.71714141763E+03  0.00000000000E+00 0. -1.
         -2    1    6    6    0  503 -0.29774169775E+02 -0.11459901363E+03  0.92435818698E+02  0.15021256835E+03  0.00000000000E+00 0.  1.
<mgrwt>
<rscale>  0 0.27026566E+04</rscale>
<asrwt>0</asrwt>
<pdfrwt beam="1">  1        2 0.40175234E+00 0.27026566E+04</pdfrwt>
<pdfrwt beam="2">  1       -2 0.10758126E+00 0.27026566E+04</pdfrwt>
<totfact> 0.18217947E+00</totfact>
</mgrwt>
</event>
<event>
12    2  0.3552864E-008  0.1708296E+04  0.7818608E-02  0.8756647E-01
         -2   -1    0    0    0  501 -0.00000000000E+00  0.00000000000E+00  0.84105106474E+03  0.84105106474E+03  0.00000000000E+00 0.  1.
          2   -1    0    0  501    0  0.00000000000E+00 -0.00000000000E+00 -0.86744869436E+03  0.86744869436E+03  0.00000000000E+00 0. -1.
         23    2    1    2    0    0 -0.42422185922E+03  0.76141708567E+02  0.42808406971E+03  0.61420653111E+03  0.90730074925E+02 0.  0.
        254    2    1    2    0    0  0.42422185922E+03 -0.76141708567E+02 -0.45448169933E+03  0.10942932280E+04  0.89730836851E+03 0.  0.
         23    2    4    4    0    0 -0.10893636387E+03  0.16758270791E+03  0.13510514336E+03  0.25800558187E+03  0.91446077822E+02 0.  0.
         23    2    4    4    0    0  0.53315822309E+03 -0.24372441648E+03 -0.58958684269E+03  0.83628764613E+03  0.90028328646E+02 0.  0.
          3    1    3    3  502    0 -0.91626347347E+01 -0.13014201907E+02  0.15979706181E+02  0.22553809793E+02  0.00000000000E+00 0. -1.
         -3    1    3    3    0  502 -0.41505922448E+03  0.89155910473E+02  0.41210436353E+03  0.59165272132E+03  0.00000000000E+00 0.  1.
         11    1    5    5    0    0 -0.11127737125E+03  0.92625312578E+02  0.90893795403E+02  0.17094965319E+03  0.00000000000E+00 0.  1.
        -11    1    5    5    0    0  0.23410073749E+01  0.74957395336E+02  0.44211347958E+02  0.87055928686E+02  0.00000000000E+00 0. -1.
          3    1    6    6  503    0  0.27653079085E+03 -0.16579439201E+03 -0.35962955172E+03  0.48300152503E+03  0.00000000000E+00 0. -1.
         -3    1    6    6    0  503  0.25662743224E+03 -0.77930024472E+02 -0.22995729097E+03  0.35328612110E+03  0.00000000000E+00 0.  1.
<mgrwt>
<rscale>  0 0.17082958E+04</rscale>
<asrwt>0</asrwt>
<pdfrwt beam="1">  1        2 0.13345364E+00 0.17082958E+04</pdfrwt>
<pdfrwt beam="2">  1       -2 0.12939247E+00 0.17082958E+04</pdfrwt>
<totfact> 0.12897581E+01</totfact>
</mgrwt>
</event>
<event>
12    2  0.3552864E-008  0.2557750E+04  0.7818608E-02  0.8382696E-01
         -1   -1    0    0    0  501 -0.00000000000E+00  0.00000000000E+00  0.84078227276E+03  0.84078227276E+03  0.00000000000E+00 0.  1.
          1   -1    0    0  501    0  0.00000000000E+00 -0.00000000000E+00 -0.19452381967E+04  0.19452381967E+04  0.00000000000E+00 0. -1.
         23    2    1    2    0    0 -0.55498148141E+03  0.78943331024E+03 -0.11077307674E+04  0.14719030332E+04  0.90673534444E+02 0.  0.
        254    2    1    2    0    0  0.55498148141E+03 -0.78943331024E+03  0.32748435268E+01  0.13141174363E+04  0.89201149976E+03 0.  0.
         23    2    4    4    0    0  0.17881821824E+03 -0.71052106270E+03  0.32331818317E+03  0.80592038649E+03  0.90315480801E+02 0.  0.
         23    2    4    4    0    0  0.37616326317E+03 -0.78912247538E+02 -0.32004333964E+03  0.50819704979E+03  0.90058640864E+02 0.  0.
          2    1    3    3  502    0 -0.37574656578E+03  0.58036685322E+03 -0.83849404904E+03  0.10867766267E+04  0.00000000000E+00 0. -1.
         -2    1    3    3    0  502 -0.17923491563E+03  0.20906645702E+03 -0.26923671840E+03  0.38512640648E+03  0.00000000000E+00 0.  1.
         11    1    5    5    0    0  0.15470192310E+02 -0.99358640875E+02  0.78567403018E+02  0.12760996506E+03  0.00000000000E+00 0. -1.
        -11    1    5    5    0    0  0.16334802593E+03 -0.61116242183E+03  0.24475078015E+03  0.67831042142E+03  0.00000000000E+00 0.  1.
          4    1    6    6  503    0  0.35660435340E+03 -0.52077714793E+02 -0.28132588020E+03  0.45719033685E+03  0.00000000000E+00 0.  1.
         -4    1    6    6    0  503  0.19558909775E+02 -0.26834532744E+02 -0.38717459439E+02  0.51006712936E+02  0.00000000000E+00 0. -1.
<mgrwt>
<rscale>  0 0.25577504E+04</rscale>
<asrwt>0</asrwt>
<pdfrwt beam="1">  1        1 0.29926741E+00 0.25577504E+04</pdfrwt>
<pdfrwt beam="2">  1       -1 0.12935112E+00 0.25577504E+04</pdfrwt>
<totfact> 0.14736291E+00</totfact>
</mgrwt>
</event>
<event>
12    2  0.3552864E-008  0.1302984E+04  0.7818608E-02  0.9027202E-01
         -1   -1    0    0    0  501 -0.00000000000E+00  0.00000000000E+00  0.30416141231E+03  0.30416141231E+03  0.00000000000E+00 0.  1.
          1   -1    0    0  501    0  0.00000000000E+00 -0.00000000000E+00 -0.13954501846E+04  0.13954501846E+04  0.00000000000E+00 0. -1.
         23    2    1    2    0    0  0.23984356970E+03  0.94347942123E+02 -0.21503639204E+02  0.27419880589E+03  0.91082965147E+02 0.  0.
        254    2    1    2    0    0 -0.23984356970E+03 -0.94347942123E+02 -0.10697851331E+04  0.14254127911E+04  0.90605459093E+03 0.  0.
         23    2    4    4    0    0 -0.12713026442E+03  0.33475770557E+03 -0.84013909062E+03  0.91728378645E+03  0.85738134616E+02 0.  0.
         23    2    4    4    0    0 -0.11271330528E+03 -0.42910564769E+03 -0.22964604250E+03  0.50812900460E+03  0.92853833598E+02 0.  0.
          2    1    3    3  502    0  0.54857751712E+02  0.50431647212E+02  0.24762325453E+02  0.78523224114E+02  0.00000000000E+00 0. -1.
         -2    1    3    3    0  502  0.18498581799E+03  0.43916294912E+02 -0.46265964657E+02  0.19567558177E+03  0.00000000000E+00 0.  1.
         11    1    5    5    0    0 -0.31648913187E+02  0.55070794013E+02 -0.83037771066E+02  0.10454528915E+03  0.00000000000E+00 0. -1.
        -11    1    5    5    0    0 -0.95481351237E+02  0.27968691155E+03 -0.75710131956E+03  0.81273849731E+03  0.00000000000E+00 0.  1.
          2    1    6    6  503    0 -0.29281406616E+02 -0.40769257842E+02 -0.54308855905E+02  0.73952586082E+02  0.00000000000E+00 0. -1.
         -2    1    6    6    0  503 -0.83431898662E+02 -0.38833638985E+03 -0.17533718659E+03  0.43417641852E+03  0.00000000000E+00 0.  1.
<mgrwt>
<rscale>  0 0.13029844E+04</rscale>
<asrwt>0</asrwt>
<pdfrwt beam="1">  1        1 0.21468465E+00 0.13029844E+04</pdfrwt>
<pdfrwt beam="2">  1       -1 0.46794063E-01 0.13029844E+04</pdfrwt>
<totfact> 0.34592572E+01</totfact>
</mgrwt>
</event>
<event>
12    2  0.3552864E-008  0.1963175E+04  0.7818608E-02  0.8624034E-01
          1   -1    0    0  501    0  0.00000000000E+00  0.00000000000E+00  0.11861860766E+04  0.11861860766E+04  0.00000000000E+00 0. -1.
         -1   -1    0    0    0  501 -0.00000000000E+00 -0.00000000000E+00 -0.81227865348E+03  0.81227865348E+03  0.00000000000E+00 0.  1.
         23    2    1    2    0    0  0.29313313047E+03  0.71721906161E+02  0.87305753937E+03  0.92835644876E+03  0.92440061145E+02 0.  0.
        254    2    1    2    0    0 -0.29313313047E+03 -0.71721906161E+02 -0.49915011627E+03  0.10701082813E+04  0.89716767169E+03 0.  0.
         23    2    4    4    0    0 -0.42630296891E+03 -0.21413126848E+03  0.41948869323E+02  0.48785743754E+03  0.93052406104E+02 0.  0.
         23    2    4    4    0    0  0.13316983844E+03  0.14240936232E+03 -0.54109898559E+03  0.58225084376E+03  0.90627261365E+02 0.  0.
          3    1    3    3  502    0  0.23744492982E+03  0.17814754646E+02  0.65714910718E+03  0.69895808834E+03  0.00000000000E+00 0. -1.
         -3    1    3    3    0  502  0.55688200647E+02  0.53907151515E+02  0.21590843218E+03  0.22939836042E+03  0.00000000000E+00 0.  1.
         11    1    5    5    0    0 -0.39755563980E+03 -0.18012873848E+03  0.58483626274E+02  0.44036028852E+03  0.00000000000E+00 0.  1.
        -11    1    5    5    0    0 -0.28747329108E+02 -0.34002530002E+02 -0.16534756951E+02  0.47497149018E+02  0.00000000000E+00 0. -1.
          4    1    6    6  503    0  0.92117542136E+02  0.10765629376E+03 -0.26046583670E+03  0.29650964781E+03  0.00000000000E+00 0. -1.
         -4    1    6    6    0  503  0.41052296305E+02  0.34753068559E+02 -0.28063314890E+03  0.28574119595E+03  0.00000000000E+00 0.  1.
<mgrwt>
<rscale>  0 0.19631746E+04</rscale>
<asrwt>0</asrwt>
<pdfrwt beam="1">  1        1 0.18249017E+00 0.19631746E+04</pdfrwt>
<pdfrwt beam="2">  1       -1 0.12496595E+00 0.19631746E+04</pdfrwt>
<totfact> 0.57007263E+00</totfact>
</mgrwt>
</event>
<event>
12    2  0.3552864E-008  0.2909684E+04  0.7818608E-02  0.8270002E-01
         -2   -1    0    0    0  501 -0.00000000000E+00  0.00000000000E+00  0.76899366221E+03  0.76899366221E+03  0.00000000000E+00 0.  1.
          2   -1    0    0  501    0  0.00000000000E+00 -0.00000000000E+00 -0.27523839293E+04  0.27523839293E+04  0.00000000000E+00 0. -1.
         23    2    1    2    0    0 -0.48363730589E+03  0.10269038503E+04 -0.10291740097E+03  0.11443422303E+04  0.10242356850E+03 0.  0.
        254    2    1    2    0    0  0.48363730589E+03 -0.10269038503E+04 -0.18804728661E+04  0.23770353612E+04  0.90867064812E+03 0.  0.
         23    2    4    4    0    0  0.72873843731E+03 -0.89032144882E+03 -0.15648768238E+04  0.19445808495E+04  0.93931966249E+02 0.  0.
         23    2    4    4    0    0 -0.24510113142E+03 -0.13658240145E+03 -0.31559604236E+03  0.43245451173E+03  0.93202605927E+02 0.  0.
          4    1    3    3  502    0 -0.30261287233E+03  0.58025709527E+03 -0.10250732690E+03  0.66240516240E+03  0.00000000000E+00 0. -1.
         -4    1    3    3    0  502 -0.18102443356E+03  0.44664675499E+03 -0.41007407609E+00  0.48193706794E+03  0.00000000000E+00 0.  1.
         11    1    5    5    0    0  0.55283555697E+03 -0.73471226144E+03 -0.12401089053E+04  0.15437938195E+04  0.00000000000E+00 0. -1.
        -11    1    5    5    0    0  0.17590288034E+03 -0.15560918738E+03 -0.32476791847E+03  0.40078702995E+03  0.00000000000E+00 0.  1.
          3    1    6    6  503    0 -0.20532683778E+03 -0.14634977309E+03 -0.28940837253E+03  0.38384185869E+03  0.00000000000E+00 0. -1.
         -3    1    6    6    0  503 -0.39774293644E+02  0.97673716476E+01 -0.26187669833E+02  0.48612653035E+02  0.00000000000E+00 0.  1.
<mgrwt>
<rscale>  0 0.29096844E+04</rscale>
<asrwt>0</asrwt>
<pdfrwt beam="1">  1        2 0.42344367E+00 0.29096844E+04</pdfrwt>
<pdfrwt beam="2">  1       -2 0.11830672E+00 0.29096844E+04</pdfrwt>
<totfact> 0.11715014E+00</totfact>
</mgrwt>
</event>
<event>
12    2  0.3552864E-008  0.1246970E+04  0.7818608E-02  0.9072709E-01
         -2   -1    0    0    0  501 -0.00000000000E+00  0.00000000000E+00  0.34215317692E+03  0.34215317692E+03  0.00000000000E+00 0. -1.
          2   -1    0    0  501    0  0.00000000000E+00 -0.00000000000E+00 -0.11361387294E+04  0.11361387294E+04  0.00000000000E+00 0.  1.
         23    2    1    2    0    0 -0.28030311282E+03  0.25792954849E+02 -0.12244917056E+03  0.32016193979E+03  0.90965689922E+02 0.  0.
        254    2    1    2    0    0  0.28030311282E+03 -0.25792954849E+02 -0.67153638196E+03  0.11581299666E+04  0.90059357960E+03 0.  0.
         23    2    4    4    0    0  0.49969590207E+03  0.11508192572E+03 -0.11074636512E+03  0.53265338411E+03  0.92276898786E+02 0.  0.
         23    2    4    4    0    0 -0.21939278925E+03 -0.14087488057E+03 -0.56079001684E+03  0.62547658246E+03  0.93576622457E+02 0.  0.
          3    1    3    3  502    0 -0.17638313024E+03  0.60142853663E+00 -0.11975874443E+03  0.21319832836E+03  0.00000000000E+00 0. -1.
         -3    1    3    3    0  502 -0.10391998258E+03  0.25191526313E+02 -0.26904261371E+01  0.10696361143E+03  0.00000000000E+00 0.  1.
         11    1    5    5    0    0  0.16553523901E+01  0.80906995956E+01 -0.10704107224E+02  0.13519523769E+02  0.00000000000E+00 0. -1.
        -11    1    5    5    0    0  0.49804054968E+03  0.10699122612E+03 -0.10004225789E+03  0.51913386035E+03  0.00000000000E+00 0.  1.
          3    1    6    6  503    0  0.48744316966E+01 -0.89720807562E+01 -0.62706151717E+02  0.63532037435E+02  0.00000000000E+00 0. -1.
         -3    1    6    6    0  503 -0.22426722095E+03 -0.13190279981E+03 -0.49808386512E+03  0.56194454503E+03  0.00000000000E+00 0.  1.
<mgrwt>
<rscale>  0 0.12469699E+04</rscale>
<asrwt>0</asrwt>
<pdfrwt beam="1">  1        2 0.17479057E+00 0.12469699E+04</pdfrwt>
<pdfrwt beam="2">  1       -2 0.52638951E-01 0.12469699E+04</pdfrwt>
<totfact> 0.69325965E+01</totfact>
</mgrwt>
</event>
<event>
12    2  0.3552864E-008  0.1227239E+04  0.7818608E-02  0.9089343E-01
         -2   -1    0    0    0  501 -0.00000000000E+00  0.00000000000E+00  0.29067606143E+03  0.29067606143E+03  0.00000000000E+00 0.  1.
          2   -1    0    0  501    0  0.00000000000E+00 -0.00000000000E+00 -0.12953548891E+04  0.12953548891E+04  0.00000000000E+00 0. -1.
         23    2    1    2    0    0  0.38923884141E+02 -0.22832721773E+03 -0.57186427508E+03  0.62363448523E+03  0.90790059688E+02 0.  0.
        254    2    1    2    0    0 -0.38923884141E+02  0.22832721773E+03 -0.43281455263E+03  0.96239646535E+03  0.82778628427E+03 0.  0.
         23    2    4    4    0    0  0.24922025382E+03  0.81091153340E+02  0.12931044094E+03  0.30799754713E+03  0.97235738485E+02 0.  0.
         23    2    4    4    0    0 -0.28814413796E+03  0.14723606439E+03 -0.56212499358E+03  0.65439891822E+03  0.86878840136E+02 0.  0.
          3    1    3    3  502    0  0.40775354516E+02 -0.23549427936E+03 -0.53385920104E+03  0.58491523461E+03  0.00000000000E+00 0. -1.
         -3    1    3    3    0  502 -0.18514703750E+01  0.71670616373E+01 -0.38005074045E+02  0.38719250615E+02  0.00000000000E+00 0.  1.
         11    1    5    5    0    0  0.18325717245E+03  0.27456534797E+02  0.50474428730E+02  0.19205395209E+03  0.00000000000E+00 0. -1.
        -11    1    5    5    0    0  0.65963081372E+02  0.53634618544E+02  0.78836012213E+02  0.11594359505E+03  0.00000000000E+00 0.  1.
          3    1    6    6  503    0 -0.11340936702E+03  0.79044332149E+02 -0.16535817295E+03  0.21552961823E+03  0.00000000000E+00 0. -1.
         -3    1    6    6    0  503 -0.17473477094E+03  0.68191732237E+02 -0.39676682063E+03  0.43886929999E+03  0.00000000000E+00 0.  1.
<mgrwt>
<rscale>  0 0.12272386E+04</rscale>
<asrwt>0</asrwt>
<pdfrwt beam="1">  1        2 0.19928537E+00 0.12272386E+04</pdfrwt>
<pdfrwt beam="2">  1       -2 0.44719394E-01 0.12272386E+04</pdfrwt>
<totfact> 0.77666479E+01</totfact>
</mgrwt>
</event>
<event>
12    2  0.3552864E-008  0.2020327E+04  0.7818608E-02  0.8597176E-01
          1   -1    0    0  501    0  0.00000000000E+00  0.00000000000E+00  0.14994293767E+04  0.14994293767E+04  0.00000000000E+00 0. -1.
         -1   -1    0    0    0  501 -0.00000000000E+00 -0.00000000000E+00 -0.68054569706E+03  0.68054569706E+03  0.00000000000E+00 0.  1.
         23    2    1    2    0    0 -0.31058597590E+03 -0.24246626433E+03 -0.43773565309E+03  0.59565938066E+03  0.89129445314E+02 0.  0.
        254    2    1    2    0    0  0.31058597590E+03  0.24246626433E+03  0.12566193327E+04  0.15843156931E+04  0.88074430467E+03 0.  0.
         23    2    4    4    0    0 -0.17784800693E+03  0.35091113563E+03  0.82020049383E+03  0.91415078796E+03  0.90411693808E+02 0.  0.
         23    2    4    4    0    0  0.48843398282E+03 -0.10844487131E+03  0.43641883887E+03  0.67016490510E+03  0.91277332423E+02 0.  0.
          2    1    3    3  502    0 -0.85467248239E+02 -0.11828782702E+03 -0.13919129330E+03  0.20167021762E+03  0.00000000000E+00 0. -1.
         -2    1    3    3    0  502 -0.22511872766E+03 -0.12417843731E+03 -0.29854435979E+03  0.39398916304E+03  0.00000000000E+00 0.  1.
         11    1    5    5    0    0 -0.97989157142E+02  0.25893396923E+03  0.49946184327E+03  0.57106112477E+03  0.00000000000E+00 0. -1.
        -11    1    5    5    0    0 -0.79858849784E+02  0.91977166398E+02  0.32073865056E+03  0.34308966319E+03  0.00000000000E+00 0.  1.
          1    1    6    6  503    0  0.85658998332E+02 -0.40788593384E+02  0.12304979658E+03  0.15537833113E+03  0.00000000000E+00 0. -1.
         -1    1    6    6    0  503  0.40277498449E+03 -0.67656277922E+02  0.31336904229E+03  0.51478657397E+03  0.00000000000E+00 0.  1.
<mgrwt>
<rscale>  0 0.20203269E+04</rscale>
<asrwt>0</asrwt>
<pdfrwt beam="1">  1        1 0.23068144E+00 0.20203269E+04</pdfrwt>
<pdfrwt beam="2">  1       -1 0.10469934E+00 0.20203269E+04</pdfrwt>
<totfact> 0.51965202E+00</totfact>
</mgrwt>
</event>
<event>
12    2  0.3552864E-008  0.2365545E+04  0.7818608E-02  0.8452517E-01
          2   -1    0    0  501    0  0.00000000000E+00  0.00000000000E+00  0.19616094228E+04  0.19616094228E+04  0.00000000000E+00 0.  1.
         -2   -1    0    0    0  501 -0.00000000000E+00 -0.00000000000E+00 -0.71316455400E+03  0.71316455400E+03  0.00000000000E+00 0. -1.
         23    2    1    2    0    0 -0.20496280910E+03  0.22099728852E+03  0.16120852424E+04  0.16425670845E+04  0.91423430652E+02 0.  0.
        254    2    1    2    0    0  0.20496280910E+03 -0.22099728852E+03 -0.36364037359E+03  0.10322068923E+04  0.91780563987E+03 0.  0.
         23    2    4    4    0    0  0.27034363516E+03 -0.53883184461E+03 -0.13763827059E+03  0.62514501201E+03  0.91850719520E+02 0.  0.
         23    2    4    4    0    0 -0.65380826055E+02  0.31783455609E+03 -0.22600210299E+03  0.40706188029E+03  0.96586574477E+02 0.  0.
          4    1    3    3  502    0 -0.17680998138E+02  0.16618398726E+02  0.44743427329E+02  0.50899539885E+02  0.00000000000E+00 0. -1.
         -4    1    3    3    0  502 -0.18728181096E+03  0.20437888979E+03  0.15673418151E+04  0.15916675446E+04  0.00000000000E+00 0.  1.
         11    1    5    5    0    0  0.21041579743E+03 -0.42724596103E+03 -0.14623021308E+03  0.49819393236E+03  0.00000000000E+00 0.  1.
        -11    1    5    5    0    0  0.59927837730E+02 -0.11158588358E+03  0.85919424843E+01  0.12695107965E+03  0.00000000000E+00 0. -1.
          1    1    6    6  503    0 -0.38014385446E+02  0.22565785958E+03 -0.20799167290E+03  0.30923631593E+03  0.00000000000E+00 0. -1.
         -1    1    6    6    0  503 -0.27366440609E+02  0.92176696513E+02 -0.18010430089E+02  0.97825564367E+02  0.00000000000E+00 0.  1.
<mgrwt>
<rscale>  0 0.23655446E+04</rscale>
<asrwt>0</asrwt>
<pdfrwt beam="1">  1        2 0.30178606E+00 0.23655446E+04</pdfrwt>
<pdfrwt beam="2">  1       -2 0.10971762E+00 0.23655446E+04</pdfrwt>
<totfact> 0.41838959E+00</totfact>
</mgrwt>
</event>
<event>
12    2  0.3552864E-008  0.2961089E+04  0.7818608E-02  0.8254930E-01
          2   -1    0    0  501    0  0.00000000000E+00  0.00000000000E+00  0.46233801755E+04  0.46233801755E+04  0.00000000000E+00 0. -1.
         -2   -1    0    0    0  501 -0.00000000000E+00 -0.00000000000E+00 -0.47411473689E+03  0.47411473689E+03  0.00000000000E+00 0.  1.
         23    2    1    2    0    0 -0.92400349649E+02  0.13585712601E+04  0.20730185604E+04  0.24818879877E+04  0.90046311507E+02 0.  0.
        254    2    1    2    0    0  0.92400349649E+02 -0.13585712601E+04  0.20762468782E+04  0.26156069247E+04  0.82240184333E+03 0.  0.
         23    2    4    4    0    0 -0.11740073284E+03 -0.23633762559E+03  0.10200136523E+04  0.10575071831E+04  0.90858054120E+02 0.  0.
         23    2    4    4    0    0  0.20980108249E+03 -0.11222336345E+04  0.10562332259E+04  0.15580997416E+04  0.92851239997E+02 0.  0.
          2    1    3    3  502    0 -0.63159221307E+02  0.11852777577E+04  0.18483239978E+04  0.21966278818E+04  0.00000000000E+00 0.  1.
         -2    1    3    3    0  502 -0.29241128342E+02  0.17329350236E+03  0.22469456265E+03  0.28526010592E+03  0.00000000000E+00 0. -1.
         11    1    5    5    0    0  0.37593230178E+01 -0.72835267750E+02  0.20930924410E+03  0.22165168261E+03  0.00000000000E+00 0. -1.
        -11    1    5    5    0    0 -0.12116005586E+03 -0.16350235784E+03  0.81070440820E+03  0.83585550045E+03  0.00000000000E+00 0.  1.
          2    1    6    6  503    0  0.21098694711E+03 -0.10654394814E+04  0.10242683191E+04  0.14929174022E+04  0.00000000000E+00 0.  1.
         -2    1    6    6    0  503 -0.11858646232E+01 -0.56794153151E+02  0.31964906767E+02  0.65182339415E+02  0.00000000000E+00 0. -1.
<mgrwt>
<rscale>  0 0.29610894E+04</rscale>
<asrwt>0</asrwt>
<pdfrwt beam="1">  1        2 0.71128923E+00 0.29610894E+04</pdfrwt>
<pdfrwt beam="2">  1       -2 0.72940732E-01 0.29610894E+04</pdfrwt>
<totfact> 0.13478544E-01</totfact>
</mgrwt>
</event>
<event>
12    2  0.3552864E-008  0.2822859E+04  0.7818608E-02  0.8296206E-01
          1   -1    0    0  501    0  0.00000000000E+00  0.00000000000E+00  0.20495596636E+04  0.20495596636E+04  0.00000000000E+00 0. -1.
         -1   -1    0    0    0  501 -0.00000000000E+00 -0.00000000000E+00 -0.97198131034E+03  0.97198131034E+03  0.00000000000E+00 0.  1.
         23    2    1    2    0    0  0.42265743567E+03 -0.35497067069E+03 -0.73754840522E+03  0.92575182366E+03  0.91625891572E+02 0.  0.
        254    2    1    2    0    0 -0.42265743567E+03  0.35497067069E+03  0.18151267585E+04  0.20957891503E+04  0.89050745541E+03 0.  0.
         23    2    4    4    0    0 -0.36339792365E+03  0.38923833890E+03  0.18855913180E+04  0.19614599847E+04  0.91137905526E+02 0.  0.
         23    2    4    4    0    0 -0.59259512022E+02 -0.34267668211E+02 -0.70464559466E+02  0.13432916560E+03  0.91613905824E+02 0.  0.
          3    1    3    3  502    0  0.22773487277E+03 -0.22697493682E+03 -0.36688611940E+03  0.48783831218E+03  0.00000000000E+00 0. -1.
         -3    1    3    3    0  502  0.19492256290E+03 -0.12799573386E+03 -0.37066228581E+03  0.43791351148E+03  0.00000000000E+00 0.  1.
         11    1    5    5    0    0 -0.25530677734E+03  0.27556214255E+03  0.14703247935E+04  0.15175542967E+04  0.00000000000E+00 0.  1.
        -11    1    5    5    0    0 -0.10809114630E+03  0.11367619634E+03  0.41526652447E+03  0.44390568803E+03  0.00000000000E+00 0. -1.
          1    1    6    6  503    0  0.13914276756E+02  0.10612780637E+02  0.68604872111E+01  0.18796395805E+02  0.00000000000E+00 0. -1.
         -1    1    6    6    0  503 -0.73173788778E+02 -0.44880448848E+02 -0.77325046677E+02  0.11553276980E+03  0.00000000000E+00 0.  1.
<mgrwt>
<rscale>  0 0.28228593E+04</rscale>
<asrwt>0</asrwt>
<pdfrwt beam="1">  1        1 0.31531687E+00 0.28228593E+04</pdfrwt>
<pdfrwt beam="2">  1       -1 0.14953559E+00 0.28228593E+04</pdfrwt>
<totfact> 0.83825549E-01</totfact>
</mgrwt>
</event>
<event>
12    2  0.3552864E-008  0.1367179E+04  0.7818608E-02  0.8977925E-01
         -1   -1    0    0    0  501 -0.00000000000E+00  0.00000000000E+00  0.47066318859E+03  0.47066318859E+03  0.00000000000E+00 0.  1.
          1   -1    0    0  501    0  0.00000000000E+00 -0.00000000000E+00 -0.99284229557E+03  0.99284229557E+03  0.00000000000E+00 0. -1.
         23    2    1    2    0    0 -0.15653119130E+03  0.29243351846E+03 -0.33794128545E+03  0.48216376526E+03  0.90874680478E+02 0.  0.
        254    2    1    2    0    0  0.15653119130E+03 -0.29243351846E+03 -0.18423782153E+03  0.98134171890E+03  0.90502409792E+03 0.  0.
         23    2    4    4    0    0 -0.35441611030E+03 -0.18875099928E+03  0.23543757469E+02  0.41293953206E+03  0.93418572333E+02 0.  0.
         23    2    4    4    0    0  0.51094730159E+03 -0.10368251918E+03 -0.20778157900E+03  0.56840218685E+03  0.89948049723E+02 0.  0.
          4    1    3    3  502    0 -0.12991630839E+02  0.59818791050E+01  0.26567480239E+01  0.14547290454E+02  0.00000000000E+00 0. -1.
         -4    1    3    3    0  502 -0.14353956046E+03  0.28645163936E+03 -0.34059803347E+03  0.46761647481E+03  0.00000000000E+00 0.  1.
         11    1    5    5    0    0 -0.34949082119E+03 -0.17847486581E+03  0.38306922999E+02  0.39428990878E+03  0.00000000000E+00 0.  1.
        -11    1    5    5    0    0 -0.49252891093E+01 -0.10276133471E+02 -0.14763165530E+02  0.18649623277E+02  0.00000000000E+00 0. -1.
          3    1    6    6  503    0  0.36291395442E+03 -0.53141466033E+02 -0.10605099578E+03  0.38180802431E+03  0.00000000000E+00 0. -1.
         -3    1    6    6    0  503  0.14803334718E+03 -0.50541053152E+02 -0.10173058322E+03  0.18659416253E+03  0.00000000000E+00 0.  1.
<mgrwt>
<rscale>  0 0.13671786E+04</rscale>
<asrwt>0</asrwt>
<pdfrwt beam="1">  1        1 0.15274497E+00 0.13671786E+04</pdfrwt>
<pdfrwt beam="2">  1       -1 0.72409723E-01 0.13671786E+04</pdfrwt>
<totfact> 0.28831950E+01</totfact>
</mgrwt>
</event>
<event>
12    2  0.3552864E-008  0.1660758E+04  0.7818608E-02  0.8784067E-01
          1   -1    0    0  501    0  0.00000000000E+00  0.00000000000E+00  0.17763473233E+04  0.17763473233E+04  0.00000000000E+00 0. -1.
         -1   -1    0    0    0  501 -0.00000000000E+00 -0.00000000000E+00 -0.38817260952E+03  0.38817260952E+03  0.00000000000E+00 0.  1.
         23    2    1    2    0    0  0.47861433523E+03  0.22606738613E+03  0.24708570521E+03  0.59104945117E+03  0.90055333269E+02 0.  0.
        254    2    1    2    0    0 -0.47861433523E+03 -0.22606738613E+03  0.11410890086E+04  0.15734704816E+04  0.94527619572E+03 0.  0.
         23    2    4    4    0    0 -0.36310571061E+03 -0.46485445762E+03  0.11460290640E+04  0.12925287739E+04  0.96501772322E+02 0.  0.
         23    2    4    4    0    0 -0.11550862463E+03  0.23878707149E+03 -0.49400554229E+01  0.28094170773E+03  0.92424732203E+02 0.  0.
          1    1    3    3  502    0  0.12104081314E+03  0.30859924948E+02  0.92019750321E+02  0.15514782584E+03  0.00000000000E+00 0. -1.
         -1    1    3    3    0  502  0.35757352209E+03  0.19520746118E+03  0.15506595489E+03  0.43590162533E+03  0.00000000000E+00 0.  1.
         11    1    5    5    0    0 -0.35658570706E+03 -0.41552017934E+03  0.10628426269E+04  0.11955939258E+04  0.00000000000E+00 0.  1.
        -11    1    5    5    0    0 -0.65200035491E+01 -0.49334278273E+02  0.83186437070E+02  0.96934848075E+02  0.00000000000E+00 0. -1.
          3    1    6    6  503    0  0.13379058620E+02  0.36964456721E+02  0.11362901171E+02  0.40920481342E+02  0.00000000000E+00 0. -1.
         -3    1    6    6    0  503 -0.12888768325E+03  0.20182261477E+03 -0.16302956594E+02  0.24002122639E+03  0.00000000000E+00 0.  1.
<mgrwt>
<rscale>  0 0.16607581E+04</rscale>
<asrwt>0</asrwt>
<pdfrwt beam="1">  1        1 0.27328420E+00 0.16607581E+04</pdfrwt>
<pdfrwt beam="2">  1       -1 0.59718864E-01 0.16607581E+04</pdfrwt>
<totfact> 0.11475511E+01</totfact>
</mgrwt>
</event>
<event>
12    2  0.3552864E-008  0.2332599E+04  0.7818608E-02  0.8465178E-01
          2   -1    0    0  501    0  0.00000000000E+00  0.00000000000E+00  0.13594827447E+04  0.13594827447E+04  0.00000000000E+00 0. -1.
         -2   -1    0    0    0  501 -0.00000000000E+00 -0.00000000000E+00 -0.10005674128E+04  0.10005674128E+04  0.00000000000E+00 0.  1.
         23    2    1    2    0    0 -0.35170015348E+03  0.90863749783E+03 -0.39616166254E+02  0.97952258466E+03  0.92628034643E+02 0.  0.
        254    2    1    2    0    0  0.35170015348E+03 -0.90863749783E+03  0.39853149813E+03  0.13805275728E+04  0.89314832137E+03 0.  0.
         23    2    4    4    0    0  0.53123818073E+03 -0.71640726507E+03  0.24230441909E+01  0.89623804493E+03  0.88223511169E+02 0.  0.
         23    2    4    4    0    0 -0.17953802725E+03 -0.19223023277E+03  0.39610845394E+03  0.48428952792E+03  0.91913404648E+02 0.  0.
          2    1    3    3  502    0 -0.19579691527E+02  0.23478259477E+02  0.11655435165E+02  0.32717612340E+02  0.00000000000E+00 0. -1.
         -2    1    3    3    0  502 -0.33212046196E+03  0.88515923836E+03 -0.51271601419E+02  0.94680497232E+03  0.00000000000E+00 0.  1.
         11    1    5    5    0    0  0.53086312205E+03 -0.70925649657E+03 -0.49814909610E+01  0.88593749640E+03  0.00000000000E+00 0. -1.
        -11    1    5    5    0    0  0.37505868310E+00 -0.71507685008E+01  0.74045351519E+01  0.10300548528E+02  0.00000000000E+00 0.  1.
          1    1    6    6  503    0 -0.15044630792E+03 -0.10486722527E+03  0.22785379407E+03  0.29248688513E+03  0.00000000000E+00 0. -1.
         -1    1    6    6    0  503 -0.29091719326E+02 -0.87363007500E+02  0.16825465987E+03  0.19180264279E+03  0.00000000000E+00 0.  1.
<mgrwt>
<rscale>  0 0.23325987E+04</rscale>
<asrwt>0</asrwt>
<pdfrwt beam="1">  1        2 0.20915119E+00 0.23325987E+04</pdfrwt>
<pdfrwt beam="2">  1       -2 0.15393345E+00 0.23325987E+04</pdfrwt>
<totfact> 0.38612486E+00</totfact>
</mgrwt>
</event>
<event>
12    2  0.3552864E-008  0.1517600E+04  0.7818608E-02  0.8872833E-01
         -3   -1    0    0    0  501 -0.00000000000E+00  0.00000000000E+00  0.63924252965E+03  0.63924252965E+03  0.00000000000E+00 0.  1.
          3   -1    0    0  501    0  0.00000000000E+00 -0.00000000000E+00 -0.90071842080E+03  0.90071842080E+03  0.00000000000E+00 0. -1.
         23    2    1    2    0    0  0.18587564029E+03 -0.44800082596E+03 -0.30725991978E+02  0.49489041173E+03  0.93369905908E+02 0.  0.
        254    2    1    2    0    0 -0.18587564029E+03  0.44800082596E+03 -0.23074989918E+03  0.10450705387E+04  0.89647778623E+03 0.  0.
         23    2    4    4    0    0  0.27910669735E+03  0.45231540862E+03 -0.66186083541E+02  0.54299474236E+03  0.89291182044E+02 0.  0.
         23    2    4    4    0    0 -0.46498233764E+03 -0.43145826634E+01 -0.16456381564E+03  0.50207579636E+03  0.93657172343E+02 0.  0.
          3    1    3    3  502    0 -0.23970413861E+01 -0.84828158228E+02 -0.50704889457E+01  0.85013364208E+02  0.00000000000E+00 0. -1.
         -3    1    3    3    0  502  0.18827268168E+03 -0.36317266773E+03 -0.25655503033E+02  0.40987704752E+03  0.00000000000E+00 0.  1.
         11    1    5    5    0    0  0.27931644123E+03  0.45248922608E+03 -0.58118277191E+02  0.53492233848E+03  0.00000000000E+00 0.  1.
        -11    1    5    5    0    0 -0.20974388245E+00 -0.17381746165E+00 -0.80678063503E+01  0.80724038744E+01  0.00000000000E+00 0. -1.
          3    1    6    6  503    0 -0.14703022848E+03  0.14444165824E+02 -0.10075078339E+02  0.14808115754E+03  0.00000000000E+00 0. -1.
         -3    1    6    6    0  503 -0.31795210916E+03 -0.18758748487E+02 -0.15448873730E+03  0.35399463882E+03  0.00000000000E+00 0.  1.
<mgrwt>
<rscale>  0 0.15176001E+04</rscale>
<asrwt>0</asrwt>
<pdfrwt beam="1">  1        3 0.13857206E+00 0.15176001E+04</pdfrwt>
<pdfrwt beam="2">  1       -3 0.98345006E-01 0.15176001E+04</pdfrwt>
<totfact> 0.91024005E-01</totfact>
</mgrwt>
</event>
<event>
12    2  0.3552864E-008  0.1302706E+04  0.7818608E-02  0.9027422E-01
          1   -1    0    0  501    0  0.00000000000E+00  0.00000000000E+00  0.98831784074E+03  0.98831784074E+03  0.00000000000E+00 0. -1.
         -1   -1    0    0    0  501 -0.00000000000E+00 -0.00000000000E+00 -0.42927583186E+03  0.42927583186E+03  0.00000000000E+00 0.  1.
         23    2    1    2    0    0 -0.21214562869E+03  0.21322144227E+03 -0.10082201263E+02  0.31539163027E+03  0.94345526874E+02 0.  0.
        254    2    1    2    0    0  0.21214562869E+03 -0.21322144227E+03  0.56912421014E+03  0.11022020423E+04  0.89469426305E+03 0.  0.
         23    2    4    4    0    0 -0.93962655520E+02 -0.45548572517E+03  0.51200518534E+03  0.69764925582E+03  0.90933755406E+02 0.  0.
         23    2    4    4    0    0  0.30610828422E+03  0.24226428290E+03  0.57119024807E+02  0.40455278651E+03  0.89476866531E+02 0.  0.
          3    1    3    3  502    0 -0.13260821058E+02  0.13390837178E+02 -0.27025784417E+02  0.32947790803E+02  0.00000000000E+00 0. -1.
         -3    1    3    3    0  502 -0.19888480764E+03  0.19983060510E+03  0.16943583153E+02  0.28244383947E+03  0.00000000000E+00 0.  1.
         11    1    5    5    0    0 -0.93632665806E+02 -0.41837240148E+03  0.50000945731E+03  0.65864406156E+03  0.00000000000E+00 0.  1.
        -11    1    5    5    0    0 -0.32998971492E+00 -0.37113323695E+02  0.11995728024E+02  0.39005194266E+02  0.00000000000E+00 0. -1.
          2    1    6    6  503    0  0.10051102885E+03  0.12790116389E+03  0.92852030394E+00  0.16267156111E+03  0.00000000000E+00 0. -1.
         -2    1    6    6    0  503  0.20559725536E+03  0.11436311901E+03  0.56190504503E+02  0.24188122539E+03  0.00000000000E+00 0.  1.
<mgrwt>
<rscale>  0 0.13027064E+04</rscale>
<asrwt>0</asrwt>
<pdfrwt beam="1">  1        1 0.15204890E+00 0.13027064E+04</pdfrwt>
<pdfrwt beam="2">  1       -1 0.66042436E-01 0.13027064E+04</pdfrwt>
<totfact> 0.35279108E+01</totfact>
</mgrwt>
</event>
<event>
12    2  0.3552864E-008  0.2379130E+04  0.7818608E-02  0.8447358E-01
          2   -1    0    0  501    0  0.00000000000E+00  0.00000000000E+00  0.14857816375E+04  0.14857816375E+04  0.00000000000E+00 0. -1.
         -2   -1    0    0    0  501 -0.00000000000E+00 -0.00000000000E+00 -0.95240471352E+03  0.95240471352E+03  0.00000000000E+00 0.  1.
         23    2    1    2    0    0 -0.10043799567E+03 -0.23946489103E+03  0.12359709065E+04  0.12662950926E+04  0.91912756648E+02 0.  0.
        254    2    1    2    0    0  0.10043799567E+03  0.23946489103E+03 -0.70259398252E+03  0.11718912584E+04  0.90125445478E+03 0.  0.
         23    2    4    4    0    0  0.29302295710E+03 -0.18708264621E+03 -0.57456124559E+03  0.67766983997E+03  0.90848319607E+02 0.  0.
         23    2    4    4    0    0 -0.19258496142E+03  0.42654753724E+03 -0.12803273693E+03  0.49422141844E+03  0.93971590561E+02 0.  0.
          3    1    3    3  502    0 -0.78214762497E+02 -0.16875714680E+03  0.10454051992E+04  0.10618232217E+04  0.00000000000E+00 0. -1.
         -3    1    3    3    0  502 -0.22223233176E+02 -0.70707744225E+02  0.19056570736E+03  0.20447187094E+03  0.00000000000E+00 0.  1.
         11    1    5    5    0    0  0.52444590355E+01 -0.22678883239E+01 -0.57170044406E+02  0.57454866160E+02  0.00000000000E+00 0. -1.
        -11    1    5    5    0    0  0.28777849806E+03 -0.18481475788E+03 -0.51739120118E+03  0.62021497381E+03  0.00000000000E+00 0.  1.
          2    1    6    6  503    0 -0.16920660327E+03  0.39011080976E+03 -0.85908432294E+02  0.43381744688E+03  0.00000000000E+00 0.  1.
         -2    1    6    6    0  503 -0.23378358151E+02  0.36436727478E+02 -0.42124304634E+02  0.60403971558E+02  0.00000000000E+00 0. -1.
<mgrwt>
<rscale>  0 0.23791305E+04</rscale>
<asrwt>0</asrwt>
<pdfrwt beam="1">  1        2 0.22858179E+00 0.23791305E+04</pdfrwt>
<pdfrwt beam="2">  1       -2 0.14652380E+00 0.23791305E+04</pdfrwt>
<totfact> 0.37138329E+00</totfact>
</mgrwt>
</event>
<event>
12    2  0.3552864E-008  0.1416292E+04  0.7818608E-02  0.8942110E-01
         -1   -1    0    0    0  501 -0.00000000000E+00  0.00000000000E+00  0.27144871915E+03  0.27144871915E+03  0.00000000000E+00 0.  1.
          1   -1    0    0  501    0  0.00000000000E+00 -0.00000000000E+00 -0.18473855323E+04  0.18473855323E+04  0.00000000000E+00 0. -1.
         23    2    1    2    0    0  0.18653709247E+03 -0.32497246951E+03 -0.25765731911E+03  0.46401589929E+03  0.92305297218E+02 0.  0.
        254    2    1    2    0    0 -0.18653709247E+03  0.32497246951E+03 -0.13182794940E+04  0.16548183521E+04  0.92744798313E+03 0.  0.
         23    2    4    4    0    0 -0.38235166201E+03  0.54839344532E+03 -0.76618979182E+03  0.10210565976E+04  0.92637001572E+02 0.  0.
         23    2    4    4    0    0  0.19581456954E+03 -0.22342097581E+03 -0.55208970219E+03  0.63376175455E+03  0.92685728078E+02 0.  0.
          2    1    3    3  502    0  0.69177147388E+02 -0.11935528697E+03 -0.15044357688E+03  0.20411867154E+03  0.00000000000E+00 0. -1.
         -2    1    3    3    0  502  0.11735994508E+03 -0.20561718255E+03 -0.10721374223E+03  0.25989722775E+03  0.00000000000E+00 0.  1.
         11    1    5    5    0    0 -0.23012483224E+03  0.25447907700E+03 -0.41509554838E+03  0.53853630642E+03  0.00000000000E+00 0.  1.
        -11    1    5    5    0    0 -0.15222682977E+03  0.29391436832E+03 -0.35109424344E+03  0.48252029116E+03  0.00000000000E+00 0. -1.
          1    1    6    6  503    0  0.95576397522E+02 -0.16283560236E+03 -0.39506779647E+03  0.43786852475E+03  0.00000000000E+00 0. -1.
         -1    1    6    6    0  503  0.10023817201E+03 -0.60585373454E+02 -0.15702190572E+03  0.19589322980E+03  0.00000000000E+00 0.  1.
<mgrwt>
<rscale>  0 0.14162915E+04</rscale>
<asrwt>0</asrwt>
<pdfrwt beam="1">  1        1 0.28421316E+00 0.14162915E+04</pdfrwt>
<pdfrwt beam="2">  1       -1 0.41761341E-01 0.14162915E+04</pdfrwt>
<totfact> 0.20736120E+01</totfact>
</mgrwt>
</event>
<event>
12    2  0.3552864E-008  0.1234741E+04  0.7818608E-02  0.9082979E-01
          2   -1    0    0  501    0  0.00000000000E+00  0.00000000000E+00  0.11591340460E+04  0.11591340460E+04  0.00000000000E+00 0. -1.
         -2   -1    0    0    0  501 -0.00000000000E+00 -0.00000000000E+00 -0.32882011001E+03  0.32882011001E+03  0.00000000000E+00 0.  1.
         23    2    1    2    0    0 -0.15054463230E+03  0.10328842834E+03 -0.69792212905E+02  0.21447119247E+03  0.88287902212E+02 0.  0.
        254    2    1    2    0    0  0.15054463230E+03 -0.10328842834E+03  0.90010614889E+03  0.12734829635E+04  0.88217662257E+03 0.  0.
         23    2    4    4    0    0  0.21156236996E+03  0.65756826639E+02 -0.94704126859E+02  0.25798674276E+03  0.92226304055E+02 0.  0.
         23    2    4    4    0    0 -0.61017737665E+02 -0.16904525498E+03  0.99481027575E+03  0.10154962208E+04  0.96361959054E+02 0.  0.
          3    1    3    3  502    0  0.10971042829E+02  0.12323223701E+02 -0.11647042951E+02  0.20196020218E+02  0.00000000000E+00 0. -1.
         -3    1    3    3    0  502 -0.16151567513E+03  0.90965204636E+02 -0.58145169954E+02  0.19427517226E+03  0.00000000000E+00 0.  1.
         11    1    5    5    0    0  0.12353822929E+03  0.27083409402E+02 -0.10068463196E+03  0.16165580804E+03  0.00000000000E+00 0.  1.
        -11    1    5    5    0    0  0.88024140672E+02  0.38673417237E+02  0.59805050972E+01  0.96330934715E+02  0.00000000000E+00 0. -1.
          3    1    6    6  503    0 -0.34345048085E+02 -0.10190821017E+02  0.98175986654E+02  0.10450817918E+03  0.00000000000E+00 0. -1.
         -3    1    6    6    0  503 -0.26672689580E+02 -0.15885443396E+03  0.89663428910E+03  0.91098804160E+03  0.00000000000E+00 0.  1.
<mgrwt>
<rscale>  0 0.12347414E+04</rscale>
<asrwt>0</asrwt>
<pdfrwt beam="1">  1        2 0.17832831E+00 0.12347414E+04</pdfrwt>
<pdfrwt beam="2">  1       -2 0.50587710E-01 0.12347414E+04</pdfrwt>
<totfact> 0.72898727E+01</totfact>
</mgrwt>
</event>
<event>
12    2  0.3552864E-008  0.1833069E+04  0.7818608E-02  0.8688909E-01
         -1   -1    0    0    0  501 -0.00000000000E+00  0.00000000000E+00  0.82640418223E+03  0.82640418223E+03  0.00000000000E+00 0.  1.
          1   -1    0    0  501    0  0.00000000000E+00 -0.00000000000E+00 -0.10164950555E+04  0.10164950555E+04  0.00000000000E+00 0. -1.
         23    2    1    2    0    0 -0.38774834727E+02  0.98726494058E+02  0.60390133317E+03  0.61985249738E+03  0.90938934840E+02 0.  0.
        254    2    1    2    0    0  0.38774834727E+02 -0.98726494058E+02 -0.79399220648E+03  0.12230467404E+04  0.92421279844E+03 0.  0.
         23    2    4    4    0    0 -0.27270427687E+03 -0.20023995983E+03 -0.81021248776E+03  0.88249902421E+03  0.88862749597E+02 0.  0.
         23    2    4    4    0    0  0.31147911160E+03  0.10151346577E+03  0.16220281277E+02  0.34054771619E+03  0.91571986881E+02 0.  0.
          3    1    3    3  502    0  0.17147044469E+02  0.53206896201E+02  0.14651255902E+03  0.15681493835E+03  0.00000000000E+00 0. -1.
         -3    1    3    3    0  502 -0.55921879196E+02  0.45519597857E+02  0.45738877414E+03  0.46303755903E+03  0.00000000000E+00 0.  1.
         11    1    5    5    0    0 -0.10392248099E+03 -0.47961674450E+02 -0.36631470301E+03  0.38377944957E+03  0.00000000000E+00 0. -1.
        -11    1    5    5    0    0 -0.16878179588E+03 -0.15227828538E+03 -0.44389778475E+03  0.49871957464E+03  0.00000000000E+00 0.  1.
          4    1    6    6  503    0  0.25791088324E+03  0.99629331404E+02  0.44340353543E+02  0.28001802500E+03  0.00000000000E+00 0. -1.
         -4    1    6    6    0  503  0.53568228357E+02  0.18841343676E+01 -0.28120072266E+02  0.60529691192E+02  0.00000000000E+00 0.  1.
<mgrwt>
<rscale>  0 0.18330693E+04</rscale>
<asrwt>0</asrwt>
<pdfrwt beam="1">  1        1 0.15638385E+00 0.18330693E+04</pdfrwt>
<pdfrwt beam="2">  1       -1 0.12713911E+00 0.18330693E+04</pdfrwt>
<totfact> 0.74148802E+00</totfact>
</mgrwt>
</event>
<event>
12    2  0.3552864E-008  0.1787808E+04  0.7818608E-02  0.8712810E-01
         -2   -1    0    0    0  501 -0.00000000000E+00  0.00000000000E+00  0.12918119563E+04  0.12918119563E+04  0.00000000000E+00 0.  1.
          2   -1    0    0  501    0  0.00000000000E+00 -0.00000000000E+00 -0.61856118993E+03  0.61856118993E+03  0.00000000000E+00 0. -1.
         23    2    1    2    0    0 -0.11455838525E+03 -0.20969656343E+03 -0.40907300077E+03  0.48242122190E+03  0.91067244621E+02 0.  0.
        254    2    1    2    0    0  0.11455838525E+03  0.20969656343E+03  0.10823237672E+04  0.14279519244E+04  0.90029200206E+03 0.  0.
         23    2    4    4    0    0  0.44711326934E+03  0.10986001583E+03  0.92302369126E+03  0.10354894237E+04  0.91028090256E+02 0.  0.
         23    2    4    4    0    0 -0.33255488409E+03  0.99836547602E+02  0.15930007589E+03  0.39246250068E+03  0.89945611841E+02 0.  0.
          4    1    3    3  502    0 -0.10958223058E+03 -0.21019658724E+03 -0.41291178003E+03  0.47611659143E+03  0.00000000000E+00 0. -1.
         -4    1    3    3    0  502 -0.49761546665E+01  0.50002381117E+00  0.38387792697E+01  0.63046304696E+01  0.00000000000E+00 0.  1.
         11    1    5    5    0    0  0.12903501607E+03 -0.98471541276E+01  0.26175649851E+03  0.29199908617E+03  0.00000000000E+00 0.  1.
        -11    1    5    5    0    0  0.31807825327E+03  0.11970716996E+03  0.66126719275E+03  0.74349033750E+03  0.00000000000E+00 0. -1.
          3    1    6    6  503    0 -0.19443376549E+03  0.11781260614E+02  0.82250693019E+02  0.21144376029E+03  0.00000000000E+00 0. -1.
         -3    1    6    6    0  503 -0.13812111861E+03  0.88055286989E+02  0.77049382875E+02  0.18101874039E+03  0.00000000000E+00 0.  1.
<mgrwt>
<rscale>  0 0.17878084E+04</rscale>
<asrwt>0</asrwt>
<pdfrwt beam="1">  1        2 0.95163260E-01 0.17878084E+04</pdfrwt>
<pdfrwt beam="2">  1       -2 0.19874030E+00 0.17878084E+04</pdfrwt>
<totfact> 0.61172036E+00</totfact>
</mgrwt>
</event>
<event>
12    2  0.3552864E-008  0.1270152E+04  0.7818608E-02  0.9053576E-01
          2   -1    0    0  501    0  0.00000000000E+00  0.00000000000E+00  0.15030434318E+04  0.15030434318E+04  0.00000000000E+00 0. -1.
         -2   -1    0    0    0  501 -0.00000000000E+00 -0.00000000000E+00 -0.26833637066E+03  0.26833637066E+03  0.00000000000E+00 0.  1.
         23    2    1    2    0    0  0.12974407152E+03  0.10414273175E+03 -0.56229989816E+02  0.19644399337E+03  0.88029529743E+02 0.  0.
        254    2    1    2    0    0 -0.12974407152E+03 -0.10414273175E+03  0.12909370510E+04  0.15749358091E+04  0.88669335205E+03 0.  0.
         23    2    4    4    0    0 -0.71933589840E+02 -0.41869874972E+03  0.11203922564E+04  0.12013793884E+04  0.86893856467E+02 0.  0.
         23    2    4    4    0    0 -0.57810481682E+02  0.31455601796E+03  0.17054479462E+03  0.37355642076E+03  0.90395421848E+02 0.  0.
          4    1    3    3  502    0  0.85686242240E+01 -0.12521843623E+02  0.70440812868E+01  0.16728328368E+02  0.00000000000E+00 0. -1.
         -4    1    3    3    0  502  0.12117544730E+03  0.11666457537E+03 -0.63274071103E+02  0.17971566501E+03  0.00000000000E+00 0.  1.
         11    1    5    5    0    0 -0.16073370055E+02 -0.18085167341E+03  0.36873767759E+03  0.41101478790E+03  0.00000000000E+00 0. -1.
        -11    1    5    5    0    0 -0.55860219786E+02 -0.23784707630E+03  0.75165457877E+03  0.79036460045E+03  0.00000000000E+00 0.  1.
          2    1    6    6  503    0 -0.37182052667E+02  0.18638611157E+03  0.15000231779E+03  0.24212183497E+03  0.00000000000E+00 0. -1.
         -2    1    6    6    0  503 -0.20628429015E+02  0.12816990640E+03  0.20542476835E+02  0.13143458580E+03  0.00000000000E+00 0.  1.
<mgrwt>
<rscale>  0 0.12701515E+04</rscale>
<asrwt>0</asrwt>
<pdfrwt beam="1">  1        2 0.23123745E+00 0.12701515E+04</pdfrwt>
<pdfrwt beam="2">  1       -2 0.41282519E-01 0.12701515E+04</pdfrwt>
<totfact> 0.68995793E+01</totfact>
</mgrwt>
</event>
<event>
12    2  0.3552864E-008  0.3548729E+04  0.7818608E-02  0.8102338E-01
          2   -1    0    0  501    0  0.00000000000E+00  0.00000000000E+00  0.17714516213E+04  0.17714516213E+04  0.00000000000E+00 0. -1.
         -2   -1    0    0    0  501 -0.00000000000E+00 -0.00000000000E+00 -0.17772817327E+04  0.17772817327E+04  0.00000000000E+00 0.  1.
         23    2    1    2    0    0 -0.30687276526E+03  0.16191545460E+04  0.18824901380E+03  0.16612848624E+04  0.92721976731E+02 0.  0.
        254    2    1    2    0    0  0.30687276526E+03 -0.16191545460E+04 -0.19407912526E+03  0.18874484916E+04  0.89942357309E+03 0.  0.
         23    2    4    4    0    0  0.43146406702E+03 -0.28593349583E+03 -0.14118824954E+03  0.54411630065E+03  0.90604755209E+02 0.  0.
         23    2    4    4    0    0 -0.12459130176E+03 -0.13332210502E+04 -0.52890875718E+02  0.13433321910E+04  0.93501708557E+02 0.  0.
          1    1    3    3  502    0 -0.23555858263E+03  0.13572471171E+04  0.12995511203E+03  0.13836531046E+04  0.00000000000E+00 0. -1.
         -1    1    3    3    0  502 -0.71314182630E+02  0.26190742885E+03  0.58293901771E+02  0.27763175775E+03  0.00000000000E+00 0.  1.
         11    1    5    5    0    0  0.62261858811E+02 -0.51222115189E+02  0.99883089039E+01  0.81240448434E+02  0.00000000000E+00 0. -1.
        -11    1    5    5    0    0  0.36920220821E+03 -0.23471138064E+03 -0.15117655845E+03  0.46287585222E+03  0.00000000000E+00 0.  1.
          1    1    6    6  503    0 -0.49719385361E+02 -0.59659718133E+03 -0.69794738245E+02  0.60272010050E+03  0.00000000000E+00 0. -1.
         -1    1    6    6    0  503 -0.74871916395E+02 -0.73662386883E+03  0.16903862526E+02  0.74061209047E+03  0.00000000000E+00 0.  1.
<mgrwt>
<rscale>  0 0.35487286E+04</rscale>
<asrwt>0</asrwt>
<pdfrwt beam="1">  1        2 0.27253102E+00 0.35487286E+04</pdfrwt>
<pdfrwt beam="2">  1       -2 0.27342796E+00 0.35487286E+04</pdfrwt>
<totfact> 0.33831124E-01</totfact>
</mgrwt>
</event>
<event>
12    2  0.3552864E-008  0.1877918E+04  0.7818608E-02  0.8665927E-01
         -2   -1    0    0    0  501 -0.00000000000E+00  0.00000000000E+00  0.18438835245E+04  0.18438835245E+04  0.00000000000E+00 0.  1.
          2   -1    0    0  501    0  0.00000000000E+00 -0.00000000000E+00 -0.47814538552E+03  0.47814538552E+03  0.00000000000E+00 0. -1.
         23    2    1    2    0    0 -0.46241605110E+02  0.27150937781E+03 -0.28967559627E+03  0.41081445507E+03  0.94873268832E+02 0.  0.
        254    2    1    2    0    0  0.46241605110E+02 -0.27150937781E+03  0.16554137353E+04  0.19112144550E+04  0.91459850738E+03 0.  0.
         23    2    4    4    0    0  0.17437111881E+03 -0.30660256214E+03  0.14869049362E+03  0.39599657848E+03  0.10145939626E+03 0.  0.
         23    2    4    4    0    0 -0.12812951370E+03  0.35093184334E+02  0.15067232417E+04  0.15152178765E+04  0.89563287346E+02 0.  0.
          2    1    3    3  502    0 -0.43146950603E+02  0.20698048999E+03 -0.27069705274E+03  0.34348140699E+03  0.00000000000E+00 0. -1.
         -2    1    3    3    0  502 -0.30946545069E+01  0.64528887816E+02 -0.18978543527E+02  0.67333048080E+02  0.00000000000E+00 0.  1.
         11    1    5    5    0    0  0.12315587363E+03 -0.12142023041E+03  0.50169667509E+02  0.18007564272E+03  0.00000000000E+00 0. -1.
        -11    1    5    5    0    0  0.51215245186E+02 -0.18518233173E+03  0.98520826108E+02  0.21592093576E+03  0.00000000000E+00 0.  1.
          3    1    6    6  503    0 -0.73232492107E+02 -0.13296700958E+02  0.10533745533E+04  0.10560008284E+04  0.00000000000E+00 0. -1.
         -3    1    6    6    0  503 -0.54897021598E+02  0.48389885292E+02  0.45334868839E+03  0.45921704808E+03  0.00000000000E+00 0.  1.
<mgrwt>
<rscale>  0 0.18779184E+04</rscale>
<asrwt>0</asrwt>
<pdfrwt beam="1">  1        2 0.73560830E-01 0.18779184E+04</pdfrwt>
<pdfrwt beam="2">  1       -2 0.28367438E+00 0.18779184E+04</pdfrwt>
<totfact> 0.24357214E+00</totfact>
</mgrwt>
</event>
<event>
12    2  0.3552864E-008  0.2550419E+04  0.7818608E-02  0.8385240E-01
         -2   -1    0    0    0  501 -0.00000000000E+00  0.00000000000E+00  0.56376940151E+03  0.56376940151E+03  0.00000000000E+00 0.  1.
          2   -1    0    0  501    0  0.00000000000E+00 -0.00000000000E+00 -0.28844408547E+04  0.28844408547E+04  0.00000000000E+00 0. -1.
         23    2    1    2    0    0  0.44723750551E+03 -0.96048511396E+03 -0.15135800189E+04  0.18498207317E+04  0.91428798305E+02 0.  0.
        254    2    1    2    0    0 -0.44723750551E+03  0.96048511396E+03 -0.80709143429E+03  0.15983895246E+04  0.88368515234E+03 0.  0.
         23    2    4    4    0    0 -0.65992151943E+02  0.62086987367E+03 -0.87186186869E+03  0.10762502741E+04  0.91308106737E+02 0.  0.
         23    2    4    4    0    0 -0.38124535357E+03  0.33961524029E+03  0.64770434399E+02  0.52213925043E+03  0.88020773768E+02 0.  0.
          1    1    3    3  502    0  0.34781103148E+03 -0.73187640333E+03 -0.10879630750E+04  0.13565689204E+04  0.00000000000E+00 0. -1.
         -1    1    3    3    0  502  0.99426474037E+02 -0.22860871063E+03 -0.42561694397E+03  0.49325181126E+03  0.00000000000E+00 0.  1.
         11    1    5    5    0    0 -0.58606647192E+02  0.34180449680E+03 -0.54985007317E+03  0.65007703858E+03  0.00000000000E+00 0. -1.
        -11    1    5    5    0    0 -0.73855047505E+01  0.27906537687E+03 -0.32201179552E+03  0.42617323555E+03  0.00000000000E+00 0.  1.
          2    1    6    6  503    0 -0.70123681711E+00  0.21378199290E+02  0.79635841980E+01  0.22824062111E+02  0.00000000000E+00 0.  1.
         -2    1    6    6    0  503 -0.38054411675E+03  0.31823704100E+03  0.56806850201E+02  0.49931518832E+03  0.00000000000E+00 0. -1.
<mgrwt>
<rscale>  0 0.25504192E+04</rscale>
<asrwt>0</asrwt>
<pdfrwt beam="1">  1        2 0.44376013E+00 0.25504192E+04</pdfrwt>
<pdfrwt beam="2">  1       -2 0.86733755E-01 0.25504192E+04</pdfrwt>
<totfact> 0.20987243E+00</totfact>
</mgrwt>
</event>
<event>
12    2  0.3552864E-008  0.1989058E+04  0.7818608E-02  0.8611753E-01
          2   -1    0    0  501    0  0.00000000000E+00  0.00000000000E+00  0.11122042449E+04  0.11122042449E+04  0.00000000000E+00 0.  1.
         -2   -1    0    0    0  501 -0.00000000000E+00 -0.00000000000E+00 -0.88930432342E+03  0.88930432342E+03  0.00000000000E+00 0. -1.
         23    2    1    2    0    0  0.37194637762E+03  0.31344781567E+03 -0.53217690659E+03  0.72748181300E+03  0.97076708701E+02 0.  0.
        254    2    1    2    0    0 -0.37194637762E+03 -0.31344781567E+03  0.75507682808E+03  0.12740267553E+04  0.90355382573E+03 0.  0.
         23    2    4    4    0    0 -0.62660682698E+03 -0.36519185005E+03  0.65240240936E+03  0.98010160703E+03  0.94705086436E+02 0.  0.
         23    2    4    4    0    0  0.25466044936E+03  0.51744034379E+02  0.10267441872E+03  0.29392514829E+03  0.91217141898E+02 0.  0.
          3    1    3    3  502    0  0.28712086818E+03  0.26653096908E+03 -0.47193741781E+03  0.61335314196E+03  0.00000000000E+00 0. -1.
         -3    1    3    3    0  502  0.84825509442E+02  0.46916846592E+02 -0.60239488775E+02  0.11412867104E+03  0.00000000000E+00 0.  1.
         11    1    5    5    0    0 -0.61893165494E+03 -0.34363455076E+03  0.63845875689E+03  0.95330513594E+03  0.00000000000E+00 0.  1.
        -11    1    5    5    0    0 -0.76751720479E+01 -0.21557299293E+02  0.13943652473E+02  0.26796471094E+02  0.00000000000E+00 0. -1.
          4    1    6    6  503    0  0.49821015658E+02  0.15706765183E+02  0.63596840394E+02  0.82300632937E+02  0.00000000000E+00 0. -1.
         -4    1    6    6    0  503  0.20483943370E+03  0.36037269197E+02  0.39077578322E+02  0.21162451535E+03  0.00000000000E+00 0.  1.
<mgrwt>
<rscale>  0 0.19890581E+04</rscale>
<asrwt>0</asrwt>
<pdfrwt beam="1">  1        2 0.17110834E+00 0.19890581E+04</pdfrwt>
<pdfrwt beam="2">  1       -2 0.13681605E+00 0.19890581E+04</pdfrwt>
<totfact> 0.75909903E+00</totfact>
</mgrwt>
</event>
<event>
12    2  0.3552864E-008  0.2411016E+04  0.7818608E-02  0.8435391E-01
         -2   -1    0    0    0  501 -0.00000000000E+00  0.00000000000E+00  0.37930073748E+03  0.37930073748E+03  0.00000000000E+00 0. -1.
          2   -1    0    0  501    0  0.00000000000E+00 -0.00000000000E+00 -0.38313914170E+04  0.38313914170E+04  0.00000000000E+00 0.  1.
         23    2    1    2    0    0 -0.83934759172E+02 -0.66003063272E+03 -0.10753177932E+03  0.68030487196E+03  0.92553526799E+02 0.  0.
        254    2    1    2    0    0  0.83934759172E+02  0.66003063272E+03 -0.33445589001E+04  0.35303872825E+04  0.91371475188E+03 0.  0.
         23    2    4    4    0    0  0.64830044250E+02  0.49875460857E+03 -0.32996281841E+04  0.33389579485E+04  0.90193870804E+02 0.  0.
         23    2    4    4    0    0  0.19104714923E+02  0.16127602415E+03 -0.44930715998E+02  0.19142933393E+03  0.90837627397E+02 0.  0.
          4    1    3    3  502    0  0.22419393754E+01 -0.76371602464E+02 -0.40633715485E+02  0.86537545546E+02  0.00000000000E+00 0.  1.
         -4    1    3    3    0  502 -0.86176698548E+02 -0.58365903026E+03 -0.66898063840E+02  0.59376732642E+03  0.00000000000E+00 0. -1.
         11    1    5    5    0    0  0.36361642861E+02  0.25389503649E+03 -0.19753478608E+04  0.19919297251E+04  0.00000000000E+00 0. -1.
        -11    1    5    5    0    0  0.28468401389E+02  0.24485957208E+03 -0.13242803234E+04  0.13470282234E+04  0.00000000000E+00 0.  1.
          4    1    6    6  503    0  0.24156791583E+02  0.17110694216E+03 -0.34464189220E+02  0.17620702759E+03  0.00000000000E+00 0. -1.
         -4    1    6    6    0  503 -0.50520766601E+01 -0.98309180085E+01 -0.10466526777E+02  0.15222306338E+02  0.00000000000E+00 0.  1.
<mgrwt>
<rscale>  0 0.24110160E+04</rscale>
<asrwt>0</asrwt>
<pdfrwt beam="1">  1        2 0.58944483E+00 0.24110160E+04</pdfrwt>
<pdfrwt beam="2">  1       -2 0.58353960E-01 0.24110160E+04</pdfrwt>
<totfact> 0.11507140E+00</totfact>
</mgrwt>
</event>
<event>
12    2  0.3552864E-008  0.2798367E+04  0.7818608E-02  0.8303776E-01
          1   -1    0    0  501    0  0.00000000000E+00  0.00000000000E+00  0.26288047622E+04  0.26288047622E+04  0.00000000000E+00 0. -1.
         -1   -1    0    0    0  501 -0.00000000000E+00 -0.00000000000E+00 -0.74471647863E+03  0.74471647863E+03  0.00000000000E+00 0.  1.
         23    2    1    2    0    0 -0.70652743683E+03  0.60854672672E+03  0.18600288792E+04  0.20826635820E+04  0.90939688016E+02 0.  0.
        254    2    1    2    0    0  0.70652743683E+03 -0.60854672672E+03  0.24059404396E+02  0.12908576588E+04  0.89231412787E+03 0.  0.
         23    2    4    4    0    0  0.72666385320E+03 -0.79322562151E+03 -0.23374085774E+02  0.10798625475E+04  0.91156631079E+02 0.  0.
         23    2    4    4    0    0 -0.20136416369E+02  0.18467889479E+03  0.47433490170E+02  0.21099511134E+03  0.88075147316E+02 0.  0.
          1    1    3    3  502    0 -0.70840126361E+03  0.60942574400E+03  0.18580336297E+04  0.20797887048E+04  0.00000000000E+00 0. -1.
         -1    1    3    3    0  502  0.18738267807E+01 -0.87901727402E+00  0.19952494552E+01  0.28748771384E+01  0.00000000000E+00 0.  1.
         11    1    5    5    0    0  0.18388130702E+03 -0.26177909094E+03 -0.15006452974E+01  0.31991073671E+03  0.00000000000E+00 0. -1.
        -11    1    5    5    0    0  0.54278254618E+03 -0.53144653057E+03 -0.21873440477E+02  0.75995181077E+03  0.00000000000E+00 0.  1.
          2    1    6    6  503    0 -0.34712415681E+02  0.34014297866E+02 -0.90440716743E+01  0.49433991283E+02  0.00000000000E+00 0. -1.
         -2    1    6    6    0  503  0.14575999312E+02  0.15066459693E+03  0.56477561844E+02  0.16156112006E+03  0.00000000000E+00 0.  1.
<mgrwt>
<rscale>  0 0.27983668E+04</rscale>
<asrwt>0</asrwt>
<pdfrwt beam="1">  1        1 0.40443150E+00 0.27983668E+04</pdfrwt>
<pdfrwt beam="2">  1       -1 0.11457177E+00 0.27983668E+04</pdfrwt>
<totfact> 0.66016413E-01</totfact>
</mgrwt>
</event>
<event>
12    2  0.3552864E-008  0.1964668E+04  0.7818608E-02  0.8623320E-01
          1   -1    0    0  501    0  0.00000000000E+00  0.00000000000E+00  0.77951193102E+03  0.77951193102E+03  0.00000000000E+00 0. -1.
         -1   -1    0    0    0  501 -0.00000000000E+00 -0.00000000000E+00 -0.12379282051E+04  0.12379282051E+04  0.00000000000E+00 0.  1.
         23    2    1    2    0    0  0.63945915618E+03  0.16294830991E+03  0.22612337390E+03  0.70332336851E+03  0.89843287673E+02 0.  0.
        254    2    1    2    0    0 -0.63945915618E+03 -0.16294830991E+03 -0.68453964799E+03  0.13141167676E+04  0.90710979773E+03 0.  0.
         23    2    4    4    0    0 -0.74387773096E+03 -0.29675932074E+03 -0.25754627507E+03  0.84613525697E+03  0.90524119486E+02 0.  0.
         23    2    4    4    0    0  0.10441857478E+03  0.13381101083E+03 -0.42699337292E+03  0.46798151065E+03  0.88739666527E+02 0.  0.
          2    1    3    3  502    0  0.55890666890E+03  0.13559086205E+03  0.22686994471E+03  0.61824875109E+03  0.00000000000E+00 0. -1.
         -2    1    3    3    0  502  0.80552487285E+02  0.27357447864E+02 -0.74657081237E+00  0.85074617422E+02  0.00000000000E+00 0.  1.
         11    1    5    5    0    0 -0.39495453498E+03 -0.15309058467E+03 -0.18335279217E+03  0.46156695962E+03  0.00000000000E+00 0. -1.
        -11    1    5    5    0    0 -0.34892319598E+03 -0.14366873608E+03 -0.74193482903E+02  0.38456829735E+03  0.00000000000E+00 0.  1.
          4    1    6    6  503    0  0.93150378054E+02  0.11952523527E+03 -0.26739168096E+03  0.30734603600E+03  0.00000000000E+00 0. -1.
         -4    1    6    6    0  503  0.11268196728E+02  0.14285775567E+02 -0.15960169196E+03  0.16063547465E+03  0.00000000000E+00 0.  1.
<mgrwt>
<rscale>  0 0.19646677E+04</rscale>
<asrwt>0</asrwt>
<pdfrwt beam="1">  1        1 0.11992491E+00 0.19646677E+04</pdfrwt>
<pdfrwt beam="2">  1       -1 0.19045049E+00 0.19646677E+04</pdfrwt>
<totfact> 0.37612480E+00</totfact>
</mgrwt>
</event>
<event>
12    2  0.3552864E-008  0.2333352E+04  0.7818608E-02  0.8464886E-01
         -1   -1    0    0    0  501 -0.00000000000E+00  0.00000000000E+00  0.11273512547E+04  0.11273512547E+04  0.00000000000E+00 0.  1.
          1   -1    0    0  501    0  0.00000000000E+00 -0.00000000000E+00 -0.12073722030E+04  0.12073722030E+04  0.00000000000E+00 0. -1.
         23    2    1    2    0    0  0.49557506595E+03  0.17472315627E+03 -0.87483899771E+03  0.10245078839E+04  0.90279039206E+02 0.  0.
        254    2    1    2    0    0 -0.49557506595E+03 -0.17472315627E+03  0.79481804944E+03  0.13102155738E+04  0.89933658377E+03 0.  0.
         23    2    4    4    0    0  0.85551760562E+02 -0.24801204306E+03  0.63907738501E+03  0.69732508755E+03  0.94938382357E+02 0.  0.
         23    2    4    4    0    0 -0.58112682651E+03  0.73288886791E+02  0.15574066442E+03  0.61289048630E+03  0.91104029681E+02 0.  0.
          1    1    3    3  502    0  0.49292130738E+03  0.16840496389E+03 -0.83550406941E+03  0.98458046757E+03  0.00000000000E+00 0. -1.
         -1    1    3    3    0  502  0.26537585716E+01  0.63181923780E+01 -0.39334928306E+02  0.39927416324E+02  0.00000000000E+00 0.  1.
         11    1    5    5    0    0  0.61630536133E+02 -0.50282725956E+02  0.19705251931E+03  0.21250028442E+03  0.00000000000E+00 0.  1.
        -11    1    5    5    0    0  0.23921224428E+02 -0.19772931711E+03  0.44202486571E+03  0.48482480313E+03  0.00000000000E+00 0. -1.
          1    1    6    6  503    0 -0.37585280587E+02  0.27582987919E+02  0.44172006015E+01  0.46829330558E+02  0.00000000000E+00 0. -1.
         -1    1    6    6    0  503 -0.54354154592E+03  0.45705898872E+02  0.15132346382E+03  0.56606115574E+03  0.00000000000E+00 0.  1.
<mgrwt>
<rscale>  0 0.23333517E+04</rscale>
<asrwt>0</asrwt>
<pdfrwt beam="1">  1        1 0.18574957E+00 0.23333517E+04</pdfrwt>
<pdfrwt beam="2">  1       -1 0.17343865E+00 0.23333517E+04</pdfrwt>
<totfact> 0.22088113E+00</totfact>
</mgrwt>
</event>
<event>
12    2  0.3552864E-008  0.1377049E+04  0.7818608E-02  0.8970601E-01
          2   -1    0    0  501    0  0.00000000000E+00  0.00000000000E+00  0.20531137036E+04  0.20531137036E+04  0.00000000000E+00 0. -1.
         -2   -1    0    0    0  501 -0.00000000000E+00 -0.00000000000E+00 -0.23090092702E+03  0.23090092702E+03  0.00000000000E+00 0.  1.
         23    2    1    2    0    0  0.10049057945E+03  0.17814611161E+03 -0.20598009405E+02  0.22429721458E+03  0.89724962152E+02 0.  0.
        254    2    1    2    0    0 -0.10049057945E+03 -0.17814611161E+03  0.18428107860E+04  0.20597174161E+04  0.89702276859E+03 0.  0.
         23    2    4    4    0    0  0.31640232575E+03 -0.32668873250E+03  0.10332805869E+04  0.11326655561E+04  0.91796138326E+02 0.  0.
         23    2    4    4    0    0 -0.41689290520E+03  0.14854262089E+03  0.80953019911E+03  0.92705185997E+03  0.90671953635E+02 0.  0.
          2    1    3    3  502    0 -0.13158263130E+02  0.26820367404E+01  0.34483465306E+01  0.13864497953E+02  0.00000000000E+00 0. -1.
         -2    1    3    3    0  502  0.11364884258E+03  0.17546407487E+03 -0.24046355935E+02  0.21043271662E+03  0.00000000000E+00 0.  1.
         11    1    5    5    0    0  0.28538699870E+03 -0.28969319752E+03  0.97856583325E+03  0.10596975879E+04  0.00000000000E+00 0.  1.
        -11    1    5    5    0    0  0.31015327048E+02 -0.36995534987E+02  0.54714753647E+02  0.72967968230E+02  0.00000000000E+00 0. -1.
          1    1    6    6  503    0 -0.18431284234E+03  0.19456520448E+02  0.35223317394E+03  0.39801757356E+03  0.00000000000E+00 0. -1.
         -1    1    6    6    0  503 -0.23258006287E+03  0.12908610044E+03  0.45729702517E+03  0.52903428641E+03  0.00000000000E+00 0.  1.
<mgrwt>
<rscale>  0 0.13770488E+04</rscale>
<asrwt>0</asrwt>
<pdfrwt beam="1">  1        2 0.31586363E+00 0.13770488E+04</pdfrwt>
<pdfrwt beam="2">  1       -2 0.35523221E-01 0.13770488E+04</pdfrwt>
<totfact> 0.45344600E+01</totfact>
</mgrwt>
</event>
<event>
12    2  0.3552864E-008  0.1321041E+04  0.7818608E-02  0.9013044E-01
         -1   -1    0    0    0  501 -0.00000000000E+00  0.00000000000E+00  0.10465792574E+04  0.10465792574E+04  0.00000000000E+00 0.  1.
          1   -1    0    0  501    0  0.00000000000E+00 -0.00000000000E+00 -0.41686959470E+03  0.41686959470E+03  0.00000000000E+00 0. -1.
         23    2    1    2    0    0 -0.10760262555E+03 -0.14598337401E+03  0.48001588482E+03  0.52139334636E+03  0.92446208354E+02 0.  0.
        254    2    1    2    0    0  0.10760262555E+03  0.14598337401E+03  0.14969377789E+03  0.94205550576E+03  0.91223400412E+03 0.  0.
         23    2    4    4    0    0  0.25287868967E+03  0.12892676261E+03  0.48329926262E+03  0.56715405561E+03  0.86693735332E+02 0.  0.
         23    2    4    4    0    0 -0.14527606411E+03  0.17056611398E+02 -0.33360548473E+03  0.37490145014E+03  0.88670260429E+02 0.  0.
          3    1    3    3  502    0 -0.73680166329E+02 -0.26205924711E+02  0.20907917482E+03  0.22322548856E+03  0.00000000000E+00 0. -1.
         -3    1    3    3    0  502 -0.33922459225E+02 -0.11977744930E+03  0.27093671000E+03  0.29816785780E+03  0.00000000000E+00 0.  1.
         11    1    5    5    0    0  0.22445380730E+03  0.77847917893E+02  0.37087337980E+03  0.44043940988E+03  0.00000000000E+00 0.  1.
        -11    1    5    5    0    0  0.28424882364E+02  0.51078844719E+02  0.11242588282E+03  0.12671464573E+03  0.00000000000E+00 0. -1.
          4    1    6    6  503    0 -0.12572028225E+03 -0.14479834708E+02 -0.29671971811E+03  0.32257998404E+03  0.00000000000E+00 0.  1.
         -4    1    6    6    0  503 -0.19555781859E+02  0.31536446106E+02 -0.36885766611E+02  0.52321466108E+02  0.00000000000E+00 0. -1.
<mgrwt>
<rscale>  0 0.13210406E+04</rscale>
<asrwt>0</asrwt>
<pdfrwt beam="1">  1        1 0.64133784E-01 0.13210406E+04</pdfrwt>
<pdfrwt beam="2">  1       -1 0.16101219E+00 0.13210406E+04</pdfrwt>
<totfact> 0.15989764E+01</totfact>
</mgrwt>
</event>
<event>
12    2  0.3552864E-008  0.1802116E+04  0.7818608E-02  0.8705175E-01
         -2   -1    0    0    0  501 -0.00000000000E+00  0.00000000000E+00  0.28989740398E+03  0.28989740398E+03  0.00000000000E+00 0.  1.
          2   -1    0    0  501    0  0.00000000000E+00 -0.00000000000E+00 -0.28006637575E+04  0.28006637575E+04  0.00000000000E+00 0. -1.
         23    2    1    2    0    0  0.82885126711E+02 -0.16595835820E+03 -0.20629783218E+04  0.20733078042E+04  0.91178799701E+02 0.  0.
        254    2    1    2    0    0 -0.82885126711E+02  0.16595835820E+03 -0.44778803167E+03  0.10172533573E+04  0.89435907262E+03 0.  0.
         23    2    4    4    0    0 -0.32907160017E+03  0.36731891234E+03 -0.46868621506E+03  0.68557573671E+03  0.84474973676E+02 0.  0.
         23    2    4    4    0    0  0.24618647346E+03 -0.20136055414E+03  0.20898183387E+02  0.33167762061E+03  0.91757601687E+02 0.  0.
          1    1    3    3  502    0  0.92641011043E+01 -0.10245742285E+03 -0.13186209670E+04  0.13226279151E+04  0.00000000000E+00 0. -1.
         -1    1    3    3    0  502  0.73621025606E+02 -0.63500935351E+02 -0.74435735481E+03  0.75067988907E+03  0.00000000000E+00 0.  1.
         11    1    5    5    0    0 -0.10393985315E+03  0.17642255244E+03 -0.17835189990E+03  0.27154706827E+03  0.00000000000E+00 0. -1.
        -11    1    5    5    0    0 -0.22513174702E+03  0.19089635989E+03 -0.29033431515E+03  0.41402866844E+03  0.00000000000E+00 0.  1.
          1    1    6    6  503    0  0.90226462415E+02 -0.13303784706E+03  0.10687785511E+02  0.16110279957E+03  0.00000000000E+00 0. -1.
         -1    1    6    6    0  503  0.15596001104E+03 -0.68322707076E+02  0.10210397876E+02  0.17057482104E+03  0.00000000000E+00 0.  1.
<mgrwt>
<rscale>  0 0.18021156E+04</rscale>
<asrwt>0</asrwt>
<pdfrwt beam="1">  1        2 0.43087133E+00 0.18021156E+04</pdfrwt>
<pdfrwt beam="2">  1       -2 0.44599603E-01 0.18021156E+04</pdfrwt>
<totfact> 0.10423821E+01</totfact>
</mgrwt>
</event>
<event>
12    2  0.3552864E-008  0.2296204E+04  0.7818608E-02  0.8479419E-01
          2   -1    0    0  501    0  0.00000000000E+00  0.00000000000E+00  0.34010038302E+04  0.34010038302E+04  0.00000000000E+00 0.  1.
         -2   -1    0    0    0  501 -0.00000000000E+00 -0.00000000000E+00 -0.38757332627E+03  0.38757332627E+03  0.00000000000E+00 0. -1.
         23    2    1    2    0    0  0.41371908390E+02  0.26280125624E+03  0.28269750643E+04  0.28409564363E+04  0.92028927977E+02 0.  0.
        254    2    1    2    0    0 -0.41371908390E+02 -0.26280125624E+03  0.18645543960E+03  0.94762072016E+03  0.89019282362E+03 0.  0.
         23    2    4    4    0    0  0.93968136660E+02 -0.53925177916E+03  0.26825339033E+03  0.61632148886E+03  0.90938463702E+02 0.  0.
         23    2    4    4    0    0 -0.13534004505E+03  0.27645052291E+03 -0.81797950732E+02  0.33129923129E+03  0.91249419172E+02 0.  0.
          2    1    3    3  502    0  0.56148413397E+02  0.13508992091E+03  0.11941317069E+04  0.12030596263E+04  0.00000000000E+00 0. -1.
         -2    1    3    3    0  502 -0.14776505007E+02  0.12771133533E+03  0.16328433574E+04  0.16378968100E+04  0.00000000000E+00 0.  1.
         11    1    5    5    0    0  0.11469763070E+02 -0.31832947235E+03  0.14089897349E+03  0.34830694676E+03  0.00000000000E+00 0. -1.
        -11    1    5    5    0    0  0.82498373590E+02 -0.22092230681E+03  0.12735441684E+03  0.26801454210E+03  0.00000000000E+00 0.  1.
          4    1    6    6  503    0 -0.13683370265E+03  0.27213970499E+03 -0.93588325894E+02  0.31865695655E+03  0.00000000000E+00 0.  1.
         -4    1    6    6    0  503  0.14936576037E+01  0.43108179194E+01  0.11790375162E+02  0.12642274741E+02  0.00000000000E+00 0. -1.
<mgrwt>
<rscale>  0 0.22962041E+04</rscale>
<asrwt>0</asrwt>
<pdfrwt beam="1">  1        2 0.52323134E+00 0.22962041E+04</pdfrwt>
<pdfrwt beam="2">  1       -2 0.59626668E-01 0.22962041E+04</pdfrwt>
<totfact> 0.22706482E+00</totfact>
</mgrwt>
</event>
<event>
12    2  0.3552864E-008  0.1245784E+04  0.7818608E-02  0.9073700E-01
         -1   -1    0    0    0  501 -0.00000000000E+00  0.00000000000E+00  0.51410813411E+03  0.51410813411E+03  0.00000000000E+00 0.  1.
          1   -1    0    0  501    0  0.00000000000E+00 -0.00000000000E+00 -0.75469389842E+03  0.75469389842E+03  0.00000000000E+00 0. -1.
         23    2    1    2    0    0  0.18031121904E+03  0.20157540878E+03 -0.12283271867E+02  0.28573422355E+03  0.91369505864E+02 0.  0.
        254    2    1    2    0    0 -0.18031121904E+03 -0.20157540878E+03 -0.22830249245E+03  0.98306780899E+03  0.91714530358E+03 0.  0.
         23    2    4    4    0    0 -0.13268364676E+03 -0.10367401213E+03 -0.57625652556E+03  0.60732279803E+03  0.91739559884E+02 0.  0.
         23    2    4    4    0    0 -0.47627572279E+02 -0.97901396649E+02  0.34795403311E+03  0.37574501096E+03  0.90880333356E+02 0.  0.
          1    1    3    3  502    0  0.19874577743E+02  0.16092293595E+02  0.27200042505E+02  0.37333672012E+02  0.00000000000E+00 0. -1.
         -1    1    3    3    0  502  0.16043664130E+03  0.18548311518E+03 -0.39483314372E+02  0.24840055153E+03  0.00000000000E+00 0.  1.
         11    1    5    5    0    0 -0.24129859487E+02  0.15286271331E+02 -0.12402812763E+03  0.12727488618E+03  0.00000000000E+00 0. -1.
        -11    1    5    5    0    0 -0.10855378728E+03 -0.11896028346E+03 -0.45222839793E+03  0.48004791185E+03  0.00000000000E+00 0.  1.
          4    1    6    6  503    0 -0.66845085287E+02 -0.66361704451E+02  0.17345000367E+03  0.19737539112E+03  0.00000000000E+00 0. -1.
         -4    1    6    6    0  503  0.19217513008E+02 -0.31539692198E+02  0.17450402944E+03  0.17836961984E+03  0.00000000000E+00 0.  1.
<mgrwt>
<rscale>  0 0.12457837E+04</rscale>
<asrwt>0</asrwt>
<pdfrwt beam="1">  1        1 0.11610675E+00 0.12457837E+04</pdfrwt>
<pdfrwt beam="2">  1       -1 0.79093559E-01 0.12457837E+04</pdfrwt>
<totfact> 0.38255856E+01</totfact>
</mgrwt>
</event>
<event>
12    2  0.3552864E-008  0.1421577E+04  0.7818608E-02  0.8938347E-01
         -1   -1    0    0    0  501 -0.00000000000E+00  0.00000000000E+00  0.47007254770E+03  0.47007254770E+03  0.00000000000E+00 0.  1.
          1   -1    0    0  501    0  0.00000000000E+00 -0.00000000000E+00 -0.10747703635E+04  0.10747703635E+04  0.00000000000E+00 0. -1.
         23    2    1    2    0    0 -0.31798186349E+03  0.26905982923E+03 -0.11488308776E+03  0.43613773512E+03  0.59265022773E+02 0.  0.
        254    2    1    2    0    0  0.31798186349E+03 -0.26905982923E+03 -0.48981472799E+03  0.11087051760E+04  0.90321815881E+03 0.  0.
         23    2    4    4    0    0  0.29464667399E+02 -0.53893064935E+03 -0.43776340731E+03  0.69974206036E+03  0.81778596357E+02 0.  0.
         23    2    4    4    0    0  0.28851719609E+03  0.26987082012E+03 -0.52051320676E+02  0.40896311567E+03  0.92027485037E+02 0.  0.
          3    1    3    3  502    0 -0.19184467851E+03  0.16627536967E+03 -0.39940387109E+02  0.25699633023E+03  0.00000000000E+00 0. -1.
         -3    1    3    3    0  502 -0.12613718498E+03  0.10278445956E+03 -0.74942700655E+02  0.17914140489E+03  0.00000000000E+00 0.  1.
         11    1    5    5    0    0  0.11514693374E+01 -0.23946569840E+03 -0.14475612360E+03  0.27982044584E+03  0.00000000000E+00 0.  1.
        -11    1    5    5    0    0  0.28313198061E+02 -0.29946495096E+03 -0.29300728371E+03  0.41992161452E+03  0.00000000000E+00 0. -1.
          1    1    6    6  503    0  0.17946357291E+03  0.17235364373E+03  0.12329139074E+02  0.24912840099E+03  0.00000000000E+00 0. -1.
         -1    1    6    6    0  503  0.10905362318E+03  0.97517176391E+02 -0.64380459749E+02  0.15983471468E+03  0.00000000000E+00 0.  1.
<mgrwt>
<rscale>  0 0.14215766E+04</rscale>
<asrwt>0</asrwt>
<pdfrwt beam="1">  1        1 0.16534929E+00 0.14215766E+04</pdfrwt>
<pdfrwt beam="2">  1       -1 0.72318854E-01 0.14215766E+04</pdfrwt>
<totfact> 0.24879906E+01</totfact>
</mgrwt>
</event>
<event>
12    2  0.3552864E-008  0.1918727E+04  0.7818608E-02  0.8645590E-01
          2   -1    0    0  501    0  0.00000000000E+00  0.00000000000E+00  0.18888907286E+04  0.18888907286E+04  0.00000000000E+00 0. -1.
         -2   -1    0    0    0  501 -0.00000000000E+00 -0.00000000000E+00 -0.48725872096E+03  0.48725872096E+03  0.00000000000E+00 0.  1.
         23    2    1    2    0    0 -0.44907315063E+03  0.44503810017E+02 -0.18492797479E+03  0.49620676909E+03  0.91517856733E+02 0.  0.
        254    2    1    2    0    0  0.44907315063E+03 -0.44503810017E+02  0.15865599825E+04  0.18799426805E+04  0.90186729638E+03 0.  0.
         23    2    4    4    0    0  0.45142529861E+03  0.21388722846E+03  0.35781835921E+03  0.62119157568E+03  0.91172631769E+02 0.  0.
         23    2    4    4    0    0 -0.23521479784E+01 -0.25839103847E+03  0.12287416233E+04  0.12587511048E+04  0.88751934075E+02 0.  0.
          4    1    3    3  502    0 -0.28088428922E+03  0.60775567386E+01 -0.15575187634E+03  0.32123444337E+03  0.00000000000E+00 0. -1.
         -4    1    3    3    0  502 -0.16818886142E+03  0.38426253278E+02 -0.29176098454E+02  0.17497232572E+03  0.00000000000E+00 0.  1.
         11    1    5    5    0    0  0.25205289080E+02  0.54926811827E+01 -0.18038354834E+01  0.25859813739E+02  0.00000000000E+00 0. -1.
        -11    1    5    5    0    0  0.42622000953E+03  0.20839454727E+03  0.35962219469E+03  0.59533176194E+03  0.00000000000E+00 0.  1.
          2    1    6    6  503    0 -0.18839460179E+02 -0.13978342416E+03  0.84714231365E+03  0.85880406992E+03  0.00000000000E+00 0.  1.
         -2    1    6    6    0  503  0.16487312201E+02 -0.11860761431E+03  0.38159930960E+03  0.39994703490E+03  0.00000000000E+00 0. -1.
<mgrwt>
<rscale>  0 0.19187272E+04</rscale>
<asrwt>0</asrwt>
<pdfrwt beam="1">  1        2 0.29059857E+00 0.19187272E+04</pdfrwt>
<pdfrwt beam="2">  1       -2 0.74962881E-01 0.19187272E+04</pdfrwt>
<totfact> 0.11512836E+01</totfact>
</mgrwt>
</event>
<event>
12    2  0.3552864E-008  0.1749704E+04  0.7818608E-02  0.8733513E-01
          2   -1    0    0  501    0  0.00000000000E+00  0.00000000000E+00  0.75181502593E+03  0.75181502593E+03  0.00000000000E+00 0. -1.
         -2   -1    0    0    0  501 -0.00000000000E+00 -0.00000000000E+00 -0.10180247742E+04  0.10180247742E+04  0.00000000000E+00 0.  1.
         23    2    1    2    0    0  0.41703035095E+03 -0.41061323328E+03 -0.36422018822E+03  0.69533538861E+03  0.91199869488E+02 0.  0.
        254    2    1    2    0    0 -0.41703035095E+03  0.41061323328E+03  0.98010439962E+02  0.10745044115E+04  0.89578800117E+03 0.  0.
         23    2    4    4    0    0 -0.47001971190E+03  0.61482699847E+03  0.22661822451E+03  0.81147666837E+03  0.90596887436E+02 0.  0.
         23    2    4    4    0    0  0.52989360943E+02 -0.20421376519E+03 -0.12860778455E+03  0.26302774313E+03  0.90180358973E+02 0.  0.
          4    1    3    3  502    0  0.34335675229E+03 -0.34419915610E+03 -0.25950056364E+03  0.55109659855E+03  0.00000000000E+00 0.  1.
         -4    1    3    3    0  502  0.73673598666E+02 -0.66414077177E+02 -0.10471962458E+03  0.14423879007E+03  0.00000000000E+00 0. -1.
         11    1    5    5    0    0 -0.23157632171E+03  0.27322172375E+03  0.14798876779E+03  0.38752855184E+03  0.00000000000E+00 0. -1.
        -11    1    5    5    0    0 -0.23844339019E+03  0.34160527472E+03  0.78629456722E+02  0.42394811653E+03  0.00000000000E+00 0.  1.
          4    1    6    6  503    0  0.32394370594E+02 -0.67357545348E+02 -0.94508084223E+02  0.12049154387E+03  0.00000000000E+00 0. -1.
         -4    1    6    6    0  503  0.20594990349E+02 -0.13685621984E+03 -0.34099700326E+02  0.14253619926E+03  0.00000000000E+00 0.  1.
<mgrwt>
<rscale>  0 0.17497043E+04</rscale>
<asrwt>0</asrwt>
<pdfrwt beam="1">  1        2 0.11566385E+00 0.17497043E+04</pdfrwt>
<pdfrwt beam="2">  1       -2 0.15661919E+00 0.17497043E+04</pdfrwt>
<totfact> 0.94530769E+00</totfact>
</mgrwt>
</event>
<event>
12    2  0.3552864E-008  0.1844391E+04  0.7818608E-02  0.8683043E-01
         -2   -1    0    0    0  501 -0.00000000000E+00  0.00000000000E+00  0.41809053184E+03  0.41809053184E+03  0.00000000000E+00 0.  1.
          2   -1    0    0  501    0  0.00000000000E+00 -0.00000000000E+00 -0.20341148937E+04  0.20341148937E+04  0.00000000000E+00 0. -1.
         23    2    1    2    0    0 -0.61982722701E+03 -0.24241966126E+03 -0.33526569282E+03  0.75084235528E+03  0.91695551594E+02 0.  0.
        254    2    1    2    0    0  0.61982722701E+03  0.24241966126E+03 -0.12807586691E+04  0.17013630703E+04  0.90074438385E+03 0.  0.
         23    2    4    4    0    0 -0.19921987896E+03  0.19223184804E+03 -0.38865784923E+03  0.48580713265E+03  0.91170185868E+02 0.  0.
         23    2    4    4    0    0  0.81904710598E+03  0.50187813224E+02 -0.89210081986E+03  0.12155559377E+04  0.91517137025E+02 0.  0.
          4    1    3    3  502    0 -0.27118472627E+03 -0.94246027753E+02 -0.19419333162E+03  0.34660426938E+03  0.00000000000E+00 0.  1.
         -4    1    3    3    0  502 -0.34864250075E+03 -0.14817363351E+03 -0.14107236120E+03  0.40423808590E+03  0.00000000000E+00 0. -1.
         11    1    5    5    0    0 -0.16862351905E+03  0.15865140114E+03 -0.37048333578E+03  0.43687762628E+03  0.00000000000E+00 0. -1.
        -11    1    5    5    0    0 -0.30596359910E+02  0.33580446902E+02 -0.18174513454E+02  0.48929506366E+02  0.00000000000E+00 0.  1.
          1    1    6    6  503    0  0.78154950133E+03  0.52240522387E+02 -0.81840810943E+03  0.11328462070E+04  0.00000000000E+00 0. -1.
         -1    1    6    6    0  503  0.37497604648E+02 -0.20527091631E+01 -0.73692710430E+02  0.82709730623E+02  0.00000000000E+00 0.  1.
<mgrwt>
<rscale>  0 0.18443906E+04</rscale>
<asrwt>0</asrwt>
<pdfrwt beam="1">  1        2 0.31294075E+00 0.18443906E+04</pdfrwt>
<pdfrwt beam="2">  1       -2 0.64321620E-01 0.18443906E+04</pdfrwt>
<totfact> 0.13433564E+01</totfact>
</mgrwt>
</event>
<event>
12    2  0.3552864E-008  0.1465472E+04  0.7818608E-02  0.8907744E-01
         -1   -1    0    0    0  501 -0.00000000000E+00  0.00000000000E+00  0.79067290398E+03  0.79067290398E+03  0.00000000000E+00 0.  1.
          1   -1    0    0  501    0  0.00000000000E+00 -0.00000000000E+00 -0.67904436945E+03  0.67904436945E+03  0.00000000000E+00 0. -1.
         23    2    1    2    0    0 -0.29548764079E+03 -0.33096432841E+03  0.13509022549E+03  0.47279713022E+03  0.91855455895E+02 0.  0.
        254    2    1    2    0    0  0.29548764079E+03  0.33096432841E+03 -0.23461690963E+02  0.99692014321E+03  0.89243990748E+03 0.  0.
         23    2    4    4    0    0 -0.30024514144E+03  0.71643148446E+02  0.81696212320E+02  0.33227907424E+03  0.91952304983E+02 0.  0.
         23    2    4    4    0    0  0.59573278223E+03  0.25932117996E+03 -0.10515790328E+03  0.66464106898E+03  0.92436701319E+02 0.  0.
          4    1    3    3  502    0  0.88012564680E+00 -0.25109184551E+02  0.18612257074E+02  0.31267585186E+02  0.00000000000E+00 0. -1.
         -4    1    3    3    0  502 -0.29636776644E+03 -0.30585514386E+03  0.11647796841E+03  0.44152954503E+03  0.00000000000E+00 0.  1.
         11    1    5    5    0    0 -0.22760974094E+03  0.89726269745E+02  0.80010357017E+02  0.25740756571E+03  0.00000000000E+00 0. -1.
        -11    1    5    5    0    0 -0.72635400498E+02 -0.18083121299E+02  0.16858553032E+01  0.74871508530E+02  0.00000000000E+00 0.  1.
          1    1    6    6  503    0  0.48210959657E+03  0.20277977876E+03 -0.12073729236E+03  0.53677443637E+03  0.00000000000E+00 0. -1.
         -1    1    6    6    0  503  0.11362318566E+03  0.56541401202E+02  0.15579389080E+02  0.12786663260E+03  0.00000000000E+00 0.  1.
<mgrwt>
<rscale>  0 0.14654719E+04</rscale>
<asrwt>0</asrwt>
<pdfrwt beam="1">  1        1 0.10446836E+00 0.14654719E+04</pdfrwt>
<pdfrwt beam="2">  1       -1 0.12164199E+00 0.14654719E+04</pdfrwt>
<totfact> 0.16573994E+01</totfact>
</mgrwt>
</event>
<event>
12    2  0.3552864E-008  0.2341107E+04  0.7818608E-02  0.8461887E-01
          2   -1    0    0  501    0  0.00000000000E+00  0.00000000000E+00  0.18050382574E+04  0.18050382574E+04  0.00000000000E+00 0. -1.
         -2   -1    0    0    0  501 -0.00000000000E+00 -0.00000000000E+00 -0.75909501380E+03  0.75909501380E+03  0.00000000000E+00 0.  1.
         23    2    1    2    0    0  0.41483192872E+03 -0.39020091108E+03 -0.44499136221E+03  0.72860596888E+03  0.92233753875E+02 0.  0.
        254    2    1    2    0    0 -0.41483192872E+03  0.39020091108E+03  0.14909346058E+04  0.18355273023E+04  0.90660476431E+03 0.  0.
         23    2    4    4    0    0  0.18235118716E+02 -0.23569407311E+03  0.16094204084E+03  0.30041395740E+03  0.91989073457E+02 0.  0.
         23    2    4    4    0    0 -0.43306704744E+03  0.62589498419E+03  0.13299925650E+04  0.15351133449E+04  0.91657842354E+02 0.  0.
          3    1    3    3  502    0  0.32982870474E+03 -0.27221509096E+03 -0.29392249055E+03  0.51892047625E+03  0.00000000000E+00 0. -1.
         -3    1    3    3    0  502  0.85003223980E+02 -0.11798582012E+03 -0.15106887166E+03  0.20968549264E+03  0.00000000000E+00 0.  1.
         11    1    5    5    0    0 -0.31076076987E+02 -0.15515624502E+03  0.87781479143E+02  0.18095516298E+03  0.00000000000E+00 0. -1.
        -11    1    5    5    0    0  0.49311195702E+02 -0.80537828089E+02  0.73160561696E+02  0.11945879441E+03  0.00000000000E+00 0.  1.
          3    1    6    6  503    0 -0.12447461039E+02  0.54841107025E+02  0.12124560862E+03  0.13365247441E+03  0.00000000000E+00 0. -1.
         -3    1    6    6    0  503 -0.42061958640E+03  0.57105387717E+03  0.12087469563E+04  0.14014608705E+04  0.00000000000E+00 0.  1.
<mgrwt>
<rscale>  0 0.23411070E+04</rscale>
<asrwt>0</asrwt>
<pdfrwt beam="1">  1        2 0.27769819E+00 0.23411070E+04</pdfrwt>
<pdfrwt beam="2">  1       -2 0.11678385E+00 0.23411070E+04</pdfrwt>
<totfact> 0.43992488E+00</totfact>
</mgrwt>
</event>
<event>
12    2  0.3552864E-008  0.1043638E+04  0.7818608E-02  0.9261937E-01
         -1   -1    0    0    0  501 -0.00000000000E+00  0.00000000000E+00  0.43053402015E+03  0.43053402015E+03  0.00000000000E+00 0.  1.
          1   -1    0    0  501    0  0.00000000000E+00 -0.00000000000E+00 -0.63245852116E+03  0.63245852116E+03  0.00000000000E+00 0. -1.
         23    2    1    2    0    0 -0.58056760654E+00  0.23167778964E+02  0.75211026372E+02  0.11962410647E+03  0.90089651572E+02 0.  0.
        254    2    1    2    0    0  0.58056760654E+00 -0.23167778964E+02 -0.27713552738E+03  0.94336843484E+03  0.90144485149E+03 0.  0.
         23    2    4    4    0    0  0.76738927257E+02 -0.17396406388E+03  0.28145157000E+03  0.35248995802E+03  0.94243438888E+02 0.  0.
         23    2    4    4    0    0 -0.76158359651E+02  0.15079628492E+03 -0.55858709737E+03  0.59087847682E+03  0.92618646767E+02 0.  0.
          4    1    3    3  502    0  0.31048142362E+02 -0.20363613689E+02  0.18629080784E+02  0.41541624396E+02  0.00000000000E+00 0. -1.
         -4    1    3    3    0  502 -0.31628709969E+02  0.43531392653E+02  0.56581945588E+02  0.78082482076E+02  0.00000000000E+00 0.  1.
         11    1    5    5    0    0  0.52993315133E+02 -0.21473731885E+02  0.89285258905E+02  0.10602485589E+03  0.00000000000E+00 0. -1.
        -11    1    5    5    0    0  0.23745612124E+02 -0.15249033200E+03  0.19216631109E+03  0.24646510213E+03  0.00000000000E+00 0.  1.
          1    1    6    6  503    0 -0.51571205225E+02  0.80442981814E+02 -0.16825303557E+03  0.19349353092E+03  0.00000000000E+00 0. -1.
         -1    1    6    6    0  503 -0.24587154426E+02  0.70353303103E+02 -0.39033406181E+03  0.39738494590E+03  0.00000000000E+00 0.  1.
<mgrwt>
<rscale>  0 0.10436377E+04</rscale>
<asrwt>0</asrwt>
<pdfrwt beam="1">  1        1 0.97301311E-01 0.10436377E+04</pdfrwt>
<pdfrwt beam="2">  1       -1 0.66236003E-01 0.10436377E+04</pdfrwt>
<totfact> 0.73280668E+01</totfact>
</mgrwt>
</event>
<event>
12    2  0.3552864E-008  0.1462174E+04  0.7818608E-02  0.8910004E-01
          1   -1    0    0  501    0  0.00000000000E+00  0.00000000000E+00  0.74842707523E+03  0.74842707523E+03  0.00000000000E+00 0. -1.
         -1   -1    0    0    0  501 -0.00000000000E+00 -0.00000000000E+00 -0.71414829211E+03  0.71414829211E+03  0.00000000000E+00 0.  1.
         23    2    1    2    0    0 -0.36254517688E+03 -0.17115840398E+03  0.20796991779E+03  0.46056538066E+03  0.90193007624E+02 0.  0.
        254    2    1    2    0    0  0.36254517688E+03  0.17115840398E+03 -0.17369113467E+03  0.10020099867E+04  0.90173233202E+03 0.  0.
         23    2    4    4    0    0  0.43787735298E+03 -0.13458075853E+03  0.19693816967E+03  0.50707085771E+03  0.92128471418E+02 0.  0.
         23    2    4    4    0    0 -0.75332176101E+02  0.30573916252E+03 -0.37062930434E+03  0.49493912897E+03  0.91909128494E+02 0.  0.
          1    1    3    3  502    0 -0.31346715566E+03 -0.13840880600E+03  0.13895187196E+03  0.36976516599E+03  0.00000000000E+00 0. -1.
         -1    1    3    3    0  502 -0.49078021222E+02 -0.32749597980E+02  0.69018045827E+02  0.90800214673E+02  0.00000000000E+00 0.  1.
         11    1    5    5    0    0  0.41255356072E+03 -0.12446792663E+03  0.20692928930E+03  0.47802974383E+03  0.00000000000E+00 0.  1.
        -11    1    5    5    0    0  0.25323792266E+02 -0.10112831902E+02 -0.99911196307E+01  0.29041113878E+02  0.00000000000E+00 0. -1.
          1    1    6    6  503    0 -0.53552614885E+02  0.87366418702E+02 -0.76099377903E+02  0.12763968425E+03  0.00000000000E+00 0. -1.
         -1    1    6    6    0  503 -0.21779561216E+02  0.21837274381E+03 -0.29452992643E+03  0.36729944472E+03  0.00000000000E+00 0.  1.
<mgrwt>
<rscale>  0 0.14621736E+04</rscale>
<asrwt>0</asrwt>
<pdfrwt beam="1">  1        1 0.11514263E+00 0.14621736E+04</pdfrwt>
<pdfrwt beam="2">  1       -1 0.10986897E+00 0.14621736E+04</pdfrwt>
<totfact> 0.18254898E+01</totfact>
</mgrwt>
</event>
<event>
12    2  0.3552864E-008  0.1900264E+04  0.7818608E-02  0.8654725E-01
         -1   -1    0    0    0  501 -0.00000000000E+00  0.00000000000E+00  0.87850489074E+03  0.87850489074E+03  0.00000000000E+00 0.  1.
          1   -1    0    0  501    0  0.00000000000E+00 -0.00000000000E+00 -0.10275995341E+04  0.10275995341E+04  0.00000000000E+00 0. -1.
         23    2    1    2    0    0 -0.14819663863E+03  0.31413479872E+03 -0.70978550778E+03  0.79538958678E+03  0.90588146200E+02 0.  0.
        254    2    1    2    0    0  0.14819663863E+03 -0.31413479872E+03  0.56069086443E+03  0.11107148381E+04  0.89368355169E+03 0.  0.
         23    2    4    4    0    0  0.48384602147E-02 -0.15964646530E+02  0.72309310474E+03  0.72892826884E+03  0.90652705595E+02 0.  0.
         23    2    4    4    0    0  0.14819180017E+03 -0.29817015219E+03 -0.16240224031E+03  0.38178656921E+03  0.92305186622E+02 0.  0.
          3    1    3    3  502    0 -0.11329202528E+03  0.23643293606E+03 -0.61147151278E+03  0.66530671663E+03  0.00000000000E+00 0. -1.
         -3    1    3    3    0  502 -0.34904613351E+02  0.77701862661E+02 -0.98313994999E+02  0.13008287015E+03  0.00000000000E+00 0.  1.
         11    1    5    5    0    0 -0.66860575483E+01 -0.28716319036E+02  0.70583812387E+03  0.70645366972E+03  0.00000000000E+00 0.  1.
        -11    1    5    5    0    0  0.66908960085E+01  0.12751672506E+02  0.17254980869E+02  0.22474599126E+02  0.00000000000E+00 0. -1.
          4    1    6    6  503    0 -0.35718118253E+01 -0.35057220135E+02  0.39715356260E+01  0.35461805066E+02  0.00000000000E+00 0. -1.
         -4    1    6    6    0  503  0.15176361200E+03 -0.26311293205E+03 -0.16637377594E+03  0.34632476415E+03  0.00000000000E+00 0.  1.
<mgrwt>
<rscale>  0 0.19002644E+04</rscale>
<asrwt>0</asrwt>
<pdfrwt beam="1">  1        1 0.15809224E+00 0.19002644E+04</pdfrwt>
<pdfrwt beam="2">  1       -1 0.13515460E+00 0.19002644E+04</pdfrwt>
<totfact> 0.61888280E+00</totfact>
</mgrwt>
</event>
<event>
12    2  0.3552864E-008  0.1209062E+04  0.7818608E-02  0.9104962E-01
          1   -1    0    0  501    0  0.00000000000E+00  0.00000000000E+00  0.19343451426E+03  0.19343451426E+03  0.00000000000E+00 0. -1.
         -1   -1    0    0    0  501 -0.00000000000E+00 -0.00000000000E+00 -0.18893090885E+04  0.18893090885E+04  0.00000000000E+00 0.  1.
         23    2    1    2    0    0 -0.41081664765E+02 -0.13400992708E+03 -0.73947033396E+03  0.76083982354E+03  0.11142036859E+03 0.  0.
        254    2    1    2    0    0  0.41081664765E+02  0.13400992708E+03 -0.95640424031E+03  0.13219037793E+04  0.90170625315E+03 0.  0.
         23    2    4    4    0    0  0.50868622815E+02  0.34710003038E+03 -0.10194097248E+04  0.10817369320E+04  0.88840054093E+02 0.  0.
         23    2    4    4    0    0 -0.97869580492E+01 -0.21309010330E+03  0.63005484512E+02  0.24016684720E+03  0.90593856003E+02 0.  0.
          3    1    3    3  502    0 -0.25126171716E+01 -0.53226885256E+02 -0.85320185977E+02  0.10059298531E+03  0.00000000000E+00 0. -1.
         -3    1    3    3    0  502 -0.38569047594E+02 -0.80783041824E+02 -0.65415014798E+03  0.66024683822E+03  0.00000000000E+00 0.  1.
         11    1    5    5    0    0  0.71246957605E+02  0.29120806337E+03 -0.79741273148E+03  0.85190687840E+03  0.00000000000E+00 0. -1.
        -11    1    5    5    0    0 -0.20378334791E+02  0.55891967007E+02 -0.22199699334E+03  0.22983005365E+03  0.00000000000E+00 0.  1.
          4    1    6    6  503    0  0.11993657068E+02 -0.16203128237E+03  0.81351769915E+02  0.18170331517E+03  0.00000000000E+00 0. -1.
         -4    1    6    6    0  503 -0.21780615117E+02 -0.51058820931E+02 -0.18346285403E+02  0.58463532033E+02  0.00000000000E+00 0.  1.
<mgrwt>
<rscale>  0 0.12090618E+04</rscale>
<asrwt>0</asrwt>
<pdfrwt beam="1">  1        1 0.29759156E-01 0.12090618E+04</pdfrwt>
<pdfrwt beam="2">  1       -1 0.29066293E+00 0.12090618E+04</pdfrwt>
<totfact> 0.58677097E+00</totfact>
</mgrwt>
</event>
<event>
12    2  0.3552864E-008  0.1492614E+04  0.7818608E-02  0.8889379E-01
          1   -1    0    0  501    0  0.00000000000E+00  0.00000000000E+00  0.15237429026E+04  0.15237429026E+04  0.00000000000E+00 0. -1.
         -1   -1    0    0    0  501 -0.00000000000E+00 -0.00000000000E+00 -0.36553043451E+03  0.36553043451E+03  0.00000000000E+00 0.  1.
         23    2    1    2    0    0 -0.43780941524E+02  0.32913116855E+03 -0.48918434551E+02  0.34798078845E+03  0.91943020082E+02 0.  0.
        254    2    1    2    0    0  0.43780941524E+02 -0.32913116855E+03  0.12071309027E+04  0.15412925487E+04  0.89898476490E+03 0.  0.
         23    2    4    4    0    0 -0.27462346127E+02 -0.43648536892E+03  0.14819510858E+03  0.47060822321E+03  0.90756001530E+02 0.  0.
         23    2    4    4    0    0  0.71243287652E+02  0.10735420037E+03  0.10589357941E+04  0.10706843255E+04  0.91757171203E+02 0.  0.
          1    1    3    3  502    0 -0.20454901599E+02  0.31798923613E+03 -0.46419291851E+02  0.32200979481E+03  0.00000000000E+00 0. -1.
         -1    1    3    3    0  502 -0.23326039926E+02  0.11141932412E+02 -0.24991427001E+01  0.25970993642E+02  0.00000000000E+00 0.  1.
         11    1    5    5    0    0  0.65655976395E+01 -0.38402810633E+03  0.12997903338E+03  0.40548149482E+03  0.00000000000E+00 0. -1.
        -11    1    5    5    0    0 -0.34027943767E+02 -0.52457262584E+02  0.18216075202E+02  0.65126728389E+02  0.00000000000E+00 0.  1.
          4    1    6    6  503    0  0.20506386501E+02 -0.14695078490E+02  0.13427061120E+03  0.13662010925E+03  0.00000000000E+00 0.  1.
         -4    1    6    6    0  503  0.50736901151E+02  0.12204927886E+03  0.92466518287E+03  0.93406421622E+03  0.00000000000E+00 0. -1.
<mgrwt>
<rscale>  0 0.14926144E+04</rscale>
<asrwt>0</asrwt>
<pdfrwt beam="1">  1        1 0.23442198E+00 0.14926144E+04</pdfrwt>
<pdfrwt beam="2">  1       -1 0.56235452E-01 0.14926144E+04</pdfrwt>
<totfact> 0.19504970E+01</totfact>
</mgrwt>
</event>
<event>
12    2  0.3552864E-008  0.1670371E+04  0.7818608E-02  0.8778446E-01
          2   -1    0    0  501    0  0.00000000000E+00  0.00000000000E+00  0.96842299873E+03  0.96842299873E+03  0.00000000000E+00 0. -1.
         -2   -1    0    0    0  501 -0.00000000000E+00 -0.00000000000E+00 -0.72027915803E+03  0.72027915803E+03  0.00000000000E+00 0.  1.
         23    2    1    2    0    0 -0.42743111941E+03  0.13120218865E+03  0.47705379880E+03  0.66118535722E+03  0.98358393162E+02 0.  0.
        254    2    1    2    0    0  0.42743111941E+03 -0.13120218865E+03 -0.22890995810E+03  0.10275167995E+04  0.89637025177E+03 0.  0.
         23    2    4    4    0    0  0.56618149666E+03 -0.36954169431E+03 -0.46757913709E+02  0.68442459790E+03  0.95541492157E+02 0.  0.
         23    2    4    4    0    0 -0.13875037725E+03  0.23833950566E+03 -0.18215204439E+03  0.34309220164E+03  0.92062502705E+02 0.  0.
          1    1    3    3  502    0 -0.42215460342E+03  0.12176213537E+03  0.43695302168E+03  0.61965189417E+03  0.00000000000E+00 0. -1.
         -1    1    3    3    0  502 -0.52765159916E+01  0.94400532848E+01  0.40100777123E+02  0.41533463049E+02  0.00000000000E+00 0.  1.
         11    1    5    5    0    0  0.45962770306E+03 -0.34077872888E+03 -0.31968611214E+02  0.57307046651E+03  0.00000000000E+00 0. -1.
        -11    1    5    5    0    0  0.10655379359E+03 -0.28762965430E+02 -0.14789302495E+02  0.11135413139E+03  0.00000000000E+00 0.  1.
          1    1    6    6  503    0 -0.14836113458E+03  0.19847959901E+03 -0.16933851141E+03  0.30013448472E+03  0.00000000000E+00 0. -1.
         -1    1    6    6    0  503  0.96107573313E+01  0.39859906653E+02 -0.12813532985E+02  0.42957716913E+02  0.00000000000E+00 0.  1.
<mgrwt>
<rscale>  0 0.16703711E+04</rscale>
<asrwt>0</asrwt>
<pdfrwt beam="1">  1        2 0.14898815E+00 0.16703711E+04</pdfrwt>
<pdfrwt beam="2">  1       -2 0.11081218E+00 0.16703711E+04</pdfrwt>
<totfact> 0.16255164E+01</totfact>
</mgrwt>
</event>
<event>
12    2  0.3552864E-008  0.1118311E+04  0.7818608E-02  0.9187527E-01
         -2   -1    0    0    0  501 -0.00000000000E+00  0.00000000000E+00  0.82938013727E+03  0.82938013727E+03  0.00000000000E+00 0.  1.
          2   -1    0    0  501    0  0.00000000000E+00 -0.00000000000E+00 -0.37697387438E+03  0.37697387438E+03  0.00000000000E+00 0. -1.
         23    2    1    2    0    0  0.15837854638E+03 -0.59012254416E+02  0.27231021622E+02  0.19441689960E+03  0.92142238896E+02 0.  0.
        254    2    1    2    0    0 -0.15837854638E+03  0.59012254416E+02  0.42517524126E+03  0.10119371120E+04  0.90259432905E+03 0.  0.
         23    2    4    4    0    0  0.13735498865E+03 -0.31163170685E+03 -0.21569263008E+02  0.35371546775E+03  0.93105775323E+02 0.  0.
         23    2    4    4    0    0 -0.29573353503E+03  0.37064396126E+03  0.44674450427E+03  0.65822164430E+03  0.94020269977E+02 0.  0.
          4    1    3    3  502    0  0.88385731587E+02  0.45779855341E+01 -0.16829792126E+02  0.90090162630E+02  0.00000000000E+00 0. -1.
         -4    1    3    3    0  502  0.69992814789E+02 -0.63590239950E+02  0.44060813748E+02  0.10432673697E+03  0.00000000000E+00 0.  1.
         11    1    5    5    0    0  0.48766938923E+01 -0.96415496793E+02 -0.29262208778E+02  0.10087619654E+03  0.00000000000E+00 0.  1.
        -11    1    5    5    0    0  0.13247829476E+03 -0.21521621005E+03  0.76929457702E+01  0.25283927121E+03  0.00000000000E+00 0. -1.
          2    1    6    6  503    0 -0.24664194275E+03  0.24132287126E+03  0.31695609637E+03  0.46854043917E+03  0.00000000000E+00 0. -1.
         -2    1    6    6    0  503 -0.49091592283E+02  0.12932109000E+03  0.12978840790E+03  0.18968120513E+03  0.00000000000E+00 0.  1.
<mgrwt>
<rscale>  0 0.11183106E+04</rscale>
<asrwt>0</asrwt>
<pdfrwt beam="1">  1        2 0.57995981E-01 0.11183106E+04</pdfrwt>
<pdfrwt beam="2">  1       -2 0.12759694E+00 0.11183106E+04</pdfrwt>
<totfact> 0.38365177E+01</totfact>
</mgrwt>
</event>
<event>
12    2  0.3552864E-008  0.2239456E+04  0.7818608E-02  0.8502183E-01
          1   -1    0    0  501    0  0.00000000000E+00  0.00000000000E+00  0.16750814022E+04  0.16750814022E+04  0.00000000000E+00 0. -1.
         -1   -1    0    0    0  501 -0.00000000000E+00 -0.00000000000E+00 -0.74849529997E+03  0.74849529997E+03  0.00000000000E+00 0.  1.
         23    2    1    2    0    0  0.31562433849E+03  0.26851788247E+03 -0.52207659515E+03  0.67311887450E+03  0.93832146701E+02 0.  0.
        254    2    1    2    0    0 -0.31562433849E+03 -0.26851788247E+03  0.14486626974E+04  0.17504578277E+04  0.89093120916E+03 0.  0.
         23    2    4    4    0    0  0.23911960714E+03  0.27213982442E+02  0.80669220507E+03  0.84724939617E+03  0.95710178333E+02 0.  0.
         23    2    4    4    0    0 -0.55474394563E+03 -0.29573186491E+03  0.64197049236E+03  0.90320843155E+03  0.91984654313E+02 0.  0.
          4    1    3    3  502    0  0.24462885979E+03  0.19109442042E+03 -0.32273370356E+03  0.44779169261E+03  0.00000000000E+00 0. -1.
         -4    1    3    3    0  502  0.70995478700E+02  0.77423462047E+02 -0.19934289159E+03  0.22532718189E+03  0.00000000000E+00 0.  1.
         11    1    5    5    0    0  0.77636155190E+02 -0.33205609170E+02  0.21634423051E+03  0.23223869433E+03  0.00000000000E+00 0.  1.
        -11    1    5    5    0    0  0.16148345195E+03  0.60419591612E+02  0.59034797456E+03  0.61501070183E+03  0.00000000000E+00 0. -1.
          2    1    6    6  503    0 -0.47332208052E+03 -0.21240933066E+03  0.52833922474E+03  0.74046867054E+03  0.00000000000E+00 0. -1.
         -2    1    6    6    0  503 -0.81421865114E+02 -0.83322534251E+02  0.11363126762E+03  0.16273976101E+03  0.00000000000E+00 0.  1.
<mgrwt>
<rscale>  0 0.22394558E+04</rscale>
<asrwt>0</asrwt>
<pdfrwt beam="1">  1        1 0.25770483E+00 0.22394558E+04</pdfrwt>
<pdfrwt beam="2">  1       -1 0.11515312E+00 0.22394558E+04</pdfrwt>
<totfact> 0.30811673E+00</totfact>
</mgrwt>
</event>
<event>
12    2  0.3552864E-008  0.2144122E+04  0.7818608E-02  0.8542052E-01
         -2   -1    0    0    0  501 -0.00000000000E+00  0.00000000000E+00  0.44873395050E+03  0.44873395050E+03  0.00000000000E+00 0.  1.
          2   -1    0    0  501    0  0.00000000000E+00 -0.00000000000E+00 -0.25612395281E+04  0.25612395281E+04  0.00000000000E+00 0. -1.
         23    2    1    2    0    0 -0.46798830337E+03  0.14293784411E+02 -0.19243778779E+04  0.19828273603E+04  0.95690957718E+02 0.  0.
        254    2    1    2    0    0  0.46798830337E+03 -0.14293784411E+02 -0.18812769969E+03  0.10271461183E+04  0.89466180904E+03 0.  0.
         23    2    4    4    0    0  0.51720660703E+03  0.78881031628E+02  0.23580038199E+03  0.58098381185E+03  0.90639273971E+02 0.  0.
         23    2    4    4    0    0 -0.49218303653E+02 -0.93174816039E+02 -0.42392808167E+03  0.44616230644E+03  0.90784346118E+02 0.  0.
          3    1    3    3  502    0 -0.42724449370E+03  0.14580083078E+02 -0.18415847163E+04  0.18905514284E+04  0.00000000000E+00 0. -1.
         -3    1    3    3    0  502 -0.40743809670E+02 -0.28629866651E+00 -0.82793161633E+02  0.92275931892E+02  0.00000000000E+00 0.  1.
         11    1    5    5    0    0  0.24383816584E+03  0.81306699084E+02  0.10088742019E+03  0.27612696716E+03  0.00000000000E+00 0.  1.
        -11    1    5    5    0    0  0.27336844118E+03 -0.24256674564E+01  0.13491296179E+03  0.30485684469E+03  0.00000000000E+00 0. -1.
          4    1    6    6  503    0 -0.38626381793E+02 -0.98119218379E+02 -0.24344914778E+03  0.26530523164E+03  0.00000000000E+00 0.  1.
         -4    1    6    6    0  503 -0.10591921860E+02  0.49444023399E+01 -0.18047893390E+03  0.18085707480E+03  0.00000000000E+00 0. -1.
<mgrwt>
<rscale>  0 0.21441223E+04</rscale>
<asrwt>0</asrwt>
<pdfrwt beam="1">  1        2 0.39403684E+00 0.21441223E+04</pdfrwt>
<pdfrwt beam="2">  1       -2 0.69035995E-01 0.21441223E+04</pdfrwt>
<totfact> 0.56435871E+00</totfact>
</mgrwt>
</event>
<event>
12    2  0.3552864E-008  0.1148710E+04  0.7818608E-02  0.9158975E-01
          1   -1    0    0  501    0  0.00000000000E+00  0.00000000000E+00  0.42188186766E+03  0.42188186766E+03  0.00000000000E+00 0. -1.
         -1   -1    0    0    0  501 -0.00000000000E+00 -0.00000000000E+00 -0.78193359254E+03  0.78193359254E+03  0.00000000000E+00 0.  1.
         23    2    1    2    0    0 -0.68784882357E+02  0.13904344522E+03 -0.23958277629E+03  0.29889709570E+03  0.88741914681E+02 0.  0.
        254    2    1    2    0    0  0.68784882357E+02 -0.13904344522E+03 -0.12046894859E+03  0.90491836450E+03  0.88334593401E+03 0.  0.
         23    2    4    4    0    0  0.30322941473E+03 -0.32571241455E+03  0.16308042052E+03  0.48259779870E+03  0.90932704830E+02 0.  0.
         23    2    4    4    0    0 -0.23444453237E+03  0.18666896933E+03 -0.28354936911E+03  0.42232056580E+03  0.90248948505E+02 0.  0.
          2    1    3    3  502    0 -0.38538582740E+02  0.59141820940E+02 -0.38475703692E+02  0.80395006799E+02  0.00000000000E+00 0. -1.
         -2    1    3    3    0  502 -0.30246299617E+02  0.79901624280E+02 -0.20110707260E+03  0.21850208890E+03  0.00000000000E+00 0.  1.
         11    1    5    5    0    0  0.14914552910E+02 -0.42510971396E+01 -0.88027030525E+01  0.17832646927E+02  0.00000000000E+00 0.  1.
        -11    1    5    5    0    0  0.28831486182E+03 -0.32146131741E+03  0.17188312357E+03  0.46476515178E+03  0.00000000000E+00 0. -1.
          3    1    6    6  503    0 -0.21301782712E+03  0.19483336340E+03 -0.25122027831E+03  0.38268559210E+03  0.00000000000E+00 0. -1.
         -3    1    6    6    0  503 -0.21426705247E+02 -0.81643940721E+01 -0.32329090797E+02  0.39634973698E+02  0.00000000000E+00 0.  1.
<mgrwt>
<rscale>  0 0.11487099E+04</rscale>
<asrwt>0</asrwt>
<pdfrwt beam="1">  1        1 0.64904904E-01 0.11487099E+04</pdfrwt>
<pdfrwt beam="2">  1       -1 0.12029747E+00 0.11487099E+04</pdfrwt>
<totfact> 0.34156933E+01</totfact>
</mgrwt>
</event>
<event>
12    2  0.3552864E-008  0.3500755E+04  0.7818608E-02  0.8113611E-01
         -2   -1    0    0    0  501 -0.00000000000E+00  0.00000000000E+00  0.12101781792E+04  0.12101781792E+04  0.00000000000E+00 0. -1.
          2   -1    0    0  501    0  0.00000000000E+00 -0.00000000000E+00 -0.25317114433E+04  0.25317114433E+04  0.00000000000E+00 0.  1.
         23    2    1    2    0    0 -0.53568166968E+03  0.12926175912E+04  0.28223726015E+03  0.14304145317E+04  0.92805028608E+02 0.  0.
        254    2    1    2    0    0  0.53568166968E+03 -0.12926175912E+04 -0.16037705242E+04  0.23114750907E+04  0.90167738828E+03 0.  0.
         23    2    4    4    0    0  0.46535091379E+03 -0.13688842645E+03 -0.60465572234E+03  0.77942319792E+03  0.81253090025E+02 0.  0.
         23    2    4    4    0    0  0.70330755893E+02 -0.11557291647E+04 -0.99911480187E+03  0.15320518928E+04  0.91084013697E+02 0.  0.
          4    1    3    3  502    0 -0.35328732629E+03  0.88039420796E+03  0.23400349081E+03  0.97706884611E+03  0.00000000000E+00 0. -1.
         -4    1    3    3    0  502 -0.18239434339E+03  0.41222338322E+03  0.48233769338E+02  0.45334568563E+03  0.00000000000E+00 0.  1.
         11    1    5    5    0    0  0.18532557231E+03 -0.19855724633E+02 -0.19702662102E+03  0.27121819066E+03  0.00000000000E+00 0. -1.
        -11    1    5    5    0    0  0.28002534148E+03 -0.11703270181E+03 -0.40762910132E+03  0.50820500726E+03  0.00000000000E+00 0.  1.
          2    1    6    6  503    0  0.45571183951E+02 -0.19428799517E+03 -0.16333336168E+03  0.25788048571E+03  0.00000000000E+00 0. -1.
         -2    1    6    6    0  503  0.24759571941E+02 -0.96144116956E+03 -0.83578144019E+03  0.12741714071E+04  0.00000000000E+00 0.  1.
<mgrwt>
<rscale>  0 0.35007553E+04</rscale>
<asrwt>0</asrwt>
<pdfrwt beam="1">  1        2 0.38949406E+00 0.35007553E+04</pdfrwt>
<pdfrwt beam="2">  1       -2 0.18618126E+00 0.35007553E+04</pdfrwt>
<totfact> 0.45085260E-01</totfact>
</mgrwt>
</event>
<event>
12    2  0.3552864E-008  0.3061168E+04  0.7818608E-02  0.8226476E-01
          1   -1    0    0  501    0  0.00000000000E+00  0.00000000000E+00  0.24477659260E+04  0.24477659260E+04  0.00000000000E+00 0. -1.
         -1   -1    0    0    0  501 -0.00000000000E+00 -0.00000000000E+00 -0.95707178983E+03  0.95707178983E+03  0.00000000000E+00 0.  1.
         23    2    1    2    0    0  0.11167947748E+04  0.83771431442E+03  0.61127580214E+03  0.15267413166E+04  0.91022525373E+02 0.  0.
        254    2    1    2    0    0 -0.11167947748E+04 -0.83771431442E+03  0.87941833408E+03  0.18780963992E+04  0.89714750014E+03 0.  0.
         23    2    4    4    0    0  0.10423099016E+03 -0.23038260879E+03  0.27170950045E+03  0.38241507222E+03  0.92059703920E+02 0.  0.
         23    2    4    4    0    0 -0.12210257649E+04 -0.60733170564E+03  0.60770883364E+03  0.14956813270E+04  0.89425311107E+02 0.  0.
          1    1    3    3  502    0  0.74252214275E+03  0.57812820642E+03  0.36876974305E+03  0.10107237402E+04  0.00000000000E+00 0. -1.
         -1    1    3    3    0  502  0.37427263201E+03  0.25958610801E+03  0.24250605908E+03  0.51601757648E+03  0.00000000000E+00 0.  1.
         11    1    5    5    0    0  0.88797499999E+02 -0.22349280944E+03  0.27486783630E+03  0.36522097326E+03  0.00000000000E+00 0. -1.
        -11    1    5    5    0    0  0.15433490160E+02 -0.68897993426E+01 -0.31583358536E+01  0.17194098954E+02  0.00000000000E+00 0.  1.
          1    1    6    6  503    0 -0.78446493449E+03 -0.38193534147E+03  0.34213885064E+03  0.93718665784E+03  0.00000000000E+00 0. -1.
         -1    1    6    6    0  503 -0.43656083042E+03 -0.22539636417E+03  0.26556998300E+03  0.55849466919E+03  0.00000000000E+00 0.  1.
<mgrwt>
<rscale>  0 0.30611682E+04</rscale>
<asrwt>0</asrwt>
<pdfrwt beam="1">  1        1 0.37657937E+00 0.30611682E+04</pdfrwt>
<pdfrwt beam="2">  1       -1 0.14724181E+00 0.30611682E+04</pdfrwt>
<totfact> 0.45706159E-01</totfact>
</mgrwt>
</event>
<event>
12    2  0.3552864E-008  0.1599211E+04  0.7818608E-02  0.8821033E-01
          2   -1    0    0  501    0  0.00000000000E+00  0.00000000000E+00  0.19472515083E+04  0.19472515083E+04  0.00000000000E+00 0. -1.
         -2   -1    0    0    0  501 -0.00000000000E+00 -0.00000000000E+00 -0.32834416081E+03  0.32834416081E+03  0.00000000000E+00 0.  1.
         23    2    1    2    0    0 -0.11360861571E+03  0.50909362698E+03  0.75366572999E+03  0.92115072612E+03  0.91779023087E+02 0.  0.
        254    2    1    2    0    0  0.11360861571E+03 -0.50909362698E+03  0.86524161754E+03  0.13544449430E+04  0.90210576340E+03 0.  0.
         23    2    4    4    0    0  0.81687472292E+02 -0.46959560080E+02 -0.17134952798E+03  0.21587811759E+03  0.91458501538E+02 0.  0.
         23    2    4    4    0    0  0.31921143415E+02 -0.46213406690E+03  0.10365911455E+04  0.11385668254E+04  0.85007986818E+02 0.  0.
          2    1    3    3  502    0 -0.27288837913E+02  0.81177497319E+02  0.18835001972E+03  0.20690625093E+03  0.00000000000E+00 0. -1.
         -2    1    3    3    0  502 -0.86319777795E+02  0.42791612966E+03  0.56531571027E+03  0.71424447519E+03  0.00000000000E+00 0.  1.
         11    1    5    5    0    0  0.93614613993E+02 -0.16209491284E+02 -0.14638338761E+03  0.17451229106E+03  0.00000000000E+00 0. -1.
        -11    1    5    5    0    0 -0.11927141701E+02 -0.30750068795E+02 -0.24966140365E+02  0.41365826533E+02  0.00000000000E+00 0.  1.
          1    1    6    6  503    0 -0.10497108046E+02 -0.36213563679E+03  0.78978456289E+03  0.86891430215E+03  0.00000000000E+00 0. -1.
         -1    1    6    6    0  503  0.42418251461E+02 -0.99998430117E+02  0.24680658262E+03  0.26965252328E+03  0.00000000000E+00 0.  1.
<mgrwt>
<rscale>  0 0.15992106E+04</rscale>
<asrwt>0</asrwt>
<pdfrwt beam="1">  1        2 0.29957715E+00 0.15992106E+04</pdfrwt>
<pdfrwt beam="2">  1       -2 0.50514487E-01 0.15992106E+04</pdfrwt>
<totfact> 0.25406713E+01</totfact>
</mgrwt>
</event>
<event>
12    2  0.3552864E-008  0.2389231E+04  0.7818608E-02  0.8443546E-01
         -2   -1    0    0    0  501 -0.00000000000E+00  0.00000000000E+00  0.61501402215E+03  0.61501402215E+03  0.00000000000E+00 0.  1.
          2   -1    0    0  501    0  0.00000000000E+00 -0.00000000000E+00 -0.23204453297E+04  0.23204453297E+04  0.00000000000E+00 0. -1.
         23    2    1    2    0    0  0.13891249451E+03  0.20676867273E+03  0.48671713618E+03  0.55456746518E+03  0.92744474936E+02 0.  0.
        254    2    1    2    0    0 -0.13891249451E+03 -0.20676867273E+03 -0.21921484438E+04  0.23808918867E+04  0.89503151429E+03 0.  0.
         23    2    4    4    0    0  0.27712524199E+03  0.14809114581E+03 -0.47822397847E+03  0.57950943076E+03  0.91671257988E+02 0.  0.
         23    2    4    4    0    0 -0.41603773650E+03 -0.35485981854E+03 -0.17139244653E+04  0.18013824560E+04  0.91808446565E+02 0.  0.
          3    1    3    3  502    0  0.43866937408E+01  0.31199327291E+02  0.18003298257E+02  0.36287185803E+02  0.00000000000E+00 0. -1.
         -3    1    3    3    0  502  0.13452580077E+03  0.17556934544E+03  0.46871383792E+03  0.51828027938E+03  0.00000000000E+00 0.  1.
         11    1    5    5    0    0  0.35820949508E+02 -0.99064835890E+01 -0.75518542071E+02  0.84168456308E+02  0.00000000000E+00 0.  1.
        -11    1    5    5    0    0  0.24130429249E+03  0.15799762940E+03 -0.40270543640E+03  0.49534097445E+03  0.00000000000E+00 0. -1.
          1    1    6    6  503    0 -0.11685397781E+03 -0.15560838207E+03 -0.56911392596E+03  0.60146444735E+03  0.00000000000E+00 0.  1.
         -1    1    6    6    0  503 -0.29918375869E+03 -0.19925143648E+03 -0.11448105393E+04  0.11999180086E+04  0.00000000000E+00 0. -1.
<mgrwt>
<rscale>  0 0.23892312E+04</rscale>
<asrwt>0</asrwt>
<pdfrwt beam="1">  1        2 0.35699159E+00 0.23892312E+04</pdfrwt>
<pdfrwt beam="2">  1       -2 0.94617542E-01 0.23892312E+04</pdfrwt>
<totfact> 0.37370745E+00</totfact>
</mgrwt>
</event>
<event>
12    2  0.3552864E-008  0.2100763E+04  0.7818608E-02  0.8560907E-01
         -1   -1    0    0    0  501 -0.00000000000E+00  0.00000000000E+00  0.40327052852E+03  0.40327052852E+03  0.00000000000E+00 0.  1.
          1   -1    0    0  501    0  0.00000000000E+00 -0.00000000000E+00 -0.27358850413E+04  0.27358850413E+04  0.00000000000E+00 0. -1.
         23    2    1    2    0    0 -0.82294690883E+03  0.21741041225E+03 -0.82974361950E+03  0.11918583000E+04  0.86849473673E+02 0.  0.
        254    2    1    2    0    0  0.82294690883E+03 -0.21741041225E+03 -0.15028708933E+04  0.19472972699E+04  0.89935356400E+03 0.  0.
         23    2    4    4    0    0 -0.89033915439E+02  0.64657547979E+02  0.20735237647E+02  0.14704721349E+03  0.95316820689E+02 0.  0.
         23    2    4    4    0    0  0.91198082427E+03 -0.28206796023E+03 -0.15236061310E+04  0.18002500564E+04  0.90847482485E+02 0.  0.
          1    1    3    3  502    0 -0.18137932759E+03  0.46754480256E+02 -0.13476703568E+03  0.23075223901E+03  0.00000000000E+00 0. -1.
         -1    1    3    3    0  502 -0.64156758124E+03  0.17065593200E+03 -0.69497658382E+03  0.96110606100E+03  0.00000000000E+00 0.  1.
         11    1    5    5    0    0  0.15595257090E+02  0.94755074288E+01 -0.14843889146E+02  0.23523144554E+02  0.00000000000E+00 0. -1.
        -11    1    5    5    0    0 -0.10462917253E+03  0.55182040550E+02  0.35579126793E+02  0.12352406894E+03  0.00000000000E+00 0.  1.
          4    1    6    6  503    0  0.54173054531E+03 -0.19904869061E+03 -0.85707339831E+03  0.10332798145E+04  0.00000000000E+00 0.  1.
         -4    1    6    6    0  503  0.37025027897E+03 -0.83019269619E+02 -0.66653273267E+03  0.76697024187E+03  0.00000000000E+00 0. -1.
<mgrwt>
<rscale>  0 0.21007635E+04</rscale>
<asrwt>0</asrwt>
<pdfrwt beam="1">  1        1 0.42090538E+00 0.21007635E+04</pdfrwt>
<pdfrwt beam="2">  1       -1 0.62041622E-01 0.21007635E+04</pdfrwt>
<totfact> 0.22445893E+00</totfact>
</mgrwt>
</event>
<event>
12    2  0.3552864E-008  0.2307969E+04  0.7818608E-02  0.8474786E-01
         -1   -1    0    0    0  501 -0.00000000000E+00  0.00000000000E+00  0.88110966344E+03  0.88110966344E+03  0.00000000000E+00 0.  1.
          1   -1    0    0  501    0  0.00000000000E+00 -0.00000000000E+00 -0.15113668854E+04  0.15113668854E+04  0.00000000000E+00 0. -1.
         23    2    1    2    0    0  0.77062598599E+03 -0.27175126538E+03 -0.82143886066E+03  0.11622753308E+04  0.91700503100E+02 0.  0.
        254    2    1    2    0    0 -0.77062598599E+03  0.27175126538E+03  0.19118163869E+03  0.12302012180E+04  0.89951734692E+03 0.  0.
         23    2    4    4    0    0 -0.28912351639E+02 -0.21754893751E+03  0.23771365920E+03  0.33579864585E+03  0.89941550442E+02 0.  0.
         23    2    4    4    0    0 -0.74171363435E+03  0.48930020289E+03 -0.46532020509E+02  0.89440257220E+03  0.90757524736E+02 0.  0.
          2    1    3    3  502    0  0.46930366722E+03 -0.14223279216E+03 -0.54690235185E+03  0.73455992382E+03  0.00000000000E+00 0. -1.
         -2    1    3    3    0  502  0.30132231877E+03 -0.12951847323E+03 -0.27453650881E+03  0.42771540698E+03  0.00000000000E+00 0.  1.
         11    1    5    5    0    0 -0.19871502888E+02 -0.64537347267E+01  0.50136744460E+01  0.21486373598E+02  0.00000000000E+00 0.  1.
        -11    1    5    5    0    0 -0.90408487511E+01 -0.21109520278E+03  0.23269998475E+03  0.31431227225E+03  0.00000000000E+00 0. -1.
          1    1    6    6  503    0 -0.71205979716E+03  0.44438961321E+03 -0.42225620533E+02  0.84041316392E+03  0.00000000000E+00 0. -1.
         -1    1    6    6    0  503 -0.29653837188E+02  0.44910589684E+02 -0.43063999756E+01  0.53989408280E+02  0.00000000000E+00 0.  1.
<mgrwt>
<rscale>  0 0.23079688E+04</rscale>
<asrwt>0</asrwt>
<pdfrwt beam="1">  1        1 0.23251798E+00 0.23079688E+04</pdfrwt>
<pdfrwt beam="2">  1       -1 0.13555534E+00 0.23079688E+04</pdfrwt>
<totfact> 0.26449091E+00</totfact>
</mgrwt>
</event>
<event>
12    2  0.3552864E-008  0.2100083E+04  0.7818608E-02  0.8561207E-01
          2   -1    0    0  501    0  0.00000000000E+00  0.00000000000E+00  0.19187871036E+04  0.19187871036E+04  0.00000000000E+00 0. -1.
         -2   -1    0    0    0  501 -0.00000000000E+00 -0.00000000000E+00 -0.57462725296E+03  0.57462725296E+03  0.00000000000E+00 0.  1.
         23    2    1    2    0    0  0.90046451720E+02 -0.68922255751E+03  0.11466293590E+04  0.13439392800E+04  0.90982438159E+02 0.  0.
        254    2    1    2    0    0 -0.90046451720E+02  0.68922255751E+03  0.19753049161E+03  0.11494750766E+04  0.89394550130E+03 0.  0.
         23    2    4    4    0    0 -0.31907291918E+03  0.67885444248E+03  0.37640077894E+03  0.84433678933E+03  0.92607697267E+02 0.  0.
         23    2    4    4    0    0  0.22902646746E+03  0.10368115031E+02 -0.17887028733E+03  0.30513828724E+03  0.92488777934E+02 0.  0.
          4    1    3    3  502    0  0.73348687790E+02 -0.66960788151E+03  0.10843911812E+04  0.12765809723E+04  0.00000000000E+00 0. -1.
         -4    1    3    3    0  502  0.16697763930E+02 -0.19614676002E+02  0.62238177794E+02  0.67358307654E+02  0.00000000000E+00 0.  1.
         11    1    5    5    0    0 -0.27291352082E+03  0.61355988682E+03  0.36269695885E+03  0.76320810303E+03  0.00000000000E+00 0.  1.
        -11    1    5    5    0    0 -0.46159398362E+02  0.65294555660E+02  0.13703820084E+02  0.81128686301E+02  0.00000000000E+00 0. -1.
          3    1    6    6  503    0  0.97065231503E+02 -0.20562545282E+02 -0.29656950531E+02  0.10355680639E+03  0.00000000000E+00 0. -1.
         -3    1    6    6    0  503  0.13196123596E+03  0.30930660312E+02 -0.14921333680E+03  0.20158148085E+03  0.00000000000E+00 0.  1.
<mgrwt>
<rscale>  0 0.21000832E+04</rscale>
<asrwt>0</asrwt>
<pdfrwt beam="1">  1        2 0.29519801E+00 0.21000832E+04</pdfrwt>
<pdfrwt beam="2">  1       -2 0.88404194E-01 0.21000832E+04</pdfrwt>
<totfact> 0.75230802E+00</totfact>
</mgrwt>
</event>
<event>
12    2  0.3552864E-008  0.1180401E+04  0.7818608E-02  0.9130186E-01
         -2   -1    0    0    0  501 -0.00000000000E+00  0.00000000000E+00  0.18160861068E+03  0.18160861068E+03  0.00000000000E+00 0.  1.
          2   -1    0    0  501    0  0.00000000000E+00 -0.00000000000E+00 -0.19180631289E+04  0.19180631289E+04  0.00000000000E+00 0. -1.
         23    2    1    2    0    0 -0.85495607759E+02  0.99702671570E+02 -0.62088964770E+03  0.64196711016E+03  0.96786849529E+02 0.  0.
        254    2    1    2    0    0  0.85495607759E+02 -0.99702671570E+02 -0.11155648705E+04  0.14577046294E+04  0.92906818084E+03 0.  0.
         23    2    4    4    0    0  0.33696399828E+03 -0.98220081518E+02 -0.11331086255E+04  0.11895740031E+04  0.89214522399E+02 0.  0.
         23    2    4    4    0    0 -0.25146839053E+03 -0.14825900521E+01  0.17543754982E+02  0.26813062636E+03  0.91365748227E+02 0.  0.
          3    1    3    3  502    0 -0.10345119988E+03  0.65291572921E+02 -0.51049398320E+03  0.52494689934E+03  0.00000000000E+00 0. -1.
         -3    1    3    3    0  502  0.17955592116E+02  0.34411098649E+02 -0.11039566451E+03  0.11702021082E+03  0.00000000000E+00 0.  1.
         11    1    5    5    0    0  0.57649062296E+02 -0.31371393588E+02 -0.12282903021E+03  0.13926431482E+03  0.00000000000E+00 0.  1.
        -11    1    5    5    0    0  0.27931493599E+03 -0.66848687930E+02 -0.10102795953E+04  0.10503096883E+04  0.00000000000E+00 0. -1.
          2    1    6    6  503    0 -0.25950605974E+03 -0.17886166539E+01  0.16942116267E+02  0.26006466406E+03  0.00000000000E+00 0. -1.
         -2    1    6    6    0  503  0.80376692146E+01  0.30602660180E+00  0.60163871478E+00  0.80659623002E+01  0.00000000000E+00 0.  1.
<mgrwt>
<rscale>  0 0.11804013E+04</rscale>
<asrwt>0</asrwt>
<pdfrwt beam="1">  1        2 0.29508663E+00 0.11804013E+04</pdfrwt>
<pdfrwt beam="2">  1       -2 0.27939787E-01 0.11804013E+04</pdfrwt>
<totfact> 0.85877340E+01</totfact>
</mgrwt>
</event>
<event>
12    2  0.3552864E-008  0.1149392E+04  0.7818608E-02  0.9158345E-01
          1   -1    0    0  501    0  0.00000000000E+00  0.00000000000E+00  0.15951163866E+04  0.15951163866E+04  0.00000000000E+00 0. -1.
         -1   -1    0    0    0  501 -0.00000000000E+00 -0.00000000000E+00 -0.20705413935E+03  0.20705413935E+03  0.00000000000E+00 0.  1.
         23    2    1    2    0    0  0.78942670177E+02  0.59110757644E+02 -0.57959703245E+01  0.14048414044E+03  0.99880796956E+02 0.  0.
        254    2    1    2    0    0 -0.78942670177E+02 -0.59110757644E+02  0.13938582175E+04  0.16616863855E+04  0.89924128364E+03 0.  0.
         23    2    4    4    0    0  0.35328463590E+02  0.21817303248E+03  0.13152020740E+04  0.13368713029E+04  0.92848331635E+02 0.  0.
         23    2    4    4    0    0 -0.11427113377E+03 -0.27728379013E+03  0.78656143525E+02  0.32481508253E+03  0.96818679216E+02 0.  0.
          3    1    3    3  502    0 -0.69042507366E+01 -0.20625003703E+02  0.64381237303E+01  0.22682788478E+02  0.00000000000E+00 0. -1.
         -3    1    3    3    0  502  0.85846920914E+02  0.79735761346E+02 -0.12234094055E+02  0.11780135197E+03  0.00000000000E+00 0.  1.
         11    1    5    5    0    0 -0.16087430402E+02  0.45297257860E+02  0.14270558334E+03  0.15058396496E+03  0.00000000000E+00 0. -1.
        -11    1    5    5    0    0  0.51415893992E+02  0.17287577462E+03  0.11724964907E+04  0.11862873380E+04  0.00000000000E+00 0.  1.
          3    1    6    6  503    0 -0.92884687213E+02 -0.10226570638E+03  0.45130547332E+02  0.14533618311E+03  0.00000000000E+00 0. -1.
         -3    1    6    6    0  503 -0.21386446554E+02 -0.17501808375E+03  0.33525596193E+02  0.17947889942E+03  0.00000000000E+00 0.  1.
<mgrwt>
<rscale>  0 0.11493919E+04</rscale>
<asrwt>0</asrwt>
<pdfrwt beam="1">  1        1 0.24540251E+00 0.11493919E+04</pdfrwt>
<pdfrwt beam="2">  1       -1 0.31854484E-01 0.11493919E+04</pdfrwt>
<totfact> 0.51268467E+01</totfact>
</mgrwt>
</event>
<event>
12    2  0.3552864E-008  0.1379315E+04  0.7818608E-02  0.8968929E-01
          2   -1    0    0  501    0  0.00000000000E+00  0.00000000000E+00  0.11911362437E+04  0.11911362437E+04  0.00000000000E+00 0.  1.
         -2   -1    0    0    0  501 -0.00000000000E+00 -0.00000000000E+00 -0.39930580349E+03  0.39930580349E+03  0.00000000000E+00 0. -1.
         23    2    1    2    0    0 -0.30931192569E+03  0.21137095591E+03  0.16505424240E+03  0.41916073775E+03  0.90007070603E+02 0.  0.
        254    2    1    2    0    0  0.30931192569E+03 -0.21137095591E+03  0.62677619781E+03  0.11712813094E+04  0.91580563186E+03 0.  0.
         23    2    4    4    0    0  0.62419979952E+02 -0.19210113405E+03  0.81632144041E+03  0.84538352961E+03  0.86565111142E+02 0.  0.
         23    2    4    4    0    0  0.24689194573E+03 -0.19269821859E+02 -0.18954524260E+03  0.32589777984E+03  0.94630888231E+02 0.  0.
          2    1    3    3  502    0 -0.12913638450E+01  0.19592237245E+02  0.21048508133E+02  0.28784771590E+02  0.00000000000E+00 0.  1.
         -2    1    3    3    0  502 -0.30802056184E+03  0.19177871867E+03  0.14400573426E+03  0.39037596616E+03  0.00000000000E+00 0. -1.
         11    1    5    5    0    0  0.77652088716E+02 -0.14826007093E+03  0.54493440171E+03  0.57005648640E+03  0.00000000000E+00 0.  1.
        -11    1    5    5    0    0 -0.15232108764E+02 -0.43841063124E+02  0.27138703869E+03  0.27532704321E+03  0.00000000000E+00 0. -1.
          3    1    6    6  503    0  0.43489674646E+02 -0.31428671752E+02 -0.10562161615E+02  0.54687041124E+02  0.00000000000E+00 0. -1.
         -3    1    6    6    0  503  0.20340227109E+03  0.12158849893E+02 -0.17898308098E+03  0.27121073871E+03  0.00000000000E+00 0.  1.
<mgrwt>
<rscale>  0 0.13793152E+04</rscale>
<asrwt>0</asrwt>
<pdfrwt beam="1">  1        2 0.18325173E+00 0.13793152E+04</pdfrwt>
<pdfrwt beam="2">  1       -2 0.61431662E-01 0.13793152E+04</pdfrwt>
<totfact> 0.46043226E+01</totfact>
</mgrwt>
</event>
<event>
12    2  0.3552864E-008  0.1599279E+04  0.7818608E-02  0.8820991E-01
          2   -1    0    0  501    0  0.00000000000E+00  0.00000000000E+00  0.17042275907E+04  0.17042275907E+04  0.00000000000E+00 0. -1.
         -2   -1    0    0    0  501 -0.00000000000E+00 -0.00000000000E+00 -0.37519834300E+03  0.37519834300E+03  0.00000000000E+00 0.  1.
         23    2    1    2    0    0 -0.29380062121E+03  0.45637280685E+03  0.50669588942E+03  0.74811506547E+03  0.91326244747E+02 0.  0.
        254    2    1    2    0    0  0.29380062121E+03 -0.45637280685E+03  0.82233335826E+03  0.13313108682E+04  0.89529968829E+03 0.  0.
         23    2    4    4    0    0  0.37366383904E+02 -0.57010497118E+03  0.15173982805E+03  0.59929659799E+03  0.98567297531E+02 0.  0.
         23    2    4    4    0    0  0.25643423731E+03  0.11373216433E+03  0.67059353021E+03  0.73201427022E+03  0.86346313088E+02 0.  0.
          3    1    3    3  502    0 -0.22522265934E+03  0.40942873879E+03  0.43095202825E+03  0.63567034623E+03  0.00000000000E+00 0. -1.
         -3    1    3    3    0  502 -0.68577961868E+02  0.46944068054E+02  0.75743861173E+02  0.11244471924E+03  0.00000000000E+00 0.  1.
         11    1    5    5    0    0  0.29454307734E+02 -0.40901885135E+02  0.10038064410E+02  0.51393415812E+02  0.00000000000E+00 0. -1.
        -11    1    5    5    0    0  0.79120761699E+01 -0.52920308604E+03  0.14170176364E+03  0.54790318218E+03  0.00000000000E+00 0.  1.
          1    1    6    6  503    0  0.10350727344E+02  0.97493091773E+01  0.54533659396E+01  0.15229109825E+02  0.00000000000E+00 0. -1.
         -1    1    6    6    0  503  0.24608350996E+03  0.10398285515E+03  0.66514016427E+03  0.71678516040E+03  0.00000000000E+00 0.  1.
<mgrwt>
<rscale>  0 0.15992790E+04</rscale>
<asrwt>0</asrwt>
<pdfrwt beam="1">  1        2 0.26218886E+00 0.15992790E+04</pdfrwt>
<pdfrwt beam="2">  1       -2 0.57722823E-01 0.15992790E+04</pdfrwt>
<totfact> 0.26282549E+01</totfact>
</mgrwt>
</event>
<event>
12    2  0.3552864E-008  0.1093183E+04  0.7818608E-02  0.9211862E-01
          1   -1    0    0  501    0  0.00000000000E+00  0.00000000000E+00  0.11873277148E+04  0.11873277148E+04  0.00000000000E+00 0. -1.
         -1   -1    0    0    0  501 -0.00000000000E+00 -0.00000000000E+00 -0.25162577580E+03  0.25162577580E+03  0.00000000000E+00 0.  1.
         23    2    1    2    0    0  0.46937323271E+02  0.88361436354E+02  0.25274283005E+02  0.14317239680E+03  0.99240566678E+02 0.  0.
        254    2    1    2    0    0 -0.46937323271E+02 -0.88361436354E+02  0.91042765597E+03  0.12957810938E+04  0.91660202404E+03 0.  0.
         23    2    4    4    0    0 -0.72610732483E+02 -0.21117649516E+03 -0.10924422730E+03  0.26421726261E+03  0.89490949723E+02 0.  0.
         23    2    4    4    0    0  0.25673409212E+02  0.12281505881E+03  0.10196718833E+04  0.10315638312E+04  0.93008201920E+02 0.  0.
          3    1    3    3  502    0  0.47142839384E+02  0.23042746795E+02  0.50807887317E+02  0.73040104727E+02  0.00000000000E+00 0. -1.
         -3    1    3    3    0  502 -0.20551611299E+00  0.65318689559E+02 -0.25533604312E+02  0.70132292075E+02  0.00000000000E+00 0.  1.
         11    1    5    5    0    0 -0.83419359624E+02 -0.18519199033E+03 -0.67818020610E+02  0.21413581382E+03  0.00000000000E+00 0.  1.
        -11    1    5    5    0    0  0.10808627141E+02 -0.25984504837E+02 -0.41426206690E+02  0.50081448792E+02  0.00000000000E+00 0. -1.
          4    1    6    6  503    0  0.22323864451E+01 -0.70794745299E+00  0.36056190335E+03  0.36056950909E+03  0.00000000000E+00 0. -1.
         -4    1    6    6    0  503  0.23441022767E+02  0.12352300626E+03  0.65910997992E+03  0.67099432207E+03  0.00000000000E+00 0.  1.
<mgrwt>
<rscale>  0 0.10931830E+04</rscale>
<asrwt>0</asrwt>
<pdfrwt beam="1">  1        1 0.18266580E+00 0.10931830E+04</pdfrwt>
<pdfrwt beam="2">  1       -1 0.38711659E-01 0.10931830E+04</pdfrwt>
<totfact> 0.70324672E+01</totfact>
</mgrwt>
</event>
<event>
12    2  0.3552864E-008  0.1321712E+04  0.7818608E-02  0.9012522E-01
         -2   -1    0    0    0  501 -0.00000000000E+00  0.00000000000E+00  0.45593466838E+03  0.45593466838E+03  0.00000000000E+00 0.  1.
          2   -1    0    0  501    0  0.00000000000E+00 -0.00000000000E+00 -0.95788037011E+03  0.95788037011E+03  0.00000000000E+00 0. -1.
         23    2    1    2    0    0 -0.87221284911E+02  0.13402684388E+03 -0.40723871972E+03  0.44700479048E+03  0.91646933681E+02 0.  0.
        254    2    1    2    0    0  0.87221284911E+02 -0.13402684388E+03 -0.94706982018E+02  0.96681024800E+03  0.94877916070E+03 0.  0.
         23    2    4    4    0    0 -0.32942929891E+03  0.20677657085E+02 -0.31191637726E+03  0.46397034460E+03  0.95002240948E+02 0.  0.
         23    2    4    4    0    0  0.41665058382E+03 -0.15470450097E+03  0.21720939524E+03  0.50283990340E+03  0.90204520173E+02 0.  0.
          4    1    3    3  502    0 -0.24068798697E+02  0.13764510660E+02 -0.18106530603E+03  0.18317590964E+03  0.00000000000E+00 0. -1.
         -4    1    3    3    0  502 -0.63152486213E+02  0.12026233322E+03 -0.22617341369E+03  0.26382888084E+03  0.00000000000E+00 0.  1.
         11    1    5    5    0    0 -0.17969074993E+03 -0.35283278607E+02 -0.17900937240E+03  0.25608207818E+03  0.00000000000E+00 0.  1.
        -11    1    5    5    0    0 -0.14973854898E+03  0.55960935692E+02 -0.13290700486E+03  0.20788826642E+03  0.00000000000E+00 0. -1.
          4    1    6    6  503    0  0.54722502521E+02 -0.48715409463E+02  0.58167665841E+02  0.93547959629E+02  0.00000000000E+00 0. -1.
         -4    1    6    6    0  503  0.36192808130E+03 -0.10598909150E+03  0.15904172940E+03  0.40929194378E+03  0.00000000000E+00 0.  1.
<mgrwt>
<rscale>  0 0.13217123E+04</rscale>
<asrwt>0</asrwt>
<pdfrwt beam="1">  1        2 0.14736621E+00 0.13217123E+04</pdfrwt>
<pdfrwt beam="2">  1       -2 0.70143795E-01 0.13217123E+04</pdfrwt>
<totfact> 0.48603483E+01</totfact>
</mgrwt>
</event>
<event>
12    2  0.3552864E-008  0.2008230E+04  0.7818608E-02  0.8602783E-01
         -2   -1    0    0    0  501 -0.00000000000E+00  0.00000000000E+00  0.88556674657E+03  0.88556674657E+03  0.00000000000E+00 0.  1.
          2   -1    0    0  501    0  0.00000000000E+00 -0.00000000000E+00 -0.11385326495E+04  0.11385326495E+04  0.00000000000E+00 0. -1.
         23    2    1    2    0    0  0.12122339539E+03 -0.53706187335E+03  0.48232682733E+03  0.73772924946E+03  0.92058186711E+02 0.  0.
        254    2    1    2    0    0 -0.12122339539E+03  0.53706187335E+03 -0.73529273027E+03  0.12863701466E+04  0.90053438997E+03 0.  0.
         23    2    4    4    0    0 -0.22922490471E+03  0.57004747400E+03 -0.88273257511E+03  0.10793842307E+04  0.91407542509E+02 0.  0.
         23    2    4    4    0    0  0.10800150932E+03 -0.32985600642E+02  0.14743984484E+03  0.20698591589E+03  0.91390840178E+02 0.  0.
          1    1    3    3  502    0  0.37336578926E+02 -0.62551770470E+02  0.37495998793E+02  0.81931032219E+02  0.00000000000E+00 0. -1.
         -1    1    3    3    0  502  0.83886816463E+02 -0.47451010288E+03  0.44483082854E+03  0.65579821724E+03  0.00000000000E+00 0.  1.
         11    1    5    5    0    0 -0.12998634965E+02  0.64391581359E+02 -0.14536463877E+03  0.15951839538E+03  0.00000000000E+00 0.  1.
        -11    1    5    5    0    0 -0.21622626974E+03  0.50565589264E+03 -0.73736793634E+03  0.91986583534E+03  0.00000000000E+00 0. -1.
          4    1    6    6  503    0  0.11384664946E+03 -0.21407955701E+01  0.11674596349E+03  0.16308054020E+03  0.00000000000E+00 0. -1.
         -4    1    6    6    0  503 -0.58451401422E+01 -0.30844805072E+02  0.30693881343E+02  0.43905375697E+02  0.00000000000E+00 0.  1.
<mgrwt>
<rscale>  0 0.20082297E+04</rscale>
<asrwt>0</asrwt>
<pdfrwt beam="1">  1        2 0.17515887E+00 0.20082297E+04</pdfrwt>
<pdfrwt beam="2">  1       -2 0.13624104E+00 0.20082297E+04</pdfrwt>
<totfact> 0.73825104E+00</totfact>
</mgrwt>
</event>
<event>
12    2  0.3552864E-008  0.1628740E+04  0.7818608E-02  0.8803084E-01
         -1   -1    0    0    0  501 -0.00000000000E+00  0.00000000000E+00  0.33593784941E+03  0.33593784941E+03  0.00000000000E+00 0.  1.
          1   -1    0    0  501    0  0.00000000000E+00 -0.00000000000E+00 -0.19741696748E+04  0.19741696748E+04  0.00000000000E+00 0. -1.
         23    2    1    2    0    0 -0.14939521681E+03  0.18363918399E+03 -0.12935273096E+04  0.13176916180E+04  0.84000112096E+02 0.  0.
        254    2    1    2    0    0  0.14939521681E+03 -0.18363918399E+03 -0.34470451583E+03  0.99241590622E+03  0.90001435932E+03 0.  0.
         23    2    4    4    0    0  0.33746800698E+03 -0.37728333311E+03 -0.45497793838E+03  0.68674086269E+03  0.91546266443E+02 0.  0.
         23    2    4    4    0    0 -0.18807279016E+03  0.19364414913E+03  0.11027342256E+03  0.30567504353E+03  0.91692822089E+02 0.  0.
          1    1    3    3  502    0 -0.44362328373E+02  0.12095259423E+03 -0.67600043139E+03  0.68816722493E+03  0.00000000000E+00 0. -1.
         -1    1    3    3    0  502 -0.10503288844E+03  0.62686589756E+02 -0.61752687820E+03  0.62952439309E+03  0.00000000000E+00 0.  1.
         11    1    5    5    0    0  0.17705764912E+03 -0.22802851603E+03 -0.20356820671E+03  0.35325122790E+03  0.00000000000E+00 0. -1.
        -11    1    5    5    0    0  0.16041035786E+03 -0.14925481709E+03 -0.25140973167E+03  0.33348963479E+03  0.00000000000E+00 0.  1.
          1    1    6    6  503    0  0.21749567128E+01  0.41311107667E+02  0.15538080814E+02  0.44190157374E+02  0.00000000000E+00 0. -1.
         -1    1    6    6    0  503 -0.19024774688E+03  0.15233304146E+03  0.94735341742E+02  0.26148488616E+03  0.00000000000E+00 0.  1.
<mgrwt>
<rscale>  0 0.16287398E+04</rscale>
<asrwt>0</asrwt>
<pdfrwt beam="1">  1        1 0.30371841E+00 0.16287398E+04</pdfrwt>
<pdfrwt beam="2">  1       -1 0.51682746E-01 0.16287398E+04</pdfrwt>
<totfact> 0.11194160E+01</totfact>
</mgrwt>
</event>
<event>
12    2  0.3552864E-008  0.2274797E+04  0.7818608E-02  0.8487925E-01
         -2   -1    0    0    0  501 -0.00000000000E+00  0.00000000000E+00  0.44050973346E+03  0.44050973346E+03  0.00000000000E+00 0.  1.
          2   -1    0    0  501    0  0.00000000000E+00 -0.00000000000E+00 -0.29367681949E+04  0.29367681949E+04  0.00000000000E+00 0. -1.
         23    2    1    2    0    0  0.19515867438E+03  0.15490758307E+03 -0.24244613986E+04  0.24389231009E+04  0.90827041061E+02 0.  0.
        254    2    1    2    0    0 -0.19515867438E+03 -0.15490758307E+03 -0.71797062790E+02  0.93835482739E+03  0.90181577741E+03 0.  0.
         23    2    4    4    0    0 -0.37906584190E+03 -0.42448297671E+03  0.49811044889E+02  0.57853087751E+03  0.91324290481E+02 0.  0.
         23    2    4    4    0    0  0.18390716752E+03  0.26957539364E+03 -0.12160810768E+03  0.35982394988E+03  0.90509689709E+02 0.  0.
          1    1    3    3  502    0  0.17034552413E+03  0.16384956385E+03 -0.20616348116E+04  0.20751391215E+04  0.00000000000E+00 0. -1.
         -1    1    3    3    0  502  0.24813150251E+02 -0.89419807826E+01 -0.36282658707E+03  0.36378397949E+03  0.00000000000E+00 0.  1.
         11    1    5    5    0    0 -0.23005751759E+03 -0.24158152278E+03  0.72953034514E+02  0.34148241359E+03  0.00000000000E+00 0.  1.
        -11    1    5    5    0    0 -0.14900832431E+03 -0.18290145393E+03 -0.23141989625E+02  0.23704846392E+03  0.00000000000E+00 0. -1.
          1    1    6    6  503    0  0.34977635818E+02  0.81515781933E+02 -0.73412847992E+02  0.11514210334E+03  0.00000000000E+00 0.  1.
         -1    1    6    6    0  503  0.14892953170E+03  0.18805961171E+03 -0.48195259687E+02  0.24468184654E+03  0.00000000000E+00 0. -1.
<mgrwt>
<rscale>  0 0.22747967E+04</rscale>
<asrwt>0</asrwt>
<pdfrwt beam="1">  1        2 0.45181049E+00 0.22747967E+04</pdfrwt>
<pdfrwt beam="2">  1       -2 0.67770728E-01 0.22747967E+04</pdfrwt>
<totfact> 0.34577637E+00</totfact>
</mgrwt>
</event>
<event>
12    2  0.3552864E-008  0.1331658E+04  0.7818608E-02  0.9004830E-01
         -1   -1    0    0    0  501 -0.00000000000E+00  0.00000000000E+00  0.36039631132E+03  0.36039631132E+03  0.00000000000E+00 0.  1.
          1   -1    0    0  501    0  0.00000000000E+00 -0.00000000000E+00 -0.12301128655E+04  0.12301128655E+04  0.00000000000E+00 0. -1.
         23    2    1    2    0    0 -0.24041875670E+03 -0.60732265081E+02  0.54024861685E+02  0.27028187252E+03  0.92973213009E+02 0.  0.
        254    2    1    2    0    0  0.24041875670E+03  0.60732265081E+02 -0.92374141588E+03  0.13202273043E+04  0.91006172594E+03 0.  0.
         23    2    4    4    0    0 -0.26071072109E+03 -0.78236362649E+02 -0.68124590382E+03  0.73960545411E+03  0.93964023673E+02 0.  0.
         23    2    4    4    0    0  0.50112947779E+03  0.13896862773E+03 -0.24249551206E+03  0.58062185020E+03  0.88739092596E+02 0.  0.
          4    1    3    3  502    0 -0.79619934190E+02 -0.93873434649E-02 -0.21600773458E+02  0.82498044961E+02  0.00000000000E+00 0. -1.
         -4    1    3    3    0  502 -0.16079882251E+03 -0.60722877738E+02  0.75625635143E+02  0.18778382756E+03  0.00000000000E+00 0.  1.
         11    1    5    5    0    0 -0.18378840330E+02 -0.36960533530E+02 -0.79302397009E+02  0.89402086005E+02  0.00000000000E+00 0. -1.
        -11    1    5    5    0    0 -0.24233188076E+03 -0.41275829119E+02 -0.60194350681E+03  0.65020336810E+03  0.00000000000E+00 0.  1.
          1    1    6    6  503    0  0.73274139652E+02  0.29170237204E+02 -0.48084928926E+01  0.79013441162E+02  0.00000000000E+00 0. -1.
         -1    1    6    6    0  503  0.42785533814E+03  0.10979839053E+03 -0.23768701917E+03  0.50160840904E+03  0.00000000000E+00 0.  1.
<mgrwt>
<rscale>  0 0.13316578E+04</rscale>
<asrwt>0</asrwt>
<pdfrwt beam="1">  1        1 0.18924813E+00 0.13316578E+04</pdfrwt>
<pdfrwt beam="2">  1       -1 0.55445587E-01 0.13316578E+04</pdfrwt>
<totfact> 0.32746471E+01</totfact>
</mgrwt>
</event>
<event>
12    2  0.3552864E-008  0.1671822E+04  0.7818608E-02  0.8777601E-01
         -1   -1    0    0    0  501 -0.00000000000E+00  0.00000000000E+00  0.40964678977E+03  0.40964678977E+03  0.00000000000E+00 0.  1.
          1   -1    0    0  501    0  0.00000000000E+00 -0.00000000000E+00 -0.17057303347E+04  0.17057303347E+04  0.00000000000E+00 0. -1.
         23    2    1    2    0    0  0.37508528856E+03  0.15921441246E+03  0.76974276762E+02  0.42444511690E+03  0.90500912434E+02 0.  0.
        254    2    1    2    0    0 -0.37508528856E+03 -0.15921441246E+03 -0.13730578217E+04  0.16909320075E+04  0.89884652176E+03 0.  0.
         23    2    4    4    0    0 -0.59215830353E+03 -0.30442924535E+03 -0.73839646601E+03  0.99849819705E+03  0.91873209544E+02 0.  0.
         23    2    4    4    0    0  0.21707301497E+03  0.14521483289E+03 -0.63466135565E+03  0.69243381049E+03  0.91986433975E+02 0.  0.
          1    1    3    3  502    0  0.39412404924E+02  0.78495316287E+01  0.35994478570E+02  0.53949562521E+02  0.00000000000E+00 0. -1.
         -1    1    3    3    0  502  0.33567288364E+03  0.15136488083E+03  0.40979798192E+02  0.37049555438E+03  0.00000000000E+00 0.  1.
         11    1    5    5    0    0 -0.17112112051E+02 -0.96749990115E+01 -0.35959331939E+01  0.19984011616E+02  0.00000000000E+00 0.  1.
        -11    1    5    5    0    0 -0.57504619148E+03 -0.29475424634E+03 -0.73480053282E+03  0.97851418544E+03  0.00000000000E+00 0. -1.
          4    1    6    6  503    0  0.19998262837E+03  0.90485891200E+02 -0.50879610502E+03  0.55412473744E+03  0.00000000000E+00 0. -1.
         -4    1    6    6    0  503  0.17090386598E+02  0.54728941690E+02 -0.12586525063E+03  0.13830907305E+03  0.00000000000E+00 0.  1.
<mgrwt>
<rscale>  0 0.16718217E+04</rscale>
<asrwt>0</asrwt>
<pdfrwt beam="1">  1        1 0.26242005E+00 0.16718217E+04</pdfrwt>
<pdfrwt beam="2">  1       -1 0.63022583E-01 0.16718217E+04</pdfrwt>
<totfact> 0.11504726E+01</totfact>
</mgrwt>
</event>
<event>
12    2  0.3552864E-008  0.1971394E+04  0.7818608E-02  0.8620113E-01
         -2   -1    0    0    0  501 -0.00000000000E+00  0.00000000000E+00  0.55976179574E+03  0.55976179574E+03  0.00000000000E+00 0.  1.
          2   -1    0    0  501    0  0.00000000000E+00 -0.00000000000E+00 -0.17357350041E+04  0.17357350041E+04  0.00000000000E+00 0. -1.
         23    2    1    2    0    0  0.66433361041E+03 -0.58079117160E+02 -0.60775106302E+01  0.67226329858E+03  0.84786064400E+02 0.  0.
        254    2    1    2    0    0 -0.66433361041E+03  0.58079117160E+02 -0.11698956977E+04  0.16232335013E+04  0.90637670220E+03 0.  0.
         23    2    4    4    0    0 -0.22796849265E+03 -0.32792948210E+03 -0.86791893581E+03  0.96034655562E+03  0.97338835435E+02 0.  0.
         23    2    4    4    0    0 -0.43636511776E+03  0.38600859926E+03 -0.30197676192E+03  0.66288694564E+03  0.93872164492E+02 0.  0.
          2    1    3    3  502    0  0.97885996518E+02  0.87116313269E+01 -0.25617514175E+02  0.10155696858E+03  0.00000000000E+00 0. -1.
         -2    1    3    3    0  502  0.56644761389E+03 -0.66790748487E+02  0.19540003544E+02  0.57070633000E+03  0.00000000000E+00 0.  1.
         11    1    5    5    0    0 -0.13141648088E+03 -0.10779159080E+03 -0.38784237976E+03  0.42345133136E+03  0.00000000000E+00 0.  1.
        -11    1    5    5    0    0 -0.96552011769E+02 -0.22013789130E+03 -0.48007655605E+03  0.53689522426E+03  0.00000000000E+00 0. -1.
          2    1    6    6  503    0 -0.39837078423E+03  0.30893123179E+03 -0.26118704073E+03  0.56776443878E+03  0.00000000000E+00 0. -1.
         -2    1    6    6    0  503 -0.37994333528E+02  0.77077367471E+02 -0.40789721191E+02  0.95122506860E+02  0.00000000000E+00 0.  1.
<mgrwt>
<rscale>  0 0.19713936E+04</rscale>
<asrwt>0</asrwt>
<pdfrwt beam="1">  1        2 0.26703615E+00 0.19713936E+04</pdfrwt>
<pdfrwt beam="2">  1       -2 0.86117200E-01 0.19713936E+04</pdfrwt>
<totfact> 0.10202109E+01</totfact>
</mgrwt>
</event>
<event>
12    2  0.3552864E-008  0.2417249E+04  0.7818608E-02  0.8433074E-01
          1   -1    0    0  501    0  0.00000000000E+00  0.00000000000E+00  0.89463347422E+03  0.89463347422E+03  0.00000000000E+00 0. -1.
         -1   -1    0    0    0  501 -0.00000000000E+00 -0.00000000000E+00 -0.16328172169E+04  0.16328172169E+04  0.00000000000E+00 0.  1.
         23    2    1    2    0    0  0.60592241017E+03 -0.75249718922E+03  0.11267664063E+03  0.97697668921E+03  0.91615713655E+02 0.  0.
        254    2    1    2    0    0 -0.60592241017E+03  0.75249718922E+03 -0.85086038336E+03  0.15504740020E+04  0.86406727276E+03 0.  0.
         23    2    4    4    0    0 -0.30753946428E+03 -0.13232828024E+03 -0.32559255630E+03  0.47523020116E+03  0.87988269290E+02 0.  0.
         23    2    4    4    0    0 -0.29838294588E+03  0.88482546946E+03 -0.52526782705E+03  0.10752438008E+04  0.91073855818E+02 0.  0.
          1    1    3    3  502    0  0.46112912640E+03 -0.61981103669E+03  0.67660793729E+02  0.77548937803E+03  0.00000000000E+00 0. -1.
         -1    1    3    3    0  502  0.14479328376E+03 -0.13268615252E+03  0.45015846900E+02  0.20148731118E+03  0.00000000000E+00 0.  1.
         11    1    5    5    0    0 -0.28602414847E+03 -0.14278373877E+03 -0.28585127955E+03  0.42884491788E+03  0.00000000000E+00 0. -1.
        -11    1    5    5    0    0 -0.21515315811E+02  0.10455458532E+02 -0.39741276751E+02  0.46385283284E+02  0.00000000000E+00 0.  1.
          1    1    6    6  503    0 -0.14587873614E+03  0.56864235622E+03 -0.32049968245E+03  0.66884585772E+03  0.00000000000E+00 0. -1.
         -1    1    6    6    0  503 -0.15250420975E+03  0.31618311324E+03 -0.20476814460E+03  0.40639794307E+03  0.00000000000E+00 0.  1.
<mgrwt>
<rscale>  0 0.24172488E+04</rscale>
<asrwt>0</asrwt>
<pdfrwt beam="1">  1        1 0.13763592E+00 0.24172488E+04</pdfrwt>
<pdfrwt beam="2">  1       -1 0.25120265E+00 0.24172488E+04</pdfrwt>
<totfact> 0.11261498E+00</totfact>
</mgrwt>
</event>
<event>
12    2  0.3552864E-008  0.1322256E+04  0.7818608E-02  0.9012100E-01
         -1   -1    0    0    0  501 -0.00000000000E+00  0.00000000000E+00  0.47278848126E+04  0.47278848126E+04  0.00000000000E+00 0.  1.
          1   -1    0    0  501    0  0.00000000000E+00 -0.00000000000E+00 -0.92449477192E+02  0.92449477192E+02  0.00000000000E+00 0. -1.
         23    2    1    2    0    0  0.25448265022E+03  0.94444712182E+01  0.22301627055E+04  0.22465173519E+04  0.91454371774E+02 0.  0.
        254    2    1    2    0    0 -0.25448265022E+03 -0.94444712182E+01  0.24052726298E+04  0.25738169378E+04  0.87996965189E+03 0.  0.
         23    2    4    4    0    0 -0.48949743636E+03 -0.19655747924E+03  0.19394172676E+04  0.20119834586E+04  0.92171128569E+02 0.  0.
         23    2    4    4    0    0  0.23501478614E+03  0.18711300802E+03  0.46585536222E+03  0.56183347920E+03  0.91610110641E+02 0.  0.
          1    1    3    3  502    0  0.12833014973E+03 -0.73114567274E+01  0.14862522355E+04  0.14918001851E+04  0.00000000000E+00 0. -1.
         -1    1    3    3    0  502  0.12615250049E+03  0.16755927946E+02  0.74391047004E+03  0.75471716685E+03  0.00000000000E+00 0.  1.
         11    1    5    5    0    0 -0.17854104068E+03 -0.44253814917E+02  0.54434106448E+03  0.57458027970E+03  0.00000000000E+00 0. -1.
        -11    1    5    5    0    0 -0.31095639569E+03 -0.15230366432E+03  0.13950762032E+04  0.14374031789E+04  0.00000000000E+00 0.  1.
          2    1    6    6  503    0  0.11620330460E+03  0.42174806580E+02  0.14794988476E+03  0.19279805681E+03  0.00000000000E+00 0. -1.
         -2    1    6    6    0  503  0.11881148154E+03  0.14493820144E+03  0.31790547746E+03  0.36903542239E+03  0.00000000000E+00 0.  1.
<mgrwt>
<rscale>  0 0.13222564E+04</rscale>
<asrwt>0</asrwt>
<pdfrwt beam="1">  1        1 0.14223000E-01 0.13222564E+04</pdfrwt>
<pdfrwt beam="2">  1       -1 0.72736671E+00 0.13222564E+04</pdfrwt>
<totfact> 0.65227132E-02</totfact>
</mgrwt>
</event>
<event>
12    2  0.3552864E-008  0.1578049E+04  0.7818608E-02  0.8834148E-01
         -2   -1    0    0    0  501 -0.00000000000E+00  0.00000000000E+00  0.50049924518E+03  0.50049924518E+03  0.00000000000E+00 0.  1.
          2   -1    0    0  501    0  0.00000000000E+00 -0.00000000000E+00 -0.12438781060E+04  0.12438781060E+04  0.00000000000E+00 0. -1.
         23    2    1    2    0    0 -0.12123063882E+03  0.17062406318E+03  0.28890868505E+03  0.36898805902E+03  0.94204674384E+02 0.  0.
        254    2    1    2    0    0  0.12123063882E+03 -0.17062406318E+03 -0.10322875458E+04  0.13753892921E+04  0.88445954623E+03 0.  0.
         23    2    4    4    0    0  0.44369909411E+03 -0.25513980323E+02 -0.26209948834E+03  0.52302968648E+03  0.85697501982E+02 0.  0.
         23    2    4    4    0    0 -0.32246845529E+03 -0.14511008286E+03 -0.77018805750E+03  0.85235960566E+03  0.91018748823E+02 0.  0.
          3    1    3    3  502    0 -0.67109932718E+01  0.42549959495E+02  0.14917190155E+02  0.45585732920E+02  0.00000000000E+00 0. -1.
         -3    1    3    3    0  502 -0.11451964555E+03  0.12807410369E+03  0.27399149489E+03  0.32340232610E+03  0.00000000000E+00 0.  1.
         11    1    5    5    0    0  0.69052633470E+02  0.21564681615E+02 -0.64191550213E+02  0.96715339017E+02  0.00000000000E+00 0.  1.
        -11    1    5    5    0    0  0.37464646064E+03 -0.47078661939E+02 -0.19790793812E+03  0.42631434746E+03  0.00000000000E+00 0. -1.
          3    1    6    6  503    0 -0.90562443777E+02 -0.43879970461E+02 -0.13310492896E+03  0.16686500575E+03  0.00000000000E+00 0. -1.
         -3    1    6    6    0  503 -0.23190601151E+03 -0.10123011240E+03 -0.63708312854E+03  0.68549459991E+03  0.00000000000E+00 0.  1.
<mgrwt>
<rscale>  0 0.15780495E+04</rscale>
<asrwt>0</asrwt>
<pdfrwt beam="1">  1        2 0.19136586E+00 0.15780495E+04</pdfrwt>
<pdfrwt beam="2">  1       -2 0.76999884E-01 0.15780495E+04</pdfrwt>
<totfact> 0.25802310E+01</totfact>
</mgrwt>
</event>
<event>
12    2  0.3552864E-008  0.2544820E+04  0.7818608E-02  0.8387190E-01
          2   -1    0    0  501    0  0.00000000000E+00  0.00000000000E+00  0.17873282363E+04  0.17873282363E+04  0.00000000000E+00 0. -1.
         -2   -1    0    0    0  501 -0.00000000000E+00 -0.00000000000E+00 -0.90583665272E+03  0.90583665272E+03  0.00000000000E+00 0.  1.
         23    2    1    2    0    0  0.34146232115E+02 -0.35004269788E+03  0.15092418807E+04  0.15525357078E+04  0.94128709811E+02 0.  0.
        254    2    1    2    0    0 -0.34146232115E+02  0.35004269788E+03 -0.62775029706E+03  0.11406291813E+04  0.88502465402E+03 0.  0.
         23    2    4    4    0    0  0.28129163022E+03  0.21790336252E+03 -0.68992498338E+03  0.78145695414E+03  0.89842260966E+02 0.  0.
         23    2    4    4    0    0 -0.31543786233E+03  0.13213933537E+03  0.62174686325E+02  0.35917222714E+03  0.90427585295E+02 0.  0.
          3    1    3    3  502    0 -0.16221420949E+02 -0.11280980338E+03  0.64127202232E+03  0.65132095994E+03  0.00000000000E+00 0. -1.
         -3    1    3    3    0  502  0.50367653064E+02 -0.23723289450E+03  0.86796985836E+03  0.90121474784E+03  0.00000000000E+00 0.  1.
         11    1    5    5    0    0  0.12485515990E+03  0.14228842298E+03 -0.30242747264E+03  0.35678730706E+03  0.00000000000E+00 0. -1.
        -11    1    5    5    0    0  0.15643647032E+03  0.75614939538E+02 -0.38749751074E+03  0.42466964708E+03  0.00000000000E+00 0.  1.
          2    1    6    6  503    0 -0.12184293585E+03  0.43422822194E+02  0.68007602198E+02  0.14613786799E+03  0.00000000000E+00 0. -1.
         -2    1    6    6    0  503 -0.19359492648E+03  0.88716513175E+02 -0.58329158728E+01  0.21303435915E+03  0.00000000000E+00 0.  1.
<mgrwt>
<rscale>  0 0.25448202E+04</rscale>
<asrwt>0</asrwt>
<pdfrwt beam="1">  1        2 0.27497358E+00 0.25448202E+04</pdfrwt>
<pdfrwt beam="2">  1       -2 0.13935948E+00 0.25448202E+04</pdfrwt>
<totfact> 0.28327732E+00</totfact>
</mgrwt>
</event>
<event>
12    2  0.3552864E-008  0.1611584E+04  0.7818608E-02  0.8813463E-01
         -1   -1    0    0    0  501 -0.00000000000E+00  0.00000000000E+00  0.71659245528E+03  0.71659245528E+03  0.00000000000E+00 0.  1.
          1   -1    0    0  501    0  0.00000000000E+00 -0.00000000000E+00 -0.90609506211E+03  0.90609506211E+03  0.00000000000E+00 0. -1.
         23    2    1    2    0    0 -0.32004841592E+03  0.40242184482E+03  0.11895450519E+03  0.53576022906E+03  0.92274151377E+02 0.  0.
        254    2    1    2    0    0  0.32004841592E+03 -0.40242184482E+03 -0.30845711203E+03  0.10869272883E+04  0.90658193807E+03 0.  0.
         23    2    4    4    0    0  0.48854818327E+03 -0.35573172862E+03 -0.51770557103E+03  0.80053131472E+03  0.87217758755E+02 0.  0.
         23    2    4    4    0    0 -0.16849976735E+03 -0.46690116197E+02  0.20924845900E+03  0.28639597362E+03  0.87553398353E+02 0.  0.
          3    1    3    3  502    0 -0.10124763708E+03  0.79591669370E+02  0.27161993644E+01  0.12881496646E+03  0.00000000000E+00 0. -1.
         -3    1    3    3    0  502 -0.21880077884E+03  0.32283017545E+03  0.11623830583E+03  0.40694526259E+03  0.00000000000E+00 0.  1.
         11    1    5    5    0    0  0.20771456823E+03 -0.11303786808E+03 -0.24034599378E+03  0.33717814016E+03  0.00000000000E+00 0.  1.
        -11    1    5    5    0    0  0.28083361504E+03 -0.24269386054E+03 -0.27735957725E+03  0.46335317455E+03  0.00000000000E+00 0. -1.
          2    1    6    6  503    0 -0.92393511040E+02 -0.41448393586E+02  0.57249207206E+02  0.11632713329E+03  0.00000000000E+00 0.  1.
         -2    1    6    6    0  503 -0.76106256308E+02 -0.52417226118E+01  0.15199925179E+03  0.17006884033E+03  0.00000000000E+00 0. -1.
<mgrwt>
<rscale>  0 0.16115842E+04</rscale>
<asrwt>0</asrwt>
<pdfrwt beam="1">  1        1 0.13939924E+00 0.16115842E+04</pdfrwt>
<pdfrwt beam="2">  1       -1 0.11024499E+00 0.16115842E+04</pdfrwt>
<totfact> 0.13094609E+01</totfact>
</mgrwt>
</event>
<event>
12    2  0.3552864E-008  0.2377580E+04  0.7818608E-02  0.8447945E-01
         -1   -1    0    0    0  501 -0.00000000000E+00  0.00000000000E+00  0.61207309312E+03  0.61207309312E+03  0.00000000000E+00 0.  1.
          1   -1    0    0  501    0  0.00000000000E+00 -0.00000000000E+00 -0.23089101057E+04  0.23089101057E+04  0.00000000000E+00 0. -1.
         23    2    1    2    0    0 -0.80087023235E+03 -0.45944327807E+03 -0.12408940544E+04  0.15494611343E+04  0.92360693091E+02 0.  0.
        254    2    1    2    0    0  0.80087023235E+03  0.45944327807E+03 -0.45594295819E+03  0.13715220645E+04  0.90592910182E+03 0.  0.
         23    2    4    4    0    0  0.39738859387E+03 -0.23816242615E+03 -0.25319136254E+03  0.53554968421E+03  0.89825176976E+02 0.  0.
         23    2    4    4    0    0  0.40348163848E+03  0.69760570422E+03 -0.20275159565E+03  0.83597238032E+03  0.91051962991E+02 0.  0.
          3    1    3    3  502    0 -0.79511049321E+02 -0.15891424234E+02 -0.11021805112E+03  0.13683041738E+03  0.00000000000E+00 0. -1.
         -3    1    3    3    0  502 -0.72135918303E+03 -0.44355185384E+03 -0.11306760033E+04  0.14126307169E+04  0.00000000000E+00 0.  1.
         11    1    5    5    0    0  0.94748884049E+02 -0.93814546118E+02 -0.10128397408E+03  0.16744241845E+03  0.00000000000E+00 0.  1.
        -11    1    5    5    0    0  0.30263970982E+03 -0.14434788003E+03 -0.15190738846E+03  0.36810726575E+03  0.00000000000E+00 0. -1.
          1    1    6    6  503    0  0.23645566441E+03  0.43162936365E+03 -0.16774654749E+03  0.51995585677E+03  0.00000000000E+00 0. -1.
         -1    1    6    6    0  503  0.16702597408E+03  0.26597634057E+03 -0.35005048159E+02  0.31601652355E+03  0.00000000000E+00 0.  1.
<mgrwt>
<rscale>  0 0.23775801E+04</rscale>
<asrwt>0</asrwt>
<pdfrwt beam="1">  1        1 0.35521694E+00 0.23775801E+04</pdfrwt>
<pdfrwt beam="2">  1       -1 0.94165092E-01 0.23775801E+04</pdfrwt>
<totfact> 0.17991952E+00</totfact>
</mgrwt>
</event>
<event>
12    2  0.3552864E-008  0.1832604E+04  0.7818608E-02  0.8689150E-01
          2   -1    0    0  501    0  0.00000000000E+00  0.00000000000E+00  0.20690982120E+04  0.20690982120E+04  0.00000000000E+00 0. -1.
         -2   -1    0    0    0  501 -0.00000000000E+00 -0.00000000000E+00 -0.40578532587E+03  0.40578532587E+03  0.00000000000E+00 0.  1.
         23    2    1    2    0    0 -0.51368775646E+03 -0.18701159561E+03  0.62347890159E+02  0.55754179216E+03  0.90095186158E+02 0.  0.
        254    2    1    2    0    0  0.51368775646E+03  0.18701159561E+03  0.16009649960E+04  0.19173417457E+04  0.90236467322E+03 0.  0.
         23    2    4    4    0    0 -0.19737812406E+03 -0.16829285662E+02  0.96809424050E+02  0.23898142848E+03  0.92188447553E+02 0.  0.
         23    2    4    4    0    0  0.71106588051E+03  0.20384088127E+03  0.15041555720E+04  0.16783603173E+04  0.85109215607E+02 0.  0.
          1    1    3    3  502    0 -0.10375762011E+03 -0.21186554396E+02 -0.19916189752E+02  0.10775513182E+03  0.00000000000E+00 0. -1.
         -1    1    3    3    0  502 -0.40993013635E+03 -0.16582504122E+03  0.82264079911E+02  0.44978666034E+03  0.00000000000E+00 0.  1.
         11    1    5    5    0    0 -0.78447394129E+02 -0.50624730376E+02  0.27939159033E+02  0.97454879707E+02  0.00000000000E+00 0.  1.
        -11    1    5    5    0    0 -0.11893072993E+03  0.33795444714E+02  0.68870265017E+02  0.14152654877E+03  0.00000000000E+00 0. -1.
          4    1    6    6  503    0  0.51422778887E+03  0.10750047739E+03  0.10492568575E+04  0.11734251252E+04  0.00000000000E+00 0. -1.
         -4    1    6    6    0  503  0.19683809164E+03  0.96340403882E+02  0.45489871450E+03  0.50493519207E+03  0.00000000000E+00 0.  1.
<mgrwt>
<rscale>  0 0.18326044E+04</rscale>
<asrwt>0</asrwt>
<pdfrwt beam="1">  1        2 0.31832280E+00 0.18326044E+04</pdfrwt>
<pdfrwt beam="2">  1       -2 0.62428513E-01 0.18326044E+04</pdfrwt>
<totfact> 0.13705183E+01</totfact>
</mgrwt>
</event>
<event>
12    2  0.3552864E-008  0.1855221E+04  0.7818608E-02  0.8677472E-01
         -1   -1    0    0    0  501 -0.00000000000E+00  0.00000000000E+00  0.21746268286E+04  0.21746268286E+04  0.00000000000E+00 0.  1.
          1   -1    0    0  501    0  0.00000000000E+00 -0.00000000000E+00 -0.39568230671E+03  0.39568230671E+03  0.00000000000E+00 0. -1.
         23    2    1    2    0    0  0.28610176660E+03 -0.97901862995E+02  0.16042825816E+04  0.16353050934E+04  0.95190079813E+02 0.  0.
        254    2    1    2    0    0 -0.28610176660E+03  0.97901862995E+02  0.17466194023E+03  0.93500404184E+03  0.86734466579E+03 0.  0.
         23    2    4    4    0    0 -0.57723567589E+02 -0.36747438420E+03  0.54661513641E+01  0.38265553560E+03  0.89587648793E+02 0.  0.
         23    2    4    4    0    0 -0.22837819901E+03  0.46537624719E+03  0.16919578887E+03  0.55234850625E+03  0.87920442158E+02 0.  0.
          1    1    3    3  502    0  0.55724533695E+02 -0.39408119819E+02  0.20730319537E+03  0.21824948654E+03  0.00000000000E+00 0. -1.
         -1    1    3    3    0  502  0.23037723290E+03 -0.58493743176E+02  0.13969793863E+04  0.14170556069E+04  0.00000000000E+00 0.  1.
         11    1    5    5    0    0 -0.12347794080E+02 -0.30317677117E+03 -0.35126400582E+01  0.30344844906E+03  0.00000000000E+00 0.  1.
        -11    1    5    5    0    0 -0.45375773510E+02 -0.64297613026E+02  0.89787914222E+01  0.79207086538E+02  0.00000000000E+00 0. -1.
          1    1    6    6  503    0 -0.24337308956E+02  0.59925252597E+02  0.53499119835E+02  0.83937454864E+02  0.00000000000E+00 0. -1.
         -1    1    6    6    0  503 -0.20404089005E+03  0.40545099459E+03  0.11569666903E+03  0.46841105138E+03  0.00000000000E+00 0.  1.
<mgrwt>
<rscale>  0 0.18552211E+04</rscale>
<asrwt>0</asrwt>
<pdfrwt beam="1">  1        1 0.60874202E-01 0.18552211E+04</pdfrwt>
<pdfrwt beam="2">  1       -1 0.33455797E+00 0.18552211E+04</pdfrwt>
<totfact> 0.11254179E+00</totfact>
</mgrwt>
</event>
<event>
12    2  0.3552864E-008  0.1280797E+04  0.7818608E-02  0.9044934E-01
          1   -1    0    0  501    0  0.00000000000E+00  0.00000000000E+00  0.75328840522E+03  0.75328840522E+03  0.00000000000E+00 0. -1.
         -1   -1    0    0    0  501 -0.00000000000E+00 -0.00000000000E+00 -0.54442627768E+03  0.54442627768E+03  0.00000000000E+00 0.  1.
         23    2    1    2    0    0 -0.19898181083E+03 -0.92620733378E+02  0.27457675124E+03  0.36392033618E+03  0.94197969595E+02 0.  0.
        254    2    1    2    0    0  0.19898181083E+03  0.92620733378E+02 -0.65714623697E+02  0.93379434672E+03  0.90525195879E+03 0.  0.
         23    2    4    4    0    0  0.38363214941E+03 -0.17383519430E+03  0.22755551082E+03  0.48742530640E+03  0.91703969250E+02 0.  0.
         23    2    4    4    0    0 -0.18465033858E+03  0.26645592767E+03 -0.29327013451E+03  0.44636904032E+03  0.90241007478E+02 0.  0.
          2    1    3    3  502    0 -0.13640038827E+03 -0.41734831749E+02  0.23295157070E+03  0.27315434536E+03  0.00000000000E+00 0. -1.
         -2    1    3    3    0  502 -0.62581422562E+02 -0.50885901630E+02  0.41625180538E+02  0.90765990819E+02  0.00000000000E+00 0.  1.
         11    1    5    5    0    0  0.90347667677E+02 -0.24603212711E+02  0.12869082111E+02  0.94517894628E+02  0.00000000000E+00 0.  1.
        -11    1    5    5    0    0  0.29328448173E+03 -0.14923198159E+03  0.21468642870E+03  0.39290741177E+03  0.00000000000E+00 0. -1.
          1    1    6    6  503    0 -0.11468423933E+03  0.18891550331E+03 -0.24900918111E+03  0.33293710279E+03  0.00000000000E+00 0. -1.
         -1    1    6    6    0  503 -0.69966099250E+02  0.77540424368E+02 -0.44260953406E+02  0.11343193753E+03  0.00000000000E+00 0.  1.
<mgrwt>
<rscale>  0 0.12807966E+04</rscale>
<asrwt>0</asrwt>
<pdfrwt beam="1">  1        1 0.11589052E+00 0.12807966E+04</pdfrwt>
<pdfrwt beam="2">  1       -1 0.83757889E-01 0.12807966E+04</pdfrwt>
<totfact> 0.33846174E+01</totfact>
</mgrwt>
</event>
<event>
12    2  0.3552864E-008  0.2139780E+04  0.7818608E-02  0.8543919E-01
          2   -1    0    0  501    0  0.00000000000E+00  0.00000000000E+00  0.24660464238E+04  0.24660464238E+04  0.00000000000E+00 0. -1.
         -2   -1    0    0    0  501 -0.00000000000E+00 -0.00000000000E+00 -0.46417008979E+03  0.46417008979E+03  0.00000000000E+00 0.  1.
         23    2    1    2    0    0 -0.27537302831E+03  0.57085583713E+03  0.16072771463E+04  0.17301767520E+04  0.92005851613E+02 0.  0.
        254    2    1    2    0    0  0.27537302831E+03 -0.57085583713E+03  0.39459918766E+03  0.12000397615E+04  0.93951062729E+03 0.  0.
         23    2    4    4    0    0 -0.16067110872E+03 -0.49259742801E+03  0.51008812439E+03  0.73272428366E+03  0.90705843060E+02 0.  0.
         23    2    4    4    0    0  0.43604413703E+03 -0.78258409127E+02 -0.11548893673E+03  0.46731547785E+03  0.93740030347E+02 0.  0.
          2    1    3    3  502    0 -0.22448823981E+03  0.41412153870E+03  0.10942315019E+04  0.11913161622E+04  0.00000000000E+00 0. -1.
         -2    1    3    3    0  502 -0.50884788509E+02  0.15673429844E+03  0.51304564441E+03  0.53886058982E+03  0.00000000000E+00 0.  1.
         11    1    5    5    0    0 -0.13309461037E+03 -0.26298425844E+03  0.28365383287E+03  0.40906526667E+03  0.00000000000E+00 0.  1.
        -11    1    5    5    0    0 -0.27576498345E+02 -0.22961316957E+03  0.22643429153E+03  0.32365901699E+03  0.00000000000E+00 0. -1.
          4    1    6    6  503    0  0.41732323082E+03 -0.90833923662E+02 -0.96563941890E+02  0.43787449748E+03  0.00000000000E+00 0.  1.
         -4    1    6    6    0  503  0.18720906211E+02  0.12575514535E+02 -0.18924994842E+02  0.29440980367E+02  0.00000000000E+00 0. -1.
<mgrwt>
<rscale>  0 0.21397804E+04</rscale>
<asrwt>0</asrwt>
<pdfrwt beam="1">  1        2 0.37939175E+00 0.21397804E+04</pdfrwt>
<pdfrwt beam="2">  1       -2 0.71410784E-01 0.21397804E+04</pdfrwt>
<totfact> 0.59542580E+00</totfact>
</mgrwt>
</event>
<event>
12    2  0.3552864E-008  0.2513814E+04  0.7818608E-02  0.8398081E-01
          2   -1    0    0  501    0  0.00000000000E+00  0.00000000000E+00  0.10025702773E+04  0.10025702773E+04  0.00000000000E+00 0. -1.
         -2   -1    0    0    0  501 -0.00000000000E+00 -0.00000000000E+00 -0.15757653190E+04  0.15757653190E+04  0.00000000000E+00 0.  1.
         23    2    1    2    0    0 -0.67696580935E+03 -0.31116793928E+03  0.57191060465E+03  0.94364142081E+03  0.90935130165E+02 0.  0.
        254    2    1    2    0    0  0.67696580935E+03  0.31116793928E+03 -0.11451056464E+04  0.16346941755E+04  0.89769143507E+03 0.  0.
         23    2    4    4    0    0 -0.93523364052E+02  0.35974718421E+03 -0.29854843877E+03  0.48562993658E+03  0.92415414509E+02 0.  0.
         23    2    4    4    0    0  0.77048917340E+03 -0.48579244922E+02 -0.84655720758E+03  0.11490642389E+04  0.87612841943E+02 0.  0.
          2    1    3    3  502    0 -0.18922376427E+03 -0.63876516486E+02  0.19765013215E+03  0.28098294799E+03  0.00000000000E+00 0.  1.
         -2    1    3    3    0  502 -0.48774204508E+03 -0.24729142280E+03  0.37426047250E+03  0.66265847282E+03  0.00000000000E+00 0. -1.
         11    1    5    5    0    0  0.36410653488E+01 -0.36588452306E+01 -0.10976665250E+02  0.12129785048E+02  0.00000000000E+00 0.  1.
        -11    1    5    5    0    0 -0.97164429400E+02  0.36340602944E+03 -0.28757177352E+03  0.47350015153E+03  0.00000000000E+00 0. -1.
          4    1    6    6  503    0  0.65528529059E+03 -0.17898787296E+02 -0.68316881579E+03  0.94680452551E+03  0.00000000000E+00 0. -1.
         -4    1    6    6    0  503  0.11520388281E+03 -0.30680457626E+02 -0.16338839179E+03  0.20225971340E+03  0.00000000000E+00 0.  1.
<mgrwt>
<rscale>  0 0.25138142E+04</rscale>
<asrwt>0</asrwt>
<pdfrwt beam="1">  1        2 0.15424158E+00 0.25138142E+04</pdfrwt>
<pdfrwt beam="2">  1       -2 0.24242543E+00 0.25138142E+04</pdfrwt>
<totfact> 0.15994402E+00</totfact>
</mgrwt>
</event>
<event>
12    2  0.3552864E-008  0.1398420E+04  0.7818608E-02  0.8954963E-01
          1   -1    0    0  501    0  0.00000000000E+00  0.00000000000E+00  0.18830658100E+04  0.18830658100E+04  0.00000000000E+00 0. -1.
         -1   -1    0    0    0  501 -0.00000000000E+00 -0.00000000000E+00 -0.25962684235E+03  0.25962684235E+03  0.00000000000E+00 0.  1.
         23    2    1    2    0    0  0.50511769181E+02 -0.39587585319E+03  0.43492354232E+03  0.59753166143E+03  0.92824936203E+02 0.  0.
        254    2    1    2    0    0 -0.50511769181E+02  0.39587585319E+03  0.11885154253E+04  0.15451609909E+04  0.90315250190E+03 0.  0.
         23    2    4    4    0    0  0.33541288143E+03  0.17555752098E+03  0.96264454714E+03  0.10383576914E+04  0.90442949041E+02 0.  0.
         23    2    4    4    0    0 -0.38592465061E+03  0.22031833221E+03  0.22587087820E+03  0.50680329950E+03  0.91399821179E+02 0.  0.
          4    1    3    3  502    0  0.11185974804E+02 -0.33949020833E+03  0.37876043282E+03  0.50876143039E+03  0.00000000000E+00 0. -1.
         -4    1    3    3    0  502  0.39325794377E+02 -0.56385644863E+02  0.56163109497E+02  0.88770231037E+02  0.00000000000E+00 0.  1.
         11    1    5    5    0    0  0.19906299767E+03  0.15287022262E+03  0.61578239895E+03  0.66496867961E+03  0.00000000000E+00 0. -1.
        -11    1    5    5    0    0  0.13634988376E+03  0.22687298358E+02  0.34686214819E+03  0.37338901183E+03  0.00000000000E+00 0.  1.
          2    1    6    6  503    0 -0.13071509383E+03  0.49097141623E+02  0.11221808656E+03  0.17913643968E+03  0.00000000000E+00 0. -1.
         -2    1    6    6    0  503 -0.25520955678E+03  0.17122119059E+03  0.11365279164E+03  0.32766685982E+03  0.00000000000E+00 0.  1.
<mgrwt>
<rscale>  0 0.13984197E+04</rscale>
<asrwt>0</asrwt>
<pdfrwt beam="1">  1        1 0.28970242E+00 0.13984197E+04</pdfrwt>
<pdfrwt beam="2">  1       -1 0.39942592E-01 0.13984197E+04</pdfrwt>
<totfact> 0.21317592E+01</totfact>
</mgrwt>
</event>
<event>
12    2  0.3552864E-008  0.5107719E+04  0.7818608E-02  0.7812102E-01
         -1   -1    0    0    0  501 -0.00000000000E+00  0.00000000000E+00  0.28360730329E+04  0.28360730329E+04  0.00000000000E+00 0.  1.
          1   -1    0    0  501    0  0.00000000000E+00 -0.00000000000E+00 -0.22997289995E+04  0.22997289995E+04  0.00000000000E+00 0. -1.
         23    2    1    2    0    0 -0.23209457859E+03 -0.73470772275E+03  0.26227885304E+04  0.27350446708E+04  0.88240268529E+02 0.  0.
        254    2    1    2    0    0  0.23209457859E+03  0.73470772275E+03 -0.20864444970E+04  0.24007573616E+04  0.90372669501E+03 0.  0.
         23    2    4    4    0    0 -0.48733660839E+01  0.79912480004E+03 -0.19403449151E+04  0.21004363758E+04  0.90941647982E+02 0.  0.
         23    2    4    4    0    0  0.23696794468E+03 -0.64417077295E+02 -0.14609958188E+03  0.30032098589E+03  0.92435058761E+02 0.  0.
          4    1    3    3  502    0 -0.33959266501E+02 -0.37022215031E+02  0.16519274687E+03  0.17266302386E+03  0.00000000000E+00 0. -1.
         -4    1    3    3    0  502 -0.19813531209E+03 -0.69768550771E+03  0.24575957835E+04  0.25623816470E+04  0.00000000000E+00 0.  1.
         11    1    5    5    0    0 -0.76668597380E+01  0.80252725948E+02 -0.13515095775E+03  0.15736919057E+03  0.00000000000E+00 0.  1.
        -11    1    5    5    0    0  0.27934936541E+01  0.71887207409E+03 -0.18051939573E+04  0.19430671852E+04  0.00000000000E+00 0. -1.
          3    1    6    6  503    0  0.18357783678E+03 -0.52727240673E+02 -0.63505170255E+02  0.20128062678E+03  0.00000000000E+00 0. -1.
         -3    1    6    6    0  503  0.53390107895E+02 -0.11689836622E+02 -0.82594411627E+02  0.99040359113E+02  0.00000000000E+00 0.  1.
<mgrwt>
<rscale>  0 0.51077194E+04</rscale>
<asrwt>0</asrwt>
<pdfrwt beam="1">  1        1 0.35380446E+00 0.51077194E+04</pdfrwt>
<pdfrwt beam="2">  1       -1 0.43631893E+00 0.51077194E+04</pdfrwt>
<totfact> 0.53704572E-03</totfact>
</mgrwt>
</event>
<event>
12    2  0.3552864E-008  0.1173083E+04  0.7818608E-02  0.9136749E-01
          1   -1    0    0  501    0  0.00000000000E+00  0.00000000000E+00  0.68197899515E+03  0.68197899515E+03  0.00000000000E+00 0. -1.
         -1   -1    0    0    0  501 -0.00000000000E+00 -0.00000000000E+00 -0.50445974707E+03  0.50445974707E+03  0.00000000000E+00 0.  1.
         23    2    1    2    0    0  0.35711261904E+02  0.21572113948E+03  0.10073007464E+03  0.25756224093E+03  0.91547013993E+02 0.  0.
        254    2    1    2    0    0 -0.35711261904E+02 -0.21572113948E+03  0.76789173441E+02  0.92887650129E+03  0.89950212520E+03 0.  0.
         23    2    4    4    0    0 -0.93009823782E+02 -0.47443470959E+03  0.29406051167E+03  0.57346085267E+03  0.92987332717E+02 0.  0.
         23    2    4    4    0    0  0.57298561877E+02  0.25871357011E+03 -0.21727133823E+03  0.35541564861E+03  0.94327155743E+02 0.  0.
          3    1    3    3  502    0 -0.44434095408E+00  0.18779702935E+03  0.97918614126E+02  0.21179229604E+03  0.00000000000E+00 0. -1.
         -3    1    3    3    0  502  0.36155602858E+02  0.27924110132E+02  0.28114605111E+01  0.45769944886E+02  0.00000000000E+00 0.  1.
         11    1    5    5    0    0 -0.93989216661E+02 -0.24936153304E+03  0.17529875259E+03  0.31897460662E+03  0.00000000000E+00 0. -1.
        -11    1    5    5    0    0  0.97939287941E+00 -0.22507317655E+03  0.11876175908E+03  0.25448624606E+03  0.00000000000E+00 0.  1.
          4    1    6    6  503    0  0.48555675745E+02  0.41478498245E+02 -0.49409328957E+02  0.80742809288E+02  0.00000000000E+00 0. -1.
         -4    1    6    6    0  503  0.87428861324E+01  0.21723507186E+03 -0.16786200927E+03  0.27467283932E+03  0.00000000000E+00 0.  1.
<mgrwt>
<rscale>  0 0.11730830E+04</rscale>
<asrwt>0</asrwt>
<pdfrwt beam="1">  1        1 0.10491985E+00 0.11730830E+04</pdfrwt>
<pdfrwt beam="2">  1       -1 0.77609192E-01 0.11730830E+04</pdfrwt>
<totfact> 0.46781448E+01</totfact>
</mgrwt>
</event>
<event>
12    2  0.3552864E-008  0.1863559E+04  0.7818608E-02  0.8673211E-01
          2   -1    0    0  501    0  0.00000000000E+00  0.00000000000E+00  0.25080488298E+04  0.25080488298E+04  0.00000000000E+00 0. -1.
         -2   -1    0    0    0  501 -0.00000000000E+00 -0.00000000000E+00 -0.34617081357E+03  0.34617081357E+03  0.00000000000E+00 0.  1.
         23    2    1    2    0    0  0.37008416719E+03  0.43334126162E+03  0.17810099310E+03  0.60374063958E+03  0.89642937859E+02 0.  0.
        254    2    1    2    0    0 -0.37008416719E+03 -0.43334126162E+03  0.19837770232E+04  0.22504790038E+04  0.89696016032E+03 0.  0.
         23    2    4    4    0    0 -0.39705705056E+03 -0.14971170061E+03  0.27281297111E+03  0.51338343399E+03  0.95224673209E+02 0.  0.
         23    2    4    4    0    0  0.26972883368E+02 -0.28362956100E+03  0.17109640521E+04  0.17370955698E+04  0.94497444526E+02 0.  0.
          2    1    3    3  502    0  0.78959992004E+02  0.70920348699E+02  0.59396939237E+00  0.10613542762E+03  0.00000000000E+00 0. -1.
         -2    1    3    3    0  502  0.29112417518E+03  0.36242091292E+03  0.17750702371E+03  0.49760521196E+03  0.00000000000E+00 0.  1.
         11    1    5    5    0    0 -0.48949332484E+02 -0.36435396927E+02  0.76940542968E+02  0.98200928978E+02  0.00000000000E+00 0. -1.
        -11    1    5    5    0    0 -0.34810771807E+03 -0.11327630369E+03  0.19587242814E+03  0.41518250501E+03  0.00000000000E+00 0.  1.
          4    1    6    6  503    0  0.71473736323E+00 -0.25818847966E+03  0.13648889513E+04  0.13890945437E+04  0.00000000000E+00 0.  1.
         -4    1    6    6    0  503  0.26258146005E+02 -0.25441081345E+02  0.34607510077E+03  0.34800102618E+03  0.00000000000E+00 0. -1.
<mgrwt>
<rscale>  0 0.18635593E+04</rscale>
<asrwt>0</asrwt>
<pdfrwt beam="1">  1        2 0.38585365E+00 0.18635593E+04</pdfrwt>
<pdfrwt beam="2">  1       -2 0.53257050E-01 0.18635593E+04</pdfrwt>
<totfact> 0.10762322E+01</totfact>
</mgrwt>
</event>
<event>
12    2  0.3552864E-008  0.1568581E+04  0.7818608E-02  0.8840086E-01
         -2   -1    0    0    0  501 -0.00000000000E+00  0.00000000000E+00  0.69108045248E+03  0.69108045248E+03  0.00000000000E+00 0.  1.
          2   -1    0    0  501    0  0.00000000000E+00 -0.00000000000E+00 -0.89007239258E+03  0.89007239258E+03  0.00000000000E+00 0. -1.
         23    2    1    2    0    0  0.42001616636E+03  0.27110563398E+03  0.68277797911E+02  0.51267575292E+03  0.90899533386E+02 0.  0.
        254    2    1    2    0    0 -0.42001616636E+03 -0.27110563398E+03 -0.26726973801E+03  0.10684770921E+04  0.90570322888E+03 0.  0.
         23    2    4    4    0    0 -0.66782115523E+03 -0.25655553141E+03 -0.43791427929E+02  0.72277961149E+03  0.93203227138E+02 0.  0.
         23    2    4    4    0    0  0.24780498887E+03 -0.14550102569E+02 -0.22347831008E+03  0.34569748065E+03  0.89135711476E+02 0.  0.
          3    1    3    3  502    0  0.34335899429E+02  0.56555274705E+02  0.17404291042E+02  0.68413174413E+02  0.00000000000E+00 0. -1.
         -3    1    3    3    0  502  0.38568026693E+03  0.21455035927E+03  0.50873506869E+02  0.44426257851E+03  0.00000000000E+00 0.  1.
         11    1    5    5    0    0 -0.66779630483E+03 -0.26010866966E+03 -0.40298277512E+02  0.71779689046E+03  0.00000000000E+00 0. -1.
        -11    1    5    5    0    0 -0.24850398148E-01  0.35531382543E+01 -0.34931504166E+01  0.49827210266E+01  0.00000000000E+00 0.  1.
          4    1    6    6  503    0  0.13511092569E+03  0.11869443890E+02 -0.17193108963E+03  0.21898891643E+03  0.00000000000E+00 0. -1.
         -4    1    6    6    0  503  0.11269406318E+03 -0.26419546459E+02 -0.51547220453E+02  0.12670856422E+03  0.00000000000E+00 0.  1.
<mgrwt>
<rscale>  0 0.15685811E+04</rscale>
<asrwt>0</asrwt>
<pdfrwt beam="1">  1        2 0.13693421E+00 0.15685811E+04</pdfrwt>
<pdfrwt beam="2">  1       -2 0.10632007E+00 0.15685811E+04</pdfrwt>
<totfact> 0.20422500E+01</totfact>
</mgrwt>
</event>
<event>
12    2  0.3552864E-008  0.2032102E+04  0.7818608E-02  0.8591757E-01
         -1   -1    0    0    0  501 -0.00000000000E+00  0.00000000000E+00  0.87699018641E+03  0.87699018641E+03  0.00000000000E+00 0.  1.
          1   -1    0    0  501    0  0.00000000000E+00 -0.00000000000E+00 -0.11771619310E+04  0.11771619310E+04  0.00000000000E+00 0. -1.
         23    2    1    2    0    0 -0.49994450966E+03  0.27423450403E+03 -0.70271109426E+03  0.90878614373E+03  0.83308445578E+02 0.  0.
        254    2    1    2    0    0  0.49994450966E+03 -0.27423450403E+03  0.40253934966E+03  0.11453659737E+04  0.90811684806E+03 0.  0.
         23    2    4    4    0    0  0.14727010853E+03 -0.19044270616E+03  0.64874532760E+03  0.69803051977E+03  0.91756183672E+02 0.  0.
         23    2    4    4    0    0  0.35267440113E+03 -0.83791797870E+02 -0.24620597794E+03  0.44733545392E+03  0.89951799108E+02 0.  0.
          1    1    3    3  502    0 -0.49228140564E+03  0.27987584985E+03 -0.68576276251E+03  0.88934922281E+03  0.00000000000E+00 0. -1.
         -1    1    3    3    0  502 -0.76631040205E+01 -0.56413458188E+01 -0.16948331745E+02  0.19436920919E+02  0.00000000000E+00 0.  1.
         11    1    5    5    0    0  0.16029207723E+03 -0.17314091591E+03  0.59102836511E+03  0.63638498973E+03  0.00000000000E+00 0. -1.
        -11    1    5    5    0    0 -0.13021968695E+02 -0.17301790252E+02  0.57716962490E+02  0.61645530039E+02  0.00000000000E+00 0.  1.
          1    1    6    6  503    0  0.25292074387E+03 -0.27068338427E+02 -0.20021399093E+03  0.32370857231E+03  0.00000000000E+00 0. -1.
         -1    1    6    6    0  503  0.99753657257E+02 -0.56723459444E+02 -0.45991987009E+02  0.12362688161E+03  0.00000000000E+00 0.  1.
<mgrwt>
<rscale>  0 0.20321018E+04</rscale>
<asrwt>0</asrwt>
<pdfrwt beam="1">  1        1 0.18110184E+00 0.20321018E+04</pdfrwt>
<pdfrwt beam="2">  1       -1 0.13492157E+00 0.20321018E+04</pdfrwt>
<totfact> 0.47403750E+00</totfact>
</mgrwt>
</event>
<event>
12    2  0.3552864E-008  0.1530011E+04  0.7818608E-02  0.8864737E-01
         -2   -1    0    0    0  501 -0.00000000000E+00  0.00000000000E+00  0.19874261151E+03  0.19874261151E+03  0.00000000000E+00 0.  1.
          2   -1    0    0  501    0  0.00000000000E+00 -0.00000000000E+00 -0.29446814430E+04  0.29446814430E+04  0.00000000000E+00 0. -1.
         23    2    1    2    0    0  0.46606459234E+03  0.11050535338E+02 -0.56418175047E+03  0.73766005325E+03  0.92211648031E+02 0.  0.
        254    2    1    2    0    0 -0.46606459234E+03 -0.11050535338E+02 -0.21817570810E+04  0.24057640012E+04  0.90016562397E+03 0.  0.
         23    2    4    4    0    0 -0.10984636513E+03  0.17068220843E+03 -0.40085686395E+02  0.22514897178E+03  0.88806289367E+02 0.  0.
         23    2    4    4    0    0 -0.35621822721E+03 -0.18173274377E+03 -0.21416713946E+04  0.21806150294E+04  0.91691486365E+02 0.  0.
          4    1    3    3  502    0  0.17071007056E+02  0.14453609621E+02 -0.10248425753E+02  0.24603990396E+02  0.00000000000E+00 0. -1.
         -4    1    3    3    0  502  0.44899358529E+03 -0.34030742831E+01 -0.55393332472E+03  0.71305606286E+03  0.00000000000E+00 0.  1.
         11    1    5    5    0    0 -0.63289165859E+02  0.62476612437E+02  0.22534651808E+02  0.91742335641E+02  0.00000000000E+00 0.  1.
        -11    1    5    5    0    0 -0.46557199275E+02  0.10820559600E+03 -0.62620338203E+02  0.13340663614E+03  0.00000000000E+00 0. -1.
          1    1    6    6  503    0 -0.92279288154E+02 -0.94906223020E+02 -0.67554198313E+03  0.68838915532E+03  0.00000000000E+00 0. -1.
         -1    1    6    6    0  503 -0.26393893905E+03 -0.86826520752E+02 -0.14661294115E+04  0.14922258741E+04  0.00000000000E+00 0.  1.
<mgrwt>
<rscale>  0 0.15300113E+04</rscale>
<asrwt>0</asrwt>
<pdfrwt beam="1">  1        2 0.45302789E+00 0.15300113E+04</pdfrwt>
<pdfrwt beam="2">  1       -2 0.30575788E-01 0.15300113E+04</pdfrwt>
<totfact> 0.18098574E+01</totfact>
</mgrwt>
</event>
<event>
12    2  0.3552864E-008  0.2014883E+04  0.7818608E-02  0.8599694E-01
         -1   -1    0    0    0  501 -0.00000000000E+00  0.00000000000E+00  0.73030076649E+03  0.73030076649E+03  0.00000000000E+00 0.  1.
          1   -1    0    0  501    0  0.00000000000E+00 -0.00000000000E+00 -0.13897542994E+04  0.13897542994E+04  0.00000000000E+00 0. -1.
         23    2    1    2    0    0  0.66762701700E+03 -0.31191386890E+03 -0.59241371150E+03  0.95004072651E+03  0.92775433152E+02 0.  0.
        254    2    1    2    0    0 -0.66762701700E+03  0.31191386890E+03 -0.67039821413E+02  0.11700143394E+04  0.90632396045E+03 0.  0.
         23    2    4    4    0    0 -0.42804676030E+03  0.60466824230E+03 -0.17436491388E+03  0.76657493039E+03  0.91576680712E+02 0.  0.
         23    2    4    4    0    0 -0.23958025670E+03 -0.29275437340E+03  0.10732509246E+03  0.40343940901E+03  0.90226707351E+02 0.  0.
          4    1    3    3  502    0  0.48277602038E+03 -0.24975328493E+03 -0.47865133650E+03  0.72426272244E+03  0.00000000000E+00 0. -1.
         -4    1    3    3    0  502  0.18485099662E+03 -0.62160583966E+02 -0.11376237501E+03  0.22577800406E+03  0.00000000000E+00 0.  1.
         11    1    5    5    0    0 -0.27107826695E+03  0.43113464180E+03 -0.15221422568E+03  0.53153520737E+03  0.00000000000E+00 0.  1.
        -11    1    5    5    0    0 -0.15696849335E+03  0.17353360050E+03 -0.22150688197E+02  0.23503972301E+03  0.00000000000E+00 0. -1.
          2    1    6    6  503    0  0.74212712902E+01 -0.37289479484E+01 -0.29162519487E+00  0.83105574794E+01  0.00000000000E+00 0. -1.
         -2    1    6    6    0  503 -0.24700152799E+03 -0.28902542546E+03  0.10761671766E+03  0.39512885153E+03  0.00000000000E+00 0.  1.
<mgrwt>
<rscale>  0 0.20148833E+04</rscale>
<asrwt>0</asrwt>
<pdfrwt beam="1">  1        1 0.21380835E+00 0.20148833E+04</pdfrwt>
<pdfrwt beam="2">  1       -1 0.11235397E+00 0.20148833E+04</pdfrwt>
<totfact> 0.52522689E+00</totfact>
</mgrwt>
</event>
<event>
12    2  0.3552864E-008  0.2430977E+04  0.7818608E-02  0.8427996E-01
          1   -1    0    0  501    0  0.00000000000E+00  0.00000000000E+00  0.66002930422E+03  0.66002930422E+03  0.00000000000E+00 0. -1.
         -1   -1    0    0    0  501 -0.00000000000E+00 -0.00000000000E+00 -0.22384046372E+04  0.22384046372E+04  0.00000000000E+00 0.  1.
         23    2    1    2    0    0 -0.57271640186E+03 -0.79770219799E+03 -0.11130212624E+04  0.14872903876E+04  0.94252283263E+02 0.  0.
        254    2    1    2    0    0  0.57271640186E+03  0.79770219799E+03 -0.46535407054E+03  0.14111435538E+04  0.90024376963E+03 0.  0.
         23    2    4    4    0    0  0.79592400891E+03  0.69462404517E+03 -0.30240452146E+03  0.11028097921E+04  0.93505886802E+02 0.  0.
         23    2    4    4    0    0 -0.22320760705E+03  0.10307815282E+03 -0.16294954909E+03  0.30833376167E+03  0.89835469638E+02 0.  0.
          3    1    3    3  502    0 -0.25442164422E+02 -0.10297503130E+02 -0.26773787413E+02  0.38342900172E+02  0.00000000000E+00 0. -1.
         -3    1    3    3    0  502 -0.54727423744E+03 -0.78740469486E+03 -0.10862474750E+04  0.14489474875E+04  0.00000000000E+00 0.  1.
         11    1    5    5    0    0  0.23320871111E+03  0.15220809723E+03 -0.94048827941E+02  0.29393671060E+03  0.00000000000E+00 0. -1.
        -11    1    5    5    0    0  0.56271529780E+03  0.54241594794E+03 -0.20835569352E+03  0.80887308151E+03  0.00000000000E+00 0.  1.
          1    1    6    6  503    0 -0.15212108053E+03  0.11274008834E+03 -0.10811083755E+03  0.21803463912E+03  0.00000000000E+00 0. -1.
         -1    1    6    6    0  503 -0.71086526523E+02 -0.96619355193E+01 -0.54838711534E+02  0.90299122553E+02  0.00000000000E+00 0.  1.
<mgrwt>
<rscale>  0 0.24309773E+04</rscale>
<asrwt>0</asrwt>
<pdfrwt beam="1">  1        1 0.10154297E+00 0.24309773E+04</pdfrwt>
<pdfrwt beam="2">  1       -1 0.34436994E+00 0.24309773E+04</pdfrwt>
<totfact> 0.45063086E-01</totfact>
</mgrwt>
</event>
<event>
12    2  0.3552864E-008  0.1105619E+04  0.7818608E-02  0.9199732E-01
         -1   -1    0    0    0  501 -0.00000000000E+00  0.00000000000E+00  0.52915386236E+03  0.52915386236E+03  0.00000000000E+00 0.  1.
          1   -1    0    0  501    0  0.00000000000E+00 -0.00000000000E+00 -0.57752309658E+03  0.57752309658E+03  0.00000000000E+00 0. -1.
         23    2    1    2    0    0  0.11339888040E+03  0.10905623861E+03 -0.41858828117E+02  0.18573763803E+03  0.89407714610E+02 0.  0.
        254    2    1    2    0    0 -0.11339888040E+03 -0.10905623861E+03 -0.65104061014E+01  0.92093932091E+03  0.90737769322E+03 0.  0.
         23    2    4    4    0    0  0.26461842268E+03  0.13377316374E+03  0.24736433308E+03  0.39675092696E+03  0.91126372725E+02 0.  0.
         23    2    4    4    0    0 -0.37801730308E+03 -0.24282940235E+03 -0.25387473918E+03  0.52418839395E+03  0.91966782452E+02 0.  0.
          2    1    3    3  502    0  0.19933526796E+02  0.42204223707E+02 -0.52601227675E+02  0.70323759443E+02  0.00000000000E+00 0. -1.
         -2    1    3    3    0  502  0.93465353604E+02  0.66852014906E+02  0.10742399558E+02  0.11541387858E+03  0.00000000000E+00 0.  1.
         11    1    5    5    0    0  0.26112665681E+02  0.47324774479E+02  0.63783163199E+02  0.83605008798E+02  0.00000000000E+00 0. -1.
        -11    1    5    5    0    0  0.23850575700E+03  0.86448389262E+02  0.18358116988E+03  0.31314591817E+03  0.00000000000E+00 0.  1.
          4    1    6    6  503    0 -0.89335935936E+02 -0.46516157179E+02 -0.16597619867E+02  0.10207910322E+03  0.00000000000E+00 0. -1.
         -4    1    6    6    0  503 -0.28868136714E+03 -0.19631324518E+03 -0.23727711932E+03  0.42210929073E+03  0.00000000000E+00 0.  1.
<mgrwt>
<rscale>  0 0.11056194E+04</rscale>
<asrwt>0</asrwt>
<pdfrwt beam="1">  1        1 0.88849708E-01 0.11056194E+04</pdfrwt>
<pdfrwt beam="2">  1       -1 0.81408286E-01 0.11056194E+04</pdfrwt>
<totfact> 0.54197032E+01</totfact>
</mgrwt>
</event>
<event>
12    2  0.3552864E-008  0.1169355E+04  0.7818608E-02  0.9140111E-01
         -1   -1    0    0    0  501 -0.00000000000E+00  0.00000000000E+00  0.29384681309E+03  0.29384681309E+03  0.00000000000E+00 0.  1.
          1   -1    0    0  501    0  0.00000000000E+00 -0.00000000000E+00 -0.11633533233E+04  0.11633533233E+04  0.00000000000E+00 0. -1.
         23    2    1    2    0    0  0.16580935863E+03 -0.35193399197E+02 -0.44314093758E+03  0.48291386057E+03  0.90003263382E+02 0.  0.
        254    2    1    2    0    0 -0.16580935863E+03  0.35193399197E+02 -0.42636557261E+03  0.97428627580E+03  0.85948521043E+03 0.  0.
         23    2    4    4    0    0 -0.47316443902E+03  0.48476060314E+02 -0.43956904326E+03  0.65397810708E+03  0.90729851551E+02 0.  0.
         23    2    4    4    0    0  0.30735508039E+03 -0.13282661117E+02  0.13203470656E+02  0.32030816872E+03  0.88201002175E+02 0.  0.
          4    1    3    3  502    0  0.13858254884E+03 -0.44510147146E+02 -0.42416384719E+03  0.44844313498E+03  0.00000000000E+00 0. -1.
         -4    1    3    3    0  502  0.27226809789E+02  0.93167479490E+01 -0.18977090385E+02  0.34470725596E+02  0.00000000000E+00 0.  1.
         11    1    5    5    0    0 -0.42528023561E+03  0.34736493985E+02 -0.42460473862E+03  0.60196269559E+03  0.00000000000E+00 0. -1.
        -11    1    5    5    0    0 -0.47884203413E+02  0.13739566329E+02 -0.14964304640E+02  0.52015411492E+02  0.00000000000E+00 0.  1.
          4    1    6    6  503    0  0.15082518783E+03 -0.26945440847E+02  0.45647130895E+02  0.15986855421E+03  0.00000000000E+00 0. -1.
         -4    1    6    6    0  503  0.15652989256E+03  0.13662779730E+02 -0.32443660239E+02  0.16043961452E+03  0.00000000000E+00 0.  1.
<mgrwt>
<rscale>  0 0.11693548E+04</rscale>
<asrwt>0</asrwt>
<pdfrwt beam="1">  1        1 0.17897743E+00 0.11693548E+04</pdfrwt>
<pdfrwt beam="2">  1       -1 0.45207202E-01 0.11693548E+04</pdfrwt>
<totfact> 0.54733729E+01</totfact>
</mgrwt>
</event>
<event>
12    2  0.3552864E-008  0.1211593E+04  0.7818608E-02  0.9102770E-01
          2   -1    0    0  501    0  0.00000000000E+00  0.00000000000E+00  0.21141832175E+03  0.21141832175E+03  0.00000000000E+00 0. -1.
         -2   -1    0    0    0  501 -0.00000000000E+00 -0.00000000000E+00 -0.17358441256E+04  0.17358441256E+04  0.00000000000E+00 0.  1.
         23    2    1    2    0    0 -0.11629256213E+03  0.19903725402E+02  0.30557553706E+02  0.15238514581E+03  0.91473221670E+02 0.  0.
        254    2    1    2    0    0  0.11629256213E+03 -0.19903725402E+02 -0.15549833576E+04  0.17948773015E+04  0.88864569263E+03 0.  0.
         23    2    4    4    0    0 -0.30179439417E+03  0.23543689519E+03 -0.77894180983E+03  0.87262297135E+03  0.90609707295E+02 0.  0.
         23    2    4    4    0    0  0.41808695630E+03 -0.25534062059E+03 -0.77604154773E+03  0.92225433020E+03  0.91197753331E+02 0.  0.
          1    1    3    3  502    0 -0.12099093342E+02 -0.12319769275E+02  0.39346838232E+02  0.42969040641E+02  0.00000000000E+00 0. -1.
         -1    1    3    3    0  502 -0.10419346879E+03  0.32223494678E+02 -0.87892845265E+01  0.10941610517E+03  0.00000000000E+00 0.  1.
         11    1    5    5    0    0 -0.30159911525E+03  0.24124416479E+03 -0.77395235856E+03  0.86496417653E+03  0.00000000000E+00 0. -1.
        -11    1    5    5    0    0 -0.19527891691E+00 -0.58072695988E+01 -0.49894512694E+01  0.76587948150E+01  0.00000000000E+00 0.  1.
          1    1    6    6  503    0  0.38278162628E+03 -0.22503114701E+03 -0.74158431897E+03  0.86435414773E+03  0.00000000000E+00 0. -1.
         -1    1    6    6    0  503  0.35305330025E+02 -0.30309473579E+02 -0.34457228752E+02  0.57900182470E+02  0.00000000000E+00 0.  1.
<mgrwt>
<rscale>  0 0.12115928E+04</rscale>
<asrwt>0</asrwt>
<pdfrwt beam="1">  1        2 0.32525894E-01 0.12115928E+04</pdfrwt>
<pdfrwt beam="2">  1       -2 0.26705295E+00 0.12115928E+04</pdfrwt>
<totfact> 0.81303329E+00</totfact>
</mgrwt>
</event>
<event>
12    2  0.3552864E-008  0.3173500E+04  0.7818608E-02  0.8195851E-01
         -2   -1    0    0    0  501 -0.00000000000E+00  0.00000000000E+00  0.87447858902E+03  0.87447858902E+03  0.00000000000E+00 0.  1.
          2   -1    0    0  501    0  0.00000000000E+00 -0.00000000000E+00 -0.28791726542E+04  0.28791726542E+04  0.00000000000E+00 0. -1.
         23    2    1    2    0    0 -0.66299925323E+03  0.70357040238E+03 -0.21971696653E+04  0.24020687885E+04  0.88321036254E+02 0.  0.
        254    2    1    2    0    0  0.66299925323E+03 -0.70357040238E+03  0.19247560017E+03  0.13515824547E+04  0.92474264224E+03 0.  0.
         23    2    4    4    0    0  0.83902847685E+03 -0.48791186814E+03  0.32774871302E+03  0.10284846079E+04  0.91293996050E+02 0.  0.
         23    2    4    4    0    0 -0.17602922362E+03 -0.21565853424E+03 -0.13527311285E+03  0.32309784686E+03  0.92728165204E+02 0.  0.
          3    1    3    3  502    0 -0.62866108226E+03  0.69103403626E+03 -0.21139799082E+04  0.23112018190E+04  0.00000000000E+00 0. -1.
         -3    1    3    3    0  502 -0.34338170964E+02  0.12536366121E+02 -0.83189757079E+02  0.90866969486E+02  0.00000000000E+00 0.  1.
         11    1    5    5    0    0  0.28482668651E+03 -0.20879646088E+03  0.14335670418E+03  0.38114740988E+03  0.00000000000E+00 0. -1.
        -11    1    5    5    0    0  0.55420179034E+03 -0.27911540725E+03  0.18439200884E+03  0.64733719799E+03  0.00000000000E+00 0.  1.
          4    1    6    6  503    0 -0.11407893566E+03 -0.13809352807E+03 -0.13421390130E+03  0.22382403213E+03  0.00000000000E+00 0. -1.
         -4    1    6    6    0  503 -0.61950287962E+02 -0.77565006173E+02 -0.10592115485E+01  0.99273814726E+02  0.00000000000E+00 0.  1.
<mgrwt>
<rscale>  0 0.31734995E+04</rscale>
<asrwt>0</asrwt>
<pdfrwt beam="1">  1        2 0.44294964E+00 0.31734995E+04</pdfrwt>
<pdfrwt beam="2">  1       -2 0.13453517E+00 0.31734995E+04</pdfrwt>
<totfact> 0.69460410E-01</totfact>
</mgrwt>
</event>
<event>
12    2  0.3552864E-008  0.2262747E+04  0.7818608E-02  0.8492756E-01
          2   -1    0    0  501    0  0.00000000000E+00  0.00000000000E+00  0.17050003227E+04  0.17050003227E+04  0.00000000000E+00 0. -1.
         -2   -1    0    0    0  501 -0.00000000000E+00 -0.00000000000E+00 -0.75073619395E+03  0.75073619395E+03  0.00000000000E+00 0.  1.
         23    2    1    2    0    0 -0.58595062451E+03  0.41316725841E+03 -0.27675586494E+03  0.77428132383E+03  0.94193640261E+02 0.  0.
        254    2    1    2    0    0  0.58595062451E+03 -0.41316725841E+03  0.12310199937E+04  0.16814551928E+04  0.89321667181E+03 0.  0.
         23    2    4    4    0    0  0.90958825158E+02 -0.59612890708E+03  0.66480458836E+03  0.90222335388E+03  0.91644191555E+02 0.  0.
         23    2    4    4    0    0  0.49499179935E+03  0.18296164867E+03  0.56621540531E+03  0.77923183893E+03  0.90058465848E+02 0.  0.
          2    1    3    3  502    0 -0.41357327463E+03  0.29918531290E+03 -0.15074736033E+03  0.53224005071E+03  0.00000000000E+00 0.  1.
         -2    1    3    3    0  502 -0.17237734988E+03  0.11398194551E+03 -0.12600850462E+03  0.24204127311E+03  0.00000000000E+00 0. -1.
         11    1    5    5    0    0  0.56152855172E+02 -0.35920488161E+03  0.46559740094E+03  0.59073025136E+03  0.00000000000E+00 0. -1.
        -11    1    5    5    0    0  0.34805969987E+02 -0.23692402548E+03  0.19920718742E+03  0.31149310251E+03  0.00000000000E+00 0.  1.
          2    1    6    6  503    0  0.41677694845E+03  0.15094428335E+03  0.51860212512E+03  0.68222823572E+03  0.00000000000E+00 0.  1.
         -2    1    6    6    0  503  0.78214850906E+02  0.32017365323E+02  0.47613280192E+02  0.97003603207E+02  0.00000000000E+00 0. -1.
<mgrwt>
<rscale>  0 0.22627465E+04</rscale>
<asrwt>0</asrwt>
<pdfrwt beam="1">  1        2 0.26230774E+00 0.22627465E+04</pdfrwt>
<pdfrwt beam="2">  1       -2 0.11549788E+00 0.22627465E+04</pdfrwt>
<totfact> 0.51705726E+00</totfact>
</mgrwt>
</event>
<event>
12    2  0.3552864E-008  0.1303318E+04  0.7818608E-02  0.9026938E-01
          2   -1    0    0  501    0  0.00000000000E+00  0.00000000000E+00  0.33074961974E+03  0.33074961974E+03  0.00000000000E+00 0. -1.
         -2   -1    0    0    0  501 -0.00000000000E+00 -0.00000000000E+00 -0.12839293254E+04  0.12839293254E+04  0.00000000000E+00 0.  1.
         23    2    1    2    0    0 -0.26088147330E+03  0.15905229108E+03 -0.76932298285E+02  0.32805114163E+03  0.91335637049E+02 0.  0.
        254    2    1    2    0    0  0.26088147330E+03 -0.15905229108E+03 -0.87624740733E+03  0.12866278035E+04  0.89120413564E+03 0.  0.
         23    2    4    4    0    0 -0.53564848778E+02 -0.45524680493E+03 -0.28217849738E+03  0.54635609370E+03  0.93602512331E+02 0.  0.
         23    2    4    4    0    0  0.31444632207E+03  0.29619451384E+03 -0.59406890995E+03  0.74027170977E+03  0.92068751570E+02 0.  0.
          3    1    3    3  502    0  0.32279973243E+01  0.18351068909E+02  0.15006339438E+01  0.18693143103E+02  0.00000000000E+00 0. -1.
         -3    1    3    3    0  502 -0.26410947062E+03  0.14070122217E+03 -0.78432932229E+02  0.30935799852E+03  0.00000000000E+00 0.  1.
         11    1    5    5    0    0 -0.50156929996E+02 -0.39816450998E+03 -0.20597688487E+03  0.45108443969E+03  0.00000000000E+00 0.  1.
        -11    1    5    5    0    0 -0.34079187814E+01 -0.57082294946E+02 -0.76201612512E+02  0.95271654002E+02  0.00000000000E+00 0. -1.
          2    1    6    6  503    0  0.15458888640E+03  0.19650163257E+03 -0.29368027338E+03  0.38569251791E+03  0.00000000000E+00 0. -1.
         -2    1    6    6    0  503  0.15985743567E+03  0.99692881279E+02 -0.30038863657E+03  0.35457919186E+03  0.00000000000E+00 0.  1.
<mgrwt>
<rscale>  0 0.13033175E+04</rscale>
<asrwt>0</asrwt>
<pdfrwt beam="1">  1        2 0.50884557E-01 0.13033175E+04</pdfrwt>
<pdfrwt beam="2">  1       -2 0.19752759E+00 0.13033175E+04</pdfrwt>
<totfact> 0.13310233E+01</totfact>
</mgrwt>
</event>
<event>
12    2  0.3552864E-008  0.1120845E+04  0.7818608E-02  0.9185110E-01
         -2   -1    0    0    0  501 -0.00000000000E+00  0.00000000000E+00  0.41186143823E+03  0.41186143823E+03  0.00000000000E+00 0.  1.
          2   -1    0    0  501    0  0.00000000000E+00 -0.00000000000E+00 -0.76256989197E+03  0.76256989197E+03  0.00000000000E+00 0. -1.
         23    2    1    2    0    0  0.32811293249E+02 -0.16995809057E+03 -0.10488354779E+03  0.22258447348E+03  0.92633448163E+02 0.  0.
        254    2    1    2    0    0 -0.32811293249E+02  0.16995809057E+03 -0.24582490595E+03  0.95184685672E+03  0.90311694744E+03 0.  0.
         23    2    4    4    0    0  0.32752784516E+03  0.72015742430E+02 -0.40645507501E+03  0.53489538529E+03  0.91905324574E+02 0.  0.
         23    2    4    4    0    0 -0.36033913841E+03  0.97942348144E+02  0.16063016906E+03  0.41695147144E+03  0.92787284097E+02 0.  0.
          4    1    3    3  502    0  0.38139859458E+02 -0.13057073292E+03 -0.11866944643E+03  0.18051538076E+03  0.00000000000E+00 0. -1.
         -4    1    3    3    0  502 -0.53285662093E+01 -0.39387357656E+02  0.13785898636E+02  0.42069092719E+02  0.00000000000E+00 0.  1.
         11    1    5    5    0    0  0.12036585626E+03  0.45335851705E+02 -0.95063555173E+02  0.15993860799E+03  0.00000000000E+00 0. -1.
        -11    1    5    5    0    0  0.20716198890E+03  0.26679890725E+02 -0.31139151984E+03  0.37495677730E+03  0.00000000000E+00 0.  1.
          4    1    6    6  503    0 -0.18360221745E+03  0.48728962210E+01  0.59494467259E+02  0.19306245364E+03  0.00000000000E+00 0. -1.
         -4    1    6    6    0  503 -0.17673692096E+03  0.93069451923E+02  0.10113570180E+03  0.22388901780E+03  0.00000000000E+00 0.  1.
<mgrwt>
<rscale>  0 0.11208446E+04</rscale>
<asrwt>0</asrwt>
<pdfrwt beam="1">  1        2 0.11731844E+00 0.11208446E+04</pdfrwt>
<pdfrwt beam="2">  1       -2 0.63363299E-01 0.11208446E+04</pdfrwt>
<totfact> 0.83950611E+01</totfact>
</mgrwt>
</event>
<event>
12    2  0.3552864E-008  0.2234280E+04  0.7818608E-02  0.8504294E-01
         -2   -1    0    0    0  501 -0.00000000000E+00  0.00000000000E+00  0.14180178763E+04  0.14180178763E+04  0.00000000000E+00 0.  1.
          2   -1    0    0  501    0  0.00000000000E+00 -0.00000000000E+00 -0.88010337488E+03  0.88010337488E+03  0.00000000000E+00 0. -1.
         23    2    1    2    0    0 -0.31963827742E+03  0.61282431268E+03 -0.41801044509E+03  0.81242569084E+03  0.87066091712E+02 0.  0.
        254    2    1    2    0    0  0.31963827742E+03 -0.61282431268E+03  0.95592494650E+03  0.14856955603E+04  0.90320348098E+03 0.  0.
         23    2    4    4    0    0  0.49703036508E+03 -0.47224469467E+03  0.10209543382E+04  0.12331870450E+04  0.91368987250E+02 0.  0.
         23    2    4    4    0    0 -0.17739208766E+03 -0.14057961802E+03 -0.65029391710E+02  0.25250851532E+03  0.91110629213E+02 0.  0.
          2    1    3    3  502    0 -0.87654269766E+02  0.19981559546E+03 -0.88863198883E+02  0.23559756220E+03  0.00000000000E+00 0.  1.
         -2    1    3    3    0  502 -0.23198400765E+03  0.41300871722E+03 -0.32914724621E+03  0.57682812864E+03  0.00000000000E+00 0. -1.
         11    1    5    5    0    0  0.59563188538E+02 -0.91342094612E+02  0.12529617044E+03  0.16610322696E+03  0.00000000000E+00 0. -1.
        -11    1    5    5    0    0  0.43746717654E+03 -0.38090260005E+03  0.89565816776E+03  0.10670838181E+04  0.00000000000E+00 0.  1.
          4    1    6    6  503    0 -0.27327363339E+01  0.11813993377E+02 -0.19460171116E+01  0.12281094006E+02  0.00000000000E+00 0. -1.
         -4    1    6    6    0  503 -0.17465935133E+03 -0.15239361139E+03 -0.63083374599E+02  0.24022742131E+03  0.00000000000E+00 0.  1.
<mgrwt>
<rscale>  0 0.22342805E+04</rscale>
<asrwt>0</asrwt>
<pdfrwt beam="1">  1        2 0.13540052E+00 0.22342805E+04</pdfrwt>
<pdfrwt beam="2">  1       -2 0.21815660E+00 0.22342805E+04</pdfrwt>
<totfact> 0.27987894E+00</totfact>
</mgrwt>
</event>
<event>
12    2  0.3552864E-008  0.1185231E+04  0.7818608E-02  0.9125883E-01
          1   -1    0    0  501    0  0.00000000000E+00  0.00000000000E+00  0.61255180426E+03  0.61255180426E+03  0.00000000000E+00 0. -1.
         -1   -1    0    0    0  501 -0.00000000000E+00 -0.00000000000E+00 -0.57332779224E+03  0.57332779224E+03  0.00000000000E+00 0.  1.
         23    2    1    2    0    0  0.14282569133E+03 -0.71049800413E+02  0.18346691102E+03  0.25961217168E+03  0.91055587429E+02 0.  0.
        254    2    1    2    0    0 -0.14282569133E+03  0.71049800413E+02 -0.14424289900E+03  0.92626742483E+03  0.90095398115E+03 0.  0.
         23    2    4    4    0    0  0.15623105500E+03 -0.85808431726E+02 -0.43064472325E+03  0.47432025502E+03  0.88054512401E+02 0.  0.
         23    2    4    4    0    0 -0.29905674633E+03  0.15685823214E+03  0.28640182425E+03  0.45194716981E+03  0.90503021215E+02 0.  0.
          1    1    3    3  502    0  0.12573478813E+03 -0.16998643786E+02  0.12256697579E+03  0.17641103818E+03  0.00000000000E+00 0. -1.
         -1    1    3    3    0  502  0.17090903203E+02 -0.54051156627E+02  0.60899935232E+02  0.83201133504E+02  0.00000000000E+00 0.  1.
         11    1    5    5    0    0  0.27466482463E+02  0.95167019102E+01 -0.13462205853E+03  0.13772463075E+03  0.00000000000E+00 0. -1.
        -11    1    5    5    0    0  0.12876457254E+03 -0.95325133636E+02 -0.29602266472E+03  0.33659562426E+03  0.00000000000E+00 0.  1.
          4    1    6    6  503    0 -0.93169280989E+01  0.12439191964E+02  0.46445821440E+02  0.48977065808E+02  0.00000000000E+00 0. -1.
         -4    1    6    6    0  503 -0.28973981823E+03  0.14441904017E+03  0.23995600281E+03  0.40297010400E+03  0.00000000000E+00 0.  1.
<mgrwt>
<rscale>  0 0.11852307E+04</rscale>
<asrwt>0</asrwt>
<pdfrwt beam="1">  1        1 0.94238740E-01 0.11852307E+04</pdfrwt>
<pdfrwt beam="2">  1       -1 0.88204275E-01 0.11852307E+04</pdfrwt>
<totfact> 0.41602605E+01</totfact>
</mgrwt>
</event>
<event>
12    2  0.3552864E-008  0.4322073E+04  0.7818608E-02  0.7942549E-01
         -2   -1    0    0    0  501 -0.00000000000E+00  0.00000000000E+00  0.18029122794E+04  0.18029122794E+04  0.00000000000E+00 0.  1.
          2   -1    0    0  501    0  0.00000000000E+00 -0.00000000000E+00 -0.25902975101E+04  0.25902975101E+04  0.00000000000E+00 0. -1.
         23    2    1    2    0    0  0.22685943752E+03 -0.19479323525E+04 -0.10431562296E+04  0.22230885693E+04  0.89678387215E+02 0.  0.
        254    2    1    2    0    0 -0.22685943752E+03  0.19479323525E+04  0.25577099885E+03  0.21701212202E+04  0.89336535202E+03 0.  0.
         23    2    4    4    0    0 -0.28251389917E+03  0.18957164728E+04  0.34705305576E+02  0.19191659725E+04  0.91861435480E+02 0.  0.
         23    2    4    4    0    0  0.55654461647E+02  0.52215879764E+02  0.22106569328E+03  0.25095524775E+03  0.91019659566E+02 0.  0.
          2    1    3    3  502    0  0.69537499610E+02 -0.43218000102E+03 -0.26958404128E+03  0.51409198831E+03  0.00000000000E+00 0. -1.
         -2    1    3    3    0  502  0.15732193791E+03 -0.15157523515E+04 -0.77357218833E+03  0.17089965810E+04  0.00000000000E+00 0.  1.
         11    1    5    5    0    0 -0.18477753367E+03  0.14458137371E+04  0.15066236341E+01  0.14575741385E+04  0.00000000000E+00 0. -1.
        -11    1    5    5    0    0 -0.97736365506E+02  0.44990273570E+03  0.33198681942E+02  0.46159183400E+03  0.00000000000E+00 0.  1.
          4    1    6    6  503    0 -0.69084957004E+01  0.35296244634E+02  0.15218631443E+03  0.15637847198E+03  0.00000000000E+00 0. -1.
         -4    1    6    6    0  503  0.62562957348E+02  0.16919635130E+02  0.68879378849E+02  0.94576775773E+02  0.00000000000E+00 0.  1.
<mgrwt>
<rscale>  0 0.43220732E+04</rscale>
<asrwt>0</asrwt>
<pdfrwt beam="1">  1        2 0.39850731E+00 0.43220732E+04</pdfrwt>
<pdfrwt beam="2">  1       -2 0.27737112E+00 0.43220732E+04</pdfrwt>
<totfact> 0.10356244E-01</totfact>
</mgrwt>
</event>
<event>
12    2  0.3552864E-008  0.2644438E+04  0.7818608E-02  0.8353261E-01
         -2   -1    0    0    0  501 -0.00000000000E+00  0.00000000000E+00  0.62576354052E+03  0.62576354052E+03  0.00000000000E+00 0.  1.
          2   -1    0    0  501    0  0.00000000000E+00 -0.00000000000E+00 -0.27938082962E+04  0.27938082962E+04  0.00000000000E+00 0. -1.
         23    2    1    2    0    0 -0.75073390267E+03 -0.70263194429E+02 -0.21089127464E+04  0.22415535010E+04  0.92254087073E+02 0.  0.
        254    2    1    2    0    0  0.75073390267E+03  0.70263194429E+02 -0.59132009245E+02  0.11780183357E+04  0.90315685001E+03 0.  0.
         23    2    4    4    0    0 -0.16514901757E+01 -0.43802635016E+02 -0.34489100513E+03  0.36001102194E+03  0.93470488641E+02 0.  0.
         23    2    4    4    0    0  0.75238539284E+03  0.11406582945E+03  0.28575899588E+03  0.81800731380E+03  0.91558554460E+02 0.  0.
          3    1    3    3  502    0 -0.46566923135E+03 -0.15151193402E+02 -0.11943558763E+04  0.12820153474E+04  0.00000000000E+00 0. -1.
         -3    1    3    3    0  502 -0.28506467132E+03 -0.55112001027E+02 -0.91455687012E+03  0.95953815358E+03  0.00000000000E+00 0.  1.
         11    1    5    5    0    0  0.35280878362E+02 -0.21438567724E+01 -0.59224515207E+02  0.68970136301E+02  0.00000000000E+00 0.  1.
        -11    1    5    5    0    0 -0.36932368538E+02 -0.41658778243E+02 -0.28566648992E+03  0.29104088564E+03  0.00000000000E+00 0. -1.
          3    1    6    6  503    0  0.59556810961E+03  0.58030256376E+02  0.20171281033E+03  0.63147204347E+03  0.00000000000E+00 0. -1.
         -3    1    6    6    0  503  0.15681728324E+03  0.56035573069E+02  0.84046185557E+02  0.18653527033E+03  0.00000000000E+00 0.  1.
<mgrwt>
<rscale>  0 0.26444382E+04</rscale>
<asrwt>0</asrwt>
<pdfrwt beam="1">  1        2 0.42981666E+00 0.26444382E+04</pdfrwt>
<pdfrwt beam="2">  1       -2 0.96271313E-01 0.26444382E+04</pdfrwt>
<totfact> 0.18566448E+00</totfact>
</mgrwt>
</event>
<event>
12    2  0.3552864E-008  0.3267835E+04  0.7818608E-02  0.8171128E-01
          2   -1    0    0  501    0  0.00000000000E+00  0.00000000000E+00  0.14250706508E+04  0.14250706508E+04  0.00000000000E+00 0. -1.
         -2   -1    0    0    0  501 -0.00000000000E+00 -0.00000000000E+00 -0.18733706975E+04  0.18733706975E+04  0.00000000000E+00 0.  1.
         23    2    1    2    0    0  0.10153231739E+04 -0.82624615274E+03  0.54821630926E+03  0.14221437603E+04  0.91585483543E+02 0.  0.
        254    2    1    2    0    0 -0.10153231739E+04  0.82624615274E+03 -0.99651635592E+03  0.18762975880E+04  0.90215516335E+03 0.  0.
         23    2    4    4    0    0 -0.35146291243E+03 -0.11307127862E+03 -0.47929412923E+03  0.61188038062E+03  0.91451872659E+02 0.  0.
         23    2    4    4    0    0 -0.66386026148E+03  0.93931743136E+03 -0.51722222669E+03  0.12644172074E+04  0.90577916323E+02 0.  0.
          3    1    3    3  502    0  0.68604410240E+02 -0.79868667193E+02  0.26680456827E+02  0.10861590988E+03  0.00000000000E+00 0. -1.
         -3    1    3    3    0  502  0.94671876368E+03 -0.74637748555E+03  0.52153585243E+03  0.13135278504E+04  0.00000000000E+00 0.  1.
         11    1    5    5    0    0 -0.37228398751E+02  0.16100502700E+02 -0.48029935821E+02  0.62865368811E+02  0.00000000000E+00 0. -1.
        -11    1    5    5    0    0 -0.31423451368E+03 -0.12917178132E+03 -0.43126419341E+03  0.54901501181E+03  0.00000000000E+00 0.  1.
          3    1    6    6  503    0 -0.41606934563E+03  0.51131027932E+03 -0.29148550983E+03  0.72077437840E+03  0.00000000000E+00 0. -1.
         -3    1    6    6    0  503 -0.24779091585E+03  0.42800715204E+03 -0.22573671687E+03  0.54364282900E+03  0.00000000000E+00 0.  1.
<mgrwt>
<rscale>  0 0.32678345E+04</rscale>
<asrwt>0</asrwt>
<pdfrwt beam="1">  1        2 0.21924164E+00 0.32678345E+04</pdfrwt>
<pdfrwt beam="2">  1       -2 0.28821088E+00 0.32678345E+04</pdfrwt>
<totfact> 0.43988565E-01</totfact>
</mgrwt>
</event>
<event>
12    2  0.3552864E-008  0.1304147E+04  0.7818608E-02  0.9026283E-01
         -3   -1    0    0    0  501 -0.00000000000E+00  0.00000000000E+00  0.64160162600E+03  0.64160162600E+03  0.00000000000E+00 0.  1.
          3   -1    0    0  501    0  0.00000000000E+00 -0.00000000000E+00 -0.66271580415E+03  0.66271580415E+03  0.00000000000E+00 0. -1.
         23    2    1    2    0    0 -0.29448468961E+03  0.10291229987E+03  0.11613912354E+03  0.34502812727E+03  0.90796138186E+02 0.  0.
        254    2    1    2    0    0  0.29448468961E+03 -0.10291229987E+03 -0.13725330170E+03  0.95928930288E+03  0.89670804831E+03 0.  0.
         23    2    4    4    0    0  0.10790815030E+03  0.27807001555E+03  0.23258199022E+03  0.38922816182E+03  0.91853564568E+02 0.  0.
         23    2    4    4    0    0  0.18657653931E+03 -0.38098231542E+03 -0.36983529192E+03  0.57006114106E+03  0.90737157300E+02 0.  0.
          3    1    3    3  502    0  0.52319226453E+01 -0.40985775543E+01  0.22903382002E+01  0.70297227262E+01  0.00000000000E+00 0. -1.
         -3    1    3    3    0  502 -0.29971661225E+03  0.10701087742E+03  0.11384878534E+03  0.33799840454E+03  0.00000000000E+00 0.  1.
         11    1    5    5    0    0  0.12314558750E+03  0.23266387576E+03  0.20731461423E+03  0.33507710169E+03  0.00000000000E+00 0.  1.
        -11    1    5    5    0    0 -0.15237437195E+02  0.45406139798E+02  0.25267375988E+02  0.54151060127E+02  0.00000000000E+00 0. -1.
          3    1    6    6  503    0  0.10088950422E+03 -0.18226031415E+03 -0.12353701602E+03  0.24219601256E+03  0.00000000000E+00 0. -1.
         -3    1    6    6    0  503  0.85687035089E+02 -0.19872200127E+03 -0.24629827591E+03  0.32786512850E+03  0.00000000000E+00 0.  1.
<mgrwt>
<rscale>  0 0.13041465E+04</rscale>
<asrwt>0</asrwt>
<pdfrwt beam="1">  1        3 0.10195628E+00 0.13041465E+04</pdfrwt>
<pdfrwt beam="2">  1       -3 0.98707943E-01 0.13041465E+04</pdfrwt>
<totfact> 0.19341798E+00</totfact>
</mgrwt>
</event>
<event>
12    2  0.3552864E-008  0.1464515E+04  0.7818608E-02  0.8908399E-01
          3   -1    0    0  501    0  0.00000000000E+00  0.00000000000E+00  0.70348878142E+03  0.70348878142E+03  0.00000000000E+00 0. -1.
         -3   -1    0    0    0  501 -0.00000000000E+00 -0.00000000000E+00 -0.76220311792E+03  0.76220311792E+03  0.00000000000E+00 0.  1.
         23    2    1    2    0    0 -0.30300383590E+03  0.30639917116E+03  0.11058223026E+03  0.45435372316E+03  0.92288132746E+02 0.  0.
        254    2    1    2    0    0  0.30300383590E+03 -0.30639917116E+03 -0.16929656677E+03  0.10113381762E+04  0.89913947885E+03 0.  0.
         23    2    4    4    0    0  0.19980431299E+03 -0.47714297841E+03 -0.42478289786E+03  0.67518750014E+03  0.88602848093E+02 0.  0.
         23    2    4    4    0    0  0.10319952291E+03  0.17074380725E+03  0.25548633109E+03  0.33615067604E+03  0.88996754916E+02 0.  0.
          3    1    3    3  502    0 -0.18158914101E+03  0.22526623848E+03  0.10633629117E+03  0.30826433649E+03  0.00000000000E+00 0. -1.
         -3    1    3    3    0  502 -0.12141469488E+03  0.81132932677E+02  0.42459390936E+01  0.14608938667E+03  0.00000000000E+00 0.  1.
         11    1    5    5    0    0  0.18419358211E+03 -0.47391757138E+03 -0.41625122624E+03  0.65710746724E+03  0.00000000000E+00 0. -1.
        -11    1    5    5    0    0  0.15610730876E+02 -0.32254070344E+01 -0.85316716178E+01  0.18080032899E+02  0.00000000000E+00 0.  1.
          2    1    6    6  503    0  0.49327938397E+02  0.13171160150E+03  0.11868236544E+03  0.18402906114E+03  0.00000000000E+00 0. -1.
         -2    1    6    6    0  503  0.53871584513E+02  0.39032205752E+02  0.13680396565E+03  0.15212161490E+03  0.00000000000E+00 0.  1.
<mgrwt>
<rscale>  0 0.14645154E+04</rscale>
<asrwt>0</asrwt>
<pdfrwt beam="1">  1        3 0.10822904E+00 0.14645154E+04</pdfrwt>
<pdfrwt beam="2">  1       -3 0.11726202E+00 0.14645154E+04</pdfrwt>
<totfact> 0.11017178E+00</totfact>
</mgrwt>
</event>
<event>
12    2  0.3552864E-008  0.2537357E+04  0.7818608E-02  0.8389797E-01
          2   -1    0    0  501    0  0.00000000000E+00  0.00000000000E+00  0.26885741392E+04  0.26885741392E+04  0.00000000000E+00 0. -1.
         -2   -1    0    0    0  501 -0.00000000000E+00 -0.00000000000E+00 -0.59866112012E+03  0.59866112012E+03  0.00000000000E+00 0.  1.
         23    2    1    2    0    0  0.83084021422E+02  0.29299015556E+03 -0.46418809307E+03  0.56220251894E+03  0.88627877572E+02 0.  0.
        254    2    1    2    0    0 -0.83084021422E+02 -0.29299015556E+03  0.25541011121E+04  0.27250327404E+04  0.89979150870E+03 0.  0.
         23    2    4    4    0    0  0.11082765059E+03  0.27702961544E+03  0.12092447936E+04  0.12487086470E+04  0.89286831543E+02 0.  0.
         23    2    4    4    0    0 -0.19391167201E+03 -0.57001977100E+03  0.13448563185E+04  0.14763240934E+04  0.91487896648E+02 0.  0.
          4    1    3    3  502    0  0.11688932515E+02  0.49089208563E+02 -0.14905162716E+03  0.15736190485E+03  0.00000000000E+00 0. -1.
         -4    1    3    3    0  502  0.71395088906E+02  0.24390094699E+03 -0.31513646591E+03  0.40484061408E+03  0.00000000000E+00 0.  1.
         11    1    5    5    0    0  0.85577753270E+02  0.25273003892E+03  0.93810952578E+03  0.97531815670E+03  0.00000000000E+00 0. -1.
        -11    1    5    5    0    0  0.25249897322E+02  0.24299576526E+02  0.27113526783E+03  0.27339049031E+03  0.00000000000E+00 0.  1.
          2    1    6    6  503    0 -0.16702193663E+03 -0.52850868041E+03  0.12792277785E+04  0.13941454235E+04  0.00000000000E+00 0. -1.
         -2    1    6    6    0  503 -0.26889735386E+02 -0.41511090592E+02  0.65628540031E+02  0.82178669848E+02  0.00000000000E+00 0.  1.
<mgrwt>
<rscale>  0 0.25373567E+04</rscale>
<asrwt>0</asrwt>
<pdfrwt beam="1">  1        2 0.41362678E+00 0.25373567E+04</pdfrwt>
<pdfrwt beam="2">  1       -2 0.92101713E-01 0.25373567E+04</pdfrwt>
<totfact> 0.24023383E+00</totfact>
</mgrwt>
</event>
<event>
12    2  0.3552864E-008  0.1259345E+04  0.7818608E-02  0.9062441E-01
         -1   -1    0    0    0  501 -0.00000000000E+00  0.00000000000E+00  0.34644380538E+03  0.34644380538E+03  0.00000000000E+00 0.  1.
          1   -1    0    0  501    0  0.00000000000E+00 -0.00000000000E+00 -0.11444493655E+04  0.11444493655E+04  0.00000000000E+00 0. -1.
         23    2    1    2    0    0  0.27063087097E+03  0.11165780871E+03 -0.26656886257E+03  0.40657678959E+03  0.92396930508E+02 0.  0.
        254    2    1    2    0    0 -0.27063087097E+03 -0.11165780871E+03 -0.53143669752E+03  0.10843163813E+04  0.89867041602E+03 0.  0.
         23    2    4    4    0    0  0.67516700453E+02  0.89320026367E+02 -0.64751902481E+03  0.66351996667E+03  0.91876475369E+02 0.  0.
         23    2    4    4    0    0 -0.33814757142E+03 -0.20097783508E+03  0.11608232729E+03  0.42079641460E+03  0.94120378108E+02 0.  0.
          1    1    3    3  502    0  0.21283664845E+03  0.11666139865E+03 -0.17918130623E+03  0.30168735698E+03  0.00000000000E+00 0. -1.
         -1    1    3    3    0  502  0.57794222519E+02 -0.50035899347E+01 -0.87387556346E+02  0.10488943261E+03  0.00000000000E+00 0.  1.
         11    1    5    5    0    0  0.22541996248E+02  0.44490773258E+02 -0.94382012472E+02  0.10674987016E+03  0.00000000000E+00 0.  1.
        -11    1    5    5    0    0  0.44974704205E+02  0.44829253109E+02 -0.55313701234E+03  0.55677009651E+03  0.00000000000E+00 0. -1.
          2    1    6    6  503    0 -0.28438006032E+03 -0.14312088432E+03  0.12347049271E+03  0.34146825446E+03  0.00000000000E+00 0. -1.
         -2    1    6    6    0  503 -0.53767511107E+02 -0.57856950763E+02 -0.73881654240E+01  0.79328160136E+02  0.00000000000E+00 0.  1.
<mgrwt>
<rscale>  0 0.12593449E+04</rscale>
<asrwt>0</asrwt>
<pdfrwt beam="1">  1        1 0.17606913E+00 0.12593449E+04</pdfrwt>
<pdfrwt beam="2">  1       -1 0.53299048E-01 0.12593449E+04</pdfrwt>
<totfact> 0.41084601E+01</totfact>
</mgrwt>
</event>
<event>
12    2  0.3552864E-008  0.2362872E+04  0.7818608E-02  0.8453536E-01
         -2   -1    0    0    0  501 -0.00000000000E+00  0.00000000000E+00  0.10801147858E+04  0.10801147858E+04  0.00000000000E+00 0.  1.
          2   -1    0    0  501    0  0.00000000000E+00 -0.00000000000E+00 -0.12922615245E+04  0.12922615245E+04  0.00000000000E+00 0. -1.
         23    2    1    2    0    0 -0.95957930035E+03  0.22425522655E+03 -0.27538215259E+03  0.10272679261E+04  0.91439716252E+02 0.  0.
        254    2    1    2    0    0  0.95957930035E+03 -0.22425522655E+03  0.63235413913E+02  0.13451083843E+04  0.91336466299E+03 0.  0.
         23    2    4    4    0    0  0.24043780730E+03  0.18656748240E+02 -0.38069548585E+03  0.46107053422E+03  0.97460613295E+02 0.  0.
         23    2    4    4    0    0  0.71914149305E+03 -0.24291197479E+03  0.44393089976E+03  0.88403785007E+03  0.90981108281E+02 0.  0.
          3    1    3    3  502    0 -0.53235981149E+03  0.15782601730E+03 -0.12194249919E+03  0.56849449754E+03  0.00000000000E+00 0. -1.
         -3    1    3    3    0  502 -0.42721948887E+03  0.66429209245E+02 -0.15343965341E+03  0.45877342855E+03  0.00000000000E+00 0.  1.
         11    1    5    5    0    0  0.30467839286E+02 -0.15178875987E+02 -0.13277047213E+02  0.36537206922E+02  0.00000000000E+00 0.  1.
        -11    1    5    5    0    0  0.20996996801E+03  0.33835624227E+02 -0.36741843863E+03  0.42453332729E+03  0.00000000000E+00 0. -1.
          2    1    6    6  503    0  0.56053352834E+03 -0.15042312876E+03  0.35103448458E+03  0.67826997827E+03  0.00000000000E+00 0. -1.
         -2    1    6    6    0  503  0.15860796471E+03 -0.92488846030E+02  0.92896415175E+02  0.20576787180E+03  0.00000000000E+00 0.  1.
<mgrwt>
<rscale>  0 0.23628718E+04</rscale>
<asrwt>0</asrwt>
<pdfrwt beam="1">  1        2 0.19880946E+00 0.23628718E+04</pdfrwt>
<pdfrwt beam="2">  1       -2 0.16617151E+00 0.23628718E+04</pdfrwt>
<totfact> 0.34211214E+00</totfact>
</mgrwt>
</event>
<event>
12    2  0.3552864E-008  0.3767182E+04  0.7818608E-02  0.8053234E-01
          2   -1    0    0  501    0  0.00000000000E+00  0.00000000000E+00  0.33334633383E+04  0.33334633383E+04  0.00000000000E+00 0. -1.
         -2   -1    0    0    0  501 -0.00000000000E+00 -0.00000000000E+00 -0.10643332423E+04  0.10643332423E+04  0.00000000000E+00 0.  1.
         23    2    1    2    0    0 -0.12233983971E+04  0.11804828851E+04  0.48489160598E+03  0.17704762602E+04  0.96035610868E+02 0.  0.
        254    2    1    2    0    0  0.12233983971E+04 -0.11804828851E+04  0.17842384900E+04  0.26273203204E+04  0.91052819657E+03 0.  0.
         23    2    4    4    0    0  0.11562825982E+04 -0.10721990320E+04  0.10977774093E+04  0.19232952158E+04  0.85726516222E+02 0.  0.
         23    2    4    4    0    0  0.67115798862E+02 -0.10828385310E+03  0.68646108070E+03  0.70402510460E+03  0.90513033783E+02 0.  0.
          1    1    3    3  502    0 -0.11919092872E+04  0.11426004771E+04  0.45424716408E+03  0.17124614113E+04  0.00000000000E+00 0. -1.
         -1    1    3    3    0  502 -0.31489109893E+02  0.37882408004E+02  0.30644441901E+02  0.58014848939E+02  0.00000000000E+00 0.  1.
         11    1    5    5    0    0  0.54976303924E+03 -0.48272875797E+03  0.55537591365E+03  0.91853625870E+03  0.00000000000E+00 0.  1.
        -11    1    5    5    0    0  0.60651955895E+03 -0.58947027402E+03  0.54240149566E+03  0.10047589571E+04  0.00000000000E+00 0. -1.
          1    1    6    6  503    0  0.79773417631E+02 -0.58523471677E+02  0.35178300966E+03  0.36543136261E+03  0.00000000000E+00 0. -1.
         -1    1    6    6    0  503 -0.12657618769E+02 -0.49760381425E+02  0.33467807104E+03  0.33859374198E+03  0.00000000000E+00 0.  1.
<mgrwt>
<rscale>  0 0.37671824E+04</rscale>
<asrwt>0</asrwt>
<pdfrwt beam="1">  1        2 0.51284051E+00 0.37671824E+04</pdfrwt>
<pdfrwt beam="2">  1       -2 0.16374358E+00 0.37671824E+04</pdfrwt>
<totfact> 0.20080544E-01</totfact>
</mgrwt>
</event>
<event>
12    2  0.3552864E-008  0.1127562E+04  0.7818608E-02  0.9178737E-01
         -2   -1    0    0    0  501 -0.00000000000E+00  0.00000000000E+00  0.34962222760E+03  0.34962222760E+03  0.00000000000E+00 0.  1.
          2   -1    0    0  501    0  0.00000000000E+00 -0.00000000000E+00 -0.90912065719E+03  0.90912065719E+03  0.00000000000E+00 0. -1.
         23    2    1    2    0    0  0.13326810322E+03  0.29455692493E+02 -0.48164324057E+02  0.17235517985E+03  0.93586755227E+02 0.  0.
        254    2    1    2    0    0 -0.13326810322E+03 -0.29455692493E+02 -0.51133410553E+03  0.10863877049E+04  0.94876111472E+03 0.  0.
         23    2    4    4    0    0  0.25838268893E+03 -0.34647469301E+03 -0.19030022358E+03  0.48191847848E+03  0.96046436520E+02 0.  0.
         23    2    4    4    0    0 -0.39165079215E+03  0.31701900052E+03 -0.32103388195E+03  0.60446922646E+03  0.91809055614E+02 0.  0.
          4    1    3    3  502    0  0.37806327658E+02  0.57407121389E+01 -0.62180861362E+02  0.72998176050E+02  0.00000000000E+00 0. -1.
         -4    1    3    3    0  502  0.95461775558E+02  0.23714980354E+02  0.14016537305E+02  0.99357003799E+02  0.00000000000E+00 0.  1.
         11    1    5    5    0    0  0.16968805981E+03 -0.17917415809E+03 -0.66134310695E+02  0.25548221782E+03  0.00000000000E+00 0. -1.
        -11    1    5    5    0    0  0.88694629120E+02 -0.16730053492E+03 -0.12416591289E+03  0.22643626066E+03  0.00000000000E+00 0.  1.
          3    1    6    6  503    0 -0.15198761302E+03  0.67833142021E+02 -0.10407526547E+03  0.19629882972E+03  0.00000000000E+00 0. -1.
         -3    1    6    6    0  503 -0.23966317913E+03  0.24918585850E+03 -0.21695861647E+03  0.40817039673E+03  0.00000000000E+00 0.  1.
<mgrwt>
<rscale>  0 0.11275616E+04</rscale>
<asrwt>0</asrwt>
<pdfrwt beam="1">  1        2 0.13986472E+00 0.11275616E+04</pdfrwt>
<pdfrwt beam="2">  1       -2 0.53788035E-01 0.11275616E+04</pdfrwt>
<totfact> 0.93310242E+01</totfact>
</mgrwt>
</event>
<event>
12    2  0.3552864E-008  0.1492844E+04  0.7818608E-02  0.8889226E-01
         -2   -1    0    0    0  501 -0.00000000000E+00  0.00000000000E+00  0.68146210855E+03  0.68146210855E+03  0.00000000000E+00 0.  1.
          2   -1    0    0  501    0  0.00000000000E+00 -0.00000000000E+00 -0.81757404494E+03  0.81757404494E+03  0.00000000000E+00 0. -1.
         23    2    1    2    0    0 -0.41348349640E+02  0.27632301757E+03 -0.37644989444E+03  0.47799213824E+03  0.93262345786E+02 0.  0.
        254    2    1    2    0    0  0.41348349640E+02 -0.27632301757E+03  0.24033795805E+03  0.10210440152E+04  0.95221029764E+03 0.  0.
         23    2    4    4    0    0  0.42870724194E+03 -0.20920997068E+03 -0.95421403498E+02  0.49546870862E+03  0.93942992539E+02 0.  0.
         23    2    4    4    0    0 -0.38735889230E+03 -0.67113046890E+02  0.33575936154E+03  0.52557530663E+03  0.94572625902E+02 0.  0.
          2    1    3    3  502    0 -0.31454625590E+02  0.16121292737E+03 -0.29148917388E+03  0.33458173876E+03  0.00000000000E+00 0. -1.
         -2    1    3    3    0  502 -0.98937240503E+01  0.11511009020E+03 -0.84960720556E+02  0.14341039948E+03  0.00000000000E+00 0.  1.
         11    1    5    5    0    0  0.32237618885E+03 -0.10969050962E+03 -0.69301909474E+02  0.34750707862E+03  0.00000000000E+00 0.  1.
        -11    1    5    5    0    0  0.10633105310E+03 -0.99519461065E+02 -0.26119494024E+02  0.14796163000E+03  0.00000000000E+00 0. -1.
          3    1    6    6  503    0 -0.23819226990E+03 -0.76357073677E+00  0.22961287332E+03  0.33084469479E+03  0.00000000000E+00 0. -1.
         -3    1    6    6    0  503 -0.14916662240E+03 -0.66349476153E+02  0.10614648823E+03  0.19473061184E+03  0.00000000000E+00 0.  1.
<mgrwt>
<rscale>  0 0.14928439E+04</rscale>
<asrwt>0</asrwt>
<pdfrwt beam="1">  1        2 0.12578062E+00 0.14928439E+04</pdfrwt>
<pdfrwt beam="2">  1       -2 0.10484032E+00 0.14928439E+04</pdfrwt>
<totfact> 0.23866793E+01</totfact>
</mgrwt>
</event>
<event>
12    2  0.3552864E-008  0.2200354E+04  0.7818608E-02  0.8518281E-01
         -1   -1    0    0    0  501 -0.00000000000E+00  0.00000000000E+00  0.60726263453E+03  0.60726263453E+03  0.00000000000E+00 0.  1.
          1   -1    0    0  501    0  0.00000000000E+00 -0.00000000000E+00 -0.19931893185E+04  0.19931893185E+04  0.00000000000E+00 0. -1.
         23    2    1    2    0    0  0.39162545086E+03  0.65079267065E+03 -0.11695127698E+04  0.13974081276E+04  0.89931988385E+02 0.  0.
        254    2    1    2    0    0 -0.39162545086E+03 -0.65079267065E+03 -0.21641391419E+03  0.12030438254E+04  0.90751191160E+03 0.  0.
         23    2    4    4    0    0  0.30362973078E+01  0.50399115877E+02  0.24818537269E+03  0.26943903017E+03  0.91935421767E+02 0.  0.
         23    2    4    4    0    0 -0.39466174817E+03 -0.70119178652E+03 -0.46459928689E+03  0.93360479525E+03  0.91310456056E+02 0.  0.
          2    1    3    3  502    0  0.23637299705E+03  0.37925306304E+03 -0.76645289654E+03  0.88721762955E+03  0.00000000000E+00 0. -1.
         -2    1    3    3    0  502  0.15525245381E+03  0.27153960760E+03 -0.40305987326E+03  0.51019049809E+03  0.00000000000E+00 0.  1.
         11    1    5    5    0    0  0.89428342802E+01  0.26409433935E+02  0.94673548803E+01  0.29445938501E+02  0.00000000000E+00 0.  1.
        -11    1    5    5    0    0 -0.59065369724E+01  0.23989681942E+02  0.23871801781E+03  0.23999309167E+03  0.00000000000E+00 0. -1.
          3    1    6    6  503    0 -0.22066797171E+03 -0.45661509824E+03 -0.32692862220E+03  0.60338547024E+03  0.00000000000E+00 0. -1.
         -3    1    6    6    0  503 -0.17399377646E+03 -0.24457668828E+03 -0.13767066469E+03  0.33021932502E+03  0.00000000000E+00 0.  1.
<mgrwt>
<rscale>  0 0.22003540E+04</rscale>
<asrwt>0</asrwt>
<pdfrwt beam="1">  1        1 0.30664451E+00 0.22003540E+04</pdfrwt>
<pdfrwt beam="2">  1       -1 0.93425022E-01 0.22003540E+04</pdfrwt>
<totfact> 0.30520516E+00</totfact>
</mgrwt>
</event>
<event>
12    2  0.3552864E-008  0.1995545E+04  0.7818608E-02  0.8608706E-01
         -2   -1    0    0    0  501 -0.00000000000E+00  0.00000000000E+00  0.27351062038E+03  0.27351062038E+03  0.00000000000E+00 0.  1.
          2   -1    0    0  501    0  0.00000000000E+00 -0.00000000000E+00 -0.36398951864E+04  0.36398951864E+04  0.00000000000E+00 0. -1.
         23    2    1    2    0    0 -0.29243342229E+03 -0.36452387209E+03 -0.10174748421E+03  0.48703890130E+03  0.91974893555E+02 0.  0.
        254    2    1    2    0    0  0.29243342229E+03  0.36452387209E+03 -0.32646370818E+04  0.34263669054E+04  0.92937610000E+03 0.  0.
         23    2    4    4    0    0  0.51493426482E+03  0.53145555387E+03 -0.24551095348E+04  0.25657718567E+04  0.89554956665E+02 0.  0.
         23    2    4    4    0    0 -0.22250084253E+03 -0.16693168178E+03 -0.80952754701E+03  0.86059504872E+03  0.88972901510E+02 0.  0.
          3    1    3    3  502    0 -0.18975497046E+02  0.18104840253E+01 -0.22612326226E+01  0.19195325304E+02  0.00000000000E+00 0. -1.
         -3    1    3    3    0  502 -0.27345792524E+03 -0.36633435612E+03 -0.99486251588E+02  0.46784357600E+03  0.00000000000E+00 0.  1.
         11    1    5    5    0    0  0.66592415128E+02  0.47386323072E+02 -0.19807642109E+03  0.21427618150E+03  0.00000000000E+00 0. -1.
        -11    1    5    5    0    0  0.44834184969E+03  0.48406923080E+03 -0.22570331137E+04  0.23514956752E+04  0.00000000000E+00 0.  1.
          3    1    6    6  503    0 -0.35857417507E+02 -0.35805692583E+00 -0.17290305019E+03  0.17658240954E+03  0.00000000000E+00 0. -1.
         -3    1    6    6    0  503 -0.18664342502E+03 -0.16657362485E+03 -0.63662449682E+03  0.68401263918E+03  0.00000000000E+00 0.  1.
<mgrwt>
<rscale>  0 0.19955450E+04</rscale>
<asrwt>0</asrwt>
<pdfrwt beam="1">  1        2 0.55998386E+00 0.19955450E+04</pdfrwt>
<pdfrwt beam="2">  1       -2 0.42078558E-01 0.19955450E+04</pdfrwt>
<totfact> 0.32360722E+00</totfact>
</mgrwt>
</event>
<event>
12    2  0.3552864E-008  0.1617339E+04  0.7818608E-02  0.8809966E-01
         -2   -1    0    0    0  501 -0.00000000000E+00  0.00000000000E+00  0.42040552295E+03  0.42040552295E+03  0.00000000000E+00 0.  1.
          2   -1    0    0  501    0  0.00000000000E+00 -0.00000000000E+00 -0.15555132541E+04  0.15555132541E+04  0.00000000000E+00 0. -1.
         23    2    1    2    0    0  0.12828678729E+03  0.13657258776E+03  0.24385749014E+03  0.32110664773E+03  0.92376578197E+02 0.  0.
        254    2    1    2    0    0 -0.12828678729E+03 -0.13657258776E+03 -0.13789652213E+04  0.16548121293E+04  0.89540411565E+03 0.  0.
         23    2    4    4    0    0  0.25628739534E+03 -0.75341010096E+02 -0.77060582361E+02  0.29267849637E+03  0.91448740128E+02 0.  0.
         23    2    4    4    0    0 -0.38457418264E+03 -0.61231577664E+02 -0.13019046390E+04  0.13621336330E+04  0.93838889031E+02 0.  0.
          1    1    3    3  502    0  0.61836811425E+02  0.12385430733E+02  0.45222540613E+02  0.77603275196E+02  0.00000000000E+00 0. -1.
         -1    1    3    3    0  502  0.66449975868E+02  0.12418715703E+03  0.19863494952E+03  0.24350337253E+03  0.00000000000E+00 0.  1.
         11    1    5    5    0    0  0.15790331019E+02  0.17662820565E+02 -0.12840429117E+02  0.26947845997E+02  0.00000000000E+00 0. -1.
        -11    1    5    5    0    0  0.24049706432E+03 -0.93003830660E+02 -0.64220153244E+02  0.26573065038E+03  0.00000000000E+00 0.  1.
          4    1    6    6  503    0 -0.10716207565E+03 -0.58431727361E+02 -0.35304751803E+03  0.37355123773E+03  0.00000000000E+00 0. -1.
         -4    1    6    6    0  503 -0.27741210698E+03 -0.27998503031E+01 -0.94885712092E+03  0.98858239524E+03  0.00000000000E+00 0.  1.
<mgrwt>
<rscale>  0 0.16173390E+04</rscale>
<asrwt>0</asrwt>
<pdfrwt beam="1">  1        2 0.23930973E+00 0.16173390E+04</pdfrwt>
<pdfrwt beam="2">  1       -2 0.64677773E-01 0.16173390E+04</pdfrwt>
<totfact> 0.24957265E+01</totfact>
</mgrwt>
</event>
<event>
12    2  0.3552864E-008  0.1820513E+04  0.7818608E-02  0.8695466E-01
          2   -1    0    0  501    0  0.00000000000E+00  0.00000000000E+00  0.19983666883E+04  0.19983666883E+04  0.00000000000E+00 0. -1.
         -2   -1    0    0    0  501 -0.00000000000E+00 -0.00000000000E+00 -0.41462191843E+03  0.41462191843E+03  0.00000000000E+00 0.  1.
         23    2    1    2    0    0 -0.47655346221E+03  0.24754884398E+03  0.11704034243E+04  0.12910003311E+04  0.91945890202E+02 0.  0.
        254    2    1    2    0    0  0.47655346221E+03 -0.24754884398E+03  0.41334134557E+03  0.11219882757E+04  0.89421641130E+03 0.  0.
         23    2    4    4    0    0  0.51814770316E+03 -0.27265099820E+03  0.64199295923E+03  0.87355577262E+03  0.90161627480E+02 0.  0.
         23    2    4    4    0    0 -0.41594240947E+02  0.25102154212E+02 -0.22865161365E+03  0.24843250304E+03  0.84124604678E+02 0.  0.
          1    1    3    3  502    0 -0.38581193483E+03  0.15923186054E+03  0.86702621455E+03  0.96225780911E+03  0.00000000000E+00 0. -1.
         -1    1    3    3    0  502 -0.90741527376E+02  0.88316983446E+02  0.30337720973E+03  0.32874252195E+03  0.00000000000E+00 0.  1.
         11    1    5    5    0    0  0.49176352479E+03 -0.23565517012E+03  0.60860058990E+03  0.81716546767E+03  0.00000000000E+00 0. -1.
        -11    1    5    5    0    0  0.26384178370E+02 -0.36995828077E+02  0.33392369325E+02  0.56390304951E+02  0.00000000000E+00 0.  1.
          1    1    6    6  503    0 -0.56270591497E+02  0.22006080221E+02 -0.22503245182E+03  0.23300268541E+03  0.00000000000E+00 0. -1.
         -1    1    6    6    0  503  0.14676350550E+02  0.30960739909E+01 -0.36191618295E+01  0.15429817626E+02  0.00000000000E+00 0.  1.
<mgrwt>
<rscale>  0 0.18205127E+04</rscale>
<asrwt>0</asrwt>
<pdfrwt beam="1">  1        2 0.30744102E+00 0.18205127E+04</pdfrwt>
<pdfrwt beam="2">  1       -2 0.63787988E-01 0.18205127E+04</pdfrwt>
<totfact> 0.14344706E+01</totfact>
</mgrwt>
</event>
<event>
12    2  0.3552864E-008  0.1734790E+04  0.7818608E-02  0.8741767E-01
         -1   -1    0    0    0  501 -0.00000000000E+00  0.00000000000E+00  0.13479863892E+04  0.13479863892E+04  0.00000000000E+00 0.  1.
          1   -1    0    0  501    0  0.00000000000E+00 -0.00000000000E+00 -0.55814662041E+03  0.55814662041E+03  0.00000000000E+00 0. -1.
         23    2    1    2    0    0  0.47786173559E+03 -0.15290147935E+02 -0.23394943877E+03  0.53945516138E+03  0.87714903363E+02 0.  0.
        254    2    1    2    0    0 -0.47786173559E+03  0.15290147935E+02  0.10237892076E+04  0.13666778483E+04  0.76881621496E+03 0.  0.
         23    2    4    4    0    0 -0.12716273131E+03  0.70424141580E+02 -0.89856457583E+02  0.19422803483E+03  0.92306156861E+02 0.  0.
         23    2    4    4    0    0 -0.35069900428E+03 -0.55133993645E+02  0.11136456652E+04  0.11724498134E+04  0.91664325675E+02 0.  0.
          4    1    3    3  502    0  0.46706932865E+03 -0.29482474953E+02 -0.22193831258E+03  0.51795713017E+03  0.00000000000E+00 0. -1.
         -4    1    3    3    0  502  0.10792406934E+02  0.14192327018E+02 -0.12011126188E+02  0.21498031210E+02  0.00000000000E+00 0.  1.
         11    1    5    5    0    0 -0.29644914149E+02 -0.22520473399E+02 -0.15236050637E+02  0.40225985333E+02  0.00000000000E+00 0. -1.
        -11    1    5    5    0    0 -0.97517817160E+02  0.92944614979E+02 -0.74620406946E+02  0.15400204950E+03  0.00000000000E+00 0.  1.
          2    1    6    6  503    0 -0.37177294440E+02  0.37038666268E+01  0.22943617355E+03  0.23245822761E+03  0.00000000000E+00 0. -1.
         -2    1    6    6    0  503 -0.31352170984E+03 -0.58837860272E+02  0.88420949161E+03  0.93999158581E+03  0.00000000000E+00 0.  1.
<mgrwt>
<rscale>  0 0.17347900E+04</rscale>
<asrwt>0</asrwt>
<pdfrwt beam="1">  1        1 0.85868711E-01 0.17347900E+04</pdfrwt>
<pdfrwt beam="2">  1       -1 0.20738252E+00 0.17347900E+04</pdfrwt>
<totfact> 0.48272250E+00</totfact>
</mgrwt>
</event>
<event>
12    2  0.3552864E-008  0.1393948E+04  0.7818608E-02  0.8958211E-01
          2   -1    0    0  501    0  0.00000000000E+00  0.00000000000E+00  0.16368852078E+04  0.16368852078E+04  0.00000000000E+00 0.  1.
         -2   -1    0    0    0  501 -0.00000000000E+00 -0.00000000000E+00 -0.29676670288E+03  0.29676670288E+03  0.00000000000E+00 0. -1.
         23    2    1    2    0    0 -0.28154484652E+03 -0.16665527437E+03  0.74535301679E+02  0.34775333596E+03  0.91298359256E+02 0.  0.
        254    2    1    2    0    0  0.28154484652E+03  0.16665527437E+03  0.12655832032E+04  0.15858985747E+04  0.89795988993E+03 0.  0.
         23    2    4    4    0    0  0.25824532173E+03 -0.40725568943E+01 -0.30694643292E+02  0.27505474880E+03  0.89474699178E+02 0.  0.
         23    2    4    4    0    0  0.23299524784E+02  0.17072783126E+03  0.12962778465E+04  0.13108438259E+04  0.91018791127E+02 0.  0.
          1    1    3    3  502    0 -0.94058957775E+02 -0.93427921059E+02 -0.15250084883E+01  0.13258276518E+03  0.00000000000E+00 0. -1.
         -1    1    3    3    0  502 -0.18748588874E+03 -0.73227353307E+02  0.76060310167E+02  0.21517057079E+03  0.00000000000E+00 0.  1.
         11    1    5    5    0    0  0.28401098119E+02  0.92568077452E+01  0.24114377641E+02  0.38390286181E+02  0.00000000000E+00 0. -1.
        -11    1    5    5    0    0  0.22984422361E+03 -0.13329364639E+02 -0.54809020934E+02  0.23666446262E+03  0.00000000000E+00 0.  1.
          1    1    6    6  503    0 -0.26488599935E+02  0.90709825324E+02  0.81207539152E+03  0.81755511120E+03  0.00000000000E+00 0. -1.
         -1    1    6    6    0  503  0.49788124719E+02  0.80018005937E+02  0.48420245502E+03  0.49328871474E+03  0.00000000000E+00 0.  1.
<mgrwt>
<rscale>  0 0.13939484E+04</rscale>
<asrwt>0</asrwt>
<pdfrwt beam="1">  1        2 0.25182849E+00 0.13939484E+04</pdfrwt>
<pdfrwt beam="2">  1       -2 0.45656417E-01 0.13939484E+04</pdfrwt>
<totfact> 0.47098276E+01</totfact>
</mgrwt>
</event>
<event>
12    2  0.3552864E-008  0.3251309E+04  0.7818608E-02  0.8175397E-01
         -1   -1    0    0    0  501 -0.00000000000E+00  0.00000000000E+00  0.11133660825E+04  0.11133660825E+04  0.00000000000E+00 0.  1.
          1   -1    0    0  501    0  0.00000000000E+00 -0.00000000000E+00 -0.23736598581E+04  0.23736598581E+04  0.00000000000E+00 0. -1.
         23    2    1    2    0    0 -0.83731968222E+03  0.10081252726E+04 -0.12802262106E+04  0.18343164442E+04  0.91196775015E+02 0.  0.
        254    2    1    2    0    0  0.83731968222E+03 -0.10081252726E+04  0.19932435001E+02  0.16527094964E+04  0.10067922139E+04 0.  0.
         23    2    4    4    0    0  0.37320352042E+03 -0.79133485121E+03  0.44003700339E+03  0.98390494832E+03  0.94576258086E+02 0.  0.
         23    2    4    4    0    0  0.46411616180E+03 -0.21679042143E+03 -0.42010456839E+03  0.66880454806E+03  0.91704834460E+02 0.  0.
          3    1    3    3  502    0 -0.43154378203E+03  0.51680865976E+03 -0.72124681412E+03  0.98667025570E+03  0.00000000000E+00 0. -1.
         -3    1    3    3    0  502 -0.40577590019E+03  0.49131661288E+03 -0.55897939643E+03  0.84764618851E+03  0.00000000000E+00 0.  1.
         11    1    5    5    0    0  0.24151423630E+03 -0.52478219752E+03  0.33946649277E+03  0.67004699901E+03  0.00000000000E+00 0.  1.
        -11    1    5    5    0    0  0.13168928412E+03 -0.26655265369E+03  0.10057051061E+03  0.31385794931E+03  0.00000000000E+00 0. -1.
          1    1    6    6  503    0  0.41927684360E+03 -0.16936807393E+03 -0.38907902249E+03  0.59654094729E+03  0.00000000000E+00 0. -1.
         -1    1    6    6    0  503  0.44839318197E+02 -0.47422347501E+02 -0.31025545892E+02  0.72263600773E+02  0.00000000000E+00 0.  1.
<mgrwt>
<rscale>  0 0.32513089E+04</rscale>
<asrwt>0</asrwt>
<pdfrwt beam="1">  1        1 0.36517844E+00 0.32513089E+04</pdfrwt>
<pdfrwt beam="2">  1       -1 0.17128709E+00 0.32513089E+04</pdfrwt>
<totfact> 0.33216422E-01</totfact>
</mgrwt>
</event>
<event>
12    2  0.3552864E-008  0.2649665E+04  0.7818608E-02  0.8351524E-01
          2   -1    0    0  501    0  0.00000000000E+00  0.00000000000E+00  0.33605504738E+04  0.33605504738E+04  0.00000000000E+00 0. -1.
         -2   -1    0    0    0  501 -0.00000000000E+00 -0.00000000000E+00 -0.52228958240E+03  0.52228958240E+03  0.00000000000E+00 0.  1.
         23    2    1    2    0    0 -0.47910858044E+03  0.82395109558E+03  0.22501967877E+04  0.24454229658E+04  0.90925564670E+02 0.  0.
        254    2    1    2    0    0  0.47910858044E+03 -0.82395109558E+03  0.58806410369E+03  0.14374170904E+04  0.90105941096E+03 0.  0.
         23    2    4    4    0    0  0.23656843650E+03 -0.18174977016E+03  0.67073008740E+03  0.73941268457E+03  0.88626541487E+02 0.  0.
         23    2    4    4    0    0  0.24254014394E+03 -0.64220132542E+03 -0.82665983710E+02  0.69800440587E+03  0.95541728869E+02 0.  0.
          4    1    3    3  502    0 -0.23630061896E+03  0.44770724859E+03  0.10904986768E+04  0.12022758115E+04  0.00000000000E+00 0. -1.
         -4    1    3    3    0  502 -0.24280796148E+03  0.37624384699E+03  0.11596981109E+04  0.12431471542E+04  0.00000000000E+00 0.  1.
         11    1    5    5    0    0  0.14942845582E+03 -0.16453950252E+03  0.46976230975E+03  0.51969100334E+03  0.00000000000E+00 0. -1.
        -11    1    5    5    0    0  0.87139980680E+02 -0.17210267639E+02  0.20096777765E+03  0.21972168122E+03  0.00000000000E+00 0.  1.
          2    1    6    6  503    0 -0.44345029127E+01 -0.66074818741E+02 -0.57930073740E+01  0.66476352353E+02  0.00000000000E+00 0.  1.
         -2    1    6    6    0  503  0.24697464685E+03 -0.57612650668E+03 -0.76872976336E+02  0.63152805352E+03  0.00000000000E+00 0. -1.
<mgrwt>
<rscale>  0 0.26496645E+04</rscale>
<asrwt>0</asrwt>
<pdfrwt beam="1">  1        2 0.51700775E+00 0.26496645E+04</pdfrwt>
<pdfrwt beam="2">  1       -2 0.80352246E-01 0.26496645E+04</pdfrwt>
<totfact> 0.12230679E+00</totfact>
</mgrwt>
</event>
<event>
12    2  0.3552864E-008  0.1460154E+04  0.7818608E-02  0.8911391E-01
          2   -1    0    0  501    0  0.00000000000E+00  0.00000000000E+00  0.26299131964E+04  0.26299131964E+04  0.00000000000E+00 0. -1.
         -2   -1    0    0    0  501 -0.00000000000E+00 -0.00000000000E+00 -0.20267303001E+03  0.20267303001E+03  0.00000000000E+00 0.  1.
         23    2    1    2    0    0 -0.57774574573E+02 -0.34534957758E+03  0.11804334338E+04  0.12371744957E+04  0.12072037514E+03 0.  0.
        254    2    1    2    0    0  0.57774574573E+02  0.34534957758E+03  0.12468067325E+04  0.15954117307E+04  0.93177643770E+03 0.  0.
         23    2    4    4    0    0  0.28562395562E+03  0.25969979508E+03  0.85443299711E+02  0.40507825925E+03  0.88106816206E+02 0.  0.
         23    2    4    4    0    0 -0.22784938105E+03  0.85649782493E+02  0.11613634328E+04  0.11903334714E+04  0.94220615506E+02 0.  0.
          2    1    3    3  502    0 -0.31137638703E+02 -0.34166773183E+03  0.11085344903E+04  0.11604116113E+04  0.00000000000E+00 0. -1.
         -2    1    3    3    0  502 -0.26636935869E+02 -0.36818457455E+01  0.71898943521E+02  0.76762884391E+02  0.00000000000E+00 0.  1.
         11    1    5    5    0    0  0.59656677189E+02  0.96992999973E+02  0.50059370777E+02  0.12438851144E+03  0.00000000000E+00 0. -1.
        -11    1    5    5    0    0  0.22596727843E+03  0.16270679511E+03  0.35383928934E+02  0.28068974780E+03  0.00000000000E+00 0.  1.
          2    1    6    6  503    0 -0.35860681564E+02 -0.20043919051E+02  0.15221540094E+03  0.15766190236E+03  0.00000000000E+00 0. -1.
         -2    1    6    6    0  503 -0.19198869948E+03  0.10569370154E+03  0.10091480319E+04  0.10326715691E+04  0.00000000000E+00 0.  1.
<mgrwt>
<rscale>  0 0.14601541E+04</rscale>
<asrwt>0</asrwt>
<pdfrwt beam="1">  1        2 0.40460201E+00 0.14601541E+04</pdfrwt>
<pdfrwt beam="2">  1       -2 0.31180468E-01 0.14601541E+04</pdfrwt>
<totfact> 0.27125994E+01</totfact>
</mgrwt>
</event>
<event>
12    2  0.3552864E-008  0.1509962E+04  0.7818608E-02  0.8877855E-01
          2   -1    0    0  501    0  0.00000000000E+00  0.00000000000E+00  0.22404994089E+04  0.22404994089E+04  0.00000000000E+00 0. -1.
         -2   -1    0    0    0  501 -0.00000000000E+00 -0.00000000000E+00 -0.25440598399E+03  0.25440598399E+03  0.00000000000E+00 0.  1.
         23    2    1    2    0    0  0.35098007195E+03 -0.19037617396E+03  0.17910938304E+03  0.44762470784E+03  0.94114873744E+02 0.  0.
        254    2    1    2    0    0 -0.35098007195E+03  0.19037617396E+03  0.18069840419E+04  0.20472806851E+04  0.87563507082E+03 0.  0.
         23    2    4    4    0    0  0.13248192431E+03 -0.24477431380E+03  0.71880332602E+03  0.77618105478E+03  0.91175014898E+02 0.  0.
         23    2    4    4    0    0 -0.48346199627E+03  0.43515048777E+03  0.10881807159E+04  0.12710996303E+04  0.92008428200E+02 0.  0.
          1    1    3    3  502    0  0.10804183315E+02  0.10283786499E+02  0.10218794142E+02  0.18080663583E+02  0.00000000000E+00 0. -1.
         -1    1    3    3    0  502  0.34017588864E+03 -0.20065996046E+03  0.16889058890E+03  0.42954404426E+03  0.00000000000E+00 0.  1.
         11    1    5    5    0    0  0.34663630838E+02 -0.11515048084E+02  0.57116896273E+02  0.67797518207E+02  0.00000000000E+00 0.  1.
        -11    1    5    5    0    0  0.97818293475E+02 -0.23325926572E+03  0.66168642975E+03  0.70838353658E+03  0.00000000000E+00 0. -1.
          1    1    6    6  503    0 -0.17888994599E+03  0.18172302940E+03  0.34647816870E+03  0.43019994605E+03  0.00000000000E+00 0. -1.
         -1    1    6    6    0  503 -0.30457205027E+03  0.25342745837E+03  0.74170254718E+03  0.84089968424E+03  0.00000000000E+00 0.  1.
<mgrwt>
<rscale>  0 0.15099622E+04</rscale>
<asrwt>0</asrwt>
<pdfrwt beam="1">  1        2 0.34469220E+00 0.15099622E+04</pdfrwt>
<pdfrwt beam="2">  1       -2 0.39139384E-01 0.15099622E+04</pdfrwt>
<totfact> 0.29227543E+01</totfact>
</mgrwt>
</event>
<event>
12    2  0.3552864E-008  0.1821987E+04  0.7818608E-02  0.8694694E-01
         -2   -1    0    0    0  501 -0.00000000000E+00  0.00000000000E+00  0.32475178960E+03  0.32475178960E+03  0.00000000000E+00 0.  1.
          2   -1    0    0  501    0  0.00000000000E+00 -0.00000000000E+00 -0.25555178750E+04  0.25555178750E+04  0.00000000000E+00 0. -1.
         23    2    1    2    0    0  0.61347031754E+03 -0.14812677217E+03 -0.12246136367E+04  0.13806463992E+04  0.90656215088E+02 0.  0.
        254    2    1    2    0    0 -0.61347031754E+03  0.14812677217E+03 -0.10061524487E+04  0.14996232654E+04  0.91555437684E+03 0.  0.
         23    2    4    4    0    0 -0.35587864524E+03  0.34883659128E+03 -0.10417011300E+04  0.11581633168E+04  0.88681714842E+02 0.  0.
         23    2    4    4    0    0 -0.25759167230E+03 -0.20070981912E+03  0.35548681324E+02  0.34145994858E+03  0.93237796065E+02 0.  0.
          2    1    3    3  502    0  0.39917707993E+03 -0.12568384249E+03 -0.73657815916E+03  0.84716359338E+03  0.00000000000E+00 0. -1.
         -2    1    3    3    0  502  0.21429323760E+03 -0.22442929678E+02 -0.48803547752E+03  0.53348280581E+03  0.00000000000E+00 0.  1.
         11    1    5    5    0    0 -0.35458384359E+03  0.35383940752E+03 -0.10290748383E+04  0.11445204460E+04  0.00000000000E+00 0.  1.
        -11    1    5    5    0    0 -0.12948016456E+01 -0.50028162368E+01 -0.12626291716E+02  0.13642870816E+02  0.00000000000E+00 0. -1.
          1    1    6    6  503    0 -0.75128758443E+02 -0.14397330872E+02 -0.85773980887E+01  0.76975224842E+02  0.00000000000E+00 0. -1.
         -1    1    6    6    0  503 -0.18246291386E+03 -0.18631248824E+03  0.44126079413E+02  0.26448472374E+03  0.00000000000E+00 0.  1.
<mgrwt>
<rscale>  0 0.18219868E+04</rscale>
<asrwt>0</asrwt>
<pdfrwt beam="1">  1        2 0.39315661E+00 0.18219868E+04</pdfrwt>
<pdfrwt beam="2">  1       -2 0.49961812E-01 0.18219868E+04</pdfrwt>
<totfact> 0.11557469E+01</totfact>
</mgrwt>
</event>
<event>
12    2  0.3552864E-008  0.1521130E+04  0.7818608E-02  0.8870522E-01
          2   -1    0    0  501    0  0.00000000000E+00  0.00000000000E+00  0.85884175914E+03  0.85884175914E+03  0.00000000000E+00 0. -1.
         -2   -1    0    0    0  501 -0.00000000000E+00 -0.00000000000E+00 -0.67353414702E+03  0.67353414702E+03  0.00000000000E+00 0.  1.
         23    2    1    2    0    0  0.11144032475E+03  0.68681916186E+02  0.53448141915E+03  0.55752509647E+03  0.89597400559E+02 0.  0.
        254    2    1    2    0    0 -0.11144032475E+03 -0.68681916186E+02 -0.34917380702E+03  0.97485080970E+03  0.90070838903E+03 0.  0.
         23    2    4    4    0    0  0.19184104042E+03 -0.39725132380E+03 -0.13501790984E+03  0.47027963182E+03  0.91222240033E+02 0.  0.
         23    2    4    4    0    0 -0.30328136517E+03  0.32856940761E+03 -0.21415589718E+03  0.50457117788E+03  0.93765042374E+02 0.  0.
          1    1    3    3  502    0  0.37426112486E+02  0.28795501527E+02  0.36800098389E+03  0.37101835393E+03  0.00000000000E+00 0. -1.
         -1    1    3    3    0  502  0.74014212261E+02  0.39886414659E+02  0.16648043525E+03  0.18650674254E+03  0.00000000000E+00 0.  1.
         11    1    5    5    0    0  0.17742996992E+03 -0.39810820458E+03 -0.12824167649E+03  0.45433188791E+03  0.00000000000E+00 0. -1.
        -11    1    5    5    0    0  0.14411070498E+02  0.85688077685E+00 -0.67762333523E+01  0.15947743916E+02  0.00000000000E+00 0.  1.
          3    1    6    6  503    0 -0.28760666402E+03  0.26839243384E+03 -0.19757553982E+03  0.44021379540E+03  0.00000000000E+00 0. -1.
         -3    1    6    6    0  503 -0.15674701151E+02  0.60176973776E+02 -0.16580357363E+02  0.64357382477E+02  0.00000000000E+00 0.  1.
<mgrwt>
<rscale>  0 0.15211302E+04</rscale>
<asrwt>0</asrwt>
<pdfrwt beam="1">  1        2 0.13212950E+00 0.15211302E+04</pdfrwt>
<pdfrwt beam="2">  1       -2 0.10362064E+00 0.15211302E+04</pdfrwt>
<totfact> 0.22908567E+01</totfact>
</mgrwt>
</event>
<event>
12    2  0.3552864E-008  0.1908823E+04  0.7818608E-02  0.8650477E-01
          1   -1    0    0  501    0  0.00000000000E+00  0.00000000000E+00  0.54754216442E+03  0.54754216442E+03  0.00000000000E+00 0. -1.
         -1   -1    0    0    0  501 -0.00000000000E+00 -0.00000000000E+00 -0.16636180265E+04  0.16636180265E+04  0.00000000000E+00 0.  1.
         23    2    1    2    0    0  0.52589960720E+03 -0.51064667743E+03 -0.36312362498E+03  0.82340941756E+03  0.93882244784E+02 0.  0.
        254    2    1    2    0    0 -0.52589960720E+03  0.51064667743E+03 -0.75295223707E+03  0.13877507733E+04  0.90641310204E+03 0.  0.
         23    2    4    4    0    0 -0.47847499086E+03  0.19397291372E+03 -0.88620375288E+03  0.10300058012E+04  0.94821150956E+02 0.  0.
         23    2    4    4    0    0 -0.47424616343E+02  0.31667376371E+03  0.13325151580E+03  0.35774497218E+03  0.87716200308E+02 0.  0.
          1    1    3    3  502    0  0.22649883651E+03 -0.18862280104E+03 -0.19093092741E+03  0.35119069329E+03  0.00000000000E+00 0. -1.
         -1    1    3    3    0  502  0.29940077070E+03 -0.32202387639E+03 -0.17219269757E+03  0.47221872427E+03  0.00000000000E+00 0.  1.
         11    1    5    5    0    0 -0.41289240758E+03  0.16715856271E+03 -0.81926823966E+03  0.93253556170E+03  0.00000000000E+00 0. -1.
        -11    1    5    5    0    0 -0.65582583280E+02  0.26814351011E+02 -0.66935513220E+02  0.97470239457E+02  0.00000000000E+00 0.  1.
          3    1    6    6  503    0 -0.61357790225E+02  0.29457905667E+03  0.13826405827E+03  0.33114732199E+03  0.00000000000E+00 0. -1.
         -3    1    6    6    0  503  0.13933173882E+02  0.22094707041E+02 -0.50125424680E+01  0.26597650190E+02  0.00000000000E+00 0.  1.
<mgrwt>
<rscale>  0 0.19088227E+04</rscale>
<asrwt>0</asrwt>
<pdfrwt beam="1">  1        1 0.84237258E-01 0.19088227E+04</pdfrwt>
<pdfrwt beam="2">  1       -1 0.25594123E+00 0.19088227E+04</pdfrwt>
<totfact> 0.23274366E+00</totfact>
</mgrwt>
</event>
<event>
12    2  0.3552864E-008  0.4469171E+04  0.7818608E-02  0.7916056E-01
         -2   -1    0    0    0  501 -0.00000000000E+00  0.00000000000E+00  0.15109954219E+04  0.15109954219E+04  0.00000000000E+00 0.  1.
          2   -1    0    0  501    0  0.00000000000E+00 -0.00000000000E+00 -0.33046908871E+04  0.33046908871E+04  0.00000000000E+00 0. -1.
         23    2    1    2    0    0  0.20352365152E+04 -0.15907226835E+03 -0.15537889881E+04  0.25671017116E+04  0.90880794676E+02 0.  0.
        254    2    1    2    0    0 -0.20352365152E+04  0.15907226835E+03 -0.23990647710E+03  0.22485845973E+04  0.91163913604E+03 0.  0.
         23    2    4    4    0    0 -0.16537114240E+04  0.38077195940E+03  0.71509808659E+02  0.17008780379E+04  0.90131506123E+02 0.  0.
         23    2    4    4    0    0 -0.38152509121E+03 -0.22169969105E+03 -0.31141628576E+03  0.54770655939E+03  0.91050666848E+02 0.  0.
          1    1    3    3  502    0  0.15497864417E+04 -0.14428539899E+03 -0.11447271437E+04  0.19321119339E+04  0.00000000000E+00 0. -1.
         -1    1    3    3    0  502  0.48545007343E+03 -0.14786869361E+02 -0.40906184437E+03  0.63498977773E+03  0.00000000000E+00 0.  1.
         11    1    5    5    0    0 -0.16062266811E+04  0.35676600629E+03  0.78331079247E+02  0.16472346197E+04  0.00000000000E+00 0.  1.
        -11    1    5    5    0    0 -0.47484742889E+02  0.24005953109E+02 -0.68212705878E+01  0.53643418276E+02  0.00000000000E+00 0. -1.
          3    1    6    6  503    0 -0.24688040168E+03 -0.14075827159E+03 -0.14570652033E+03  0.31936376410E+03  0.00000000000E+00 0. -1.
         -3    1    6    6    0  503 -0.13464468952E+03 -0.80941419467E+02 -0.16570976543E+03  0.22834279529E+03  0.00000000000E+00 0.  1.
<mgrwt>
<rscale>  0 0.44691712E+04</rscale>
<asrwt>0</asrwt>
<pdfrwt beam="1">  1        2 0.50841397E+00 0.44691712E+04</pdfrwt>
<pdfrwt beam="2">  1       -2 0.23246084E+00 0.44691712E+04</pdfrwt>
<totfact> 0.69230080E-02</totfact>
</mgrwt>
</event>
<event>
12    2  0.3552864E-008  0.1786777E+04  0.7818608E-02  0.8713363E-01
          1   -1    0    0  501    0  0.00000000000E+00  0.00000000000E+00  0.12397262700E+04  0.12397262700E+04  0.00000000000E+00 0. -1.
         -1   -1    0    0    0  501 -0.00000000000E+00 -0.00000000000E+00 -0.64380571351E+03  0.64380571351E+03  0.00000000000E+00 0.  1.
         23    2    1    2    0    0 -0.59641365159E+03  0.24005148767E+03  0.38648096705E+03  0.75581155980E+03  0.92464130878E+02 0.  0.
        254    2    1    2    0    0  0.59641365159E+03 -0.24005148767E+03  0.20943958939E+03  0.11277204237E+04  0.90252670420E+03 0.  0.
         23    2    4    4    0    0 -0.28881618511E+02  0.26122260749E+03 -0.44222759406E+02  0.28220268284E+03  0.92797107702E+02 0.  0.
         23    2    4    4    0    0  0.62529527010E+03 -0.50127409516E+03  0.25366234880E+03  0.84551774083E+03  0.91026202603E+02 0.  0.
          1    1    3    3  502    0 -0.57261469185E+03  0.23665402582E+03  0.38908887178E+03  0.73163027780E+03  0.00000000000E+00 0. -1.
         -1    1    3    3    0  502 -0.23798959744E+02  0.33974618514E+01 -0.26079047302E+01  0.24181281997E+02  0.00000000000E+00 0.  1.
         11    1    5    5    0    0  0.14440792196E+02  0.11662329886E+03 -0.57201013687E+02  0.13069616017E+03  0.00000000000E+00 0.  1.
        -11    1    5    5    0    0 -0.43322410707E+02  0.14459930863E+03  0.12978254281E+02  0.15150652267E+03  0.00000000000E+00 0. -1.
          3    1    6    6  503    0  0.59101577510E+03 -0.44679677170E+03  0.21993180896E+03  0.77284992218E+03  0.00000000000E+00 0. -1.
         -3    1    6    6    0  503  0.34279495002E+02 -0.54477323459E+02  0.33730539842E+02  0.72667818647E+02  0.00000000000E+00 0.  1.
<mgrwt>
<rscale>  0 0.17867768E+04</rscale>
<asrwt>0</asrwt>
<pdfrwt beam="1">  1        1 0.19072712E+00 0.17867768E+04</pdfrwt>
<pdfrwt beam="2">  1       -1 0.99047033E-01 0.17867768E+04</pdfrwt>
<totfact> 0.92008109E+00</totfact>
</mgrwt>
</event>
<event>
12    2  0.3552864E-008  0.1209230E+04  0.7818608E-02  0.9104816E-01
         -2   -1    0    0    0  501 -0.00000000000E+00  0.00000000000E+00  0.37645682752E+03  0.37645682752E+03  0.00000000000E+00 0.  1.
          2   -1    0    0  501    0  0.00000000000E+00 -0.00000000000E+00 -0.97105267429E+03  0.97105267429E+03  0.00000000000E+00 0. -1.
         23    2    1    2    0    0  0.10934265814E+03 -0.23337337134E+03 -0.21099726504E+03  0.34532057236E+03  0.91145512794E+02 0.  0.
        254    2    1    2    0    0 -0.10934265814E+03  0.23337337134E+03 -0.38359858173E+03  0.10021889294E+04  0.88927826414E+03 0.  0.
         23    2    4    4    0    0  0.53954013282E+02  0.97418382625E+02 -0.64075117979E+03  0.65639850924E+03  0.88856917015E+02 0.  0.
         23    2    4    4    0    0 -0.16329667142E+03  0.13595498871E+03  0.25715259806E+03  0.34579042021E+03  0.91071368515E+02 0.  0.
          3    1    3    3  502    0  0.12038547271E+03 -0.22818241040E+03 -0.21072753708E+03  0.33311554953E+03  0.00000000000E+00 0. -1.
         -3    1    3    3    0  502 -0.11042814571E+02 -0.51909609355E+01 -0.26972796226E+00  0.12205022829E+02  0.00000000000E+00 0.  1.
         11    1    5    5    0    0  0.47498711715E+02  0.10996631690E+03 -0.46852731676E+03  0.48359752379E+03  0.00000000000E+00 0. -1.
        -11    1    5    5    0    0  0.64553015662E+01 -0.12547934278E+02 -0.17222386304E+03  0.17280098545E+03  0.00000000000E+00 0.  1.
          3    1    6    6  503    0  0.89000892119E+01  0.21077124117E+01  0.75106264427E+00  0.91770438970E+01  0.00000000000E+00 0.  1.
         -3    1    6    6    0  503 -0.17219676063E+03  0.13384727630E+03  0.25640153542E+03  0.33661337631E+03  0.00000000000E+00 0. -1.
<mgrwt>
<rscale>  0 0.12092302E+04</rscale>
<asrwt>0</asrwt>
<pdfrwt beam="1">  1        2 0.14939272E+00 0.12092302E+04</pdfrwt>
<pdfrwt beam="2">  1       -2 0.57916436E-01 0.12092302E+04</pdfrwt>
<totfact> 0.72379869E+01</totfact>
</mgrwt>
</event>
<event>
12    2  0.3552864E-008  0.3176316E+04  0.7818608E-02  0.8195100E-01
         -1   -1    0    0    0  501 -0.00000000000E+00  0.00000000000E+00  0.79131636558E+03  0.79131636558E+03  0.00000000000E+00 0.  1.
          1   -1    0    0  501    0  0.00000000000E+00 -0.00000000000E+00 -0.31874046000E+04  0.31874046000E+04  0.00000000000E+00 0. -1.
         23    2    1    2    0    0 -0.13120561652E+04 -0.60699051318E+03 -0.13400759318E+04  0.19732388485E+04  0.89102112969E+02 0.  0.
        254    2    1    2    0    0  0.13120561652E+04  0.60699051318E+03 -0.10560123027E+04  0.20054821171E+04  0.90380732188E+03 0.  0.
         23    2    4    4    0    0  0.93520839495E+03  0.58073354848E+03 -0.11607140283E+04  0.16022634177E+04  0.90137716962E+02 0.  0.
         23    2    4    4    0    0  0.37684777022E+03  0.26256964707E+02  0.10470172561E+03  0.40321869941E+03  0.94441506181E+02 0.  0.
          3    1    3    3  502    0 -0.59975356749E+01 -0.41713104718E+01 -0.18325777385E+02  0.19728263532E+02  0.00000000000E+00 0. -1.
         -3    1    3    3    0  502 -0.13060586295E+04 -0.60281920271E+03 -0.13217501544E+04  0.19535105849E+04  0.00000000000E+00 0.  1.
         11    1    5    5    0    0  0.85577760805E+03  0.52236212669E+03 -0.10897682757E+04  0.14808147759E+04  0.00000000000E+00 0. -1.
        -11    1    5    5    0    0  0.79430786904E+02  0.58371421784E+02 -0.70945752589E+02  0.12144864182E+03  0.00000000000E+00 0.  1.
          4    1    6    6  503    0  0.30915207558E+03  0.51224933680E+02  0.62208212607E+02  0.31948217694E+03  0.00000000000E+00 0.  1.
         -4    1    6    6    0  503  0.67695694640E+02 -0.24967968973E+02  0.42493513006E+02  0.83736522467E+02  0.00000000000E+00 0. -1.
<mgrwt>
<rscale>  0 0.31763157E+04</rscale>
<asrwt>0</asrwt>
<pdfrwt beam="1">  1        1 0.49036994E+00 0.31763157E+04</pdfrwt>
<pdfrwt beam="2">  1       -1 0.12174098E+00 0.31763157E+04</pdfrwt>
<totfact> 0.21739996E-01</totfact>
</mgrwt>
</event>
<event>
12    2  0.3552864E-008  0.1971515E+04  0.7818608E-02  0.8620055E-01
         -2   -1    0    0    0  501 -0.00000000000E+00  0.00000000000E+00  0.75395443769E+03  0.75395443769E+03  0.00000000000E+00 0.  1.
          2   -1    0    0  501    0  0.00000000000E+00 -0.00000000000E+00 -0.12888289811E+04  0.12888289811E+04  0.00000000000E+00 0. -1.
         23    2    1    2    0    0 -0.21375147099E+03  0.49839437918E+03 -0.78460639765E+03  0.95807257760E+03  0.90604724861E+02 0.  0.
        254    2    1    2    0    0  0.21375147099E+03 -0.49839437918E+03  0.24973185422E+03  0.10847108412E+04  0.90561855187E+03 0.  0.
         23    2    4    4    0    0 -0.29521285354E+03 -0.22655129896E+02  0.22174619079E+03  0.38139719573E+03  0.92890063922E+02 0.  0.
         23    2    4    4    0    0  0.50896432453E+03 -0.47573924928E+03  0.27985663433E+02  0.70331364549E+03  0.92164904490E+02 0.  0.
          2    1    3    3  502    0 -0.37663663313E+02  0.29416442813E+02 -0.52621156751E+02  0.71083505679E+02  0.00000000000E+00 0. -1.
         -2    1    3    3    0  502 -0.17608780768E+03  0.46897793637E+03 -0.73198524090E+03  0.88698907192E+03  0.00000000000E+00 0.  1.
         11    1    5    5    0    0 -0.23407379486E+03 -0.55944915495E+02  0.16980448126E+03  0.29454021265E+03  0.00000000000E+00 0.  1.
        -11    1    5    5    0    0 -0.61139058673E+02  0.33289785599E+02  0.51941709523E+02  0.86856983075E+02  0.00000000000E+00 0. -1.
          4    1    6    6  503    0  0.92469212179E+02 -0.10443999924E+03  0.40331399459E+02  0.14520637185E+03  0.00000000000E+00 0. -1.
         -4    1    6    6    0  503  0.41649511235E+03 -0.37129925004E+03 -0.12345736025E+02  0.55810727364E+03  0.00000000000E+00 0.  1.
<mgrwt>
<rscale>  0 0.19715155E+04</rscale>
<asrwt>0</asrwt>
<pdfrwt beam="1">  1        2 0.19828138E+00 0.19715155E+04</pdfrwt>
<pdfrwt beam="2">  1       -2 0.11599299E+00 0.19715155E+04</pdfrwt>
<totfact> 0.90244718E+00</totfact>
</mgrwt>
</event>
<event>
12    2  0.3552864E-008  0.1949380E+04  0.7818608E-02  0.8630660E-01
         -2   -1    0    0    0  501 -0.00000000000E+00  0.00000000000E+00  0.43662851153E+03  0.43662851153E+03  0.00000000000E+00 0.  1.
          2   -1    0    0  501    0  0.00000000000E+00 -0.00000000000E+00 -0.21758095696E+04  0.21758095696E+04  0.00000000000E+00 0. -1.
         23    2    1    2    0    0 -0.38989962674E+03 -0.45664670951E+03  0.49718022670E+01  0.60815864333E+03  0.96354970815E+02 0.  0.
        254    2    1    2    0    0  0.38989962674E+03  0.45664670951E+03 -0.17441528603E+04  0.20042794378E+04  0.78391257693E+03 0.  0.
         23    2    4    4    0    0  0.18723070119E+03  0.64966548633E+03 -0.13410661875E+04  0.15052587751E+04  0.10111815486E+03 0.  0.
         23    2    4    4    0    0  0.20266892555E+03 -0.19301877682E+03 -0.40308667279E+03  0.49902066262E+03  0.90619061746E+02 0.  0.
          2    1    3    3  502    0 -0.20382471923E+01 -0.18250461161E+02 -0.13064105109E+02  0.22536739482E+02  0.00000000000E+00 0. -1.
         -2    1    3    3    0  502 -0.38786137955E+03 -0.43839624835E+03  0.18035907376E+02  0.58562190385E+03  0.00000000000E+00 0.  1.
         11    1    5    5    0    0  0.10163146272E+02  0.13083163024E+03 -0.32991777096E+03  0.35505765814E+03  0.00000000000E+00 0.  1.
        -11    1    5    5    0    0  0.17706755492E+03  0.51883385609E+03 -0.10111484166E+04  0.11502011170E+04  0.00000000000E+00 0. -1.
          1    1    6    6  503    0  0.20097543780E+03 -0.18394405399E+03 -0.40634876435E+03  0.48922986406E+03  0.00000000000E+00 0. -1.
         -1    1    6    6    0  503  0.16934877526E+01 -0.90747228297E+01  0.32620915577E+01  0.97907985647E+01  0.00000000000E+00 0.  1.
<mgrwt>
<rscale>  0 0.19493799E+04</rscale>
<asrwt>0</asrwt>
<pdfrwt beam="1">  1        2 0.33473994E+00 0.19493799E+04</pdfrwt>
<pdfrwt beam="2">  1       -2 0.67173617E-01 0.19493799E+04</pdfrwt>
<totfact> 0.10107501E+01</totfact>
</mgrwt>
</event>
<event>
12    2  0.3552864E-008  0.1351129E+04  0.7818608E-02  0.8989974E-01
         -2   -1    0    0    0  501 -0.00000000000E+00  0.00000000000E+00  0.24994956247E+03  0.24994956247E+03  0.00000000000E+00 0.  1.
          2   -1    0    0  501    0  0.00000000000E+00 -0.00000000000E+00 -0.18259183817E+04  0.18259183817E+04  0.00000000000E+00 0. -1.
         23    2    1    2    0    0  0.64099376179E+02  0.10919734439E+03 -0.83990248714E+03  0.85414400210E+03  0.89961093678E+02 0.  0.
        254    2    1    2    0    0 -0.64099376179E+02 -0.10919734439E+03 -0.73606633208E+03  0.12217239420E+04  0.96684174264E+03 0.  0.
         23    2    4    4    0    0 -0.32358723859E+03 -0.38674334326E+03 -0.63940806298E+03  0.81918075366E+03  0.89080422269E+02 0.  0.
         23    2    4    4    0    0  0.25948786241E+03  0.27754599887E+03 -0.96658269105E+02  0.40254318839E+03  0.91282338416E+02 0.  0.
          4    1    3    3  502    0 -0.43983402761E+01  0.60383224977E+02 -0.51436238853E+03  0.51791326107E+03  0.00000000000E+00 0. -1.
         -4    1    3    3    0  502  0.68497716455E+02  0.48814119415E+02 -0.32554009860E+03  0.33623074103E+03  0.00000000000E+00 0.  1.
         11    1    5    5    0    0 -0.28388848870E+03 -0.37534735871E+03 -0.59309848043E+03  0.75712886697E+03  0.00000000000E+00 0. -1.
        -11    1    5    5    0    0 -0.39698749883E+02 -0.11395984553E+02 -0.46309582545E+02  0.62051886690E+02  0.00000000000E+00 0.  1.
          2    1    6    6  503    0  0.20155667714E+03  0.15403069165E+03 -0.74010823252E+02  0.26425016562E+03  0.00000000000E+00 0. -1.
         -2    1    6    6    0  503  0.57931185267E+02  0.12351530722E+03 -0.22647445853E+02  0.13829302277E+03  0.00000000000E+00 0.  1.
<mgrwt>
<rscale>  0 0.13511292E+04</rscale>
<asrwt>0</asrwt>
<pdfrwt beam="1">  1        2 0.28091053E+00 0.13511292E+04</pdfrwt>
<pdfrwt beam="2">  1       -2 0.38453777E-01 0.13511292E+04</pdfrwt>
<totfact> 0.52086663E+01</totfact>
</mgrwt>
</event>
<event>
12    2  0.3552864E-008  0.1653333E+04  0.7818608E-02  0.8788437E-01
         -1   -1    0    0    0  501 -0.00000000000E+00  0.00000000000E+00  0.26156146218E+03  0.26156146218E+03  0.00000000000E+00 0.  1.
          1   -1    0    0  501    0  0.00000000000E+00 -0.00000000000E+00 -0.26126845049E+04  0.26126845049E+04  0.00000000000E+00 0. -1.
         23    2    1    2    0    0  0.28510113000E+03  0.35266391465E+03 -0.21106141676E+03  0.50795795070E+03  0.88430011935E+02 0.  0.
        254    2    1    2    0    0 -0.28510113000E+03 -0.35266391465E+03 -0.21400616260E+04  0.23662880164E+04  0.90210904136E+03 0.  0.
         23    2    4    4    0    0 -0.14682423285E+03  0.11593853088E+03 -0.16684151712E+04  0.16811529054E+04  0.87560320518E+02 0.  0.
         23    2    4    4    0    0 -0.13827689715E+03 -0.46860244553E+03 -0.47164645481E+03  0.68513511097E+03  0.90834958607E+02 0.  0.
          3    1    3    3  502    0  0.99267105865E+02  0.83129052867E+02 -0.95057965367E+02  0.16062507437E+03  0.00000000000E+00 0. -1.
         -3    1    3    3    0  502  0.18583402413E+03  0.26953486178E+03 -0.11600345139E+03  0.34733287632E+03  0.00000000000E+00 0.  1.
         11    1    5    5    0    0 -0.44932004294E+02  0.59403439363E+01 -0.67120501641E+03  0.67273348865E+03  0.00000000000E+00 0.  1.
        -11    1    5    5    0    0 -0.10189222856E+03  0.10999818695E+03 -0.99721015475E+03  0.10084194168E+04  0.00000000000E+00 0. -1.
          3    1    6    6  503    0 -0.96625279504E+02 -0.18109663931E+03 -0.17221022992E+03  0.26793432161E+03  0.00000000000E+00 0. -1.
         -3    1    6    6    0  503 -0.41651617642E+02 -0.28750580623E+03 -0.29943622490E+03  0.41720078936E+03  0.00000000000E+00 0.  1.
<mgrwt>
<rscale>  0 0.16533331E+04</rscale>
<asrwt>0</asrwt>
<pdfrwt beam="1">  1        1 0.40195149E+00 0.16533331E+04</pdfrwt>
<pdfrwt beam="2">  1       -1 0.40240222E-01 0.16533331E+04</pdfrwt>
<totfact> 0.65207777E+00</totfact>
</mgrwt>
</event>
<event>
12    2  0.3552864E-008  0.1397134E+04  0.7818608E-02  0.8955896E-01
          2   -1    0    0  501    0  0.00000000000E+00  0.00000000000E+00  0.13442375512E+04  0.13442375512E+04  0.00000000000E+00 0. -1.
         -2   -1    0    0    0  501 -0.00000000000E+00 -0.00000000000E+00 -0.36302806409E+03  0.36302806409E+03  0.00000000000E+00 0.  1.
         23    2    1    2    0    0 -0.20769818385E+01  0.16880020330E+02  0.75982389429E+03  0.76557352798E+03  0.92093579952E+02 0.  0.
        254    2    1    2    0    0  0.20769818385E+01 -0.16880020330E+02  0.22138559279E+03  0.94169208728E+03  0.91514105886E+03 0.  0.
         23    2    4    4    0    0 -0.86307260060E+02  0.37864713022E+03 -0.10602725513E+03  0.41260477099E+03  0.90434096687E+02 0.  0.
         23    2    4    4    0    0  0.88384241898E+02 -0.39552715055E+03  0.32741284792E+03  0.52908731630E+03  0.92090793456E+02 0.  0.
          2    1    3    3  502    0  0.43106936297E+02 -0.44645615545E+01  0.32051735377E+03  0.32343394122E+03  0.00000000000E+00 0.  1.
         -2    1    3    3    0  502 -0.45183918135E+02  0.21344581884E+02  0.43930654052E+03  0.44213958676E+03  0.00000000000E+00 0. -1.
         11    1    5    5    0    0  0.71331521975E+01  0.26941125586E+00 -0.79996691427E+01  0.10721434097E+02  0.00000000000E+00 0. -1.
        -11    1    5    5    0    0 -0.93440412257E+02  0.37837771897E+03 -0.98027585990E+02  0.40188333689E+03  0.00000000000E+00 0.  1.
          3    1    6    6  503    0  0.45024718787E+02 -0.55633774244E+02  0.73703762710E+02  0.10273551857E+03  0.00000000000E+00 0. -1.
         -3    1    6    6    0  503  0.43359523111E+02 -0.33989337631E+03  0.25370908521E+03  0.42635179772E+03  0.00000000000E+00 0.  1.
<mgrwt>
<rscale>  0 0.13971341E+04</rscale>
<asrwt>0</asrwt>
<pdfrwt beam="1">  1        2 0.20680577E+00 0.13971341E+04</pdfrwt>
<pdfrwt beam="2">  1       -2 0.55850472E-01 0.13971341E+04</pdfrwt>
<totfact> 0.45666555E+01</totfact>
</mgrwt>
</event>
<event>
12    2  0.3552864E-008  0.2543511E+04  0.7818608E-02  0.8387647E-01
          1   -1    0    0  501    0  0.00000000000E+00  0.00000000000E+00  0.14864465379E+04  0.14864465379E+04  0.00000000000E+00 0. -1.
         -1   -1    0    0    0  501 -0.00000000000E+00 -0.00000000000E+00 -0.10880724634E+04  0.10880724634E+04  0.00000000000E+00 0.  1.
         23    2    1    2    0    0 -0.37739802280E+03 -0.95937670129E+03  0.58401462261E+03  0.11885337119E+04  0.93307996507E+02 0.  0.
        254    2    1    2    0    0  0.37739802280E+03  0.95937670129E+03 -0.18564054810E+03  0.13859852894E+04  0.90755709827E+03 0.  0.
         23    2    4    4    0    0  0.25453145848E+03 -0.77883693331E+01 -0.29518418154E+03  0.40049542567E+03  0.91738557283E+02 0.  0.
         23    2    4    4    0    0  0.12286656432E+03  0.96716507062E+03  0.10954363344E+03  0.98548986369E+03  0.93198698204E+02 0.  0.
          2    1    3    3  502    0 -0.24528946459E+03 -0.71580321311E+03  0.39978580877E+03  0.85578610309E+03  0.00000000000E+00 0. -1.
         -2    1    3    3    0  502 -0.13210855822E+03 -0.24357348818E+03  0.18422881384E+03  0.33274760877E+03  0.00000000000E+00 0.  1.
         11    1    5    5    0    0  0.92002450229E+02 -0.46812646250E+02 -0.12186543749E+03  0.15970929701E+03  0.00000000000E+00 0.  1.
        -11    1    5    5    0    0  0.16252900826E+03  0.39024276917E+02 -0.17331874405E+03  0.24078612865E+03  0.00000000000E+00 0. -1.
          1    1    6    6  503    0  0.33301047869E+02  0.49311114409E+03  0.92041349073E+02  0.50273170793E+03  0.00000000000E+00 0. -1.
         -1    1    6    6    0  503  0.89565516451E+02  0.47405392653E+03  0.17502284368E+02  0.48275815576E+03  0.00000000000E+00 0.  1.
<mgrwt>
<rscale>  0 0.25435106E+04</rscale>
<asrwt>0</asrwt>
<pdfrwt beam="1">  1        1 0.22868408E+00 0.25435106E+04</pdfrwt>
<pdfrwt beam="2">  1       -1 0.16739576E+00 0.25435106E+04</pdfrwt>
<totfact> 0.15218906E+00</totfact>
</mgrwt>
</event>
<event>
12    2  0.3552864E-008  0.1418835E+04  0.7818608E-02  0.8940297E-01
         -2   -1    0    0    0  501 -0.00000000000E+00  0.00000000000E+00  0.48492696442E+03  0.48492696442E+03  0.00000000000E+00 0.  1.
          2   -1    0    0  501    0  0.00000000000E+00 -0.00000000000E+00 -0.10378324891E+04  0.10378324891E+04  0.00000000000E+00 0. -1.
         23    2    1    2    0    0 -0.40540268932E+03  0.36971551146E+02 -0.24933306249E+02  0.41804088316E+03  0.91751153295E+02 0.  0.
        254    2    1    2    0    0  0.40540268932E+03 -0.36971551146E+02 -0.52797221841E+03  0.11047185703E+04  0.88086901417E+03 0.  0.
         23    2    4    4    0    0 -0.16609039115E+03 -0.16749881535E+03  0.70196153485E+02  0.26227335038E+03  0.90652849823E+02 0.  0.
         23    2    4    4    0    0  0.57149308046E+03  0.13052726421E+03 -0.59816837189E+03  0.84244521995E+03  0.90922163234E+02 0.  0.
          1    1    3    3  502    0 -0.17516217949E+02 -0.12844672444E+02  0.12701041646E+02  0.25161875136E+02  0.00000000000E+00 0. -1.
         -1    1    3    3    0  502 -0.38788647137E+03  0.49816223590E+02 -0.37634347895E+02  0.39287900802E+03  0.00000000000E+00 0.  1.
         11    1    5    5    0    0 -0.26810863166E+01 -0.48125716080E+02  0.38161869385E+00  0.48201850637E+02  0.00000000000E+00 0. -1.
        -11    1    5    5    0    0 -0.16340930483E+03 -0.11937309927E+03  0.69814534791E+02  0.21407149975E+03  0.00000000000E+00 0.  1.
          3    1    6    6  503    0  0.91923016054E+02  0.55408066935E+02 -0.12153719627E+03  0.16214556682E+03  0.00000000000E+00 0. -1.
         -3    1    6    6    0  503  0.47957006441E+03  0.75119197271E+02 -0.47663117563E+03  0.68029965313E+03  0.00000000000E+00 0.  1.
<mgrwt>
<rscale>  0 0.14188347E+04</rscale>
<asrwt>0</asrwt>
<pdfrwt beam="1">  1        2 0.15966654E+00 0.14188347E+04</pdfrwt>
<pdfrwt beam="2">  1       -2 0.74604149E-01 0.14188347E+04</pdfrwt>
<totfact> 0.37425035E+01</totfact>
</mgrwt>
</event>
<event>
12    2  0.3552864E-008  0.2567657E+04  0.7818608E-02  0.8379271E-01
          2   -1    0    0  501    0  0.00000000000E+00  0.00000000000E+00  0.15127055827E+04  0.15127055827E+04  0.00000000000E+00 0. -1.
         -2   -1    0    0    0  501 -0.00000000000E+00 -0.00000000000E+00 -0.10895811129E+04  0.10895811129E+04  0.00000000000E+00 0.  1.
         23    2    1    2    0    0  0.64833586122E+03  0.36757216899E+03  0.10405790340E+04  0.12834930827E+04  0.95399575369E+02 0.  0.
        254    2    1    2    0    0 -0.64833586122E+03 -0.36757216899E+03 -0.61745456420E+03  0.13187936130E+04  0.89583355954E+03 0.  0.
         23    2    4    4    0    0 -0.21439956868E+03 -0.47754058997E+03  0.22897255135E+02  0.53226832041E+03  0.93664777253E+02 0.  0.
         23    2    4    4    0    0 -0.43393629253E+03  0.10996842098E+03 -0.64035181933E+03  0.78652529255E+03  0.90431320413E+02 0.  0.
          3    1    3    3  502    0  0.58082824372E+03  0.35391479001E+03  0.91289899979E+03  0.11384207092E+04  0.00000000000E+00 0. -1.
         -3    1    3    3    0  502  0.67507617495E+02  0.13657378983E+02  0.12768003420E+03  0.14507237350E+03  0.00000000000E+00 0.  1.
         11    1    5    5    0    0 -0.10600996752E+03 -0.33552350551E+03 -0.20699085844E+01  0.35187841719E+03  0.00000000000E+00 0.  1.
        -11    1    5    5    0    0 -0.10838960116E+03 -0.14201708446E+03  0.24967163719E+02  0.18038990322E+03  0.00000000000E+00 0. -1.
          1    1    6    6  503    0 -0.11925468277E+00  0.97021996543E+01 -0.26303655985E+02  0.28036212619E+02  0.00000000000E+00 0. -1.
         -1    1    6    6    0  503 -0.43381703785E+03  0.10026622133E+03 -0.61404816335E+03  0.75848907993E+03  0.00000000000E+00 0.  1.
<mgrwt>
<rscale>  0 0.25676569E+04</rscale>
<asrwt>0</asrwt>
<pdfrwt beam="1">  1        2 0.23272394E+00 0.25676569E+04</pdfrwt>
<pdfrwt beam="2">  1       -2 0.16762786E+00 0.25676569E+04</pdfrwt>
<totfact> 0.24546256E+00</totfact>
</mgrwt>
</event>
<event>
12    2  0.3552864E-008  0.3741886E+04  0.7818608E-02  0.8058742E-01
         -2   -1    0    0    0  501 -0.00000000000E+00  0.00000000000E+00  0.10550334944E+04  0.10550334944E+04  0.00000000000E+00 0.  1.
          2   -1    0    0  501    0  0.00000000000E+00 -0.00000000000E+00 -0.33178352348E+04  0.33178352348E+04  0.00000000000E+00 0. -1.
         23    2    1    2    0    0 -0.13698947542E+04 -0.71040445959E+03 -0.72687472596E+02  0.15475480535E+04  0.91298277305E+02 0.  0.
        254    2    1    2    0    0  0.13698947542E+04  0.71040445959E+03 -0.21901142679E+04  0.28253206757E+04  0.89696726850E+03 0.  0.
         23    2    4    4    0    0  0.42152443804E+02  0.24650574067E+03 -0.62553066197E+02  0.27310246917E+03  0.90167421375E+02 0.  0.
         23    2    4    4    0    0  0.13277423104E+04  0.46389871892E+03 -0.21275612017E+04  0.25522182066E+04  0.95913726654E+02 0.  0.
          4    1    3    3  502    0 -0.10878079706E+04 -0.60190742676E+03 -0.44881428420E+02  0.12440390163E+04  0.00000000000E+00 0.  1.
         -4    1    3    3    0  502 -0.28208678353E+03 -0.10849703283E+03 -0.27806044175E+02  0.30350903721E+03  0.00000000000E+00 0. -1.
         11    1    5    5    0    0 -0.14440029414E+02  0.12651751151E+03 -0.22077546761E+01  0.12735803606E+03  0.00000000000E+00 0. -1.
        -11    1    5    5    0    0  0.56592473218E+02  0.11998822916E+03 -0.60345311521E+02  0.14574443311E+03  0.00000000000E+00 0.  1.
          3    1    6    6  503    0  0.12661065249E+04  0.45315453637E+03 -0.20605797775E+04  0.24605616809E+04  0.00000000000E+00 0. -1.
         -3    1    6    6    0  503  0.61635785458E+02  0.10744182552E+02 -0.66981424148E+02  0.91656525619E+02  0.00000000000E+00 0.  1.
<mgrwt>
<rscale>  0 0.37418858E+04</rscale>
<asrwt>0</asrwt>
<pdfrwt beam="1">  1        2 0.51043619E+00 0.37418858E+04</pdfrwt>
<pdfrwt beam="2">  1       -2 0.16231285E+00 0.37418858E+04</pdfrwt>
<totfact> 0.21117730E-01</totfact>
</mgrwt>
</event>
<event>
12    2  0.3552864E-008  0.1868803E+04  0.7818608E-02  0.8670543E-01
          2   -1    0    0  501    0  0.00000000000E+00  0.00000000000E+00  0.99320648850E+03  0.99320648850E+03  0.00000000000E+00 0. -1.
         -2   -1    0    0    0  501 -0.00000000000E+00 -0.00000000000E+00 -0.87907835902E+03  0.87907835902E+03  0.00000000000E+00 0.  1.
         23    2    1    2    0    0  0.54729661310E+03  0.46022892102E+03  0.14395246192E+03  0.73515723145E+03  0.91594766236E+02 0.  0.
        254    2    1    2    0    0 -0.54729661310E+03 -0.46022892102E+03 -0.29824332443E+02  0.11371276161E+04  0.88364330020E+03 0.  0.
         23    2    4    4    0    0 -0.24417037595E+03 -0.65616467617E+03  0.15341685319E+03  0.72237492026E+03  0.90097390815E+02 0.  0.
         23    2    4    4    0    0 -0.30312623715E+03  0.19593575515E+03 -0.18324118563E+03  0.41475269582E+03  0.90366646385E+02 0.  0.
          2    1    3    3  502    0  0.26446573044E+03  0.27453650902E+03  0.98984568177E+02  0.39384052877E+03  0.00000000000E+00 0. -1.
         -2    1    3    3    0  502  0.28283088266E+03  0.18569241200E+03  0.44967893740E+02  0.34131670267E+03  0.00000000000E+00 0.  1.
         11    1    5    5    0    0 -0.13546208089E+03 -0.25950749030E+03  0.89803712922E+02  0.30620062008E+03  0.00000000000E+00 0. -1.
        -11    1    5    5    0    0 -0.10870829506E+03 -0.39665718587E+03  0.63613140267E+02  0.41617430018E+03  0.00000000000E+00 0.  1.
          1    1    6    6  503    0 -0.36251749885E+02 -0.60611979848E+01 -0.25560017607E+02  0.44768761328E+02  0.00000000000E+00 0. -1.
         -1    1    6    6    0  503 -0.26687448726E+03  0.20199695314E+03 -0.15768116802E+03  0.36998393449E+03  0.00000000000E+00 0.  1.
<mgrwt>
<rscale>  0 0.18688032E+04</rscale>
<asrwt>0</asrwt>
<pdfrwt beam="1">  1        2 0.15280100E+00 0.18688032E+04</pdfrwt>
<pdfrwt beam="2">  1       -2 0.13524282E+00 0.18688032E+04</pdfrwt>
<totfact> 0.93810532E+00</totfact>
</mgrwt>
</event>
<event>
12    2  0.3552864E-008  0.1087614E+04  0.7818608E-02  0.9217349E-01
          2   -1    0    0  501    0  0.00000000000E+00  0.00000000000E+00  0.17662612083E+04  0.17662612083E+04  0.00000000000E+00 0. -1.
         -2   -1    0    0    0  501 -0.00000000000E+00 -0.00000000000E+00 -0.16743047345E+03  0.16743047345E+03  0.00000000000E+00 0.  1.
         23    2    1    2    0    0  0.15453962559E+03  0.67864810252E+02  0.30162221779E+03  0.35703178294E+03  0.89485213362E+02 0.  0.
        254    2    1    2    0    0 -0.15453962559E+03 -0.67864810252E+02  0.12972085171E+04  0.15766598989E+04  0.88012406597E+03 0.  0.
         23    2    4    4    0    0  0.22773694413E+03  0.16377035780E+03  0.97431391597E+03  0.10179675402E+04  0.91024502929E+02 0.  0.
         23    2    4    4    0    0 -0.38227656972E+03 -0.23163516805E+03  0.32289460112E+03  0.55869235871E+03  0.89922196429E+02 0.  0.
          3    1    3    3  502    0 -0.11593730622E-01 -0.13103872371E+01  0.70542613160E+02  0.70554783825E+02  0.00000000000E+00 0.  1.
         -3    1    3    3    0  502  0.15455121932E+03  0.69175197489E+02  0.23107960463E+03  0.28647699911E+03  0.00000000000E+00 0. -1.
         11    1    5    5    0    0  0.18792120092E+03  0.17008683632E+03  0.80714996488E+03  0.84601121473E+03  0.00000000000E+00 0. -1.
        -11    1    5    5    0    0  0.39815743203E+02 -0.63164785186E+01  0.16716395109E+03  0.17195632542E+03  0.00000000000E+00 0.  1.
          4    1    6    6  503    0 -0.24639975873E+03 -0.17809689358E+03  0.17477309984E+03  0.35068073946E+03  0.00000000000E+00 0. -1.
         -4    1    6    6    0  503 -0.13587681099E+03 -0.53538274475E+02  0.14812150128E+03  0.20801161924E+03  0.00000000000E+00 0.  1.
<mgrwt>
<rscale>  0 0.10876138E+04</rscale>
<asrwt>0</asrwt>
<pdfrwt beam="1">  1        2 0.27173248E+00 0.10876138E+04</pdfrwt>
<pdfrwt beam="2">  1       -2 0.25758536E-01 0.10876138E+04</pdfrwt>
<totfact> 0.12166757E+02</totfact>
</mgrwt>
</event>
<event>
12    2  0.3552864E-008  0.5436394E+04  0.7818608E-02  0.7764502E-01
         -2   -1    0    0    0  501 -0.00000000000E+00  0.00000000000E+00  0.39183251959E+04  0.39183251959E+04  0.00000000000E+00 0.  1.
          2   -1    0    0  501    0  0.00000000000E+00 -0.00000000000E+00 -0.18856515104E+04  0.18856515104E+04  0.00000000000E+00 0. -1.
         23    2    1    2    0    0 -0.40684156559E+03  0.22487032405E+04 -0.42807321143E+03  0.23267931686E+04  0.92376685406E+02 0.  0.
        254    2    1    2    0    0  0.40684156559E+03 -0.22487032405E+04  0.24607468970E+04  0.34771835377E+04  0.90185572050E+03 0.  0.
         23    2    4    4    0    0  0.47101834111E+03 -0.50426755585E+03  0.86583214140E+03  0.11109739903E+04  0.91944899596E+02 0.  0.
         23    2    4    4    0    0 -0.64176775520E+02 -0.17444356846E+04  0.15949147556E+04  0.23662095474E+04  0.89554609888E+02 0.  0.
          1    1    3    3  502    0 -0.37638400692E+03  0.20330356336E+04 -0.41328813334E+03  0.21084842635E+04  0.00000000000E+00 0. -1.
         -1    1    3    3    0  502 -0.30457558668E+02  0.21566760690E+03 -0.14785078099E+02  0.21830890518E+03  0.00000000000E+00 0.  1.
         11    1    5    5    0    0  0.41365458632E+03 -0.39208849626E+03  0.69906426774E+03  0.90196139391E+03  0.00000000000E+00 0.  1.
        -11    1    5    5    0    0  0.57363754785E+02 -0.11217905959E+03  0.16676787367E+03  0.20901259642E+03  0.00000000000E+00 0. -1.
          1    1    6    6  503    0 -0.72824863537E+02 -0.98192718254E+03  0.86481863796E+03  0.13104944598E+04  0.00000000000E+00 0. -1.
         -1    1    6    6    0  503  0.86480880175E+01 -0.76250850209E+03  0.73009611761E+03  0.10557150876E+04  0.00000000000E+00 0.  1.
<mgrwt>
<rscale>  0 0.54363943E+04</rscale>
<asrwt>0</asrwt>
<pdfrwt beam="1">  1        2 0.29010023E+00 0.54363943E+04</pdfrwt>
<pdfrwt beam="2">  1       -2 0.60281926E+00 0.54363943E+04</pdfrwt>
<totfact> 0.27335994E-03</totfact>
</mgrwt>
</event>
<event>
12    2  0.3552864E-008  0.1990583E+04  0.7818608E-02  0.8611036E-01
         -2   -1    0    0    0  501 -0.00000000000E+00  0.00000000000E+00  0.47348624117E+03  0.47348624117E+03  0.00000000000E+00 0.  1.
          2   -1    0    0  501    0  0.00000000000E+00 -0.00000000000E+00 -0.20921517114E+04  0.20921517114E+04  0.00000000000E+00 0. -1.
         23    2    1    2    0    0  0.47298582621E+02  0.49188951208E+02  0.36707553222E+03  0.38421230160E+03  0.90652840575E+02 0.  0.
        254    2    1    2    0    0 -0.47298582621E+02 -0.49188951208E+02 -0.19857410024E+04  0.21814256510E+04  0.90044091037E+03 0.  0.
         23    2    4    4    0    0 -0.15936334914E+03  0.16314187778E+03 -0.82181088379E+02  0.26063373334E+03  0.95730153739E+02 0.  0.
         23    2    4    4    0    0  0.11206476652E+03 -0.21233082899E+03 -0.19035599141E+04  0.19207919176E+04  0.90875472784E+02 0.  0.
          1    1    3    3  502    0 -0.83540478091E+01 -0.21751698843E+02  0.74989837114E+02  0.78526442602E+02  0.00000000000E+00 0. -1.
         -1    1    3    3    0  502  0.55652630430E+02  0.70940650051E+02  0.29208569510E+03  0.30568585899E+03  0.00000000000E+00 0.  1.
         11    1    5    5    0    0 -0.21883525840E+02  0.62602561848E+02  0.98422640698E+01  0.67043565054E+02  0.00000000000E+00 0.  1.
        -11    1    5    5    0    0 -0.13747982330E+03  0.10053931593E+03 -0.92023352448E+02  0.19359016829E+03  0.00000000000E+00 0. -1.
          3    1    6    6  503    0  0.90716448619E+02 -0.81862428086E+02 -0.10436347430E+04  0.10507637261E+04  0.00000000000E+00 0. -1.
         -3    1    6    6    0  503  0.21348317899E+02 -0.13046840090E+03 -0.85992517103E+03  0.87002819154E+03  0.00000000000E+00 0.  1.
<mgrwt>
<rscale>  0 0.19905829E+04</rscale>
<asrwt>0</asrwt>
<pdfrwt beam="1">  1        2 0.32186950E+00 0.19905829E+04</pdfrwt>
<pdfrwt beam="2">  1       -2 0.72844037E-01 0.19905829E+04</pdfrwt>
<totfact> 0.93992234E+00</totfact>
</mgrwt>
</event>
<event>
12    2  0.3552864E-008  0.1225447E+04  0.7818608E-02  0.9090870E-01
          2   -1    0    0  501    0  0.00000000000E+00  0.00000000000E+00  0.10914861049E+04  0.10914861049E+04  0.00000000000E+00 0. -1.
         -2   -1    0    0    0  501 -0.00000000000E+00 -0.00000000000E+00 -0.34396216725E+03  0.34396216725E+03  0.00000000000E+00 0.  1.
         23    2    1    2    0    0 -0.25784817901E+03 -0.20291760628E+01  0.12302292544E+03  0.29975818904E+03  0.90722272565E+02 0.  0.
        254    2    1    2    0    0  0.25784817901E+03  0.20291760628E+01  0.62450101225E+03  0.11356900831E+04  0.91285302742E+03 0.  0.
         23    2    4    4    0    0 -0.33540797818E+03  0.10870433413E+02  0.24539814039E+03  0.42615051906E+03  0.93634071995E+02 0.  0.
         23    2    4    4    0    0  0.59325615719E+03 -0.88412573502E+01  0.37910287185E+03  0.70953956408E+03  0.87728955751E+02 0.  0.
          1    1    3    3  502    0 -0.57818406170E+02  0.26251284790E+02  0.52485258264E+00  0.63500972554E+02  0.00000000000E+00 0. -1.
         -1    1    3    3    0  502 -0.20002977284E+03 -0.28280460852E+02  0.12249807286E+03  0.23625721649E+03  0.00000000000E+00 0.  1.
         11    1    5    5    0    0 -0.17634143990E+03 -0.40384434750E+02  0.11767233951E+03  0.21581006807E+03  0.00000000000E+00 0.  1.
        -11    1    5    5    0    0 -0.15906653828E+03  0.51254868162E+02  0.12772580088E+03  0.21034045099E+03  0.00000000000E+00 0. -1.
          1    1    6    6  503    0  0.27382025602E+03 -0.31512110155E+02  0.13523409093E+03  0.30701596871E+03  0.00000000000E+00 0. -1.
         -1    1    6    6    0  503  0.31943590117E+03  0.22670852804E+02  0.24386878092E+03  0.40252359537E+03  0.00000000000E+00 0.  1.
<mgrwt>
<rscale>  0 0.12254467E+04</rscale>
<asrwt>0</asrwt>
<pdfrwt beam="1">  1        2 0.16792094E+00 0.12254467E+04</pdfrwt>
<pdfrwt beam="2">  1       -2 0.52917257E-01 0.12254467E+04</pdfrwt>
<totfact> 0.73158086E+01</totfact>
</mgrwt>
</event>
<event>
12    2  0.3552864E-008  0.2882128E+04  0.7818608E-02  0.8278215E-01
         -1   -1    0    0    0  501 -0.00000000000E+00  0.00000000000E+00  0.70076566605E+03  0.70076566605E+03  0.00000000000E+00 0.  1.
          1   -1    0    0  501    0  0.00000000000E+00 -0.00000000000E+00 -0.29634239197E+04  0.29634239197E+04  0.00000000000E+00 0. -1.
         23    2    1    2    0    0  0.10506314920E+04 -0.66536711149E+03 -0.53614624142E+03  0.13574222513E+04  0.92749399675E+02 0.  0.
        254    2    1    2    0    0 -0.10506314920E+04  0.66536711149E+03 -0.17265120123E+04  0.23067673345E+04  0.89094998849E+03 0.  0.
         23    2    4    4    0    0 -0.59109317269E+03 -0.92359461834E+02 -0.46932284372E+03  0.76583001658E+03  0.91160702410E+02 0.  0.
         23    2    4    4    0    0 -0.45953831928E+03  0.75772657333E+03 -0.12571891685E+04  0.15409373179E+04  0.92941838821E+02 0.  0.
          3    1    3    3  502    0  0.40941714166E+02 -0.96081358366E+01 -0.28632081801E+02  0.50875694997E+02  0.00000000000E+00 0. -1.
         -3    1    3    3    0  502  0.10096897778E+04 -0.65575897566E+03 -0.50751415962E+03  0.13065465563E+04  0.00000000000E+00 0.  1.
         11    1    5    5    0    0 -0.16519345905E+03 -0.65089708088E+01 -0.85584190628E+02  0.18616094999E+03  0.00000000000E+00 0. -1.
        -11    1    5    5    0    0 -0.42589971364E+03 -0.85850491025E+02 -0.38373865309E+03  0.57966906659E+03  0.00000000000E+00 0.  1.
          2    1    6    6  503    0 -0.18376491996E+03  0.29309593418E+03 -0.57013903062E+03  0.66688326315E+03  0.00000000000E+00 0. -1.
         -2    1    6    6    0  503 -0.27577339932E+03  0.46463063915E+03 -0.68705013793E+03  0.87405405476E+03  0.00000000000E+00 0.  1.
<mgrwt>
<rscale>  0 0.28821282E+04</rscale>
<asrwt>0</asrwt>
<pdfrwt beam="1">  1        1 0.45591138E+00 0.28821282E+04</pdfrwt>
<pdfrwt beam="2">  1       -1 0.10781010E+00 0.28821282E+04</pdfrwt>
<totfact> 0.43696835E-01</totfact>
</mgrwt>
</event>
<event>
12    2  0.3552864E-008  0.1812552E+04  0.7818608E-02  0.8699653E-01
          2   -1    0    0  501    0  0.00000000000E+00  0.00000000000E+00  0.60818707860E+03  0.60818707860E+03  0.00000000000E+00 0. -1.
         -2   -1    0    0    0  501 -0.00000000000E+00 -0.00000000000E+00 -0.13504667316E+04  0.13504667316E+04  0.00000000000E+00 0.  1.
         23    2    1    2    0    0  0.31326568617E+03 -0.21910325664E+03 -0.88004290444E+03  0.96358589545E+03  0.88772952304E+02 0.  0.
        254    2    1    2    0    0 -0.31326568617E+03  0.21910325664E+03  0.13776325141E+03  0.99506791477E+03  0.90831702305E+03 0.  0.
         23    2    4    4    0    0 -0.16820172644E+03  0.79198882786E+02 -0.37947401140E+03  0.43272797637E+03  0.93213155697E+02 0.  0.
         23    2    4    4    0    0 -0.14506395973E+03  0.13990437385E+03  0.51723726281E+03  0.56233993840E+03  0.89861193230E+02 0.  0.
          1    1    3    3  502    0  0.87419967489E+02 -0.16325794633E+02 -0.20133368026E+03  0.22010005246E+03  0.00000000000E+00 0. -1.
         -1    1    3    3    0  502  0.22584571868E+03 -0.20277746200E+03 -0.67870922418E+03  0.74348584299E+03  0.00000000000E+00 0.  1.
         11    1    5    5    0    0 -0.69389611669E+02  0.36254045604E+02 -0.69944948519E+02  0.10498366470E+03  0.00000000000E+00 0.  1.
        -11    1    5    5    0    0 -0.98812114768E+02  0.42944837182E+02 -0.30952906288E+03  0.32774431167E+03  0.00000000000E+00 0. -1.
          2    1    6    6  503    0 -0.12138837500E+03  0.76339067521E+02  0.41981202781E+03  0.44362701621E+03  0.00000000000E+00 0. -1.
         -2    1    6    6    0  503 -0.23675584728E+02  0.63565306331E+02  0.97425234994E+02  0.11871292219E+03  0.00000000000E+00 0.  1.
<mgrwt>
<rscale>  0 0.18125523E+04</rscale>
<asrwt>0</asrwt>
<pdfrwt beam="1">  1        2 0.93567244E-01 0.18125523E+04</pdfrwt>
<pdfrwt beam="2">  1       -2 0.20776411E+00 0.18125523E+04</pdfrwt>
<totfact> 0.54424288E+00</totfact>
</mgrwt>
</event>
<event>
12    2  0.3552864E-008  0.2297681E+04  0.7818608E-02  0.8478836E-01
          1   -1    0    0  501    0  0.00000000000E+00  0.00000000000E+00  0.98101623709E+03  0.98101623709E+03  0.00000000000E+00 0. -1.
         -1   -1    0    0    0  501 -0.00000000000E+00 -0.00000000000E+00 -0.13453746708E+04  0.13453746708E+04  0.00000000000E+00 0.  1.
         23    2    1    2    0    0  0.13165389228E+03 -0.45371702146E+03  0.70374385557E+03  0.85113623144E+03  0.77366577442E+02 0.  0.
        254    2    1    2    0    0 -0.13165389228E+03  0.45371702146E+03 -0.10681022893E+04  0.14752546764E+04  0.90130015925E+03 0.  0.
         23    2    4    4    0    0  0.13654630013E+03  0.39228792162E+03 -0.11039331020E+04  0.11829903754E+04  0.90902306242E+02 0.  0.
         23    2    4    4    0    0 -0.26820019241E+03  0.61429099839E+02  0.35830812704E+02  0.29226430096E+03  0.91813381177E+02 0.  0.
          1    1    3    3  502    0  0.10423544910E+03 -0.42110528874E+03  0.61399482787E+03  0.75178743119E+03  0.00000000000E+00 0. -1.
         -1    1    3    3    0  502  0.27418443172E+02 -0.32611732726E+02  0.89749027707E+02  0.99348800253E+02  0.00000000000E+00 0.  1.
         11    1    5    5    0    0  0.12219557039E+03  0.33043663765E+03 -0.82780463185E+03  0.89965584388E+03  0.00000000000E+00 0.  1.
        -11    1    5    5    0    0  0.14350729744E+02  0.61851283969E+02 -0.27612847011E+03  0.28333453156E+03  0.00000000000E+00 0. -1.
          2    1    6    6  503    0 -0.24553497826E+03  0.34900599656E+02  0.52649633916E+02  0.25353000090E+03  0.00000000000E+00 0. -1.
         -2    1    6    6    0  503 -0.22665214150E+02  0.26528500183E+02 -0.16818821211E+02  0.38734300063E+02  0.00000000000E+00 0.  1.
<mgrwt>
<rscale>  0 0.22976809E+04</rscale>
<asrwt>0</asrwt>
<pdfrwt beam="1">  1        1 0.15092558E+00 0.22976809E+04</pdfrwt>
<pdfrwt beam="2">  1       -1 0.20698072E+00 0.22976809E+04</pdfrwt>
<totfact> 0.19081933E+00</totfact>
</mgrwt>
</event>
<event>
12    2  0.3552864E-008  0.1943764E+04  0.7818608E-02  0.8633374E-01
          1   -1    0    0  501    0  0.00000000000E+00  0.00000000000E+00  0.90894215370E+03  0.90894215370E+03  0.00000000000E+00 0. -1.
         -1   -1    0    0    0  501 -0.00000000000E+00 -0.00000000000E+00 -0.10391802867E+04  0.10391802867E+04  0.00000000000E+00 0.  1.
         23    2    1    2    0    0  0.43162683310E+03  0.45540093307E+03 -0.48231881721E+03  0.79661336137E+03  0.90937743407E+02 0.  0.
        254    2    1    2    0    0 -0.43162683310E+03 -0.45540093307E+03  0.35208068426E+03  0.11515090790E+04  0.89906652584E+03 0.  0.
         23    2    4    4    0    0 -0.54789959398E+03  0.42220255297E+02  0.71501763311E+02  0.56170896103E+03  0.91803810938E+02 0.  0.
         23    2    4    4    0    0  0.11627276088E+03 -0.49762118837E+03  0.28057892095E+03  0.58980011796E+03  0.89406074918E+02 0.  0.
          3    1    3    3  502    0  0.22467980112E+03  0.26224058164E+03 -0.21210431801E+03  0.40526457705E+03  0.00000000000E+00 0.  1.
         -3    1    3    3    0  502  0.20694703198E+03  0.19316035144E+03 -0.27021449920E+03  0.39134878432E+03  0.00000000000E+00 0. -1.
         11    1    5    5    0    0 -0.56528134398E+02 -0.20063777947E+02  0.22194294690E+02  0.63957578760E+02  0.00000000000E+00 0.  1.
        -11    1    5    5    0    0 -0.49137145958E+03  0.62284033244E+02  0.49307468621E+02  0.49775138227E+03  0.00000000000E+00 0. -1.
          4    1    6    6  503    0  0.39248498265E+02 -0.28144743753E+03  0.11379306963E+03  0.30610777089E+03  0.00000000000E+00 0. -1.
         -4    1    6    6    0  503  0.77024262620E+02 -0.21617375084E+03  0.16678585132E+03  0.28369234707E+03  0.00000000000E+00 0.  1.
<mgrwt>
<rscale>  0 0.19437642E+04</rscale>
<asrwt>0</asrwt>
<pdfrwt beam="1">  1        1 0.13983725E+00 0.19437642E+04</pdfrwt>
<pdfrwt beam="2">  1       -1 0.15987389E+00 0.19437642E+04</pdfrwt>
<totfact> 0.48848859E+00</totfact>
</mgrwt>
</event>
<event>
12    2  0.3552864E-008  0.2537302E+04  0.7818608E-02  0.8389816E-01
          1   -1    0    0  501    0  0.00000000000E+00  0.00000000000E+00  0.79740722803E+03  0.79740722803E+03  0.00000000000E+00 0. -1.
         -1   -1    0    0    0  501 -0.00000000000E+00 -0.00000000000E+00 -0.20183849248E+04  0.20183849248E+04  0.00000000000E+00 0.  1.
         23    2    1    2    0    0  0.47903006024E+03 -0.28512454895E+03  0.52820157146E+03  0.77516883606E+03  0.10547045694E+03 0.  0.
        254    2    1    2    0    0 -0.47903006024E+03  0.28512454895E+03 -0.17491792683E+04  0.20406233168E+04  0.89092626041E+03 0.  0.
         23    2    4    4    0    0  0.22552567745E+03  0.23398578881E+03 -0.52325096441E+03  0.62282221870E+03  0.92221276206E+02 0.  0.
         23    2    4    4    0    0 -0.70455573769E+03  0.51138760140E+02 -0.12259283038E+04  0.14178010981E+04  0.90806317428E+02 0.  0.
          4    1    3    3  502    0  0.44328293076E+03 -0.28823702514E+03  0.47366507461E+03  0.70988657000E+03  0.00000000000E+00 0. -1.
         -4    1    3    3    0  502  0.35747129479E+02  0.31124761824E+01  0.54536496850E+02  0.65282266065E+02  0.00000000000E+00 0.  1.
         11    1    5    5    0    0  0.10203350588E+03  0.14976197813E+03 -0.34898307627E+03  0.39322852635E+03  0.00000000000E+00 0.  1.
        -11    1    5    5    0    0  0.12349217157E+03  0.84223810688E+02 -0.17426788815E+03  0.22959369235E+03  0.00000000000E+00 0. -1.
          4    1    6    6  503    0 -0.25382033347E+03  0.62197396557E+02 -0.44461676118E+03  0.51572991201E+03  0.00000000000E+00 0. -1.
         -4    1    6    6    0  503 -0.45073540422E+03 -0.11058636417E+02 -0.78131154266E+03  0.90207118608E+03  0.00000000000E+00 0.  1.
<mgrwt>
<rscale>  0 0.25373015E+04</rscale>
<asrwt>0</asrwt>
<pdfrwt beam="1">  1        1 0.12267803E+00 0.25373015E+04</pdfrwt>
<pdfrwt beam="2">  1       -1 0.31052076E+00 0.25373015E+04</pdfrwt>
<totfact> 0.55538166E-01</totfact>
</mgrwt>
</event>
<event>
12    2  0.3552864E-008  0.1646669E+04  0.7818608E-02  0.8792380E-01
         -2   -1    0    0    0  501 -0.00000000000E+00  0.00000000000E+00  0.37225370657E+03  0.37225370657E+03  0.00000000000E+00 0.  1.
          2   -1    0    0  501    0  0.00000000000E+00 -0.00000000000E+00 -0.18210148815E+04  0.18210148815E+04  0.00000000000E+00 0. -1.
         23    2    1    2    0    0  0.40195832327E+02  0.41584686086E+03  0.43006183954E+02  0.42973168048E+03  0.90969603296E+02 0.  0.
        254    2    1    2    0    0 -0.40195832327E+02 -0.41584686086E+03 -0.14917673589E+04  0.17635369076E+04  0.84270294575E+03 0.  0.
         23    2    4    4    0    0 -0.73028372805E+02 -0.19569262817E+03  0.23478923657E+02  0.22978202940E+03  0.92842733824E+02 0.  0.
         23    2    4    4    0    0  0.32832540478E+02 -0.22015423269E+03 -0.15152462826E+04  0.15337548782E+04  0.82987153919E+02 0.  0.
          4    1    3    3  502    0  0.63377380044E+02  0.21952928603E+03  0.57307379764E+01  0.22856649160E+03  0.00000000000E+00 0. -1.
         -4    1    3    3    0  502 -0.23181547717E+02  0.19631757484E+03  0.37275445978E+02  0.20116518888E+03  0.00000000000E+00 0.  1.
         11    1    5    5    0    0 -0.44415583811E+02 -0.14421709242E+03 -0.25676268758E+02  0.15307052168E+03  0.00000000000E+00 0.  1.
        -11    1    5    5    0    0 -0.28612788994E+02 -0.51475535757E+02  0.49155192415E+02  0.76711507721E+02  0.00000000000E+00 0. -1.
          1    1    6    6  503    0  0.37807335194E+02 -0.14977555792E+03 -0.78124336849E+03  0.79636882985E+03  0.00000000000E+00 0. -1.
         -1    1    6    6    0  503 -0.49747947162E+01 -0.70378674769E+02 -0.73400291410E+03  0.73738604838E+03  0.00000000000E+00 0.  1.
<mgrwt>
<rscale>  0 0.16466688E+04</rscale>
<asrwt>0</asrwt>
<pdfrwt beam="1">  1        2 0.28015614E+00 0.16466688E+04</pdfrwt>
<pdfrwt beam="2">  1       -2 0.57269800E-01 0.16466688E+04</pdfrwt>
<totfact> 0.22929781E+01</totfact>
</mgrwt>
</event>
<event>
12    2  0.3552864E-008  0.1425156E+04  0.7818608E-02  0.8935808E-01
         -2   -1    0    0    0  501 -0.00000000000E+00  0.00000000000E+00  0.19785922326E+03  0.19785922326E+03  0.00000000000E+00 0.  1.
          2   -1    0    0  501    0  0.00000000000E+00 -0.00000000000E+00 -0.25663072074E+04  0.25663072074E+04  0.00000000000E+00 0. -1.
         23    2    1    2    0    0  0.27960932941E+03  0.25450942117E+03 -0.35843999724E+03  0.52849336051E+03  0.88710641508E+02 0.  0.
        254    2    1    2    0    0 -0.27960932941E+03 -0.25450942117E+03 -0.20100079869E+04  0.22356730702E+04  0.90285411152E+03 0.  0.
         23    2    4    4    0    0 -0.47153005413E+03 -0.41206001562E+03 -0.17656936656E+04  0.18756081503E+04  0.89987578852E+02 0.  0.
         23    2    4    4    0    0  0.19192072472E+03  0.15755059445E+03 -0.24431432134E+03  0.36006491989E+03  0.91112592620E+02 0.  0.
          3    1    3    3  502    0  0.85120057253E+02  0.13586692995E+03 -0.15673526848E+03  0.22421237965E+03  0.00000000000E+00 0. -1.
         -3    1    3    3    0  502  0.19448927216E+03  0.11864249122E+03 -0.20170472876E+03  0.30428098086E+03  0.00000000000E+00 0.  1.
         11    1    5    5    0    0 -0.24505440958E+02 -0.13806566191E+02 -0.14874110496E+03  0.15137719184E+03  0.00000000000E+00 0. -1.
        -11    1    5    5    0    0 -0.44702461318E+03 -0.39825344943E+03 -0.16169525606E+04  0.17242309584E+04  0.00000000000E+00 0.  1.
          3    1    6    6  503    0  0.60945722243E+02  0.17917808384E+01 -0.57940211914E+02  0.84110996279E+02  0.00000000000E+00 0. -1.
         -3    1    6    6    0  503  0.13097500248E+03  0.15575881361E+03 -0.18637410942E+03  0.27595392361E+03  0.00000000000E+00 0.  1.
<mgrwt>
<rscale>  0 0.14251562E+04</rscale>
<asrwt>0</asrwt>
<pdfrwt beam="1">  1        2 0.39481646E+00 0.14251562E+04</pdfrwt>
<pdfrwt beam="2">  1       -2 0.30439883E-01 0.14251562E+04</pdfrwt>
<totfact> 0.31000987E+01</totfact>
</mgrwt>
</event>
<event>
12    2  0.3552864E-008  0.1750706E+04  0.7818608E-02  0.8732962E-01
          1   -1    0    0  501    0  0.00000000000E+00  0.00000000000E+00  0.39983467057E+03  0.39983467057E+03  0.00000000000E+00 0. -1.
         -1   -1    0    0    0  501 -0.00000000000E+00 -0.00000000000E+00 -0.19163997066E+04  0.19163997066E+04  0.00000000000E+00 0.  1.
         23    2    1    2    0    0  0.51223509124E+03 -0.14254240655E+03 -0.93043723289E+02  0.54733939614E+03  0.90665063638E+02 0.  0.
        254    2    1    2    0    0 -0.51223509124E+03  0.14254240655E+03 -0.14235213128E+04  0.17688949811E+04  0.90546860781E+03 0.  0.
         23    2    4    4    0    0  0.72405211913E+02 -0.27379859770E+03 -0.62047744493E+03  0.68810564083E+03  0.91043541542E+02 0.  0.
         23    2    4    4    0    0 -0.58464030315E+03  0.41634100425E+03 -0.80304386784E+03  0.10807893402E+04  0.89900102290E+02 0.  0.
          1    1    3    3  502    0  0.36287139073E+03 -0.78481468539E+02 -0.28103402755E+02  0.37232349961E+03  0.00000000000E+00 0. -1.
         -1    1    3    3    0  502  0.14936370051E+03 -0.64060938009E+02 -0.64940320534E+02  0.17501589653E+03  0.00000000000E+00 0.  1.
         11    1    5    5    0    0 -0.29526860016E+01 -0.14844326085E+02 -0.10742531502E+03  0.10848626954E+03  0.00000000000E+00 0.  1.
        -11    1    5    5    0    0  0.75357897915E+02 -0.25895427161E+03 -0.51305212991E+03  0.57961937128E+03  0.00000000000E+00 0. -1.
          3    1    6    6  503    0 -0.53585252598E+03  0.39399279469E+03 -0.77119956913E+03  0.10183894281E+04  0.00000000000E+00 0. -1.
         -3    1    6    6    0  503 -0.48787777173E+02  0.22348209563E+02 -0.31844298710E+02  0.62399912119E+02  0.00000000000E+00 0.  1.
<mgrwt>
<rscale>  0 0.17507062E+04</rscale>
<asrwt>0</asrwt>
<pdfrwt beam="1">  1        1 0.61513026E-01 0.17507062E+04</pdfrwt>
<pdfrwt beam="2">  1       -1 0.29483073E+00 0.17507062E+04</pdfrwt>
<totfact> 0.20316167E+00</totfact>
</mgrwt>
</event>
<event>
12    2  0.3552864E-008  0.1957690E+04  0.7818608E-02  0.8626661E-01
          1   -1    0    0  501    0  0.00000000000E+00  0.00000000000E+00  0.66785021780E+03  0.66785021780E+03  0.00000000000E+00 0. -1.
         -1   -1    0    0    0  501 -0.00000000000E+00 -0.00000000000E+00 -0.14346599726E+04  0.14346599726E+04  0.00000000000E+00 0.  1.
         23    2    1    2    0    0  0.31991542556E+03  0.25931216210E+03 -0.10057236312E+04  0.10909272686E+04  0.95150439504E+02 0.  0.
        254    2    1    2    0    0 -0.31991542556E+03 -0.25931216210E+03  0.23891387643E+03  0.10115829218E+04  0.89254215044E+03 0.  0.
         23    2    4    4    0    0  0.30356091930E+03 -0.90539244090E+02  0.61353767731E+02  0.33549048481E+03  0.91885766785E+02 0.  0.
         23    2    4    4    0    0 -0.62347634486E+03 -0.16877291801E+03  0.17756010870E+03  0.67609243694E+03  0.91467702677E+02 0.  0.
          1    1    3    3  502    0  0.15643761717E+02  0.17631496833E+02 -0.18437561624E+02  0.29925585038E+02  0.00000000000E+00 0. -1.
         -1    1    3    3    0  502  0.30427166384E+03  0.24168066527E+03 -0.98728606960E+03  0.10610016836E+04  0.00000000000E+00 0.  1.
         11    1    5    5    0    0  0.19241402562E+03 -0.61003815083E+02 -0.65064003020E+01  0.20195780736E+03  0.00000000000E+00 0. -1.
        -11    1    5    5    0    0  0.11114689369E+03 -0.29535429007E+02  0.67860168033E+02  0.13353267745E+03  0.00000000000E+00 0.  1.
          3    1    6    6  503    0 -0.47875626697E+03 -0.13228142128E+03  0.17562432240E+03  0.52682999174E+03  0.00000000000E+00 0. -1.
         -3    1    6    6    0  503 -0.14472007789E+03 -0.36491496733E+02  0.19357862957E+01  0.14926244520E+03  0.00000000000E+00 0.  1.
<mgrwt>
<rscale>  0 0.19576905E+04</rscale>
<asrwt>0</asrwt>
<pdfrwt beam="1">  1        1 0.10274619E+00 0.19576905E+04</pdfrwt>
<pdfrwt beam="2">  1       -1 0.22071692E+00 0.19576905E+04</pdfrwt>
<totfact> 0.29635279E+00</totfact>
</mgrwt>
</event>
<event>
12    2  0.3552864E-008  0.2298631E+04  0.7818608E-02  0.8478461E-01
          2   -1    0    0  501    0  0.00000000000E+00  0.00000000000E+00  0.21007967905E+04  0.21007967905E+04  0.00000000000E+00 0. -1.
         -2   -1    0    0    0  501 -0.00000000000E+00 -0.00000000000E+00 -0.62877363968E+03  0.62877363968E+03  0.00000000000E+00 0.  1.
         23    2    1    2    0    0 -0.24897411155E+03 -0.41196762894E+03 -0.37673591047E+03  0.61822434789E+03  0.92552485486E+02 0.  0.
        254    2    1    2    0    0  0.24897411155E+03  0.41196762894E+03  0.18487590613E+04  0.21113460823E+04  0.89898096586E+03 0.  0.
         23    2    4    4    0    0  0.21067463729E+03  0.67687675010E+03  0.15035002749E+04  0.16647301149E+04  0.90924920863E+02 0.  0.
         23    2    4    4    0    0  0.38299474256E+02 -0.26490912116E+03  0.34525878646E+03  0.44661596744E+03  0.92835879639E+02 0.  0.
          2    1    3    3  502    0 -0.62519809658E+02 -0.10306274257E+03 -0.14856712217E+03  0.19131870085E+03  0.00000000000E+00 0. -1.
         -2    1    3    3    0  502 -0.18645430189E+03 -0.30890488638E+03 -0.22816878830E+03  0.42690564704E+03  0.00000000000E+00 0.  1.
         11    1    5    5    0    0  0.17200462308E+03  0.50208814377E+03  0.10338793675E+04  0.11621465661E+04  0.00000000000E+00 0. -1.
        -11    1    5    5    0    0  0.38670014214E+02  0.17478860632E+03  0.46962090735E+03  0.50258354879E+03  0.00000000000E+00 0.  1.
          1    1    6    6  503    0 -0.30906696254E+02 -0.77755583740E+02  0.10728867344E+03  0.13605886272E+03  0.00000000000E+00 0. -1.
         -1    1    6    6    0  503  0.69206170510E+02 -0.18715353742E+03  0.23797011302E+03  0.31055710472E+03  0.00000000000E+00 0.  1.
<mgrwt>
<rscale>  0 0.22986306E+04</rscale>
<asrwt>0</asrwt>
<pdfrwt beam="1">  1        2 0.32319950E+00 0.22986306E+04</pdfrwt>
<pdfrwt beam="2">  1       -2 0.96734407E-01 0.22986306E+04</pdfrwt>
<totfact> 0.47539160E+00</totfact>
</mgrwt>
</event>
<event>
12    2  0.3552864E-008  0.3101287E+04  0.7818608E-02  0.8215385E-01
          1   -1    0    0  501    0  0.00000000000E+00  0.00000000000E+00  0.20674431152E+04  0.20674431152E+04  0.00000000000E+00 0. -1.
         -1   -1    0    0    0  501 -0.00000000000E+00 -0.00000000000E+00 -0.11630281938E+04  0.11630281938E+04  0.00000000000E+00 0.  1.
         23    2    1    2    0    0 -0.21759297346E+02  0.13916625088E+04  0.68382262890E+03  0.15534517172E+04  0.91656121709E+02 0.  0.
        254    2    1    2    0    0  0.21759297346E+02 -0.13916625088E+04  0.22059229249E+03  0.16770195918E+04  0.90914011374E+03 0.  0.
         23    2    4    4    0    0  0.19494366111E+03 -0.14415780943E+04  0.21919631736E+03  0.14739089448E+04  0.90609707428E+02 0.  0.
         23    2    4    4    0    0 -0.17318436377E+03  0.49915585491E+02  0.13959751292E+01  0.20311064702E+03  0.93635445523E+02 0.  0.
          2    1    3    3  502    0 -0.28006782117E+02  0.16069445395E+03  0.96637730866E+02  0.18959414127E+03  0.00000000000E+00 0. -1.
         -2    1    3    3    0  502  0.62474847705E+01  0.12309680548E+04  0.58718489803E+03  0.13638575760E+04  0.00000000000E+00 0.  1.
         11    1    5    5    0    0  0.18949702802E+03 -0.11231498787E+04  0.17450745734E+03  0.11523140311E+04  0.00000000000E+00 0.  1.
        -11    1    5    5    0    0  0.54466330900E+01 -0.31842821553E+03  0.44688860015E+02  0.32159491362E+03  0.00000000000E+00 0. -1.
          3    1    6    6  503    0 -0.17550686566E+02 -0.16366600123E+02  0.22180655206E+02  0.32678336308E+02  0.00000000000E+00 0. -1.
         -3    1    6    6    0  503 -0.15563367720E+03  0.66282185613E+02 -0.20784680077E+02  0.17043231071E+03  0.00000000000E+00 0.  1.
<mgrwt>
<rscale>  0 0.31012866E+04</rscale>
<asrwt>0</asrwt>
<pdfrwt beam="1">  1        1 0.31806817E+00 0.31012866E+04</pdfrwt>
<pdfrwt beam="2">  1       -1 0.17892741E+00 0.31012866E+04</pdfrwt>
<totfact> 0.47931350E-01</totfact>
</mgrwt>
</event>
<event>
12    2  0.3552864E-008  0.1798645E+04  0.7818608E-02  0.8707020E-01
         -2   -1    0    0    0  501 -0.00000000000E+00  0.00000000000E+00  0.32585701171E+03  0.32585701171E+03  0.00000000000E+00 0. -1.
          2   -1    0    0  501    0  0.00000000000E+00 -0.00000000000E+00 -0.24820112898E+04  0.24820112898E+04  0.00000000000E+00 0.  1.
         23    2    1    2    0    0 -0.57426053349E+03 -0.13628897595E+03 -0.31118737208E+03  0.67329249287E+03  0.90196203488E+02 0.  0.
        254    2    1    2    0    0  0.57426053349E+03  0.13628897595E+03 -0.18449669060E+04  0.21345758087E+04  0.89675032941E+03 0.  0.
         23    2    4    4    0    0 -0.20551456698E+03 -0.57839482886E+02 -0.64877651834E+03  0.69056085202E+03  0.10189051272E+03 0.  0.
         23    2    4    4    0    0  0.77977510047E+03  0.19412845884E+03 -0.11961903877E+04  0.14440149566E+04  0.92588798143E+02 0.  0.
          2    1    3    3  502    0 -0.52937619520E+03 -0.14567445770E+03 -0.27087266626E+03  0.61223541632E+03  0.00000000000E+00 0.  1.
         -2    1    3    3    0  502 -0.44884338288E+02  0.93854817502E+01 -0.40314705819E+02  0.61057076548E+02  0.00000000000E+00 0. -1.
         11    1    5    5    0    0 -0.20289573196E+03 -0.28621717753E+02 -0.59514216256E+03  0.62942837117E+03  0.00000000000E+00 0. -1.
        -11    1    5    5    0    0 -0.26188350225E+01 -0.29217765132E+02 -0.53634355774E+02  0.61132480855E+02  0.00000000000E+00 0.  1.
          1    1    6    6  503    0  0.61659084928E+03  0.13634431670E+03 -0.87399811880E+03  0.10782609887E+04  0.00000000000E+00 0. -1.
         -1    1    6    6    0  503  0.16318425119E+03  0.57784142136E+02 -0.32219226889E+03  0.36575396793E+03  0.00000000000E+00 0.  1.
<mgrwt>
<rscale>  0 0.17986448E+04</rscale>
<asrwt>0</asrwt>
<pdfrwt beam="1">  1        2 0.38184789E+00 0.17986448E+04</pdfrwt>
<pdfrwt beam="2">  1       -2 0.50131848E-01 0.17986448E+04</pdfrwt>
<totfact> 0.12685917E+01</totfact>
</mgrwt>
</event>
<event>
12    2  0.3552864E-008  0.1069541E+04  0.7818608E-02  0.9235398E-01
          1   -1    0    0  501    0  0.00000000000E+00  0.00000000000E+00  0.35331305953E+03  0.35331305953E+03  0.00000000000E+00 0. -1.
         -1   -1    0    0    0  501 -0.00000000000E+00 -0.00000000000E+00 -0.80942302983E+03  0.80942302983E+03  0.00000000000E+00 0.  1.
         23    2    1    2    0    0 -0.10713268820E+03 -0.29801270713E+01  0.82595264819E+01  0.14349731396E+03  0.95062954403E+02 0.  0.
        254    2    1    2    0    0  0.10713268820E+03  0.29801270713E+01 -0.46436949678E+03  0.10192387754E+04  0.90095635727E+03 0.  0.
         23    2    4    4    0    0  0.33544229948E+03  0.18235708625E+03 -0.57448275007E+03  0.69587458500E+03  0.91844241758E+02 0.  0.
         23    2    4    4    0    0 -0.22830961128E+03 -0.17937695918E+03  0.11011325329E+03  0.32336419040E+03  0.90211412766E+02 0.  0.
          4    1    3    3  502    0 -0.17808794849E+02  0.27861782308E+02  0.32049689839E+02  0.46050132531E+02  0.00000000000E+00 0. -1.
         -4    1    3    3    0  502 -0.89323893347E+02 -0.30841909379E+02 -0.23790163357E+02  0.97447181434E+02  0.00000000000E+00 0.  1.
         11    1    5    5    0    0  0.42942555066E+01  0.15645517331E+02 -0.62406844806E+01  0.17383008534E+02  0.00000000000E+00 0. -1.
        -11    1    5    5    0    0  0.33114804397E+03  0.16671156892E+03 -0.56824206559E+03  0.67849157647E+03  0.00000000000E+00 0.  1.
          3    1    6    6  503    0 -0.13446722550E+02 -0.53156497860E+02  0.18683164102E+02  0.57926576224E+02  0.00000000000E+00 0. -1.
         -3    1    6    6    0  503 -0.21486288873E+03 -0.12622046132E+03  0.91430089186E+02  0.26543761417E+03  0.00000000000E+00 0.  1.
<mgrwt>
<rscale>  0 0.10695414E+04</rscale>
<asrwt>0</asrwt>
<pdfrwt beam="1">  1        1 0.54355855E-01 0.10695414E+04</pdfrwt>
<pdfrwt beam="2">  1       -1 0.12452662E+00 0.10695414E+04</pdfrwt>
<totfact> 0.39911219E+01</totfact>
</mgrwt>
</event>
<event>
12    2  0.3552864E-008  0.1378088E+04  0.7818608E-02  0.8969834E-01
         -2   -1    0    0    0  501 -0.00000000000E+00  0.00000000000E+00  0.72110879676E+03  0.72110879676E+03  0.00000000000E+00 0.  1.
          2   -1    0    0  501    0  0.00000000000E+00 -0.00000000000E+00 -0.65840495651E+03  0.65840495651E+03  0.00000000000E+00 0. -1.
         23    2    1    2    0    0 -0.35465341788E+03 -0.56240514946E+01 -0.14058719879E+03  0.39211218757E+03  0.90424169368E+02 0.  0.
        254    2    1    2    0    0  0.35465341788E+03  0.56240514946E+01  0.20329103904E+03  0.98740156570E+03  0.89879025841E+03 0.  0.
         23    2    4    4    0    0  0.40998807453E+03 -0.35837845236E+03 -0.12307710810E+02  0.55143198422E+03  0.86025676983E+02 0.  0.
         23    2    4    4    0    0 -0.55334656652E+02  0.36400250386E+03  0.21559874985E+03  0.43596958147E+03  0.89593013066E+02 0.  0.
          4    1    3    3  502    0 -0.49899915154E+02 -0.20910148228E+02 -0.50361606259E+02  0.73915676391E+02  0.00000000000E+00 0. -1.
         -4    1    3    3    0  502 -0.30475350273E+03  0.15286096734E+02 -0.90225592530E+02  0.31819651118E+03  0.00000000000E+00 0.  1.
         11    1    5    5    0    0  0.40230133029E+03 -0.33078394385E+03 -0.21711432953E+02  0.52128280633E+03  0.00000000000E+00 0. -1.
        -11    1    5    5    0    0  0.76867442495E+01 -0.27594508517E+02  0.94037221423E+01  0.30149177892E+02  0.00000000000E+00 0.  1.
          2    1    6    6  503    0 -0.34180924546E+02  0.35108988392E+03  0.19139672450E+03  0.40132922687E+03  0.00000000000E+00 0. -1.
         -2    1    6    6    0  503 -0.21153732106E+02  0.12912619939E+02  0.24202025351E+02  0.34640354599E+02  0.00000000000E+00 0.  1.
<mgrwt>
<rscale>  0 0.13780880E+04</rscale>
<asrwt>0</asrwt>
<pdfrwt beam="1">  1        2 0.10129307E+00 0.13780880E+04</pdfrwt>
<pdfrwt beam="2">  1       -2 0.11093981E+00 0.13780880E+04</pdfrwt>
<totfact> 0.27763860E+01</totfact>
</mgrwt>
</event>
<event>
12    2  0.3552864E-008  0.2215328E+04  0.7818608E-02  0.8512075E-01
          2   -1    0    0  501    0  0.00000000000E+00  0.00000000000E+00  0.15481887353E+04  0.15481887353E+04  0.00000000000E+00 0. -1.
         -2   -1    0    0    0  501 -0.00000000000E+00 -0.00000000000E+00 -0.79248677601E+03  0.79248677601E+03  0.00000000000E+00 0.  1.
         23    2    1    2    0    0  0.11716458499E+03 -0.10757165833E+03 -0.64434036695E+03  0.66931050507E+03  0.86618947510E+02 0.  0.
        254    2    1    2    0    0 -0.11716458499E+03  0.10757165833E+03  0.14000423262E+04  0.16713650062E+04  0.89891226890E+03 0.  0.
         23    2    4    4    0    0 -0.42694847075E+03 -0.18568430485E+03  0.66035826734E+03  0.81303238935E+03  0.90470808285E+02 0.  0.
         23    2    4    4    0    0  0.30978388576E+03  0.29325596318E+03  0.73968405887E+03  0.85833261686E+03  0.87391409208E+02 0.  0.
          1    1    3    3  502    0  0.65107327005E+02 -0.27997310653E+02 -0.14990190982E+03  0.16581132651E+03  0.00000000000E+00 0. -1.
         -1    1    3    3    0  502  0.52057257984E+02 -0.79574347677E+02 -0.49443845713E+03  0.50349917856E+03  0.00000000000E+00 0.  1.
         11    1    5    5    0    0 -0.10238194564E+03 -0.81581836427E+01  0.17265595947E+03  0.20089474631E+03  0.00000000000E+00 0. -1.
        -11    1    5    5    0    0 -0.32456652511E+03 -0.17752612121E+03  0.48770230786E+03  0.61213764304E+03  0.00000000000E+00 0.  1.
          2    1    6    6  503    0  0.37773569186E+02  0.23604239555E+02  0.36438253197E+02  0.57547797092E+02  0.00000000000E+00 0. -1.
         -2    1    6    6    0  503  0.27201031657E+03  0.26965172363E+03  0.70324580567E+03  0.80078481977E+03  0.00000000000E+00 0.  1.
<mgrwt>
<rscale>  0 0.22153276E+04</rscale>
<asrwt>0</asrwt>
<pdfrwt beam="1">  1        2 0.23818288E+00 0.22153276E+04</pdfrwt>
<pdfrwt beam="2">  1       -2 0.12192104E+00 0.22153276E+04</pdfrwt>
<totfact> 0.55566697E+00</totfact>
</mgrwt>
</event>
<event>
12    2  0.3552864E-008  0.1748114E+04  0.7818608E-02  0.8734389E-01
          1   -1    0    0  501    0  0.00000000000E+00  0.00000000000E+00  0.38907268366E+03  0.38907268366E+03  0.00000000000E+00 0. -1.
         -1   -1    0    0    0  501 -0.00000000000E+00 -0.00000000000E+00 -0.19635814828E+04  0.19635814828E+04  0.00000000000E+00 0.  1.
         23    2    1    2    0    0 -0.35168472072E+03 -0.34761971425E+02 -0.13046034301E+04  0.13547421560E+04  0.91900282259E+02 0.  0.
        254    2    1    2    0    0  0.35168472072E+03  0.34761971425E+02 -0.26990536896E+03  0.99791201041E+03  0.89335823435E+03 0.  0.
         23    2    4    4    0    0 -0.22877892377E+03  0.21513162968E+03 -0.19216610244E+03  0.37866131446E+03  0.88516473590E+02 0.  0.
         23    2    4    4    0    0  0.58046364449E+03 -0.18036965825E+03 -0.77739266520E+02  0.61925069594E+03  0.89200754926E+02 0.  0.
          1    1    3    3  502    0 -0.10172160338E+03  0.84337414902E+01 -0.24944874596E+03  0.26952381982E+03  0.00000000000E+00 0. -1.
         -1    1    3    3    0  502 -0.24996311734E+03 -0.43195712915E+02 -0.10551546842E+04  0.10852183362E+04  0.00000000000E+00 0.  1.
         11    1    5    5    0    0 -0.21318222047E+03  0.16096656250E+03 -0.17645887953E+03  0.32014782450E+03  0.00000000000E+00 0.  1.
        -11    1    5    5    0    0 -0.15596703294E+02  0.54165067177E+02 -0.15707222913E+02  0.58513489962E+02  0.00000000000E+00 0. -1.
          1    1    6    6  503    0  0.95884548515E+02 -0.63654994116E+02 -0.27179317176E+02  0.11825616348E+03  0.00000000000E+00 0. -1.
         -1    1    6    6    0  503  0.48457909597E+03 -0.11671466414E+03 -0.50559949344E+02  0.50099453246E+03  0.00000000000E+00 0.  1.
<mgrwt>
<rscale>  0 0.17481143E+04</rscale>
<asrwt>0</asrwt>
<pdfrwt beam="1">  1        1 0.59857336E-01 0.17481143E+04</pdfrwt>
<pdfrwt beam="2">  1       -1 0.30208946E+00 0.17481143E+04</pdfrwt>
<totfact> 0.18913137E+00</totfact>
</mgrwt>
</event>
<event>
12    2  0.3552864E-008  0.1230707E+04  0.7818608E-02  0.9086396E-01
         -1   -1    0    0    0  501 -0.00000000000E+00  0.00000000000E+00  0.21862434076E+03  0.21862434076E+03  0.00000000000E+00 0.  1.
          1   -1    0    0  501    0  0.00000000000E+00 -0.00000000000E+00 -0.17320110793E+04  0.17320110793E+04  0.00000000000E+00 0. -1.
         23    2    1    2    0    0  0.14646349888E+03  0.22769035422E+03 -0.54391847199E+03  0.61436990391E+03  0.91151635987E+02 0.  0.
        254    2    1    2    0    0 -0.14646349888E+03 -0.22769035422E+03 -0.96946826654E+03  0.13362655162E+04  0.87888699838E+03 0.  0.
         23    2    4    4    0    0 -0.16545279014E+03 -0.96758000767E+02  0.11340614489E+03  0.24152371768E+03  0.93466657298E+02 0.  0.
         23    2    4    4    0    0  0.18989291259E+02 -0.13093235345E+03 -0.10828744114E+04  0.10947417985E+04  0.91316701788E+02 0.  0.
          4    1    3    3  502    0  0.11479826702E+03  0.21855733980E+03 -0.51238986636E+03  0.56876122234E+03  0.00000000000E+00 0. -1.
         -4    1    3    3    0  502  0.31665231859E+02  0.91330144199E+01 -0.31528605638E+02  0.45608681570E+02  0.00000000000E+00 0.  1.
         11    1    5    5    0    0 -0.11039598428E+03 -0.45725057212E+02  0.11582560669E+03  0.16641401794E+03  0.00000000000E+00 0. -1.
        -11    1    5    5    0    0 -0.55056805858E+02 -0.51032943555E+02 -0.24194618028E+01  0.75109699737E+02  0.00000000000E+00 0.  1.
          4    1    6    6  503    0 -0.46562470365E+01 -0.12183897082E+03 -0.10149375275E+04  0.10222351003E+04  0.00000000000E+00 0. -1.
         -4    1    6    6    0  503  0.23645538295E+02 -0.90933826360E+01 -0.67936883887E+02  0.72506698182E+02  0.00000000000E+00 0.  1.
<mgrwt>
<rscale>  0 0.12307068E+04</rscale>
<asrwt>0</asrwt>
<pdfrwt beam="1">  1        1 0.26646325E+00 0.12307068E+04</pdfrwt>
<pdfrwt beam="2">  1       -1 0.33634513E-01 0.12307068E+04</pdfrwt>
<totfact> 0.37310431E+01</totfact>
</mgrwt>
</event>
<event>
12    2  0.3552864E-008  0.1512468E+04  0.7818608E-02  0.8876204E-01
          4   -1    0    0  501    0  0.00000000000E+00  0.00000000000E+00  0.34061328170E+03  0.34061328170E+03  0.00000000000E+00 0.  1.
         -4   -1    0    0    0  501 -0.00000000000E+00 -0.00000000000E+00 -0.16790003846E+04  0.16790003846E+04  0.00000000000E+00 0. -1.
         23    2    1    2    0    0  0.12929648191E+03 -0.49584601555E+03 -0.32253783502E+03  0.61257815292E+03  0.92954220125E+02 0.  0.
        254    2    1    2    0    0 -0.12929648191E+03  0.49584601555E+03 -0.10158492678E+04  0.14070355133E+04  0.82777916710E+03 0.  0.
         23    2    4    4    0    0 -0.26713086517E+03  0.65119328250E+03 -0.58557424785E+03  0.91993571985E+03  0.89291313216E+02 0.  0.
         23    2    4    4    0    0  0.13783438326E+03 -0.15534726695E+03 -0.43027501999E+03  0.48709979350E+03  0.94860557881E+02 0.  0.
          4    1    3    3  502    0  0.13396136054E+03 -0.37492929031E+03 -0.26737954467E+03  0.47959299386E+03  0.00000000000E+00 0.  1.
         -4    1    3    3    0  502 -0.46648786264E+01 -0.12091672524E+03 -0.55158290348E+02  0.13298515906E+03  0.00000000000E+00 0. -1.
         11    1    5    5    0    0 -0.20724749199E+02  0.73613006515E+02 -0.10139656112E+03  0.12700256912E+03  0.00000000000E+00 0. -1.
        -11    1    5    5    0    0 -0.24640611597E+03  0.57758027598E+03 -0.48417768673E+03  0.79293315073E+03  0.00000000000E+00 0.  1.
          3    1    6    6  503    0  0.78965222994E+02 -0.14552794629E+03 -0.34881166640E+03  0.38611328417E+03  0.00000000000E+00 0.  1.
         -3    1    6    6    0  503  0.58869160268E+02 -0.98193206616E+01 -0.81463353586E+02  0.10098650933E+03  0.00000000000E+00 0. -1.
<mgrwt>
<rscale>  0 0.15124680E+04</rscale>
<asrwt>0</asrwt>
<pdfrwt beam="1">  1        4 0.52402045E-01 0.15124680E+04</pdfrwt>
<pdfrwt beam="2">  1       -4 0.25830774E+00 0.15124680E+04</pdfrwt>
<totfact> 0.37972182E-01</totfact>
</mgrwt>
</event>
<event>
12    2  0.3552864E-008  0.1567036E+04  0.7818608E-02  0.8841059E-01
         -2   -1    0    0    0  501 -0.00000000000E+00  0.00000000000E+00  0.36266542227E+03  0.36266542227E+03  0.00000000000E+00 0.  1.
          2   -1    0    0  501    0  0.00000000000E+00 -0.00000000000E+00 -0.16927466243E+04  0.16927466243E+04  0.00000000000E+00 0. -1.
         23    2    1    2    0    0  0.52065497510E+02  0.20539999159E+03 -0.10690546170E+04  0.10937242646E+04  0.91951183691E+02 0.  0.
        254    2    1    2    0    0 -0.52065497510E+02 -0.20539999159E+03 -0.26102658495E+03  0.96168778194E+03  0.90100418384E+03 0.  0.
         23    2    4    4    0    0 -0.11768963667E+03  0.94635101807E+01 -0.55840588575E+03  0.57804780376E+03  0.91551742714E+02 0.  0.
         23    2    4    4    0    0  0.65624139156E+02 -0.21486350177E+03  0.29737930079E+03  0.38363997818E+03  0.90952362700E+02 0.  0.
          3    1    3    3  502    0  0.77380704274E+02  0.17053091395E+03 -0.89882298787E+03  0.91812380948E+03  0.00000000000E+00 0. -1.
         -3    1    3    3    0  502 -0.25315206764E+02  0.34869077641E+02 -0.17023162918E+03  0.17560045513E+03  0.00000000000E+00 0.  1.
         11    1    5    5    0    0 -0.67380257476E+02 -0.39760420892E+02 -0.26426426513E+03  0.27560223510E+03  0.00000000000E+00 0.  1.
        -11    1    5    5    0    0 -0.50309379190E+02  0.49223931072E+02 -0.29414162061E+03  0.30244556866E+03  0.00000000000E+00 0. -1.
          2    1    6    6  503    0  0.71225615684E+02 -0.20573020698E+03  0.30173187858E+03  0.37207543986E+03  0.00000000000E+00 0. -1.
         -2    1    6    6    0  503 -0.56014765287E+01 -0.91332947975E+01 -0.43525777880E+01  0.11564538320E+02  0.00000000000E+00 0.  1.
<mgrwt>
<rscale>  0 0.15670363E+04</rscale>
<asrwt>0</asrwt>
<pdfrwt beam="1">  1        2 0.26042256E+00 0.15670363E+04</pdfrwt>
<pdfrwt beam="2">  1       -2 0.55794680E-01 0.15670363E+04</pdfrwt>
<totfact> 0.28709315E+01</totfact>
</mgrwt>
</event>
<event>
12    2  0.3552864E-008  0.2069772E+04  0.7818608E-02  0.8574677E-01
         -1   -1    0    0    0  501 -0.00000000000E+00  0.00000000000E+00  0.59715906192E+03  0.59715906192E+03  0.00000000000E+00 0.  1.
          1   -1    0    0  501    0  0.00000000000E+00 -0.00000000000E+00 -0.17934742797E+04  0.17934742797E+04  0.00000000000E+00 0. -1.
         23    2    1    2    0    0 -0.38385024039E+03 -0.69352518380E+03 -0.18507021887E+03  0.81909765760E+03  0.91388178489E+02 0.  0.
        254    2    1    2    0    0  0.38385024039E+03  0.69352518380E+03 -0.10112449989E+04  0.15715356840E+04  0.90487002974E+03 0.  0.
         23    2    4    4    0    0 -0.18811565625E+03  0.70850125830E+02 -0.57539302839E+03  0.61612714231E+03  0.90156962660E+02 0.  0.
         23    2    4    4    0    0  0.57196589664E+03  0.62267505797E+03 -0.43585197053E+03  0.95540854172E+03  0.89271085134E+02 0.  0.
          1    1    3    3  502    0 -0.36516534837E+03 -0.68652088849E+03 -0.17647551835E+03  0.79737084883E+03  0.00000000000E+00 0. -1.
         -1    1    3    3    0  502 -0.18684892019E+02 -0.70042953102E+01 -0.85947005207E+01  0.21726808776E+02  0.00000000000E+00 0.  1.
         11    1    5    5    0    0 -0.58136081861E+02  0.57946329317E+02 -0.14822342201E+03  0.16943365642E+03  0.00000000000E+00 0.  1.
        -11    1    5    5    0    0 -0.12997957439E+03  0.12903796513E+02 -0.42716960638E+03  0.44669348589E+03  0.00000000000E+00 0. -1.
          4    1    6    6  503    0  0.46327531915E+02  0.89291034374E+02 -0.38983701760E+02  0.10788353923E+03  0.00000000000E+00 0. -1.
         -4    1    6    6    0  503  0.52563836472E+03  0.53338402360E+03 -0.39686826877E+03  0.84752500249E+03  0.00000000000E+00 0.  1.
<mgrwt>
<rscale>  0 0.20697724E+04</rscale>
<asrwt>0</asrwt>
<pdfrwt beam="1">  1        1 0.27591911E+00 0.20697724E+04</pdfrwt>
<pdfrwt beam="2">  1       -1 0.91870627E-01 0.20697724E+04</pdfrwt>
<totfact> 0.43794043E+00</totfact>
</mgrwt>
</event>
<event>
12    2  0.3552864E-008  0.1503697E+04  0.7818608E-02  0.8881998E-01
          1   -1    0    0  501    0  0.00000000000E+00  0.00000000000E+00  0.96382599617E+03  0.96382599617E+03  0.00000000000E+00 0. -1.
         -1   -1    0    0    0  501 -0.00000000000E+00 -0.00000000000E+00 -0.58649226378E+03  0.58649226378E+03  0.00000000000E+00 0.  1.
         23    2    1    2    0    0  0.32591663124E+03 -0.89975256165E+02 -0.22906154034E+03  0.41615462948E+03  0.79989306355E+02 0.  0.
        254    2    1    2    0    0 -0.32591663124E+03  0.89975256165E+02  0.60639527273E+03  0.11341636305E+04  0.89682479708E+03 0.  0.
         23    2    4    4    0    0 -0.21647195959E+03  0.31821655025E+03 -0.73402747885E+02  0.40254593538E+03  0.92376320295E+02 0.  0.
         23    2    4    4    0    0 -0.10944467165E+03 -0.22824129409E+03  0.67979802061E+03  0.73161769509E+03  0.95220157889E+02 0.  0.
          1    1    3    3  502    0  0.14998916471E+03 -0.75204692787E+02 -0.13942905658E+03  0.21815810131E+03  0.00000000000E+00 0. -1.
         -1    1    3    3    0  502  0.17592746653E+03 -0.14770563378E+02 -0.89632483763E+02  0.19799652817E+03  0.00000000000E+00 0.  1.
         11    1    5    5    0    0 -0.45828727487E+02  0.22925623308E+02  0.81312210734E+01  0.51884229042E+02  0.00000000000E+00 0. -1.
        -11    1    5    5    0    0 -0.17064323210E+03  0.29529092694E+03 -0.81533968958E+02  0.35066170634E+03  0.00000000000E+00 0.  1.
          4    1    6    6  503    0  0.17460270210E+02 -0.19731546855E+02  0.67124354138E+02  0.72110151126E+02  0.00000000000E+00 0. -1.
         -4    1    6    6    0  503 -0.12690494186E+03 -0.20850974723E+03  0.61267366647E+03  0.65950754397E+03  0.00000000000E+00 0.  1.
<mgrwt>
<rscale>  0 0.15036974E+04</rscale>
<asrwt>0</asrwt>
<pdfrwt beam="1">  1        1 0.14828092E+00 0.15036974E+04</pdfrwt>
<pdfrwt beam="2">  1       -1 0.90229579E-01 0.15036974E+04</pdfrwt>
<totfact> 0.18775273E+01</totfact>
</mgrwt>
</event>
<event>
12    2  0.3552864E-008  0.1481222E+04  0.7818608E-02  0.8897037E-01
          2   -1    0    0  501    0  0.00000000000E+00  0.00000000000E+00  0.17853248276E+04  0.17853248276E+04  0.00000000000E+00 0. -1.
         -2   -1    0    0    0  501 -0.00000000000E+00 -0.00000000000E+00 -0.30722979757E+03  0.30722979757E+03  0.00000000000E+00 0.  1.
         23    2    1    2    0    0  0.13672274018E+03 -0.42206831246E+03  0.30390674480E+03  0.54559906820E+03  0.92110073396E+02 0.  0.
        254    2    1    2    0    0 -0.13672274018E+03  0.42206831246E+03  0.11741882853E+04  0.15469555570E+04  0.90416735068E+03 0.  0.
         23    2    4    4    0    0 -0.23338058645E+03  0.65698640340E+03  0.10103437438E+04  0.12308568846E+04  0.90091939059E+02 0.  0.
         23    2    4    4    0    0  0.96657846271E+02 -0.23491809094E+03  0.16384454148E+03  0.31609867236E+03  0.92434237160E+02 0.  0.
          2    1    3    3  502    0  0.46170484039E+02 -0.89972023452E+02  0.29369235246E+02  0.10530541572E+03  0.00000000000E+00 0. -1.
         -2    1    3    3    0  502  0.90552256144E+02 -0.33209628901E+03  0.27453750955E+03  0.44029365248E+03  0.00000000000E+00 0.  1.
         11    1    5    5    0    0 -0.10228759816E+03  0.35920172993E+03  0.60623194875E+03  0.71204340542E+03  0.00000000000E+00 0. -1.
        -11    1    5    5    0    0 -0.13109298829E+03  0.29778467347E+03  0.40411179503E+03  0.51881347921E+03  0.00000000000E+00 0.  1.
          4    1    6    6  503    0  0.49943587792E+02 -0.66686579728E+02  0.10008371038E+03  0.13022369585E+03  0.00000000000E+00 0. -1.
         -4    1    6    6    0  503  0.46714258479E+02 -0.16823151121E+03  0.63760831094E+02  0.18587497651E+03  0.00000000000E+00 0.  1.
<mgrwt>
<rscale>  0 0.14812224E+04</rscale>
<asrwt>0</asrwt>
<pdfrwt beam="1">  1        2 0.27466535E+00 0.14812224E+04</pdfrwt>
<pdfrwt beam="2">  1       -2 0.47266124E-01 0.14812224E+04</pdfrwt>
<totfact> 0.36087997E+01</totfact>
</mgrwt>
</event>
<event>
12    2  0.3552864E-008  0.2163696E+04  0.7818608E-02  0.8533692E-01
         -2   -1    0    0    0  501 -0.00000000000E+00  0.00000000000E+00  0.11181116772E+04  0.11181116772E+04  0.00000000000E+00 0.  1.
          2   -1    0    0  501    0  0.00000000000E+00 -0.00000000000E+00 -0.10467607433E+04  0.10467607433E+04  0.00000000000E+00 0. -1.
         23    2    1    2    0    0  0.28882540806E+03 -0.84341073017E+03  0.18774819607E+02  0.89623912473E+03  0.90168169214E+02 0.  0.
        254    2    1    2    0    0 -0.28882540806E+03  0.84341073017E+03  0.52576114220E+02  0.12686332958E+04  0.90105738733E+03 0.  0.
         23    2    4    4    0    0 -0.27756012261E+03  0.40402088432E+03 -0.39394582841E+03  0.63532059150E+03  0.90368366309E+02 0.  0.
         23    2    4    4    0    0 -0.11265285455E+02  0.43938984585E+03  0.44652194263E+03  0.63331270428E+03  0.92264797541E+02 0.  0.
          1    1    3    3  502    0  0.23657098094E+03 -0.69121544366E+03 -0.19482244908E+02  0.73083799603E+03  0.00000000000E+00 0. -1.
         -1    1    3    3    0  502  0.52254427120E+02 -0.15219528651E+03  0.38257064515E+02  0.16540112870E+03  0.00000000000E+00 0.  1.
         11    1    5    5    0    0 -0.84770035317E+02  0.15669545380E+03 -0.19409821545E+03  0.26346449736E+03  0.00000000000E+00 0.  1.
        -11    1    5    5    0    0 -0.19279008729E+03  0.24732543053E+03 -0.19984761296E+03  0.37185609414E+03  0.00000000000E+00 0. -1.
          3    1    6    6  503    0 -0.30779869446E+02  0.42127290725E+03  0.41696687490E+03  0.59353149665E+03  0.00000000000E+00 0. -1.
         -3    1    6    6    0  503  0.19514583992E+02  0.18116938594E+02  0.29555067724E+02  0.39781207631E+02  0.00000000000E+00 0.  1.
<mgrwt>
<rscale>  0 0.21636963E+04</rscale>
<asrwt>0</asrwt>
<pdfrwt beam="1">  1        2 0.16104012E+00 0.21636963E+04</pdfrwt>
<pdfrwt beam="2">  1       -2 0.17201718E+00 0.21636963E+04</pdfrwt>
<totfact> 0.44458367E+00</totfact>
</mgrwt>
</event>
<event>
12    2  0.3552864E-008  0.1269250E+04  0.7818608E-02  0.9054312E-01
          2   -1    0    0  501    0  0.00000000000E+00  0.00000000000E+00  0.13645771944E+04  0.13645771944E+04  0.00000000000E+00 0. -1.
         -2   -1    0    0    0  501 -0.00000000000E+00 -0.00000000000E+00 -0.29514571864E+03  0.29514571864E+03  0.00000000000E+00 0.  1.
         23    2    1    2    0    0 -0.18474090744E+03  0.15813613867E+03  0.53699406910E+03  0.59746704858E+03  0.97303662038E+02 0.  0.
        254    2    1    2    0    0  0.18474090744E+03 -0.15813613867E+03  0.53243740668E+03  0.10622558645E+04  0.88643199874E+03 0.  0.
         23    2    4    4    0    0 -0.42315290745E+02 -0.46843387419E+02  0.72229258877E+03  0.73120889986E+03  0.94736395630E+02 0.  0.
         23    2    4    4    0    0  0.22705619818E+03 -0.11129275125E+03 -0.18985518210E+03  0.33104696463E+03  0.98012800239E+02 0.  0.
          3    1    3    3  502    0 -0.55565747083E+01  0.12872893773E+02  0.12091570804E+03  0.12172590262E+03  0.00000000000E+00 0. -1.
         -3    1    3    3    0  502 -0.17918433273E+03  0.14526324489E+03  0.41607836106E+03  0.47574114596E+03  0.00000000000E+00 0.  1.
         11    1    5    5    0    0 -0.36362009831E+02 -0.85207354720E+01  0.62990824503E+03  0.63101441809E+03  0.00000000000E+00 0.  1.
        -11    1    5    5    0    0 -0.59532809140E+01 -0.38322651947E+02  0.92384343747E+02  0.10019448176E+03  0.00000000000E+00 0. -1.
          1    1    6    6  503    0  0.40246460197E+02 -0.31008774240E+02 -0.92671161357E+02  0.10568474717E+03  0.00000000000E+00 0. -1.
         -1    1    6    6    0  503  0.18680973799E+03 -0.80283977009E+02 -0.97184020739E+02  0.22536221746E+03  0.00000000000E+00 0.  1.
<mgrwt>
<rscale>  0 0.12692504E+04</rscale>
<asrwt>0</asrwt>
<pdfrwt beam="1">  1        2 0.20993495E+00 0.12692504E+04</pdfrwt>
<pdfrwt beam="2">  1       -2 0.45407034E-01 0.12692504E+04</pdfrwt>
<totfact> 0.68483064E+01</totfact>
</mgrwt>
</event>
<event>
12    2  0.3552864E-008  0.2734710E+04  0.7818608E-02  0.8323830E-01
          2   -1    0    0  501    0  0.00000000000E+00  0.00000000000E+00  0.30970286476E+04  0.30970286476E+04  0.00000000000E+00 0. -1.
         -2   -1    0    0    0  501 -0.00000000000E+00 -0.00000000000E+00 -0.60369464398E+03  0.60369464398E+03  0.00000000000E+00 0.  1.
         23    2    1    2    0    0  0.12075665562E+04 -0.15837442035E+03  0.74672553645E+03  0.14315019532E+04  0.91100880013E+02 0.  0.
        254    2    1    2    0    0 -0.12075665562E+04  0.15837442035E+03  0.17466084672E+04  0.22692213384E+04  0.78449021689E+03 0.  0.
         23    2    4    4    0    0 -0.83112500527E+03 -0.25692025744E+03  0.96111899935E+03  0.13001250980E+04  0.98988617981E+02 0.  0.
         23    2    4    4    0    0 -0.37644155097E+03  0.41529467778E+03  0.78548946781E+03  0.96909624041E+03  0.89307941627E+02 0.  0.
          4    1    3    3  502    0  0.52395371984E+03 -0.34983978086E+02  0.35707342526E+03  0.63502189749E+03  0.00000000000E+00 0. -1.
         -4    1    3    3    0  502  0.68361283640E+03 -0.12339044226E+03  0.38965211119E+03  0.79648005567E+03  0.00000000000E+00 0.  1.
         11    1    5    5    0    0 -0.79699115804E+03 -0.26501040018E+03  0.93122682539E+03  0.12540370084E+04  0.00000000000E+00 0.  1.
        -11    1    5    5    0    0 -0.34133847231E+02  0.80901427460E+01  0.29892173966E+02  0.46088089577E+02  0.00000000000E+00 0. -1.
          3    1    6    6  503    0 -0.27098260057E+02  0.11425014387E+02  0.19280990309E+02  0.35165369885E+02  0.00000000000E+00 0. -1.
         -3    1    6    6    0  503 -0.34934329091E+03  0.40386966340E+03  0.76620847751E+03  0.93393087052E+03  0.00000000000E+00 0.  1.
<mgrwt>
<rscale>  0 0.27347099E+04</rscale>
<asrwt>0</asrwt>
<pdfrwt beam="1">  1        2 0.47646594E+00 0.27347099E+04</pdfrwt>
<pdfrwt beam="2">  1       -2 0.92876101E-01 0.27347099E+04</pdfrwt>
<totfact> 0.12986944E+00</totfact>
</mgrwt>
</event>
<event>
12    2  0.3552864E-008  0.1593172E+04  0.7818608E-02  0.8824753E-01
          4   -1    0    0  501    0  0.00000000000E+00  0.00000000000E+00  0.12182705202E+04  0.12182705202E+04  0.00000000000E+00 0. -1.
         -4   -1    0    0    0  501 -0.00000000000E+00 -0.00000000000E+00 -0.52086103017E+03  0.52086103017E+03  0.00000000000E+00 0.  1.
         23    2    1    2    0    0 -0.46466917665E+03 -0.21892494809E+03  0.58199475349E+02  0.52503854530E+03  0.91829834460E+02 0.  0.
        254    2    1    2    0    0  0.46466917665E+03  0.21892494809E+03  0.63921001470E+03  0.12140930051E+04  0.89531380280E+03 0.  0.
         23    2    4    4    0    0 -0.22125117599E+03  0.17688687070E+03  0.45573335428E+02  0.30141186355E+03  0.92364141752E+02 0.  0.
         23    2    4    4    0    0  0.68592035264E+03  0.42038077392E+02  0.59363667927E+03  0.91268114154E+03  0.91260226971E+02 0.  0.
          2    1    3    3  502    0  0.97324885038E+00  0.40276353944E+01 -0.30594970693E+01  0.51506875767E+01  0.00000000000E+00 0. -1.
         -2    1    3    3    0  502 -0.46564242550E+03 -0.22295258348E+03  0.61258972418E+02  0.51988785773E+03  0.00000000000E+00 0.  1.
         11    1    5    5    0    0 -0.17412544308E+03  0.18035315736E+03  0.38112479422E+02  0.25357344574E+03  0.00000000000E+00 0.  1.
        -11    1    5    5    0    0 -0.47125732909E+02 -0.34662866644E+01  0.74608560062E+01  0.47838417802E+02  0.00000000000E+00 0. -1.
          2    1    6    6  503    0  0.37268297505E+03  0.68235531065E+02  0.32013564759E+03  0.49601967748E+03  0.00000000000E+00 0. -1.
         -2    1    6    6    0  503  0.31323737759E+03 -0.26197453673E+02  0.27350103169E+03  0.41666146406E+03  0.00000000000E+00 0.  1.
<mgrwt>
<rscale>  0 0.15931725E+04</rscale>
<asrwt>0</asrwt>
<pdfrwt beam="1">  1        4 0.18742623E+00 0.15931725E+04</pdfrwt>
<pdfrwt beam="2">  1       -4 0.80132467E-01 0.15931725E+04</pdfrwt>
<totfact> 0.42394770E-01</totfact>
</mgrwt>
</event>
<event>
12    2  0.3552864E-008  0.1564588E+04  0.7818608E-02  0.8842603E-01
          2   -1    0    0  501    0  0.00000000000E+00  0.00000000000E+00  0.46206883089E+03  0.46206883089E+03  0.00000000000E+00 0. -1.
         -2   -1    0    0    0  501 -0.00000000000E+00 -0.00000000000E+00 -0.13244439249E+04  0.13244439249E+04  0.00000000000E+00 0.  1.
         23    2    1    2    0    0 -0.29925583321E+03 -0.36664158057E+03 -0.50059748703E+03  0.69489386834E+03  0.91101821782E+02 0.  0.
        254    2    1    2    0    0  0.29925583321E+03  0.36664158057E+03 -0.36177760694E+03  0.10916188874E+04  0.91475059779E+03 0.  0.
         23    2    4    4    0    0  0.29961437293E+03  0.59682111758E+03 -0.26581333671E+02  0.67461123396E+03  0.91812476457E+02 0.  0.
         23    2    4    4    0    0 -0.35853971942E+00 -0.23017953701E+03 -0.33519627327E+03  0.41700765344E+03  0.92499154634E+02 0.  0.
          4    1    3    3  502    0 -0.41796704409E+02 -0.11273927609E+03 -0.11826134113E+03  0.16865009244E+03  0.00000000000E+00 0. -1.
         -4    1    3    3    0  502 -0.25745912880E+03 -0.25390230448E+03 -0.38233614589E+03  0.52624377591E+03  0.00000000000E+00 0.  1.
         11    1    5    5    0    0  0.12836913797E+03  0.32695973936E+03  0.18988500369E+02  0.35176962617E+03  0.00000000000E+00 0.  1.
        -11    1    5    5    0    0  0.17124523496E+03  0.26986137822E+03 -0.45569834039E+02  0.32284160780E+03  0.00000000000E+00 0. -1.
          4    1    6    6  503    0  0.39014100304E+02 -0.49305447247E+02 -0.80251762644E+02  0.10194838183E+03  0.00000000000E+00 0.  1.
         -4    1    6    6    0  503 -0.39372640024E+02 -0.18087408977E+03 -0.25494451062E+03  0.31505927161E+03  0.00000000000E+00 0. -1.
<mgrwt>
<rscale>  0 0.15645885E+04</rscale>
<asrwt>0</asrwt>
<pdfrwt beam="1">  1        2 0.71087514E-01 0.15645885E+04</pdfrwt>
<pdfrwt beam="2">  1       -2 0.20376060E+00 0.15645885E+04</pdfrwt>
<totfact> 0.81446247E+00</totfact>
</mgrwt>
</event>
<event>
12    2  0.3552864E-008  0.1673065E+04  0.7818608E-02  0.8776877E-01
          1   -1    0    0  501    0  0.00000000000E+00  0.00000000000E+00  0.21789177269E+04  0.21789177269E+04  0.00000000000E+00 0. -1.
         -1   -1    0    0    0  501 -0.00000000000E+00 -0.00000000000E+00 -0.32116238649E+03  0.32116238649E+03  0.00000000000E+00 0.  1.
         23    2    1    2    0    0 -0.30024992597E+03  0.48925994713E+03  0.44431735785E+03  0.73142465041E+03  0.89659304197E+02 0.  0.
        254    2    1    2    0    0  0.30024992597E+03 -0.48925994713E+03  0.14134379826E+04  0.17686554630E+04  0.89487982561E+03 0.  0.
         23    2    4    4    0    0 -0.25921858781E+03 -0.31152319889E+03  0.86706746069E+03  0.96146628510E+03  0.91490197719E+02 0.  0.
         23    2    4    4    0    0  0.55946851378E+03 -0.17773674824E+03  0.54637052190E+03  0.80718917791E+03  0.91859959414E+02 0.  0.
          2    1    3    3  502    0 -0.28886991013E+03  0.43984649265E+03  0.37787085699E+03  0.64784037126E+03  0.00000000000E+00 0. -1.
         -2    1    3    3    0  502 -0.11380015842E+02  0.49413454486E+02  0.66446500860E+02  0.83584279152E+02  0.00000000000E+00 0.  1.
         11    1    5    5    0    0 -0.53438939341E+02 -0.60787987580E+02  0.10009798961E+03  0.12872648211E+03  0.00000000000E+00 0.  1.
        -11    1    5    5    0    0 -0.20577964847E+03 -0.25073521131E+03  0.76696947108E+03  0.83273980299E+03  0.00000000000E+00 0. -1.
          4    1    6    6  503    0  0.32403320937E+03 -0.12664571808E+03  0.26878800082E+03  0.43964036219E+03  0.00000000000E+00 0. -1.
         -4    1    6    6    0  503  0.23543530441E+03 -0.51091030159E+02  0.27758252108E+03  0.36754881572E+03  0.00000000000E+00 0.  1.
<mgrwt>
<rscale>  0 0.16730648E+04</rscale>
<asrwt>0</asrwt>
<pdfrwt beam="1">  1        1 0.33521810E+00 0.16730648E+04</pdfrwt>
<pdfrwt beam="2">  1       -1 0.49409599E-01 0.16730648E+04</pdfrwt>
<totfact> 0.88239106E+00</totfact>
</mgrwt>
</event>
<event>
12    2  0.3552864E-008  0.2317539E+04  0.7818608E-02  0.8471038E-01
          2   -1    0    0  501    0  0.00000000000E+00  0.00000000000E+00  0.18323787962E+04  0.18323787962E+04  0.00000000000E+00 0. -1.
         -2   -1    0    0    0  501 -0.00000000000E+00 -0.00000000000E+00 -0.73278907381E+03  0.73278907381E+03  0.00000000000E+00 0.  1.
         23    2    1    2    0    0 -0.33089739091E+03 -0.76225723135E+02 -0.55267819961E+03  0.65504461055E+03  0.91251330445E+02 0.  0.
        254    2    1    2    0    0  0.33089739091E+03  0.76225723135E+02  0.16522679220E+04  0.19101232595E+04  0.89625785136E+03 0.  0.
         23    2    4    4    0    0  0.58684844027E+03 -0.89447275450E+02  0.13184640427E+04  0.14489060304E+04  0.92678724491E+02 0.  0.
         23    2    4    4    0    0 -0.25595104935E+03  0.16567299859E+03  0.33380387931E+03  0.46121722912E+03  0.91311666681E+02 0.  0.
          1    1    3    3  502    0 -0.54316632640E+02  0.19942450052E+02 -0.10983794098E+03  0.12414657133E+03  0.00000000000E+00 0. -1.
         -1    1    3    3    0  502 -0.27658075827E+03 -0.96168173187E+02 -0.44284025863E+03  0.53089803922E+03  0.00000000000E+00 0.  1.
         11    1    5    5    0    0  0.20154362250E+03  0.91979984683E+01  0.39910298547E+03  0.44719976292E+03  0.00000000000E+00 0.  1.
        -11    1    5    5    0    0  0.38530481777E+03 -0.98645273918E+02  0.91936105726E+03  0.10017062675E+04  0.00000000000E+00 0. -1.
          4    1    6    6  503    0 -0.54713595824E+02 -0.42518927736E+01  0.58839678695E+02  0.80459703884E+02  0.00000000000E+00 0. -1.
         -4    1    6    6    0  503 -0.20123745353E+03  0.16992489136E+03  0.27496420062E+03  0.38075752524E+03  0.00000000000E+00 0.  1.
<mgrwt>
<rscale>  0 0.23175394E+04</rscale>
<asrwt>0</asrwt>
<pdfrwt beam="1">  1        2 0.28190443E+00 0.23175394E+04</pdfrwt>
<pdfrwt beam="2">  1       -2 0.11273678E+00 0.23175394E+04</pdfrwt>
<totfact> 0.46392052E+00</totfact>
</mgrwt>
</event>
<event>
12    2  0.3552864E-008  0.1783979E+04  0.7818608E-02  0.8714866E-01
         -1   -1    0    0    0  501 -0.00000000000E+00  0.00000000000E+00  0.14291948145E+04  0.14291948145E+04  0.00000000000E+00 0. -1.
          1   -1    0    0  501    0  0.00000000000E+00 -0.00000000000E+00 -0.55670893787E+03  0.55670893787E+03  0.00000000000E+00 0.  1.
         23    2    1    2    0    0 -0.61707247480E+03  0.90198011030E+02  0.87809840152E+02  0.63657760933E+03  0.92770492717E+02 0.  0.
        254    2    1    2    0    0  0.61707247480E+03 -0.90198011030E+02  0.78467603650E+03  0.13493261431E+04  0.90335510059E+03 0.  0.
         23    2    4    4    0    0  0.18470293887E+03  0.10282426985E+03  0.83340586499E+03  0.86471023509E+03  0.92035040997E+02 0.  0.
         23    2    4    4    0    0  0.43236953593E+03 -0.19302228088E+03 -0.48729828489E+02  0.48461590798E+03  0.90977830052E+02 0.  0.
          1    1    3    3  502    0 -0.37613210821E+02  0.66712048695E+01 -0.17015926529E+02  0.41818660408E+02  0.00000000000E+00 0. -1.
         -1    1    3    3    0  502 -0.57945926398E+03  0.83526806161E+02  0.10482576668E+03  0.59475894892E+03  0.00000000000E+00 0.  1.
         11    1    5    5    0    0  0.24075012132E+02 -0.10295257814E+02  0.19524016602E+03  0.19698812393E+03  0.00000000000E+00 0. -1.
        -11    1    5    5    0    0  0.16062792674E+03  0.11311952767E+03  0.63816569897E+03  0.66772211116E+03  0.00000000000E+00 0.  1.
          4    1    6    6  503    0  0.44341140670E+02 -0.24265505619E+02  0.22842890816E+02  0.55468452112E+02  0.00000000000E+00 0. -1.
         -4    1    6    6    0  503  0.38802839526E+03 -0.16875677526E+03 -0.71572719305E+02  0.42914745587E+03  0.00000000000E+00 0.  1.
<mgrwt>
<rscale>  0 0.17839793E+04</rscale>
<asrwt>0</asrwt>
<pdfrwt beam="1">  1        1 0.85647529E-01 0.17839793E+04</pdfrwt>
<pdfrwt beam="2">  1       -1 0.21987612E+00 0.17839793E+04</pdfrwt>
<totfact> 0.39719924E+00</totfact>
</mgrwt>
</event>
<event>
12    2  0.3552864E-008  0.1546438E+04  0.7818608E-02  0.8854146E-01
          2   -1    0    0  501    0  0.00000000000E+00  0.00000000000E+00  0.25325169222E+04  0.25325169222E+04  0.00000000000E+00 0. -1.
         -2   -1    0    0    0  501 -0.00000000000E+00 -0.00000000000E+00 -0.23607638273E+03  0.23607638273E+03  0.00000000000E+00 0.  1.
         23    2    1    2    0    0 -0.10407324095E+03  0.21199105116E+03 -0.29804521168E+02  0.25524157679E+03  0.92133098235E+02 0.  0.
        254    2    1    2    0    0  0.10407324095E+03 -0.21199105116E+03  0.23262450606E+04  0.25133517281E+04  0.92181851900E+03 0.  0.
         23    2    4    4    0    0 -0.28984599706E+03 -0.28158847221E+03  0.54086810487E+03  0.68149238814E+03  0.92686560671E+02 0.  0.
         23    2    4    4    0    0  0.39391923801E+03  0.69597421050E+02  0.17853769557E+04  0.18318593400E+04  0.90119921834E+02 0.  0.
          3    1    3    3  502    0 -0.73280809889E+01  0.10249828538E+03  0.11509316060E+02  0.10340243533E+03  0.00000000000E+00 0. -1.
         -3    1    3    3    0  502 -0.96745159959E+02  0.10949276578E+03 -0.41313837228E+02  0.15183914146E+03  0.00000000000E+00 0.  1.
         11    1    5    5    0    0 -0.10625636197E+03 -0.16254705997E+03  0.22459902142E+03  0.29691190880E+03  0.00000000000E+00 0. -1.
        -11    1    5    5    0    0 -0.18358963508E+03 -0.11904141223E+03  0.31626908345E+03  0.38458047933E+03  0.00000000000E+00 0.  1.
          1    1    6    6  503    0  0.12734537322E+03  0.54744739420E+02  0.74397716662E+03  0.75677992509E+03  0.00000000000E+00 0. -1.
         -1    1    6    6    0  503  0.26657386479E+03  0.14852681630E+02  0.10413997891E+04  0.10750794149E+04  0.00000000000E+00 0.  1.
<mgrwt>
<rscale>  0 0.15464378E+04</rscale>
<asrwt>0</asrwt>
<pdfrwt beam="1">  1        2 0.38961797E+00 0.15464378E+04</pdfrwt>
<pdfrwt beam="2">  1       -2 0.36319445E-01 0.15464378E+04</pdfrwt>
<totfact> 0.22957264E+01</totfact>
</mgrwt>
</event>
<event>
12    2  0.3552864E-008  0.1704829E+04  0.7818608E-02  0.8758615E-01
         -1   -1    0    0    0  501 -0.00000000000E+00  0.00000000000E+00  0.11775712836E+04  0.11775712836E+04  0.00000000000E+00 0.  1.
          1   -1    0    0  501    0  0.00000000000E+00 -0.00000000000E+00 -0.61704159991E+03  0.61704159991E+03  0.00000000000E+00 0. -1.
         23    2    1    2    0    0  0.38526530356E+03  0.42654529377E+03  0.56724799163E+03  0.81310900583E+03  0.94898522574E+02 0.  0.
        254    2    1    2    0    0 -0.38526530356E+03 -0.42654529377E+03 -0.67183079011E+01  0.98150387773E+03  0.79557179725E+03 0.  0.
         23    2    4    4    0    0 -0.54569037627E+03 -0.10643078277E+03 -0.15208399286E+03  0.58353525501E+03  0.90985464115E+02 0.  0.
         23    2    4    4    0    0  0.16042507271E+03 -0.32011451100E+03  0.14536568496E+03  0.39796862272E+03  0.95070175143E+02 0.  0.
          4    1    3    3  502    0  0.99618100368E+02  0.14083285156E+03  0.22568017309E+03  0.28405844210E+03  0.00000000000E+00 0. -1.
         -4    1    3    3    0  502  0.28564720319E+03  0.28571244221E+03  0.34156781854E+03  0.52905056373E+03  0.00000000000E+00 0.  1.
         11    1    5    5    0    0 -0.33662149678E+03 -0.71316855082E+02 -0.13908548306E+03  0.37113999718E+03  0.00000000000E+00 0. -1.
        -11    1    5    5    0    0 -0.20906887949E+03 -0.35113927688E+02 -0.12998509800E+02  0.21239525782E+03  0.00000000000E+00 0.  1.
          2    1    6    6  503    0  0.15754334419E+03 -0.32698265000E+03  0.14346569235E+03  0.39028190271E+03  0.00000000000E+00 0. -1.
         -2    1    6    6    0  503  0.28817285178E+01  0.68681390038E+01  0.18999926124E+01  0.76867200126E+01  0.00000000000E+00 0.  1.
<mgrwt>
<rscale>  0 0.17048290E+04</rscale>
<asrwt>0</asrwt>
<pdfrwt beam="1">  1        1 0.94929477E-01 0.17048290E+04</pdfrwt>
<pdfrwt beam="2">  1       -1 0.18116481E+00 0.17048290E+04</pdfrwt>
<totfact> 0.63842600E+00</totfact>
</mgrwt>
</event>
<event>
12    2  0.3552864E-008  0.1779760E+04  0.7818608E-02  0.8717137E-01
         -2   -1    0    0    0  501 -0.00000000000E+00  0.00000000000E+00  0.78088160537E+03  0.78088160537E+03  0.00000000000E+00 0.  1.
          2   -1    0    0  501    0  0.00000000000E+00 -0.00000000000E+00 -0.10140932807E+04  0.10140932807E+04  0.00000000000E+00 0. -1.
         23    2    1    2    0    0  0.22975661586E+03  0.27085429670E+03  0.47066161019E+03  0.59668021536E+03  0.91404461190E+02 0.  0.
        254    2    1    2    0    0 -0.22975661586E+03 -0.27085429670E+03 -0.70387328555E+03  0.11982946707E+04  0.90239811794E+03 0.  0.
         23    2    4    4    0    0  0.19409372463E+03 -0.16721458116E+03  0.91453501684E+02  0.28667002851E+03  0.90459229390E+02 0.  0.
         23    2    4    4    0    0 -0.42385034049E+03 -0.10363971555E+03 -0.79532678723E+03  0.91162464224E+03  0.90135942251E+02 0.  0.
          3    1    3    3  502    0  0.19820573792E+01 -0.20610923326E+01  0.31723748888E+02  0.31852360926E+02  0.00000000000E+00 0. -1.
         -3    1    3    3    0  502  0.22777455848E+03  0.27291538904E+03  0.43893786130E+03  0.56482785443E+03  0.00000000000E+00 0.  1.
         11    1    5    5    0    0  0.29947573992E+02 -0.80520670930E+02  0.33351859529E+02  0.92156292075E+02  0.00000000000E+00 0.  1.
        -11    1    5    5    0    0  0.16414615064E+03 -0.86693910227E+02  0.58101642155E+02  0.19451373643E+03  0.00000000000E+00 0. -1.
          1    1    6    6  503    0 -0.28185004467E+02  0.55651721932E+00 -0.18754500669E+02  0.33859053200E+02  0.00000000000E+00 0. -1.
         -1    1    6    6    0  503 -0.39566533602E+03 -0.10419623277E+03 -0.77657228656E+03  0.87776558904E+03  0.00000000000E+00 0.  1.
<mgrwt>
<rscale>  0 0.17797604E+04</rscale>
<asrwt>0</asrwt>
<pdfrwt beam="1">  1        2 0.15601435E+00 0.17797604E+04</pdfrwt>
<pdfrwt beam="2">  1       -2 0.12013563E+00 0.17797604E+04</pdfrwt>
<totfact> 0.12352902E+01</totfact>
</mgrwt>
</event>
<event>
12    2  0.3552864E-008  0.1330274E+04  0.7818608E-02  0.9005896E-01
         -1   -1    0    0    0  501 -0.00000000000E+00  0.00000000000E+00  0.57551815981E+03  0.57551815981E+03  0.00000000000E+00 0.  1.
          1   -1    0    0  501    0  0.00000000000E+00 -0.00000000000E+00 -0.76871113493E+03  0.76871113493E+03  0.00000000000E+00 0. -1.
         23    2    1    2    0    0  0.96226655164E+02  0.34245736857E+03 -0.16519943992E+03  0.40294782892E+03  0.92409303821E+02 0.  0.
        254    2    1    2    0    0 -0.96226655164E+02 -0.34245736857E+03 -0.27993535191E+02  0.94128146582E+03  0.87102843893E+03 0.  0.
         23    2    4    4    0    0  0.20693847863E+02 -0.13625569030E+03 -0.43175520722E+03  0.46418575890E+03  0.10030957740E+03 0.  0.
         23    2    4    4    0    0 -0.11692050303E+03 -0.20620167827E+03  0.40376167203E+03  0.47709570692E+03  0.91691273357E+02 0.  0.
          4    1    3    3  502    0  0.70261533318E+02  0.25952045878E+03 -0.16610734347E+03  0.31603670854E+03  0.00000000000E+00 0. -1.
         -4    1    3    3    0  502  0.25965121846E+02  0.82936909790E+02  0.90790354581E+00  0.86911120387E+02  0.00000000000E+00 0.  1.
         11    1    5    5    0    0 -0.48821697983E-01 -0.14219947854E+03 -0.40811474797E+03  0.43217859919E+03  0.00000000000E+00 0.  1.
        -11    1    5    5    0    0  0.20742669561E+02  0.59437882372E+01 -0.23640459250E+02  0.32007159709E+02  0.00000000000E+00 0. -1.
          1    1    6    6  503    0 -0.45022563656E+02 -0.63404589309E+02  0.60835773351E+02  0.98732793452E+02  0.00000000000E+00 0. -1.
         -1    1    6    6    0  503 -0.71897939371E+02 -0.14279708896E+03  0.34292589868E+03  0.37836291347E+03  0.00000000000E+00 0.  1.
<mgrwt>
<rscale>  0 0.13302740E+04</rscale>
<asrwt>0</asrwt>
<pdfrwt beam="1">  1        1 0.11826325E+00 0.13302740E+04</pdfrwt>
<pdfrwt beam="2">  1       -1 0.88541256E-01 0.13302740E+04</pdfrwt>
<totfact> 0.28937453E+01</totfact>
</mgrwt>
</event>
<event>
12    2  0.3552864E-008  0.2270193E+04  0.7818608E-02  0.8489767E-01
          1   -1    0    0  501    0  0.00000000000E+00  0.00000000000E+00  0.30814659583E+04  0.30814659583E+04  0.00000000000E+00 0. -1.
         -1   -1    0    0    0  501 -0.00000000000E+00 -0.00000000000E+00 -0.41812684741E+03  0.41812684741E+03  0.00000000000E+00 0.  1.
         23    2    1    2    0    0  0.71847301235E+03 -0.43580902819E+03  0.43017455251E+03  0.94839480329E+03  0.90937224256E+02 0.  0.
        254    2    1    2    0    0 -0.71847301235E+03  0.43580902819E+03  0.22331645583E+04  0.25511980024E+04  0.90302509609E+03 0.  0.
         23    2    4    4    0    0 -0.67389461990E+03  0.47342040640E+03  0.93708988222E+03  0.12509054930E+04  0.91467289285E+02 0.  0.
         23    2    4    4    0    0 -0.44578392446E+02 -0.37611378209E+02  0.12960746761E+04  0.13002925094E+04  0.86886104390E+02 0.  0.
          1    1    3    3  502    0  0.15015853518E+03 -0.13574244866E+03  0.95794213172E+02  0.22394224553E+03  0.00000000000E+00 0. -1.
         -1    1    3    3    0  502  0.56831447717E+03 -0.30006657953E+03  0.33438033934E+03  0.72445255776E+03  0.00000000000E+00 0.  1.
         11    1    5    5    0    0 -0.44739242907E+03  0.29563942672E+03  0.66989469907E+03  0.85809181563E+03  0.00000000000E+00 0.  1.
        -11    1    5    5    0    0 -0.22650219083E+03  0.17778097968E+03  0.26719518316E+03  0.39281367732E+03  0.00000000000E+00 0. -1.
          3    1    6    6  503    0 -0.24755673848E+02 -0.24431728258E+02  0.15035453094E+03  0.15432510394E+03  0.00000000000E+00 0. -1.
         -3    1    6    6    0  503 -0.19822718598E+02 -0.13179649951E+02  0.11457201452E+04  0.11459674055E+04  0.00000000000E+00 0.  1.
<mgrwt>
<rscale>  0 0.22701926E+04</rscale>
<asrwt>0</asrwt>
<pdfrwt beam="1">  1        1 0.47407167E+00 0.22701926E+04</pdfrwt>
<pdfrwt beam="2">  1       -1 0.64327209E-01 0.22701926E+04</pdfrwt>
<totfact> 0.11576212E+00</totfact>
</mgrwt>
</event>
<event>
12    2  0.3552864E-008  0.1255848E+04  0.7818608E-02  0.9065330E-01
         -4   -1    0    0    0  501 -0.00000000000E+00  0.00000000000E+00  0.20319445199E+03  0.20319445199E+03  0.00000000000E+00 0.  1.
          4   -1    0    0  501    0  0.00000000000E+00 -0.00000000000E+00 -0.19404490759E+04  0.19404490759E+04  0.00000000000E+00 0. -1.
         23    2    1    2    0    0  0.25656729041E+03 -0.35883399151E+02 -0.61018840957E+03  0.66941364797E+03  0.93114682362E+02 0.  0.
        254    2    1    2    0    0 -0.25656729041E+03  0.35883399151E+02 -0.11270662144E+04  0.14742298800E+04  0.91430908040E+03 0.  0.
         23    2    4    4    0    0  0.28821988485E+03  0.15724613206E+03 -0.65072749735E+03  0.73527004779E+03  0.96843788115E+02 0.  0.
         23    2    4    4    0    0 -0.54478717526E+03 -0.12136273291E+03 -0.47633871703E+03  0.73895983216E+03  0.87413276707E+02 0.  0.
          3    1    3    3  502    0  0.40412031420E+02  0.28518950272E+02 -0.98482986008E+02  0.11020599503E+03  0.00000000000E+00 0. -1.
         -3    1    3    3    0  502  0.21615525899E+03 -0.64402349424E+02 -0.51170542356E+03  0.55920765294E+03  0.00000000000E+00 0.  1.
         11    1    5    5    0    0  0.25652381863E+02 -0.75174675299E+01 -0.23361580590E+02  0.35500992394E+02  0.00000000000E+00 0. -1.
        -11    1    5    5    0    0  0.26256750299E+03  0.16476359959E+03 -0.62736591676E+03  0.69976905540E+03  0.00000000000E+00 0.  1.
          3    1    6    6  503    0 -0.37128513988E+00 -0.44263625170E+01 -0.15620963978E+02  0.16240229475E+02  0.00000000000E+00 0. -1.
         -3    1    6    6    0  503 -0.54441589012E+03 -0.11693637040E+03 -0.46071775305E+03  0.72271960269E+03  0.00000000000E+00 0.  1.
<mgrwt>
<rscale>  0 0.12558479E+04</rscale>
<asrwt>0</asrwt>
<pdfrwt beam="1">  1        4 0.29853063E+00 0.12558479E+04</pdfrwt>
<pdfrwt beam="2">  1       -4 0.31260685E-01 0.12558479E+04</pdfrwt>
<totfact> 0.62225921E-01</totfact>
</mgrwt>
</event>
<event>
12    2  0.3552864E-008  0.1250188E+04  0.7818608E-02  0.9070027E-01
          2   -1    0    0  501    0  0.00000000000E+00  0.00000000000E+00  0.11914679425E+04  0.11914679425E+04  0.00000000000E+00 0. -1.
         -2   -1    0    0    0  501 -0.00000000000E+00 -0.00000000000E+00 -0.32795067637E+03  0.32795067637E+03  0.00000000000E+00 0.  1.
         23    2    1    2    0    0  0.17041493398E+03  0.12513273956E+03  0.44248968207E+03  0.49868639711E+03  0.90507191386E+02 0.  0.
        254    2    1    2    0    0 -0.17041493398E+03 -0.12513273956E+03  0.42102758411E+03  0.10207322218E+04  0.90550018763E+03 0.  0.
         23    2    4    4    0    0 -0.17026222290E+03 -0.22593377623E+03  0.67180345699E+03  0.73495698166E+03  0.93843402913E+02 0.  0.
         23    2    4    4    0    0 -0.15271108615E+00  0.10080103668E+03 -0.25077587289E+03  0.28577524014E+03  0.92833599180E+02 0.  0.
          2    1    3    3  502    0  0.11037741774E+03  0.45867582076E+02  0.31560376739E+03  0.33747999559E+03  0.00000000000E+00 0.  1.
         -2    1    3    3    0  502  0.60037516245E+02  0.79265157483E+02  0.12688591467E+03  0.16120640152E+03  0.00000000000E+00 0. -1.
         11    1    5    5    0    0 -0.66793820404E+02 -0.16491603361E+03  0.40458253091E+03  0.44197933991E+03  0.00000000000E+00 0. -1.
        -11    1    5    5    0    0 -0.10346840249E+03 -0.61017742620E+02  0.26722092608E+03  0.29297764175E+03  0.00000000000E+00 0.  1.
          2    1    6    6  503    0  0.12339670943E+02  0.20392098340E+02 -0.18731612953E+01  0.23908448024E+02  0.00000000000E+00 0. -1.
         -2    1    6    6    0  503 -0.12492382029E+02  0.80408938336E+02 -0.24890271159E+03  0.26186679211E+03  0.00000000000E+00 0.  1.
<mgrwt>
<rscale>  0 0.12501883E+04</rscale>
<asrwt>0</asrwt>
<pdfrwt beam="1">  1        2 0.18330276E+00 0.12501883E+04</pdfrwt>
<pdfrwt beam="2">  1       -2 0.50453951E-01 0.12501883E+04</pdfrwt>
<totfact> 0.70004832E+01</totfact>
</mgrwt>
</event>
<event>
12    2  0.3552864E-008  0.1478476E+04  0.7818608E-02  0.8898894E-01
         -2   -1    0    0    0  501 -0.00000000000E+00  0.00000000000E+00  0.12367327705E+04  0.12367327705E+04  0.00000000000E+00 0.  1.
          2   -1    0    0  501    0  0.00000000000E+00 -0.00000000000E+00 -0.44186820131E+03  0.44186820131E+03  0.00000000000E+00 0. -1.
         23    2    1    2    0    0 -0.15667046916E+03 -0.42592164764E+03  0.19312902614E+03  0.50546478911E+03  0.11063881078E+03 0.  0.
        254    2    1    2    0    0  0.15667046916E+03  0.42592164764E+03  0.60173554302E+03  0.11731361827E+04  0.89900386736E+03 0.  0.
         23    2    4    4    0    0  0.39656857858E+03 -0.88486535144E+02  0.15690344908E+03  0.44638130401E+03  0.97678410168E+02 0.  0.
         23    2    4    4    0    0 -0.23989810942E+03  0.51440818279E+03  0.44483209394E+03  0.72675487866E+03  0.90167513224E+02 0.  0.
          2    1    3    3  502    0 -0.99704912465E+02 -0.20693401450E+03  0.15211361038E+03  0.27550191722E+03  0.00000000000E+00 0.  1.
         -2    1    3    3    0  502 -0.56965556696E+02 -0.21898763314E+03  0.41015415765E+02  0.22996287189E+03  0.00000000000E+00 0. -1.
         11    1    5    5    0    0  0.30819561790E+02 -0.29921896165E+02 -0.27233975192E+01  0.43041632788E+02  0.00000000000E+00 0. -1.
        -11    1    5    5    0    0  0.36574901679E+03 -0.58564638980E+02  0.15962684660E+03  0.40333967122E+03  0.00000000000E+00 0.  1.
          1    1    6    6  503    0 -0.88540972421E+02  0.29619130984E+03  0.23822479851E+03  0.39028175777E+03  0.00000000000E+00 0. -1.
         -1    1    6    6    0  503 -0.15135713700E+03  0.21821687294E+03  0.20660729543E+03  0.33647312089E+03  0.00000000000E+00 0.  1.
<mgrwt>
<rscale>  0 0.14784761E+04</rscale>
<asrwt>0</asrwt>
<pdfrwt beam="1">  1        2 0.67979724E-01 0.14784761E+04</pdfrwt>
<pdfrwt beam="2">  1       -2 0.19026658E+00 0.14784761E+04</pdfrwt>
<totfact> 0.10596706E+01</totfact>
</mgrwt>
</event>
<event>
12    2  0.3552864E-008  0.1738721E+04  0.7818608E-02  0.8739584E-01
          2   -1    0    0  501    0  0.00000000000E+00  0.00000000000E+00  0.19318601904E+04  0.19318601904E+04  0.00000000000E+00 0. -1.
         -2   -1    0    0    0  501 -0.00000000000E+00 -0.00000000000E+00 -0.39122254931E+03  0.39122254931E+03  0.00000000000E+00 0.  1.
         23    2    1    2    0    0  0.50417479636E+03  0.38188302184E+03  0.49303524063E+03  0.80718145633E+03  0.91822041409E+02 0.  0.
        254    2    1    2    0    0 -0.50417479636E+03 -0.38188302184E+03  0.10476024004E+04  0.15159012833E+04  0.89468376749E+03 0.  0.
         23    2    4    4    0    0 -0.42217797686E+03 -0.52349364945E+03  0.29489889390E+03  0.74017209483E+03  0.92787537837E+02 0.  0.
         23    2    4    4    0    0 -0.81996819493E+02  0.14161062761E+03  0.75270350651E+03  0.77572918850E+03  0.91739614808E+02 0.  0.
          1    1    3    3  502    0  0.25055937195E+03  0.22764756042E+03  0.21898000935E+03  0.40318191321E+03  0.00000000000E+00 0. -1.
         -1    1    3    3    0  502  0.25361542440E+03  0.15423546142E+03  0.27405523128E+03  0.40399954312E+03  0.00000000000E+00 0.  1.
         11    1    5    5    0    0 -0.22504087236E+03 -0.21999386129E+03  0.16743929381E+03  0.35647806434E+03  0.00000000000E+00 0. -1.
        -11    1    5    5    0    0 -0.19713710451E+03 -0.30349978816E+03  0.12745960009E+03  0.38369403050E+03  0.00000000000E+00 0.  1.
          4    1    6    6  503    0 -0.75221708033E+01 -0.13304805759E+02  0.77299325615E+02  0.78795854272E+02  0.00000000000E+00 0. -1.
         -4    1    6    6    0  503 -0.74474648690E+02  0.15491543337E+03  0.67540418090E+03  0.69693333423E+03  0.00000000000E+00 0.  1.
<mgrwt>
<rscale>  0 0.17387205E+04</rscale>
<asrwt>0</asrwt>
<pdfrwt beam="1">  1        2 0.29720926E+00 0.17387205E+04</pdfrwt>
<pdfrwt beam="2">  1       -2 0.60188085E-01 0.17387205E+04</pdfrwt>
<totfact> 0.17793496E+01</totfact>
</mgrwt>
</event>
<event>
12    2  0.3552864E-008  0.1373934E+04  0.7818608E-02  0.8972906E-01
         -1   -1    0    0    0  501 -0.00000000000E+00  0.00000000000E+00  0.10897621245E+04  0.10897621245E+04  0.00000000000E+00 0.  1.
          1   -1    0    0  501    0  0.00000000000E+00 -0.00000000000E+00 -0.43305190825E+03  0.43305190825E+03  0.00000000000E+00 0. -1.
         23    2    1    2    0    0  0.36732270103E+03 -0.49613621750E+02  0.25704050042E+03  0.46028738446E+03  0.91690671692E+02 0.  0.
        254    2    1    2    0    0 -0.36732270103E+03  0.49613621750E+02  0.39966971582E+03  0.10625266483E+04  0.91205236604E+03 0.  0.
         23    2    4    4    0    0 -0.16145871791E+02  0.35320027905E+03 -0.95959353414E+02  0.37707190022E+03  0.89240652888E+02 0.  0.
         23    2    4    4    0    0 -0.35117682924E+03 -0.30358665730E+03  0.49562906923E+03  0.68545474806E+03  0.93327452976E+02 0.  0.
          1    1    3    3  502    0  0.14549375124E+03 -0.23753661157E+02  0.15765026196E+03  0.21583853494E+03  0.00000000000E+00 0. -1.
         -1    1    3    3    0  502  0.22182894980E+03 -0.25859960593E+02  0.99390238457E+02  0.24444884952E+03  0.00000000000E+00 0.  1.
         11    1    5    5    0    0  0.54102232601E+01  0.41542523215E+01  0.96001049009E+01  0.11776686384E+02  0.00000000000E+00 0.  1.
        -11    1    5    5    0    0 -0.21556095051E+02  0.34904602673E+03 -0.10555945831E+03  0.36529521383E+03  0.00000000000E+00 0. -1.
          2    1    6    6  503    0 -0.23105523202E+03 -0.25334505718E+03  0.37172576840E+03  0.50571759425E+03  0.00000000000E+00 0. -1.
         -2    1    6    6    0  503 -0.12012159722E+03 -0.50241600121E+02  0.12390330083E+03  0.17973715380E+03  0.00000000000E+00 0.  1.
<mgrwt>
<rscale>  0 0.13739339E+04</rscale>
<asrwt>0</asrwt>
<pdfrwt beam="1">  1        1 0.66623371E-01 0.13739339E+04</pdfrwt>
<pdfrwt beam="2">  1       -1 0.16765571E+00 0.13739339E+04</pdfrwt>
<totfact> 0.13492735E+01</totfact>
</mgrwt>
</event>
<event>
12    2  0.3552864E-008  0.2024344E+04  0.7818608E-02  0.8595323E-01
          2   -1    0    0  501    0  0.00000000000E+00  0.00000000000E+00  0.11852533659E+04  0.11852533659E+04  0.00000000000E+00 0. -1.
         -2   -1    0    0    0  501 -0.00000000000E+00 -0.00000000000E+00 -0.86436528507E+03  0.86436528507E+03  0.00000000000E+00 0.  1.
         23    2    1    2    0    0 -0.42652050673E+03 -0.21598409016E+03 -0.52303511401E+03  0.71460017654E+03  0.92297410369E+02 0.  0.
        254    2    1    2    0    0  0.42652050673E+03  0.21598409016E+03  0.84392319486E+03  0.13350184744E+04  0.91733259966E+03 0.  0.
         23    2    4    4    0    0  0.14588037025E+03  0.11419428596E+03 -0.17393304482E+03  0.27020417704E+03  0.91848657262E+02 0.  0.
         23    2    4    4    0    0  0.28064013648E+03  0.10178980420E+03  0.10178562397E+04  0.10648142974E+04  0.93156389029E+02 0.  0.
          2    1    3    3  502    0 -0.16350146032E+03 -0.10960733202E+03 -0.27209881613E+03  0.33583367982E+03  0.00000000000E+00 0. -1.
         -2    1    3    3    0  502 -0.26301904641E+03 -0.10637675814E+03 -0.25093629788E+03  0.37876649673E+03  0.00000000000E+00 0.  1.
         11    1    5    5    0    0  0.30047070952E+02  0.40229425227E+02 -0.10513891466E+03  0.11651362368E+03  0.00000000000E+00 0. -1.
        -11    1    5    5    0    0  0.11583329930E+03  0.73964860729E+02 -0.68794130167E+02  0.15369055337E+03  0.00000000000E+00 0.  1.
          3    1    6    6  503    0  0.10514871496E+03  0.70885818605E+01  0.24619134043E+03  0.26779969446E+03  0.00000000000E+00 0. -1.
         -3    1    6    6    0  503  0.17549142152E+03  0.94701222341E+02  0.77166489925E+03  0.79701460293E+03  0.00000000000E+00 0.  1.
<mgrwt>
<rscale>  0 0.20243437E+04</rscale>
<asrwt>0</asrwt>
<pdfrwt beam="1">  1        2 0.18234667E+00 0.20243437E+04</pdfrwt>
<pdfrwt beam="2">  1       -2 0.13297927E+00 0.20243437E+04</pdfrwt>
<totfact> 0.73497033E+00</totfact>
</mgrwt>
</event>
<event>
12    2  0.3552864E-008  0.1392165E+04  0.7818608E-02  0.8959509E-01
          2   -1    0    0  501    0  0.00000000000E+00  0.00000000000E+00  0.96274829893E+03  0.96274829893E+03  0.00000000000E+00 0. -1.
         -2   -1    0    0    0  501 -0.00000000000E+00 -0.00000000000E+00 -0.50327900037E+03  0.50327900037E+03  0.00000000000E+00 0.  1.
         23    2    1    2    0    0  0.54831636598E+02 -0.33822733337E+03  0.39772619816E+03  0.53366923555E+03  0.95981700634E+02 0.  0.
        254    2    1    2    0    0 -0.54831636598E+02  0.33822733337E+03  0.61743100400E+02  0.93235806374E+03  0.86491335472E+03 0.  0.
         23    2    4    4    0    0 -0.57808136753E+02  0.26249617412E+03  0.44704161116E+03  0.52938758824E+03  0.90327151931E+02 0.  0.
         23    2    4    4    0    0  0.29765001549E+01  0.75731159252E+02 -0.38529851076E+03  0.40297047550E+03  0.90477586704E+02 0.  0.
          3    1    3    3  502    0  0.26075088181E+02 -0.27909323793E+03  0.36501418664E+03  0.46022635967E+03  0.00000000000E+00 0. -1.
         -3    1    3    3    0  502  0.28756548418E+02 -0.59134095435E+02  0.32712011520E+02  0.73442875880E+02  0.00000000000E+00 0.  1.
         11    1    5    5    0    0 -0.22115939835E+02  0.86258821401E+02  0.23535587119E+03  0.25163879901E+03  0.00000000000E+00 0.  1.
        -11    1    5    5    0    0 -0.35692196919E+02  0.17623735272E+03  0.21168573997E+03  0.27774878924E+03  0.00000000000E+00 0. -1.
          3    1    6    6  503    0 -0.86312872386E+01 -0.22056087171E+01 -0.21653252026E+03  0.21671570354E+03  0.00000000000E+00 0. -1.
         -3    1    6    6    0  503  0.11607787394E+02  0.77936767969E+02 -0.16876599050E+03  0.18625477197E+03  0.00000000000E+00 0.  1.
<mgrwt>
<rscale>  0 0.13921652E+04</rscale>
<asrwt>0</asrwt>
<pdfrwt beam="1">  1        2 0.14811512E+00 0.13921652E+04</pdfrwt>
<pdfrwt beam="2">  1       -2 0.77427539E-01 0.13921652E+04</pdfrwt>
<totfact> 0.38587669E+01</totfact>
</mgrwt>
</event>
<event>
12    2  0.3552864E-008  0.2671820E+04  0.7818608E-02  0.8344207E-01
         -1   -1    0    0    0  501 -0.00000000000E+00  0.00000000000E+00  0.82076000300E+03  0.82076000300E+03  0.00000000000E+00 0.  1.
          1   -1    0    0  501    0  0.00000000000E+00 -0.00000000000E+00 -0.21743945480E+04  0.21743945480E+04  0.00000000000E+00 0. -1.
         23    2    1    2    0    0 -0.28716747831E+03  0.55273459891E+03 -0.17274558364E+04  0.18388514847E+04  0.96386816922E+02 0.  0.
        254    2    1    2    0    0  0.28716747831E+03 -0.55273459891E+03  0.37382129145E+03  0.11563030663E+04  0.89961865576E+03 0.  0.
         23    2    4    4    0    0 -0.11788929730E+03  0.79918181763E+02 -0.15775788095E+03  0.23153607774E+03  0.91850988562E+02 0.  0.
         23    2    4    4    0    0  0.40505677562E+03 -0.63265278067E+03  0.53157917240E+03  0.92476698856E+03  0.91088057653E+02 0.  0.
          1    1    3    3  502    0 -0.27259469224E+03  0.50445328625E+03 -0.16463509164E+04  0.17433451535E+04  0.00000000000E+00 0. -1.
         -1    1    3    3    0  502 -0.14572786071E+02  0.48281312662E+02 -0.81104920028E+02  0.95506331198E+02  0.00000000000E+00 0.  1.
         11    1    5    5    0    0 -0.97435116325E+02  0.11842357369E+02 -0.97533632536E+02  0.13837143057E+03  0.00000000000E+00 0.  1.
        -11    1    5    5    0    0 -0.20454180977E+02  0.68075824394E+02 -0.60224248417E+02  0.93164647178E+02  0.00000000000E+00 0. -1.
          4    1    6    6  503    0  0.19758907659E+03 -0.37327922557E+03  0.33256113096E+03  0.53756462798E+03  0.00000000000E+00 0. -1.
         -4    1    6    6    0  503  0.20746769902E+03 -0.25937355511E+03  0.19901804144E+03  0.38720236059E+03  0.00000000000E+00 0.  1.
<mgrwt>
<rscale>  0 0.26718204E+04</rscale>
<asrwt>0</asrwt>
<pdfrwt beam="1">  1        1 0.33452223E+00 0.26718204E+04</pdfrwt>
<pdfrwt beam="2">  1       -1 0.12627077E+00 0.26718204E+04</pdfrwt>
<totfact> 0.10829070E+00</totfact>
</mgrwt>
</event>
<event>
12    2  0.3552864E-008  0.2890067E+04  0.7818608E-02  0.8275839E-01
         -1   -1    0    0    0  501 -0.00000000000E+00  0.00000000000E+00  0.89930737368E+03  0.89930737368E+03  0.00000000000E+00 0.  1.
          1   -1    0    0  501    0  0.00000000000E+00 -0.00000000000E+00 -0.23219230020E+04  0.23219230020E+04  0.00000000000E+00 0. -1.
         23    2    1    2    0    0  0.16455491926E+03 -0.10528337859E+04 -0.14466520280E+04  0.17990429948E+04  0.90643834866E+02 0.  0.
        254    2    1    2    0    0 -0.16455491926E+03  0.10528337859E+04  0.24036399681E+02  0.14221873809E+04  0.94154229622E+03 0.  0.
         23    2    4    4    0    0 -0.22834755304E+03  0.56354061072E+03 -0.42556785876E+03  0.74866503170E+03  0.98339729310E+02 0.  0.
         23    2    4    4    0    0  0.63792633773E+02  0.48929317520E+03  0.44960425844E+03  0.67352234918E+03  0.89504492685E+02 0.  0.
          4    1    3    3  502    0  0.88859127494E+02 -0.52861971440E+03 -0.65209860394E+03  0.84413703642E+03  0.00000000000E+00 0. -1.
         -4    1    3    3    0  502  0.75695791770E+02 -0.52421407152E+03 -0.79455342406E+03  0.95490595839E+03  0.00000000000E+00 0.  1.
         11    1    5    5    0    0 -0.15264700492E+03  0.30258041274E+03 -0.18696997777E+03  0.38705785985E+03  0.00000000000E+00 0.  1.
        -11    1    5    5    0    0 -0.75700548118E+02  0.26096019798E+03 -0.23859788099E+03  0.36160717184E+03  0.00000000000E+00 0. -1.
          2    1    6    6  503    0  0.41575642537E+02  0.43135616438E+03  0.42437090658E+03  0.60653717195E+03  0.00000000000E+00 0. -1.
         -2    1    6    6    0  503  0.22216991236E+02  0.57937010819E+02  0.25233351859E+02  0.66985177228E+02  0.00000000000E+00 0.  1.
<mgrwt>
<rscale>  0 0.28900675E+04</rscale>
<asrwt>0</asrwt>
<pdfrwt beam="1">  1        1 0.35721892E+00 0.28900675E+04</pdfrwt>
<pdfrwt beam="2">  1       -1 0.13835498E+00 0.28900675E+04</pdfrwt>
<totfact> 0.66750060E-01</totfact>
</mgrwt>
</event>
<event>
12    2  0.3552864E-008  0.1471455E+04  0.7818608E-02  0.8903660E-01
         -1   -1    0    0    0  501 -0.00000000000E+00  0.00000000000E+00  0.18703359150E+03  0.18703359150E+03  0.00000000000E+00 0.  1.
          1   -1    0    0  501    0  0.00000000000E+00 -0.00000000000E+00 -0.28941037525E+04  0.28941037525E+04  0.00000000000E+00 0. -1.
         23    2    1    2    0    0  0.15916511574E+03  0.14141616018E+03 -0.19669297116E+02  0.23218683681E+03  0.90508460990E+02 0.  0.
        254    2    1    2    0    0 -0.15916511574E+03 -0.14141616018E+03 -0.26874008639E+04  0.28489505072E+04  0.92144643079E+03 0.  0.
         23    2    4    4    0    0 -0.24180560849E+03  0.33961728174E+03 -0.15543593479E+04  0.16119342244E+04  0.92136371469E+02 0.  0.
         23    2    4    4    0    0  0.82640492748E+02 -0.48103344192E+03 -0.11330415160E+04  0.12370162829E+04  0.90573637138E+02 0.  0.
          2    1    3    3  502    0  0.12230811464E+03  0.53164541910E+02  0.48626512077E+01  0.13345182202E+03  0.00000000000E+00 0. -1.
         -2    1    3    3    0  502  0.36857001097E+02  0.88251618268E+02 -0.24531948323E+02  0.98735014789E+02  0.00000000000E+00 0.  1.
         11    1    5    5    0    0 -0.12411079851E+02  0.10105360757E+02 -0.18495114673E+02  0.24458587160E+02  0.00000000000E+00 0.  1.
        -11    1    5    5    0    0 -0.22939452864E+03  0.32951192099E+03 -0.15358642332E+04  0.15874756372E+04  0.00000000000E+00 0. -1.
          1    1    6    6  503    0  0.10068993232E+03 -0.44312776697E+03 -0.10389348965E+04  0.11339693115E+04  0.00000000000E+00 0. -1.
         -1    1    6    6    0  503 -0.18049439569E+02 -0.37905674954E+02 -0.94106619528E+02  0.10304697134E+03  0.00000000000E+00 0.  1.
<mgrwt>
<rscale>  0 0.14714545E+04</rscale>
<asrwt>0</asrwt>
<pdfrwt beam="1">  1        1 0.44524674E+00 0.14714545E+04</pdfrwt>
<pdfrwt beam="2">  1       -1 0.28774398E-01 0.14714545E+04</pdfrwt>
<totfact> 0.76374198E+00</totfact>
</mgrwt>
</event>
<event>
12    2  0.3552864E-008  0.1851159E+04  0.7818608E-02  0.8679557E-01
         -2   -1    0    0    0  501 -0.00000000000E+00  0.00000000000E+00  0.64454333785E+03  0.64454333785E+03  0.00000000000E+00 0.  1.
          2   -1    0    0  501    0  0.00000000000E+00 -0.00000000000E+00 -0.13291546225E+04  0.13291546225E+04  0.00000000000E+00 0. -1.
         23    2    1    2    0    0  0.20039211726E+03 -0.33134526344E+03  0.33639671386E+03  0.52104333669E+03  0.91524452183E+02 0.  0.
        254    2    1    2    0    0 -0.20039211726E+03  0.33134526344E+03 -0.10210079985E+04  0.14526546237E+04  0.95801953967E+03 0.  0.
         23    2    4    4    0    0 -0.19645628921E+03  0.53755433504E+03 -0.21886391276E+03  0.61955284023E+03  0.91567313112E+02 0.  0.
         23    2    4    4    0    0 -0.39358280562E+01 -0.20620907161E+03 -0.80214408577E+03  0.83310178346E+03  0.89920939205E+02 0.  0.
          2    1    3    3  502    0  0.11004095209E+03 -0.99353224014E+02  0.11100539310E+03  0.18520872430E+03  0.00000000000E+00 0.  1.
         -2    1    3    3    0  502  0.90351165170E+02 -0.23199203942E+03  0.22539132076E+03  0.33583461239E+03  0.00000000000E+00 0. -1.
         11    1    5    5    0    0 -0.19333059932E+03  0.44148610713E+03 -0.16532174125E+03  0.50952721375E+03  0.00000000000E+00 0.  1.
        -11    1    5    5    0    0 -0.31256898881E+01  0.96068227915E+02 -0.53542171502E+02  0.11002562648E+03  0.00000000000E+00 0. -1.
          4    1    6    6  503    0 -0.87881347033E+01 -0.29563028930E+02 -0.38769869977E+02  0.49540960922E+02  0.00000000000E+00 0. -1.
         -4    1    6    6    0  503  0.48523066471E+01 -0.17664604268E+03 -0.76337421580E+03  0.78356082254E+03  0.00000000000E+00 0.  1.
<mgrwt>
<rscale>  0 0.18511594E+04</rscale>
<asrwt>0</asrwt>
<pdfrwt beam="1">  1        2 0.20448532E+00 0.18511594E+04</pdfrwt>
<pdfrwt beam="2">  1       -2 0.99160514E-01 0.18511594E+04</pdfrwt>
<totfact> 0.12597474E+01</totfact>
</mgrwt>
</event>
<event>
12    2  0.3552864E-008  0.2005914E+04  0.7818608E-02  0.8603861E-01
          1   -1    0    0  501    0  0.00000000000E+00  0.00000000000E+00  0.13736624820E+04  0.13736624820E+04  0.00000000000E+00 0. -1.
         -1   -1    0    0    0  501 -0.00000000000E+00 -0.00000000000E+00 -0.73229239503E+03  0.73229239503E+03  0.00000000000E+00 0.  1.
         23    2    1    2    0    0 -0.68280178593E+03  0.41837336493E+03  0.26962514695E+03  0.84989282877E+03  0.91463376202E+02 0.  0.
        254    2    1    2    0    0  0.68280178593E+03 -0.41837336493E+03  0.37174494002E+03  0.12560620483E+04  0.89344446794E+03 0.  0.
         23    2    4    4    0    0 -0.94628666613E+02 -0.47067647418E+02  0.36319753705E+03  0.38893335275E+03  0.90480682943E+02 0.  0.
         23    2    4    4    0    0  0.77743045254E+03 -0.37130571751E+03  0.85474029761E+01  0.86712869551E+03  0.97842077252E+02 0.  0.
          1    1    3    3  502    0 -0.68184776467E+03  0.40902093723E+03  0.26027735689E+03  0.83663540672E+03  0.00000000000E+00 0. -1.
         -1    1    3    3    0  502 -0.95402126065E+00  0.93524276993E+01  0.93477900593E+01  0.13257422051E+02  0.00000000000E+00 0.  1.
         11    1    5    5    0    0 -0.32240340330E+02  0.42113987580E+01  0.24420389941E+02  0.40663630789E+02  0.00000000000E+00 0. -1.
        -11    1    5    5    0    0 -0.62388326283E+02 -0.51279046176E+02  0.33877714710E+03  0.34826972196E+03  0.00000000000E+00 0.  1.
          2    1    6    6  503    0  0.68950485995E+03 -0.33320547604E+03  0.38408842748E+02  0.76675816289E+03  0.00000000000E+00 0. -1.
         -2    1    6    6    0  503  0.87925592588E+02 -0.38100241469E+02 -0.29861439772E+02  0.10037053261E+03  0.00000000000E+00 0.  1.
<mgrwt>
<rscale>  0 0.20059138E+04</rscale>
<asrwt>0</asrwt>
<pdfrwt beam="1">  1        1 0.21133269E+00 0.20059138E+04</pdfrwt>
<pdfrwt beam="2">  1       -1 0.11266037E+00 0.20059138E+04</pdfrwt>
<totfact> 0.53605831E+00</totfact>
</mgrwt>
</event>
<event>
12    2  0.3552864E-008  0.1528159E+04  0.7818608E-02  0.8865940E-01
          2   -1    0    0  501    0  0.00000000000E+00  0.00000000000E+00  0.32348145186E+04  0.32348145186E+04  0.00000000000E+00 0. -1.
         -2   -1    0    0    0  501 -0.00000000000E+00 -0.00000000000E+00 -0.18047950994E+03  0.18047950994E+03  0.00000000000E+00 0.  1.
         23    2    1    2    0    0 -0.16610772969E+02 -0.29772560081E+03  0.18255964857E+04  0.18519200817E+04  0.88820094567E+02 0.  0.
        254    2    1    2    0    0  0.16610772969E+02  0.29772560081E+03  0.12287385229E+04  0.15633739468E+04  0.91946902544E+03 0.  0.
         23    2    4    4    0    0  0.33192681333E+03 -0.55495584376E+02  0.14587998233E+03  0.37803656944E+03  0.91517808652E+02 0.  0.
         23    2    4    4    0    0 -0.31531604036E+03  0.35322118519E+03  0.10828585406E+04  0.11853373774E+04  0.90844198042E+02 0.  0.
          4    1    3    3  502    0  0.89624172236E+01 -0.27828734553E+03  0.16686461237E+04  0.16917163053E+04  0.00000000000E+00 0. -1.
         -4    1    3    3    0  502 -0.25573190192E+02 -0.19438255281E+02  0.15695036207E+03  0.16020377642E+03  0.00000000000E+00 0.  1.
         11    1    5    5    0    0  0.26868420437E+03 -0.20892118706E+02  0.14481204886E+03  0.30593824834E+03  0.00000000000E+00 0.  1.
        -11    1    5    5    0    0  0.63242608953E+02 -0.34603465670E+02  0.10679334726E+01  0.72098321100E+02  0.00000000000E+00 0. -1.
          1    1    6    6  503    0 -0.13977285284E+03  0.20807587845E+03  0.63995710899E+03  0.68729696852E+03  0.00000000000E+00 0. -1.
         -1    1    6    6    0  503 -0.17554318751E+03  0.14514530674E+03  0.44290143162E+03  0.49804040889E+03  0.00000000000E+00 0.  1.
<mgrwt>
<rscale>  0 0.15281593E+04</rscale>
<asrwt>0</asrwt>
<pdfrwt beam="1">  1        2 0.49766373E+00 0.15281593E+04</pdfrwt>
<pdfrwt beam="2">  1       -2 0.27766081E-01 0.15281593E+04</pdfrwt>
<totfact> 0.14180998E+01</totfact>
</mgrwt>
</event>
<event>
12    2  0.4064156E-008  0.1585471E+04  0.7818608E-02  0.8829524E-01
          2   -1    0    0  501    0  0.00000000000E+00  0.00000000000E+00  0.75238664072E+03  0.75238664072E+03  0.00000000000E+00 0. -1.
         -2   -1    0    0    0  501 -0.00000000000E+00 -0.00000000000E+00 -0.83524794813E+03  0.83524794813E+03  0.00000000000E+00 0.  1.
         23    2    1    2    0    0 -0.23941148154E+03 -0.44092496515E+03  0.23650222402E+03  0.56209071317E+03  0.90994425565E+02 0.  0.
        254    2    1    2    0    0  0.23941148154E+03  0.44092496515E+03 -0.31936353143E+03  0.10255438757E+04  0.83547261676E+03 0.  0.
         23    2    4    4    0    0  0.22784695527E+03  0.16224627771E+03  0.24881931166E+03  0.38603898593E+03  0.94217615889E+02 0.  0.
         23    2    4    4    0    0  0.11564526270E+02  0.27867868744E+03 -0.56818284309E+03  0.63950488976E+03  0.91319284591E+02 0.  0.
          3    1    3    3  502    0 -0.22301933928E+03 -0.43176828209E+03  0.24149596286E+03  0.54266175025E+03  0.00000000000E+00 0. -1.
         -3    1    3    3    0  502 -0.16392142261E+02 -0.91566830575E+01 -0.49937388373E+01  0.19428962919E+02  0.00000000000E+00 0.  1.
         11    1    5    5    0    0  0.22517604306E+03  0.17226106192E+03  0.24584169216E+03  0.37525492859E+03  0.00000000000E+00 0. -1.
        -11    1    5    5    0    0  0.26709122157E+01 -0.10014784213E+02  0.29776194958E+01  0.10784057343E+02  0.00000000000E+00 0.  1.
          1    1    6    6  503    0  0.18083401321E+02  0.27229852404E+03 -0.56825114925E+03  0.63038310908E+03  0.00000000000E+00 0. -1.
         -1    1    6    6    0  503 -0.65188750506E+01  0.63801633954E+01  0.68306155628E-01  0.91217806709E+01  0.00000000000E+00 0.  1.
<mgrwt>
<rscale>  0 0.15854708E+04</rscale>
<asrwt>0</asrwt>
<pdfrwt beam="1">  1        2 0.11575179E+00 0.15854708E+04</pdfrwt>
<pdfrwt beam="2">  1       -2 0.12849968E+00 0.15854708E+04</pdfrwt>
<totfact> 0.16031115E+01</totfact>
</mgrwt>
</event>
<event>
12    2  0.3552864E-008  0.1282004E+04  0.7818608E-02  0.9043959E-01
          1   -1    0    0  501    0  0.00000000000E+00  0.00000000000E+00  0.73251244010E+03  0.73251244010E+03  0.00000000000E+00 0. -1.
         -1   -1    0    0    0  501 -0.00000000000E+00 -0.00000000000E+00 -0.56092381593E+03  0.56092381593E+03  0.00000000000E+00 0.  1.
         23    2    1    2    0    0 -0.23488854781E+03 -0.21790944452E+03  0.26771246940E+02  0.33403027116E+03  0.90566917183E+02 0.  0.
        254    2    1    2    0    0  0.23488854781E+03  0.21790944452E+03  0.14481737723E+03  0.95940598487E+03  0.89265369273E+03 0.  0.
         23    2    4    4    0    0 -0.23716395041E+03 -0.18499246857E+03 -0.64703855194E+01  0.31423836464E+03  0.90746521268E+02 0.  0.
         23    2    4    4    0    0  0.47205249822E+03  0.40290191309E+03  0.15128776275E+03  0.64516762022E+03  0.90497283818E+02 0.  0.
          4    1    3    3  502    0 -0.10963865269E+03 -0.15097775132E+03  0.41840109991E+02  0.19122110334E+03  0.00000000000E+00 0. -1.
         -4    1    3    3    0  502 -0.12524989512E+03 -0.66931693199E+02 -0.15068863051E+02  0.14280916782E+03  0.00000000000E+00 0.  1.
         11    1    5    5    0    0 -0.42550456739E+02 -0.84336672131E+02  0.70013184946E+01  0.94721877597E+02  0.00000000000E+00 0. -1.
        -11    1    5    5    0    0 -0.19461349367E+03 -0.10065579644E+03 -0.13471704014E+02  0.21951648705E+03  0.00000000000E+00 0.  1.
          1    1    6    6  503    0  0.25639206534E+03  0.27642965543E+03  0.97666200488E+02  0.38947263356E+03  0.00000000000E+00 0. -1.
         -1    1    6    6    0  503  0.21566043288E+03  0.12647225766E+03  0.53621562263E+02  0.25569498666E+03  0.00000000000E+00 0.  1.
<mgrwt>
<rscale>  0 0.12820042E+04</rscale>
<asrwt>0</asrwt>
<pdfrwt beam="1">  1        1 0.11269422E+00 0.12820042E+04</pdfrwt>
<pdfrwt beam="2">  1       -1 0.86295972E-01 0.12820042E+04</pdfrwt>
<totfact> 0.33131704E+01</totfact>
</mgrwt>
</event>
<event>
12    2  0.3552864E-008  0.1489996E+04  0.7818608E-02  0.8891133E-01
         -1   -1    0    0    0  501 -0.00000000000E+00  0.00000000000E+00  0.59974108232E+03  0.59974108232E+03  0.00000000000E+00 0.  1.
          1   -1    0    0  501    0  0.00000000000E+00 -0.00000000000E+00 -0.92543637264E+03  0.92543637264E+03  0.00000000000E+00 0. -1.
         23    2    1    2    0    0 -0.45875137883E+02  0.11987570989E+03 -0.56261032154E+03  0.58424615141E+03  0.91315263988E+02 0.  0.
        254    2    1    2    0    0  0.45875137883E+02 -0.11987570989E+03  0.23691503122E+03  0.94093130355E+03  0.90152552481E+03 0.  0.
         23    2    4    4    0    0 -0.14245361504E+03 -0.38934329542E+03  0.38109926718E+03  0.57082908079E+03  0.93423518975E+02 0.  0.
         23    2    4    4    0    0  0.18832875292E+03  0.26946758553E+03 -0.14418423597E+03  0.37010222275E+03  0.90033674567E+02 0.  0.
          4    1    3    3  502    0  0.19214219184E+02 -0.83208368408E+00 -0.95662022728E+02  0.97576130147E+02  0.00000000000E+00 0.  1.
         -4    1    3    3    0  502 -0.65089357067E+02  0.12070779357E+03 -0.46694829882E+03  0.48667002127E+03  0.00000000000E+00 0. -1.
         11    1    5    5    0    0 -0.79068829011E+02 -0.98784385247E+02  0.13255692056E+03  0.18325275353E+03  0.00000000000E+00 0. -1.
        -11    1    5    5    0    0 -0.63384786028E+02 -0.29055891018E+03  0.24854234663E+03  0.38757632726E+03  0.00000000000E+00 0.  1.
          1    1    6    6  503    0  0.15406785587E+03  0.19985127554E+03 -0.67960747971E+02  0.26133522497E+03  0.00000000000E+00 0. -1.
         -1    1    6    6    0  503  0.34260897051E+02  0.69616309994E+02 -0.76223487995E+02  0.10876699778E+03  0.00000000000E+00 0.  1.
<mgrwt>
<rscale>  0 0.14899963E+04</rscale>
<asrwt>0</asrwt>
<pdfrwt beam="1">  1        1 0.14237483E+00 0.14899963E+04</pdfrwt>
<pdfrwt beam="2">  1       -1 0.92267859E-01 0.14899963E+04</pdfrwt>
<totfact> 0.19202823E+01</totfact>
</mgrwt>
</event>
<event>
12    2  0.3552864E-008  0.1709148E+04  0.7818608E-02  0.8756164E-01
         -1   -1    0    0    0  501 -0.00000000000E+00  0.00000000000E+00  0.61891147062E+03  0.61891147062E+03  0.00000000000E+00 0.  1.
          1   -1    0    0  501    0  0.00000000000E+00 -0.00000000000E+00 -0.11799699785E+04  0.11799699785E+04  0.00000000000E+00 0. -1.
         23    2    1    2    0    0  0.35864101069E+02 -0.39758979766E+03  0.29553850175E+03  0.50489729335E+03  0.90633271289E+02 0.  0.
        254    2    1    2    0    0 -0.35864101069E+02  0.39758979766E+03 -0.85659700959E+03  0.12939841557E+04  0.88389630470E+03 0.  0.
         23    2    4    4    0    0 -0.10475723019E+02  0.39718903369E+03  0.23751351733E+02  0.40862599790E+03  0.92424077989E+02 0.  0.
         23    2    4    4    0    0 -0.25388378049E+02  0.40076397672E+00 -0.88034836132E+03  0.88535815782E+03  0.90559924853E+02 0.  0.
          3    1    3    3  502    0  0.22868161482E+02 -0.48334436254E+02  0.73281354623E+02  0.90715640729E+02  0.00000000000E+00 0. -1.
         -3    1    3    3    0  502  0.12995939586E+02 -0.34925536141E+03  0.22225714713E+03  0.41418165262E+03  0.00000000000E+00 0.  1.
         11    1    5    5    0    0 -0.40079385395E+02  0.34909543007E+03  0.17807922024E+02  0.35183959202E+03  0.00000000000E+00 0.  1.
        -11    1    5    5    0    0  0.29603662375E+02  0.48093603619E+02  0.59434297093E+01  0.56786405871E+02  0.00000000000E+00 0. -1.
          3    1    6    6  503    0  0.12876318383E+02  0.36322330949E+02 -0.26675532671E+03  0.26952461043E+03  0.00000000000E+00 0. -1.
         -3    1    6    6    0  503 -0.38264696433E+02 -0.35921566973E+02 -0.61359303461E+03  0.61583354739E+03  0.00000000000E+00 0.  1.
<mgrwt>
<rscale>  0 0.17091483E+04</rscale>
<asrwt>0</asrwt>
<pdfrwt beam="1">  1        1 0.18153384E+00 0.17091483E+04</pdfrwt>
<pdfrwt beam="2">  1       -1 0.95217150E-01 0.17091483E+04</pdfrwt>
<totfact> 0.11198218E+01</totfact>
</mgrwt>
</event>
<event>
12    2  0.3552864E-008  0.2408332E+04  0.7818608E-02  0.8436391E-01
         -1   -1    0    0    0  501 -0.00000000000E+00  0.00000000000E+00  0.22961942554E+04  0.22961942554E+04  0.00000000000E+00 0.  1.
          1   -1    0    0  501    0  0.00000000000E+00 -0.00000000000E+00 -0.63148643773E+03  0.63148643773E+03  0.00000000000E+00 0. -1.
         23    2    1    2    0    0 -0.38010816216E+03  0.85575723130E+03  0.11947782458E+04  0.15207230621E+04  0.91109390889E+02 0.  0.
        254    2    1    2    0    0  0.38010816216E+03 -0.85575723130E+03  0.46992957185E+03  0.14069576310E+04  0.93909175222E+03 0.  0.
         23    2    4    4    0    0  0.54444059093E+03 -0.14577262366E+03  0.32968876011E+03  0.65935940383E+03  0.91623850716E+02 0.  0.
         23    2    4    4    0    0 -0.16433242877E+03 -0.70998460764E+03  0.14024081175E+03  0.74759822718E+03  0.90290275047E+02 0.  0.
          2    1    3    3  502    0 -0.38018511306E+02  0.17162053477E+03  0.23285454007E+03  0.29175375231E+03  0.00000000000E+00 0. -1.
         -2    1    3    3    0  502 -0.34208965085E+03  0.68413669653E+03  0.96192370571E+03  0.12289693098E+04  0.00000000000E+00 0.  1.
         11    1    5    5    0    0  0.30131571314E+03 -0.64623909406E+02  0.22918753547E+03  0.38404991221E+03  0.00000000000E+00 0.  1.
        -11    1    5    5    0    0  0.24312487778E+03 -0.81148714252E+02  0.10050122464E+03  0.27530949162E+03  0.00000000000E+00 0. -1.
          2    1    6    6  503    0 -0.88874284528E+02 -0.54430374793E+03  0.12005411208E+03  0.56442731887E+03  0.00000000000E+00 0.  1.
         -2    1    6    6    0  503 -0.75458144239E+02 -0.16568085972E+03  0.20186699672E+02  0.18317090831E+03  0.00000000000E+00 0. -1.
<mgrwt>
<rscale>  0 0.24083318E+04</rscale>
<asrwt>0</asrwt>
<pdfrwt beam="1">  1        1 0.97151761E-01 0.24083318E+04</pdfrwt>
<pdfrwt beam="2">  1       -1 0.35326065E+00 0.24083318E+04</pdfrwt>
<totfact> 0.42093699E-01</totfact>
</mgrwt>
</event>
<event>
12    2  0.3552864E-008  0.2027511E+04  0.7818608E-02  0.8593865E-01
          2   -1    0    0  501    0  0.00000000000E+00  0.00000000000E+00  0.99512861059E+03  0.99512861059E+03  0.00000000000E+00 0. -1.
         -2   -1    0    0    0  501 -0.00000000000E+00 -0.00000000000E+00 -0.10327313949E+04  0.10327313949E+04  0.00000000000E+00 0.  1.
         23    2    1    2    0    0 -0.42974228721E+03 -0.68456180942E+03  0.39700853816E+02  0.81499366090E+03  0.96618865535E+02 0.  0.
        254    2    1    2    0    0  0.42974228721E+03  0.68456180942E+03 -0.77303638135E+02  0.12128663446E+04  0.90098036220E+03 0.  0.
         23    2    4    4    0    0 -0.40820902900E+02 -0.71288979513E+02  0.23538233304E+03  0.26502044220E+03  0.89902877387E+02 0.  0.
         23    2    4    4    0    0  0.47056319011E+03  0.75585078893E+03 -0.31268597117E+03  0.94784590241E+03  0.88877483778E+02 0.  0.
          3    1    3    3  502    0 -0.15195983760E+03 -0.22128618268E+03  0.57495942448E+02  0.27452713943E+03  0.00000000000E+00 0. -1.
         -3    1    3    3    0  502 -0.27778244961E+03 -0.46327562674E+03 -0.17795088632E+02  0.54046652147E+03  0.00000000000E+00 0.  1.
         11    1    5    5    0    0 -0.16096123955E+02 -0.27326933224E+01  0.15755207240E+03  0.15839573333E+03  0.00000000000E+00 0. -1.
        -11    1    5    5    0    0 -0.24724778945E+02 -0.68556286191E+02  0.77830260632E+02  0.10662470886E+03  0.00000000000E+00 0.  1.
          4    1    6    6  503    0  0.27926606483E+03  0.49735210370E+03 -0.16364818303E+03  0.59340490209E+03  0.00000000000E+00 0.  1.
         -4    1    6    6    0  503  0.19129712529E+03  0.25849868523E+03 -0.14903778814E+03  0.35444100031E+03  0.00000000000E+00 0. -1.
<mgrwt>
<rscale>  0 0.20275113E+04</rscale>
<asrwt>0</asrwt>
<pdfrwt beam="1">  1        2 0.15309671E+00 0.20275113E+04</pdfrwt>
<pdfrwt beam="2">  1       -2 0.15888175E+00 0.20275113E+04</pdfrwt>
<totfact> 0.60374996E+00</totfact>
</mgrwt>
</event>
<event>
12    2  0.3552864E-008  0.1344333E+04  0.7818608E-02  0.8995129E-01
         -1   -1    0    0    0  501 -0.00000000000E+00  0.00000000000E+00  0.93785097592E+03  0.93785097592E+03  0.00000000000E+00 0.  1.
          1   -1    0    0  501    0  0.00000000000E+00 -0.00000000000E+00 -0.48174810084E+03  0.48174810084E+03  0.00000000000E+00 0. -1.
         23    2    1    2    0    0 -0.20935789671E+03 -0.22572960496E+03 -0.73634390530E+02  0.32949088114E+03  0.91420095272E+02 0.  0.
        254    2    1    2    0    0  0.20935789671E+03  0.22572960496E+03  0.52973726561E+03  0.10901081956E+04  0.90162615541E+03 0.  0.
         23    2    4    4    0    0 -0.30647524721E+02  0.53809317698E+03  0.34053533519E+03  0.64398848343E+03  0.90957761602E+02 0.  0.
         23    2    4    4    0    0  0.24000542143E+03 -0.31236357202E+03  0.18920193042E+03  0.44611971220E+03  0.89731954697E+02 0.  0.
          4    1    3    3  502    0 -0.18005495762E+03 -0.16022147284E+03 -0.87478532489E+02  0.25640437159E+03  0.00000000000E+00 0. -1.
         -4    1    3    3    0  502 -0.29302939091E+02 -0.65508132116E+02  0.13844141959E+02  0.73086509557E+02  0.00000000000E+00 0.  1.
         11    1    5    5    0    0 -0.33596080252E+02  0.50200562882E+03  0.34096324167E+03  0.60777815043E+03  0.00000000000E+00 0.  1.
        -11    1    5    5    0    0  0.29485555304E+01  0.36087548154E+02 -0.42790647954E+00  0.36210332993E+02  0.00000000000E+00 0. -1.
          1    1    6    6  503    0  0.44804737158E+02 -0.13067223546E+02  0.23077498463E+02  0.52065225807E+02  0.00000000000E+00 0. -1.
         -1    1    6    6    0  503  0.19520068427E+03 -0.29929634847E+03  0.16612443196E+03  0.39405448639E+03  0.00000000000E+00 0.  1.
<mgrwt>
<rscale>  0 0.13443332E+04</rscale>
<asrwt>0</asrwt>
<pdfrwt beam="1">  1        1 0.74115092E-01 0.13443332E+04</pdfrwt>
<pdfrwt beam="2">  1       -1 0.14428477E+00 0.13443332E+04</pdfrwt>
<totfact> 0.17688745E+01</totfact>
</mgrwt>
</event>
<event>
12    2  0.3552864E-008  0.1232370E+04  0.7818608E-02  0.9084985E-01
          1   -1    0    0  501    0  0.00000000000E+00  0.00000000000E+00  0.71416743830E+03  0.71416743830E+03  0.00000000000E+00 0. -1.
         -1   -1    0    0    0  501 -0.00000000000E+00 -0.00000000000E+00 -0.53164576089E+03  0.53164576089E+03  0.00000000000E+00 0.  1.
         23    2    1    2    0    0 -0.77598047564E+02 -0.19623942661E+03  0.81290141111E+02  0.24477289655E+03  0.93671309927E+02 0.  0.
        254    2    1    2    0    0  0.77598047564E+02  0.19623942661E+03  0.10123153630E+03  0.10010403026E+04  0.97329465940E+03 0.  0.
         23    2    4    4    0    0 -0.34433485831E+03  0.36461556304E+03 -0.54921377598E+02  0.51243999809E+03  0.89818653241E+02 0.  0.
         23    2    4    4    0    0  0.42193290587E+03 -0.16837613643E+03  0.15615291390E+03  0.48860030455E+03  0.89267153567E+02 0.  0.
          2    1    3    3  502    0 -0.92807259231E+02 -0.11293328669E+03  0.53103615496E+02  0.15552205177E+03  0.00000000000E+00 0. -1.
         -2    1    3    3    0  502  0.15209211667E+02 -0.83306139921E+02  0.28186525615E+02  0.89250844782E+02  0.00000000000E+00 0.  1.
         11    1    5    5    0    0 -0.16994865007E+03  0.19677675283E+03  0.15206361921E+02  0.26045127674E+03  0.00000000000E+00 0.  1.
        -11    1    5    5    0    0 -0.17438620824E+03  0.16783881022E+03 -0.70127739520E+02  0.25198872135E+03  0.00000000000E+00 0. -1.
          1    1    6    6  503    0  0.15848812668E+03 -0.61155603242E+02  0.10471361560E+03  0.19955810031E+03  0.00000000000E+00 0. -1.
         -1    1    6    6    0  503  0.26344477919E+03 -0.10722053319E+03  0.51439298297E+02  0.28904220424E+03  0.00000000000E+00 0.  1.
<mgrwt>
<rscale>  0 0.12323702E+04</rscale>
<asrwt>0</asrwt>
<pdfrwt beam="1">  1        1 0.10987191E+00 0.12323702E+04</pdfrwt>
<pdfrwt beam="2">  1       -1 0.81791656E-01 0.12323702E+04</pdfrwt>
<totfact> 0.38832511E+01</totfact>
</mgrwt>
</event>
<event>
12    2  0.3552864E-008  0.1671329E+04  0.7818608E-02  0.8777887E-01
          2   -1    0    0  501    0  0.00000000000E+00  0.00000000000E+00  0.64009883115E+03  0.64009883115E+03  0.00000000000E+00 0.  1.
         -2   -1    0    0    0  501 -0.00000000000E+00 -0.00000000000E+00 -0.10909802917E+04  0.10909802917E+04  0.00000000000E+00 0. -1.
         23    2    1    2    0    0 -0.41495348889E+03 -0.40612508865E+03 -0.27444994781E+03  0.64810856692E+03  0.87166249735E+02 0.  0.
        254    2    1    2    0    0  0.41495348889E+03  0.40612508865E+03 -0.17643151278E+03  0.10829705560E+04  0.89698002251E+03 0.  0.
         23    2    4    4    0    0 -0.20303472435E+03  0.14994078571E+03 -0.29403605250E+03  0.39843535931E+03  0.92672524886E+02 0.  0.
         23    2    4    4    0    0  0.61798821324E+03  0.25618430295E+03  0.11760453972E+03  0.68453519665E+03  0.84957512371E+02 0.  0.
          4    1    3    3  502    0 -0.26121405190E+03 -0.23141483457E+03 -0.20724646084E+03  0.40587769352E+03  0.00000000000E+00 0. -1.
         -4    1    3    3    0  502 -0.15373943699E+03 -0.17471025408E+03 -0.67203486968E+02  0.24223087340E+03  0.00000000000E+00 0.  1.
         11    1    5    5    0    0 -0.98082888767E+02  0.12206244035E+03 -0.20529106247E+03  0.25819355674E+03  0.00000000000E+00 0.  1.
        -11    1    5    5    0    0 -0.10495183558E+03  0.27878345356E+02 -0.88744990023E+02  0.14024180256E+03  0.00000000000E+00 0. -1.
          1    1    6    6  503    0  0.67806118785E+02  0.33923883101E+02 -0.13068982634E+02  0.76936973533E+02  0.00000000000E+00 0. -1.
         -1    1    6    6    0  503  0.55018209446E+03  0.22226041984E+03  0.13067352235E+03  0.60759822311E+03  0.00000000000E+00 0.  1.
<mgrwt>
<rscale>  0 0.16713291E+04</rscale>
<asrwt>0</asrwt>
<pdfrwt beam="1">  1        2 0.98476744E-01 0.16713291E+04</pdfrwt>
<pdfrwt beam="2">  1       -2 0.16784312E+00 0.16713291E+04</pdfrwt>
<totfact> 0.96430863E+00</totfact>
</mgrwt>
</event>
<event>
12    2  0.3552864E-008  0.2689517E+04  0.7818608E-02  0.8338414E-01
          1   -1    0    0  501    0  0.00000000000E+00  0.00000000000E+00  0.33200313849E+04  0.33200313849E+04  0.00000000000E+00 0. -1.
         -1   -1    0    0    0  501 -0.00000000000E+00 -0.00000000000E+00 -0.54468610617E+03  0.54468610617E+03  0.00000000000E+00 0.  1.
         23    2    1    2    0    0  0.40375320863E+03 -0.11148170069E+04  0.14317552549E+04  0.18611003632E+04  0.89094555614E+02 0.  0.
        254    2    1    2    0    0 -0.40375320863E+03  0.11148170069E+04  0.13435900239E+04  0.20036171279E+04  0.89633354872E+03 0.  0.
         23    2    4    4    0    0 -0.30030608453E+03 -0.37478190998E+02  0.39398600901E+03  0.50407373595E+03  0.85305315057E+02 0.  0.
         23    2    4    4    0    0 -0.10344712409E+03  0.11522951979E+04  0.94960401486E+03  0.14995433919E+04  0.91635520880E+02 0.  0.
          4    1    3    3  502    0  0.55685828131E+02 -0.18761991717E+03  0.28722107811E+03  0.34756019980E+03  0.00000000000E+00 0.  1.
         -4    1    3    3    0  502  0.34806738049E+03 -0.92719708970E+03  0.11445341768E+04  0.15135401634E+04  0.00000000000E+00 0. -1.
         11    1    5    5    0    0 -0.12871330983E+02 -0.13526567563E+02  0.41354127112E+01  0.19124351744E+02  0.00000000000E+00 0.  1.
        -11    1    5    5    0    0 -0.28743475355E+03 -0.23951623435E+02  0.38985059630E+03  0.48494938421E+03  0.00000000000E+00 0. -1.
          2    1    6    6  503    0  0.55287382878E+01  0.92669811973E+02  0.10471336123E+03  0.13993980498E+03  0.00000000000E+00 0.  1.
         -2    1    6    6    0  503 -0.10897586238E+03  0.10596253859E+04  0.84489065364E+03  0.13596035869E+04  0.00000000000E+00 0. -1.
<mgrwt>
<rscale>  0 0.26895167E+04</rscale>
<asrwt>0</asrwt>
<pdfrwt beam="1">  1        1 0.51077405E+00 0.26895167E+04</pdfrwt>
<pdfrwt beam="2">  1       -1 0.83797865E-01 0.26895167E+04</pdfrwt>
<totfact> 0.42535760E-01</totfact>
</mgrwt>
</event>
<event>
12    2  0.3552864E-008  0.3854001E+04  0.7818608E-02  0.8034665E-01
          1   -1    0    0  501    0  0.00000000000E+00  0.00000000000E+00  0.23412725585E+04  0.23412725585E+04  0.00000000000E+00 0. -1.
         -1   -1    0    0    0  501 -0.00000000000E+00 -0.00000000000E+00 -0.15860310113E+04  0.15860310113E+04  0.00000000000E+00 0.  1.
         23    2    1    2    0    0 -0.31654052767E+03  0.14354579390E+04  0.14550488855E+04  0.20701300556E+04  0.86797394221E+02 0.  0.
        254    2    1    2    0    0  0.31654052767E+03 -0.14354579390E+04 -0.69980733827E+03  0.18571735143E+04  0.89365863238E+03 0.  0.
         23    2    4    4    0    0  0.32794855326E+03 -0.15281383471E+04 -0.54916543042E+03  0.16589020311E+04  0.87270941552E+02 0.  0.
         23    2    4    4    0    0 -0.11408025590E+02  0.92680408084E+02 -0.15064190784E+03  0.19827148325E+03  0.88875168527E+02 0.  0.
          2    1    3    3  502    0 -0.30204977518E+03  0.14059683420E+04  0.14354539484E+04  0.20318732941E+04  0.00000000000E+00 0. -1.
         -2    1    3    3    0  502 -0.14490752494E+02  0.29489596992E+02  0.19594937068E+02  0.38256761458E+02  0.00000000000E+00 0.  1.
         11    1    5    5    0    0  0.25307142102E+03 -0.10161461401E+04 -0.39149938519E+03  0.11179758006E+04  0.00000000000E+00 0. -1.
        -11    1    5    5    0    0  0.74877132239E+02 -0.51199220697E+03 -0.15766604523E+03  0.54092623041E+03  0.00000000000E+00 0.  1.
          1    1    6    6  503    0 -0.25724337773E+02 -0.81161649638E+01 -0.35274747648E+02  0.44406322851E+02  0.00000000000E+00 0. -1.
         -1    1    6    6    0  503  0.14316312183E+02  0.10079657305E+03 -0.11536716020E+03  0.15386516040E+03  0.00000000000E+00 0.  1.
<mgrwt>
<rscale>  0 0.38540010E+04</rscale>
<asrwt>0</asrwt>
<pdfrwt beam="1">  1        1 0.36019578E+00 0.38540010E+04</pdfrwt>
<pdfrwt beam="2">  1       -1 0.24400477E+00 0.38540010E+04</pdfrwt>
<totfact> 0.10540354E-01</totfact>
</mgrwt>
</event>
<event>
12    2  0.3552864E-008  0.1826098E+04  0.7818608E-02  0.8692543E-01
          2   -1    0    0  501    0  0.00000000000E+00  0.00000000000E+00  0.81067497312E+03  0.81067497312E+03  0.00000000000E+00 0. -1.
         -2   -1    0    0    0  501 -0.00000000000E+00 -0.00000000000E+00 -0.10283506845E+04  0.10283506845E+04  0.00000000000E+00 0.  1.
         23    2    1    2    0    0  0.29670585918E+03 -0.62004245106E+03 -0.57816683649E+02  0.69583934732E+03  0.91447363988E+02 0.  0.
        254    2    1    2    0    0 -0.29670585918E+03  0.62004245106E+03 -0.15985902770E+03  0.11431863103E+04  0.89935144592E+03 0.  0.
         23    2    4    4    0    0 -0.49304233399E+03  0.51290446041E+03  0.16822896164E+03  0.73654600834E+03  0.89651047089E+02 0.  0.
         23    2    4    4    0    0  0.19633647481E+03  0.10713799064E+03 -0.32808798934E+03  0.40664030193E+03  0.87681503329E+02 0.  0.
          4    1    3    3  502    0  0.27845120970E+03 -0.51240321782E+03 -0.34451467192E+02  0.58419092548E+03  0.00000000000E+00 0. -1.
         -4    1    3    3    0  502  0.18254649480E+02 -0.10763923323E+03 -0.23365216457E+02  0.11164842184E+03  0.00000000000E+00 0.  1.
         11    1    5    5    0    0 -0.44807573809E+03  0.44761290261E+03  0.17471227750E+03  0.65700346846E+03  0.00000000000E+00 0. -1.
        -11    1    5    5    0    0 -0.44966595899E+02  0.65291557798E+02 -0.64833158553E+01  0.79542539882E+02  0.00000000000E+00 0.  1.
          3    1    6    6  503    0  0.19092924255E+03  0.93994471092E+02 -0.32961572342E+03  0.39234609897E+03  0.00000000000E+00 0. -1.
         -3    1    6    6    0  503  0.54072322566E+01  0.13143519552E+02  0.15277340710E+01  0.14294202961E+02  0.00000000000E+00 0.  1.
<mgrwt>
<rscale>  0 0.18260977E+04</rscale>
<asrwt>0</asrwt>
<pdfrwt beam="1">  1        2 0.12471923E+00 0.18260977E+04</pdfrwt>
<pdfrwt beam="2">  1       -2 0.15820780E+00 0.18260977E+04</pdfrwt>
<totfact> 0.82771495E+00</totfact>
</mgrwt>
</event>
<event>
12    2  0.3552864E-008  0.2064732E+04  0.7818608E-02  0.8576941E-01
         -2   -1    0    0    0  501 -0.00000000000E+00  0.00000000000E+00  0.74825444779E+03  0.74825444779E+03  0.00000000000E+00 0.  1.
          2   -1    0    0  501    0  0.00000000000E+00 -0.00000000000E+00 -0.14243538126E+04  0.14243538126E+04  0.00000000000E+00 0. -1.
         23    2    1    2    0    0  0.50342679469E+03  0.66135933303E+03 -0.20174615036E+03  0.86025425823E+03  0.92201814696E+02 0.  0.
        254    2    1    2    0    0 -0.50342679469E+03 -0.66135933303E+03 -0.47435321449E+03  0.13123540022E+04  0.89801300099E+03 0.  0.
         23    2    4    4    0    0  0.87155803145E+02  0.10787121917E+03 -0.26927929881E+03  0.31688893475E+03  0.93139262677E+02 0.  0.
         23    2    4    4    0    0 -0.59058259783E+03 -0.76923055219E+03 -0.20507391568E+03  0.99546506743E+03  0.91607544958E+02 0.  0.
          1    1    3    3  502    0  0.15823043612E+03  0.24461279443E+03 -0.10990849915E+03  0.31137143141E+03  0.00000000000E+00 0. -1.
         -1    1    3    3    0  502  0.34519635857E+03  0.41674653860E+03 -0.91837651208E+02  0.54888282683E+03  0.00000000000E+00 0.  1.
         11    1    5    5    0    0  0.34822858583E+02  0.10928121322E+03 -0.18626745210E+03  0.21874775143E+03  0.00000000000E+00 0. -1.
        -11    1    5    5    0    0  0.52332944562E+02 -0.14099940501E+01 -0.83011846706E+02  0.98141183319E+02  0.00000000000E+00 0.  1.
          2    1    6    6  503    0 -0.48555272687E+03 -0.68412689452E+03 -0.17809652413E+03  0.85761846429E+03  0.00000000000E+00 0. -1.
         -2    1    6    6    0  503 -0.10502987096E+03 -0.85103657672E+02 -0.26977391548E+02  0.13784660315E+03  0.00000000000E+00 0.  1.
<mgrwt>
<rscale>  0 0.20647315E+04</rscale>
<asrwt>0</asrwt>
<pdfrwt beam="1">  1        2 0.21913135E+00 0.20647315E+04</pdfrwt>
<pdfrwt beam="2">  1       -2 0.11511607E+00 0.20647315E+04</pdfrwt>
<totfact> 0.76193788E+00</totfact>
</mgrwt>
</event>
<event>
12    2  0.3552864E-008  0.1087804E+04  0.7818608E-02  0.9217161E-01
         -2   -1    0    0    0  501 -0.00000000000E+00  0.00000000000E+00  0.31402783715E+03  0.31402783715E+03  0.00000000000E+00 0.  1.
          2   -1    0    0  501    0  0.00000000000E+00 -0.00000000000E+00 -0.94204797309E+03  0.94204797309E+03  0.00000000000E+00 0. -1.
         23    2    1    2    0    0 -0.12099015784E+03  0.96112216830E+02 -0.12454872407E+03  0.21835866575E+03  0.91060121474E+02 0.  0.
        254    2    1    2    0    0  0.12099015784E+03 -0.96112216830E+02 -0.50347141187E+03  0.10377171445E+04  0.89414609145E+03 0.  0.
         23    2    4    4    0    0  0.26813146797E+03  0.33431206295E+03 -0.30412116317E+03  0.53274000742E+03  0.87539671420E+02 0.  0.
         23    2    4    4    0    0 -0.14714131012E+03 -0.43042427978E+03 -0.19935024871E+03  0.50497713706E+03  0.91355139584E+02 0.  0.
          4    1    3    3  502    0 -0.11662005617E+03  0.11145616849E+03 -0.12188259209E+03  0.20218328628E+03  0.00000000000E+00 0. -1.
         -4    1    3    3    0  502 -0.43701016691E+01 -0.15343951662E+02 -0.26661319745E+01  0.16175379468E+02  0.00000000000E+00 0.  1.
         11    1    5    5    0    0  0.75584915917E+01  0.19505817269E+02 -0.42895240069E+02  0.47724305370E+02  0.00000000000E+00 0. -1.
        -11    1    5    5    0    0  0.26057297637E+03  0.31480624568E+03 -0.26122592310E+03  0.48501570205E+03  0.00000000000E+00 0.  1.
          4    1    6    6  503    0 -0.41778659661E+02 -0.26147418586E+03 -0.10975568021E+03  0.28663655665E+03  0.00000000000E+00 0.  1.
         -4    1    6    6    0  503 -0.10536265046E+03 -0.16895009392E+03 -0.89594568500E+02  0.21834058041E+03  0.00000000000E+00 0. -1.
<mgrwt>
<rscale>  0 0.10878038E+04</rscale>
<asrwt>0</asrwt>
<pdfrwt beam="1">  1        2 0.14493045E+00 0.10878038E+04</pdfrwt>
<pdfrwt beam="2">  1       -2 0.48311977E-01 0.10878038E+04</pdfrwt>
<totfact> 0.11078324E+02</totfact>
</mgrwt>
</event>
<event>
12    2  0.3552864E-008  0.1742114E+04  0.7818608E-02  0.8737703E-01
         -2   -1    0    0    0  501 -0.00000000000E+00  0.00000000000E+00  0.77365832152E+03  0.77365832152E+03  0.00000000000E+00 0.  1.
          2   -1    0    0  501    0  0.00000000000E+00 -0.00000000000E+00 -0.98071741894E+03  0.98071741894E+03  0.00000000000E+00 0. -1.
         23    2    1    2    0    0 -0.47856380085E+03 -0.13572501582E+03 -0.39835507379E+03  0.64364408086E+03  0.90257113927E+02 0.  0.
        254    2    1    2    0    0  0.47856380085E+03  0.13572501582E+03  0.19129597636E+03  0.11107316596E+04  0.97451838240E+03 0.  0.
         23    2    4    4    0    0 -0.28796022431E+03  0.94846703477E+02  0.99491709843E+01  0.31646956805E+03  0.90205396459E+02 0.  0.
         23    2    4    4    0    0  0.76652402516E+03  0.40878312347E+02  0.18134680538E+03  0.79426209155E+03  0.93463836169E+02 0.  0.
          3    1    3    3  502    0 -0.30708109102E+03 -0.11632687144E+03 -0.30123993677E+03  0.44561893696E+03  0.00000000000E+00 0. -1.
         -3    1    3    3    0  502 -0.17148270984E+03 -0.19398144386E+02 -0.97115137019E+02  0.19802514390E+03  0.00000000000E+00 0.  1.
         11    1    5    5    0    0 -0.37908530139E+02  0.17601484135E+02  0.33691005260E+02  0.53683821925E+02  0.00000000000E+00 0.  1.
        -11    1    5    5    0    0 -0.25005169417E+03  0.77245219342E+02 -0.23741834276E+02  0.26278574612E+03  0.00000000000E+00 0. -1.
          1    1    6    6  503    0  0.76176157055E+03  0.34420333705E+02  0.18612179785E+03  0.78492469281E+03  0.00000000000E+00 0. -1.
         -1    1    6    6    0  503  0.47624546149E+01  0.64579786425E+01 -0.47749924759E+01  0.93373987411E+01  0.00000000000E+00 0.  1.
<mgrwt>
<rscale>  0 0.17421139E+04</rscale>
<asrwt>0</asrwt>
<pdfrwt beam="1">  1        2 0.15087960E+00 0.17421139E+04</pdfrwt>
<pdfrwt beam="2">  1       -2 0.11902436E+00 0.17421139E+04</pdfrwt>
<totfact> 0.13322858E+01</totfact>
</mgrwt>
</event>
<event>
12    2  0.3552864E-008  0.2404899E+04  0.7818608E-02  0.8437672E-01
          2   -1    0    0  501    0  0.00000000000E+00  0.00000000000E+00  0.29507051583E+04  0.29507051583E+04  0.00000000000E+00 0. -1.
         -2   -1    0    0    0  501 -0.00000000000E+00 -0.00000000000E+00 -0.49001338325E+03  0.49001338325E+03  0.00000000000E+00 0.  1.
         23    2    1    2    0    0  0.88864070652E+03 -0.17951975714E+03  0.36045555292E+03  0.98087477338E+03  0.10137784247E+03 0.  0.
        254    2    1    2    0    0 -0.88864070652E+03  0.17951975714E+03  0.21002362222E+04  0.24598437682E+04  0.90439456353E+03 0.  0.
         23    2    4    4    0    0  0.94407734084E+02 -0.77228977453E+02  0.75869317365E+03  0.77454308103E+03  0.97079953750E+02 0.  0.
         23    2    4    4    0    0 -0.98304844061E+03  0.25674873459E+03  0.13415430485E+04  0.16853006872E+04  0.90534556100E+02 0.  0.
          1    1    3    3  502    0  0.19327807751E+03 -0.58622416272E+02  0.12163043425E+03  0.23576888148E+03  0.00000000000E+00 0. -1.
         -1    1    3    3    0  502  0.69536262901E+03 -0.12089734087E+03  0.23882511866E+03  0.74510589191E+03  0.00000000000E+00 0.  1.
         11    1    5    5    0    0  0.79609770132E+02 -0.53759785826E+02  0.72290629074E+03  0.72926081429E+03  0.00000000000E+00 0.  1.
        -11    1    5    5    0    0  0.14797963952E+02 -0.23469191626E+02  0.35786882912E+02  0.45282266742E+02  0.00000000000E+00 0. -1.
          2    1    6    6  503    0 -0.36781018542E+03  0.10761819806E+03  0.57721537637E+03  0.69285178774E+03  0.00000000000E+00 0. -1.
         -2    1    6    6    0  503 -0.61523825518E+03  0.14913053654E+03  0.76432767216E+03  0.99244889944E+03  0.00000000000E+00 0.  1.
<mgrwt>
<rscale>  0 0.24048992E+04</rscale>
<asrwt>0</asrwt>
<pdfrwt beam="1">  1        2 0.45395463E+00 0.24048992E+04</pdfrwt>
<pdfrwt beam="2">  1       -2 0.75386676E-01 0.24048992E+04</pdfrwt>
<totfact> 0.26531606E+00</totfact>
</mgrwt>
</event>
<event>
12    2  0.3552864E-008  0.3340187E+04  0.7818608E-02  0.8152744E-01
          2   -1    0    0  501    0  0.00000000000E+00  0.00000000000E+00  0.26196602609E+04  0.26196602609E+04  0.00000000000E+00 0.  1.
         -2   -1    0    0    0  501 -0.00000000000E+00 -0.00000000000E+00 -0.10647228229E+04  0.10647228229E+04  0.00000000000E+00 0. -1.
         23    2    1    2    0    0 -0.34166241047E+03 -0.49065346666E+02  0.23826173831E+04  0.24092519004E+04  0.92133134100E+02 0.  0.
        254    2    1    2    0    0  0.34166241047E+03  0.49065346666E+02 -0.82767994512E+03  0.12751311835E+04  0.90651245581E+03 0.  0.
         23    2    4    4    0    0  0.50678710952E+03  0.94282414136E+02 -0.92172282528E+03  0.10600421866E+04  0.91619445358E+02 0.  0.
         23    2    4    4    0    0 -0.16512469906E+03 -0.45217067470E+02  0.94042880156E+02  0.21508899686E+03  0.90047009007E+02 0.  0.
          2    1    3    3  502    0 -0.32771360275E+03 -0.53551370946E+02  0.23518200938E+04  0.23751466709E+04  0.00000000000E+00 0.  1.
         -2    1    3    3    0  502 -0.13948807719E+02  0.44860242802E+01  0.30797289314E+02  0.34105229507E+02  0.00000000000E+00 0. -1.
         11    1    5    5    0    0  0.24468905585E+03  0.92062881460E+02 -0.45577929966E+03  0.52543608383E+03  0.00000000000E+00 0.  1.
        -11    1    5    5    0    0  0.26209805367E+03  0.22195326755E+01 -0.46594352562E+03  0.53460610278E+03  0.00000000000E+00 0. -1.
          2    1    6    6  503    0 -0.76714721939E+02  0.22756772018E+02  0.54280032216E+02  0.96691991044E+02  0.00000000000E+00 0. -1.
         -2    1    6    6    0  503 -0.88409977119E+02 -0.67973839488E+02  0.39762847941E+02  0.11839700581E+03  0.00000000000E+00 0.  1.
<mgrwt>
<rscale>  0 0.33401869E+04</rscale>
<asrwt>0</asrwt>
<pdfrwt beam="1">  1        2 0.40302465E+00 0.33401869E+04</pdfrwt>
<pdfrwt beam="2">  1       -2 0.16380351E+00 0.33401869E+04</pdfrwt>
<totfact> 0.58251664E-01</totfact>
</mgrwt>
</event>
<event>
12    2  0.3552864E-008  0.2019776E+04  0.7818608E-02  0.8597430E-01
         -2   -1    0    0    0  501 -0.00000000000E+00  0.00000000000E+00  0.83549052354E+03  0.83549052354E+03  0.00000000000E+00 0.  1.
          2   -1    0    0  501    0  0.00000000000E+00 -0.00000000000E+00 -0.12206891033E+04  0.12206891033E+04  0.00000000000E+00 0. -1.
         23    2    1    2    0    0 -0.71046398342E+03  0.52923969966E+02 -0.44313614081E+03  0.84419313336E+03  0.93447251364E+02 0.  0.
        254    2    1    2    0    0  0.71046398342E+03 -0.52923969966E+02  0.57937561083E+02  0.12119864934E+04  0.97877192490E+03 0.  0.
         23    2    4    4    0    0  0.73638292786E+03 -0.33433122617E+03 -0.17692620729E+03  0.83305208698E+03  0.92928529372E+02 0.  0.
         23    2    4    4    0    0 -0.25918944439E+02  0.28140725620E+03  0.23486376838E+03  0.37893440646E+03  0.92565972040E+02 0.  0.
          1    1    3    3  502    0 -0.41459838315E+03  0.47078259986E+01 -0.30145111080E+03  0.51262730628E+03  0.00000000000E+00 0. -1.
         -1    1    3    3    0  502 -0.29586560026E+03  0.48216143967E+02 -0.14168503001E+03  0.33156582708E+03  0.00000000000E+00 0.  1.
         11    1    5    5    0    0  0.15638419333E+03 -0.40550002920E+02 -0.10314307272E+02  0.16188484672E+03  0.00000000000E+00 0.  1.
        -11    1    5    5    0    0  0.57999873452E+03 -0.29378122325E+03 -0.16661190002E+03  0.67116724027E+03  0.00000000000E+00 0. -1.
          4    1    6    6  503    0 -0.57562764112E+02  0.22876362140E+03  0.18928294903E+03  0.30244718726E+03  0.00000000000E+00 0. -1.
         -4    1    6    6    0  503  0.31643819673E+02  0.52643634798E+02  0.45580819343E+02  0.76487219195E+02  0.00000000000E+00 0.  1.
<mgrwt>
<rscale>  0 0.20197764E+04</rscale>
<asrwt>0</asrwt>
<pdfrwt beam="1">  1        2 0.18779832E+00 0.20197764E+04</pdfrwt>
<pdfrwt beam="2">  1       -2 0.12853700E+00 0.20197764E+04</pdfrwt>
<totfact> 0.76330506E+00</totfact>
</mgrwt>
</event>
<event>
12    2  0.3552864E-008  0.1197750E+04  0.7818608E-02  0.9114828E-01
          1   -1    0    0  501    0  0.00000000000E+00  0.00000000000E+00  0.44745084700E+03  0.44745084700E+03  0.00000000000E+00 0. -1.
         -1   -1    0    0    0  501 -0.00000000000E+00 -0.00000000000E+00 -0.80154372283E+03  0.80154372283E+03  0.00000000000E+00 0.  1.
         23    2    1    2    0    0  0.15442041342E+03 -0.10855297888E+03  0.92124475714E+02  0.22972809418E+03  0.93051947452E+02 0.  0.
        254    2    1    2    0    0 -0.15442041342E+03  0.10855297888E+03 -0.44621735154E+03  0.10192664757E+04  0.89675236842E+03 0.  0.
         23    2    4    4    0    0  0.17253829872E+03  0.96445586483E+02  0.19505691358E+03  0.29345998055E+03  0.94870147971E+02 0.  0.
         23    2    4    4    0    0 -0.32695871213E+03  0.12107392401E+02 -0.64127426512E+03  0.72580649510E+03  0.92270238088E+02 0.  0.
          1    1    3    3  502    0  0.15406718930E+03 -0.96162533342E+02  0.53750522377E+02  0.18940182231E+03  0.00000000000E+00 0. -1.
         -1    1    3    3    0  502  0.35322411329E+00 -0.12390445542E+02  0.38373953337E+02  0.40326271867E+02  0.00000000000E+00 0.  1.
         11    1    5    5    0    0  0.14954439882E+03  0.69655387730E+02  0.10206416716E+03  0.19399096494E+03  0.00000000000E+00 0. -1.
        -11    1    5    5    0    0  0.22993899895E+02  0.26790198753E+02  0.92992746420E+02  0.99469015619E+02  0.00000000000E+00 0.  1.
          4    1    6    6  503    0 -0.23081162427E+03  0.36800646215E+01 -0.35276261367E+03  0.42157918637E+03  0.00000000000E+00 0. -1.
         -4    1    6    6    0  503 -0.96147087860E+02  0.84273277793E+01 -0.28851165145E+03  0.30422730873E+03  0.00000000000E+00 0.  1.
<mgrwt>
<rscale>  0 0.11977503E+04</rscale>
<asrwt>0</asrwt>
<pdfrwt beam="1">  1        1 0.68838592E-01 0.11977503E+04</pdfrwt>
<pdfrwt beam="2">  1       -1 0.12331442E+00 0.11977503E+04</pdfrwt>
<totfact> 0.29576338E+01</totfact>
</mgrwt>
</event>
<event>
12    2  0.3552864E-008  0.2683834E+04  0.7818608E-02  0.8340270E-01
         -1   -1    0    0    0  501 -0.00000000000E+00  0.00000000000E+00  0.17495944538E+04  0.17495944538E+04  0.00000000000E+00 0.  1.
          1   -1    0    0  501    0  0.00000000000E+00 -0.00000000000E+00 -0.10292331383E+04  0.10292331383E+04  0.00000000000E+00 0. -1.
         23    2    1    2    0    0  0.88605114855E+03 -0.79285752370E+03  0.30175014938E+03  0.12285415607E+04  0.67464975521E+02 0.  0.
        254    2    1    2    0    0 -0.88605114855E+03  0.79285752370E+03  0.41861116616E+03  0.15502860314E+04  0.90246428180E+03 0.  0.
         23    2    4    4    0    0 -0.39102528334E+03  0.72692582076E+03  0.58513541797E+03  0.10158633884E+04  0.90956282966E+02 0.  0.
         23    2    4    4    0    0 -0.49502586521E+03  0.65931702935E+02 -0.16652425181E+03  0.53442264299E+03  0.92084951116E+02 0.  0.
          4    1    3    3  502    0  0.33947470134E+03 -0.34720065608E+03  0.13045471826E+03  0.50280195102E+03  0.00000000000E+00 0. -1.
         -4    1    3    3    0  502  0.54657644721E+03 -0.44565686761E+03  0.17129543112E+03  0.72573960965E+03  0.00000000000E+00 0.  1.
         11    1    5    5    0    0 -0.20770133370E+03  0.34461437884E+03  0.33512996625E+03  0.52365160976E+03  0.00000000000E+00 0. -1.
        -11    1    5    5    0    0 -0.18332394965E+03  0.38231144192E+03  0.25000545172E+03  0.49221177864E+03  0.00000000000E+00 0.  1.
          3    1    6    6  503    0 -0.18626007681E+02  0.17467397076E+02 -0.23393081213E+02  0.34630541020E+02  0.00000000000E+00 0. -1.
         -3    1    6    6    0  503 -0.47639985753E+03  0.48464305860E+02 -0.14313117060E+03  0.49979210197E+03  0.00000000000E+00 0.  1.
<mgrwt>
<rscale>  0 0.26838335E+04</rscale>
<asrwt>0</asrwt>
<pdfrwt beam="1">  1        1 0.15834356E+00 0.26838335E+04</pdfrwt>
<pdfrwt beam="2">  1       -1 0.26916838E+00 0.26838335E+04</pdfrwt>
<totfact> 0.65676144E-01</totfact>
</mgrwt>
</event>
<event>
12    2  0.3552864E-008  0.2458596E+04  0.7818608E-02  0.8417886E-01
         -2   -1    0    0    0  501 -0.00000000000E+00  0.00000000000E+00  0.12847513108E+04  0.12847513108E+04  0.00000000000E+00 0.  1.
          2   -1    0    0  501    0  0.00000000000E+00 -0.00000000000E+00 -0.11762380882E+04  0.11762380882E+04  0.00000000000E+00 0. -1.
         23    2    1    2    0    0  0.78415545339E+03 -0.40742788275E+03  0.63612536067E+03  0.10926842789E+04  0.91685354093E+02 0.  0.
        254    2    1    2    0    0 -0.78415545339E+03  0.40742788275E+03 -0.52761213805E+03  0.13683051201E+04  0.90165796113E+03 0.  0.
         23    2    4    4    0    0 -0.48872179085E+03 -0.22513372809E+03 -0.32807625219E+03  0.63682268069E+03  0.91514561821E+02 0.  0.
         23    2    4    4    0    0 -0.29543366255E+03  0.63256161084E+03 -0.19953588586E+03  0.73148243945E+03  0.88525414433E+02 0.  0.
          3    1    3    3  502    0  0.16210654994E+03 -0.54773490555E+02  0.93042178558E+02  0.19477041816E+03  0.00000000000E+00 0. -1.
         -3    1    3    3    0  502  0.62204890345E+03 -0.35265439219E+03  0.54308318211E+03  0.89791386075E+03  0.00000000000E+00 0.  1.
         11    1    5    5    0    0 -0.27430194954E+03 -0.85371682399E+02 -0.20429695167E+03  0.35251542965E+03  0.00000000000E+00 0.  1.
        -11    1    5    5    0    0 -0.21441984131E+03 -0.13976204569E+03 -0.12377930051E+03  0.28430725105E+03  0.00000000000E+00 0. -1.
          2    1    6    6  503    0 -0.23304610646E+03  0.56775892501E+03 -0.17079312939E+03  0.63704864627E+03  0.00000000000E+00 0. -1.
         -2    1    6    6    0  503 -0.62387556082E+02  0.64802685831E+02 -0.28742756464E+02  0.94433793178E+02  0.00000000000E+00 0.  1.
<mgrwt>
<rscale>  0 0.24585959E+04</rscale>
<asrwt>0</asrwt>
<pdfrwt beam="1">  1        2 0.18095971E+00 0.24585959E+04</pdfrwt>
<pdfrwt beam="2">  1       -2 0.19765405E+00 0.24585959E+04</pdfrwt>
<totfact> 0.24140485E+00</totfact>
</mgrwt>
</event>
<event>
12    2  0.3552864E-008  0.2275217E+04  0.7818608E-02  0.8487757E-01
          1   -1    0    0  501    0  0.00000000000E+00  0.00000000000E+00  0.18938764272E+04  0.18938764272E+04  0.00000000000E+00 0. -1.
         -1   -1    0    0    0  501 -0.00000000000E+00 -0.00000000000E+00 -0.68333550235E+03  0.68333550235E+03  0.00000000000E+00 0.  1.
         23    2    1    2    0    0  0.69670969011E+03 -0.65420987478E+03  0.48247542805E+03  0.10744793108E+04  0.91259510013E+02 0.  0.
        254    2    1    2    0    0 -0.69670969011E+03  0.65420987478E+03  0.72806549681E+03  0.15027326187E+04  0.90262450844E+03 0.  0.
         23    2    4    4    0    0 -0.70080114423E+03  0.52415113673E+03  0.90667160896E+03  0.12634143030E+04  0.91135265738E+02 0.  0.
         23    2    4    4    0    0  0.40914541284E+01  0.13005873804E+03 -0.17860611215E+03  0.23931831573E+03  0.91875446182E+02 0.  0.
          4    1    3    3  502    0  0.57490005882E+03 -0.57328292059E+03  0.43271607877E+03  0.92000358124E+03  0.00000000000E+00 0. -1.
         -4    1    3    3    0  502  0.12180963129E+03 -0.80926954184E+02  0.49759349273E+02  0.15447572958E+03  0.00000000000E+00 0.  1.
         11    1    5    5    0    0 -0.15462009324E+03  0.13480578241E+03  0.26546129830E+03  0.33548423674E+03  0.00000000000E+00 0.  1.
        -11    1    5    5    0    0 -0.54618105099E+03  0.38934535432E+03  0.64121031066E+03  0.92793006627E+03  0.00000000000E+00 0. -1.
          2    1    6    6  503    0  0.43747444126E+02  0.83760578148E+02 -0.13315818389E+03  0.16328127650E+03  0.00000000000E+00 0. -1.
         -2    1    6    6    0  503 -0.39655989998E+02  0.46298159897E+02 -0.45447928260E+02  0.76037039235E+02  0.00000000000E+00 0.  1.
<mgrwt>
<rscale>  0 0.22752169E+04</rscale>
<asrwt>0</asrwt>
<pdfrwt beam="1">  1        1 0.29136560E+00 0.22752169E+04</pdfrwt>
<pdfrwt beam="2">  1       -1 0.10512854E+00 0.22752169E+04</pdfrwt>
<totfact> 0.27045368E+00</totfact>
</mgrwt>
</event>
<event>
12    2  0.3552864E-008  0.3048673E+04  0.7818608E-02  0.8229967E-01
          2   -1    0    0  501    0  0.00000000000E+00  0.00000000000E+00  0.46024393275E+04  0.46024393275E+04  0.00000000000E+00 0. -1.
         -2   -1    0    0    0  501 -0.00000000000E+00 -0.00000000000E+00 -0.50486300889E+03  0.50486300889E+03  0.00000000000E+00 0.  1.
         23    2    1    2    0    0  0.86021851544E+03 -0.55554293302E+02  0.36991266958E+04  0.37993751207E+04  0.93009798548E+02 0.  0.
        254    2    1    2    0    0 -0.86021851544E+03  0.55554293302E+02  0.39844962277E+03  0.13079272156E+04  0.89936050927E+03 0.  0.
         23    2    4    4    0    0 -0.38380827976E+03  0.34205680491E+03 -0.12699954949E+03  0.53748502729E+03  0.91921790627E+02 0.  0.
         23    2    4    4    0    0 -0.47641023569E+03 -0.28650251161E+03  0.52544917225E+03  0.77044218832E+03  0.91836436662E+02 0.  0.
          2    1    3    3  502    0  0.14788891452E+03 -0.17910221846E+02  0.50191770876E+03  0.52355829996E+03  0.00000000000E+00 0.  1.
         -2    1    3    3    0  502  0.71232960093E+03 -0.37644071456E+02  0.31972089871E+04  0.32758168208E+04  0.00000000000E+00 0. -1.
         11    1    5    5    0    0 -0.30940271427E+03  0.29414866996E+03 -0.13717039380E+03  0.44840740022E+03  0.00000000000E+00 0.  1.
        -11    1    5    5    0    0 -0.74405565482E+02  0.47908134952E+02  0.10170844314E+02  0.89077627064E+02  0.00000000000E+00 0. -1.
          2    1    6    6  503    0 -0.37604360244E+03 -0.23965312945E+03  0.46500340793E+03  0.64425971687E+03  0.00000000000E+00 0.  1.
         -2    1    6    6    0  503 -0.10036663325E+03 -0.46849382163E+02  0.60445764326E+02  0.12618247146E+03  0.00000000000E+00 0. -1.
<mgrwt>
<rscale>  0 0.30486727E+04</rscale>
<asrwt>0</asrwt>
<pdfrwt beam="1">  1        2 0.70806756E+00 0.30486727E+04</pdfrwt>
<pdfrwt beam="2">  1       -2 0.77671235E-01 0.30486727E+04</pdfrwt>
<totfact> 0.12219467E-01</totfact>
</mgrwt>
</event>
<event>
12    2  0.3552864E-008  0.1519263E+04  0.7818608E-02  0.8871743E-01
          2   -1    0    0  501    0  0.00000000000E+00  0.00000000000E+00  0.13701050862E+04  0.13701050862E+04  0.00000000000E+00 0. -1.
         -2   -1    0    0    0  501 -0.00000000000E+00 -0.00000000000E+00 -0.42116495099E+03  0.42116495099E+03  0.00000000000E+00 0.  1.
         23    2    1    2    0    0  0.11497968573E+03 -0.36230720415E+03  0.65242914209E+03  0.76561097893E+03  0.12652883976E+03 0.  0.
        254    2    1    2    0    0 -0.11497968573E+03  0.36230720415E+03  0.29651099307E+03  0.10256590582E+04  0.90530154997E+03 0.  0.
         23    2    4    4    0    0  0.34619653944E+03  0.31420088607E+03  0.27865124116E+03  0.55185037941E+03  0.91203543418E+02 0.  0.
         23    2    4    4    0    0 -0.46117622517E+03  0.48106318084E+02  0.17859751911E+02  0.47380867880E+03  0.95801695555E+02 0.  0.
          1    1    3    3  502    0  0.32440776204E+02 -0.19805190033E+03  0.23205325203E+03  0.30679907262E+03  0.00000000000E+00 0. -1.
         -1    1    3    3    0  502  0.82538909529E+02 -0.16425530382E+03  0.42037589007E+03  0.45881190631E+03  0.00000000000E+00 0.  1.
         11    1    5    5    0    0  0.98428045505E+02  0.51746916468E+02  0.35793881031E+02  0.11682048376E+03  0.00000000000E+00 0.  1.
        -11    1    5    5    0    0  0.24776849393E+03  0.26245396960E+03  0.24285736013E+03  0.43502989565E+03  0.00000000000E+00 0. -1.
          2    1    6    6  503    0 -0.18489416218E+03 -0.27283944689E+02  0.13651796608E+02  0.18739433395E+03  0.00000000000E+00 0.  1.
         -2    1    6    6    0  503 -0.27628206299E+03  0.75390262773E+02  0.42079553036E+01  0.28641434486E+03  0.00000000000E+00 0. -1.
<mgrwt>
<rscale>  0 0.15192633E+04</rscale>
<asrwt>0</asrwt>
<pdfrwt beam="1">  1        2 0.21078540E+00 0.15192633E+04</pdfrwt>
<pdfrwt beam="2">  1       -2 0.64794609E-01 0.15192633E+04</pdfrwt>
<totfact> 0.31923925E+01</totfact>
</mgrwt>
</event>
<event>
12    2  0.3552864E-008  0.1560394E+04  0.7818608E-02  0.8845256E-01
         -2   -1    0    0    0  501 -0.00000000000E+00  0.00000000000E+00  0.64918745310E+03  0.64918745310E+03  0.00000000000E+00 0.  1.
          2   -1    0    0  501    0  0.00000000000E+00 -0.00000000000E+00 -0.93764445015E+03  0.93764445015E+03  0.00000000000E+00 0. -1.
         23    2    1    2    0    0  0.65242849286E+02  0.62930297765E+02 -0.60777187497E+03  0.62255277609E+03  0.99842151671E+02 0.  0.
        254    2    1    2    0    0 -0.65242849286E+02 -0.62930297765E+02  0.31931487792E+03  0.96427912715E+03  0.90534821591E+03 0.  0.
         23    2    4    4    0    0 -0.94460451256E+02  0.34343943235E+03  0.39307885711E+03  0.53813610922E+03  0.90587325838E+02 0.  0.
         23    2    4    4    0    0  0.29217601970E+02 -0.40636973011E+03 -0.73763979190E+02  0.42614301793E+03  0.10083016061E+03 0.  0.
          4    1    3    3  502    0  0.69078623381E+02  0.76333524905E+02 -0.59435110345E+03  0.60320137385E+03  0.00000000000E+00 0. -1.
         -4    1    3    3    0  502 -0.38357740951E+01 -0.13403227140E+02 -0.13420771518E+02  0.19351402244E+02  0.00000000000E+00 0.  1.
         11    1    5    5    0    0 -0.23791000573E+02  0.11962225537E+03  0.76242306240E+02  0.14383457494E+03  0.00000000000E+00 0. -1.
        -11    1    5    5    0    0 -0.70669450683E+02  0.22381717697E+03  0.31683655087E+03  0.39430153428E+03  0.00000000000E+00 0.  1.
          2    1    6    6  503    0  0.90124140315E+01 -0.80574095540E+02  0.25449282226E+02  0.84976905360E+02  0.00000000000E+00 0. -1.
         -2    1    6    6    0  503  0.20205187938E+02 -0.32579563457E+03 -0.99213261417E+02  0.34116611257E+03  0.00000000000E+00 0.  1.
<mgrwt>
<rscale>  0 0.15603936E+04</rscale>
<asrwt>0</asrwt>
<pdfrwt beam="1">  1        2 0.14425299E+00 0.15603936E+04</pdfrwt>
<pdfrwt beam="2">  1       -2 0.99874994E-01 0.15603936E+04</pdfrwt>
<totfact> 0.22049557E+01</totfact>
</mgrwt>
</event>
<event>
12    2  0.3552864E-008  0.1533291E+04  0.7818608E-02  0.8862612E-01
         -2   -1    0    0    0  501 -0.00000000000E+00  0.00000000000E+00  0.19419915977E+03  0.19419915977E+03  0.00000000000E+00 0.  1.
          2   -1    0    0  501    0  0.00000000000E+00 -0.00000000000E+00 -0.30265076784E+04  0.30265076784E+04  0.00000000000E+00 0. -1.
         23    2    1    2    0    0  0.16748704077E+03  0.33452462197E+03 -0.25298819111E+03  0.46131780470E+03  0.94087515421E+02 0.  0.
        254    2    1    2    0    0 -0.16748704077E+03 -0.33452462197E+03 -0.25793203275E+04  0.27593890334E+04  0.90629788398E+03 0.  0.
         23    2    4    4    0    0 -0.49403621245E+03  0.28995992188E+01 -0.13649846292E+04  0.14544251310E+04  0.89940184656E+02 0.  0.
         23    2    4    4    0    0  0.32654917168E+03 -0.33742422119E+03 -0.12143356983E+04  0.13049639024E+04  0.88488032899E+02 0.  0.
          2    1    3    3  502    0 -0.11587007732E+02  0.10989544239E+02 -0.10070978517E+02  0.18879974551E+02  0.00000000000E+00 0. -1.
         -2    1    3    3    0  502  0.17907404851E+03  0.32353507773E+03 -0.24291721259E+03  0.44243783015E+03  0.00000000000E+00 0.  1.
         11    1    5    5    0    0 -0.16776610851E+03 -0.71623652193E+01 -0.59172821374E+03  0.61509271299E+03  0.00000000000E+00 0. -1.
        -11    1    5    5    0    0 -0.32627010394E+03  0.10061964438E+02 -0.77325641551E+03  0.83933241805E+03  0.00000000000E+00 0.  1.
          2    1    6    6  503    0  0.46144253600E+02 -0.10049698471E+03 -0.26776668223E+03  0.28970317946E+03  0.00000000000E+00 0. -1.
         -2    1    6    6    0  503  0.28040491808E+03 -0.23692723648E+03 -0.94656901604E+03  0.10152607230E+04  0.00000000000E+00 0.  1.
<mgrwt>
<rscale>  0 0.15332909E+04</rscale>
<asrwt>0</asrwt>
<pdfrwt beam="1">  1        2 0.46561655E+00 0.15332909E+04</pdfrwt>
<pdfrwt beam="2">  1       -2 0.29876795E-01 0.15332909E+04</pdfrwt>
<totfact> 0.16806819E+01</totfact>
</mgrwt>
</event>
<event>
12    2  0.3552864E-008  0.2506637E+04  0.7818608E-02  0.8400625E-01
          2   -1    0    0  501    0  0.00000000000E+00  0.00000000000E+00  0.19923433351E+04  0.19923433351E+04  0.00000000000E+00 0. -1.
         -2   -1    0    0    0  501 -0.00000000000E+00 -0.00000000000E+00 -0.78842170970E+03  0.78842170970E+03  0.00000000000E+00 0.  1.
         23    2    1    2    0    0 -0.15857397830E+03 -0.25868827858E+03 -0.63669653836E+03  0.71085296759E+03  0.88679915970E+02 0.  0.
        254    2    1    2    0    0  0.15857397830E+03  0.25868827858E+03  0.18406181638E+04  0.20699120772E+04  0.89699244731E+03 0.  0.
         23    2    4    4    0    0  0.14996684911E+03 -0.26185164571E+03  0.11936938626E+04  0.12346165832E+04  0.91196105329E+02 0.  0.
         23    2    4    4    0    0  0.86071291939E+01  0.52053992429E+03  0.64692430118E+03  0.83529549405E+03  0.90396988229E+02 0.  0.
          1    1    3    3  502    0 -0.10791580677E+03 -0.22170713100E+03 -0.55923937217E+03  0.61118618167E+03  0.00000000000E+00 0. -1.
         -1    1    3    3    0  502 -0.50658171534E+02 -0.36981147587E+02 -0.77457166198E+02  0.99666785919E+02  0.00000000000E+00 0.  1.
         11    1    5    5    0    0  0.11009695839E+03 -0.14708460345E+03  0.86224628987E+03  0.88160302019E+03  0.00000000000E+00 0.  1.
        -11    1    5    5    0    0  0.39869890721E+02 -0.11476704226E+03  0.33144757275E+03  0.35301356300E+03  0.00000000000E+00 0. -1.
          3    1    6    6  503    0 -0.91341547366E+01  0.51107112091E+02  0.11155330671E+03  0.12304271586E+03  0.00000000000E+00 0. -1.
         -3    1    6    6    0  503  0.17741283930E+02  0.46943281220E+03  0.53537099447E+03  0.71225277819E+03  0.00000000000E+00 0.  1.
<mgrwt>
<rscale>  0 0.25066366E+04</rscale>
<asrwt>0</asrwt>
<pdfrwt beam="1">  1        2 0.30651436E+00 0.25066366E+04</pdfrwt>
<pdfrwt beam="2">  1       -2 0.12129565E+00 0.25066366E+04</pdfrwt>
<totfact> 0.31093329E+00</totfact>
</mgrwt>
</event>
<event>
12    2  0.3552864E-008  0.1505031E+04  0.7818608E-02  0.8881114E-01
          1   -1    0    0  501    0  0.00000000000E+00  0.00000000000E+00  0.64344886419E+03  0.64344886419E+03  0.00000000000E+00 0. -1.
         -1   -1    0    0    0  501 -0.00000000000E+00 -0.00000000000E+00 -0.88006951099E+03  0.88006951099E+03  0.00000000000E+00 0.  1.
         23    2    1    2    0    0 -0.24469385146E+03 -0.34287564146E+03 -0.29479357946E+03  0.52188970805E+03  0.89592557937E+02 0.  0.
        254    2    1    2    0    0  0.24469385146E+03  0.34287564146E+03  0.58172932656E+02  0.10016286671E+04  0.90688318447E+03 0.  0.
         23    2    4    4    0    0  0.26782772209E+03  0.46651377827E+03  0.36572378455E+03  0.65683750692E+03  0.91185688990E+02 0.  0.
         23    2    4    4    0    0 -0.23133870630E+02 -0.12363813681E+03 -0.30755085189E+03  0.34479116021E+03  0.92042668453E+02 0.  0.
          1    1    3    3  502    0 -0.45446296530E+01 -0.35568073099E+02 -0.54543303817E+01  0.36269700889E+02  0.00000000000E+00 0. -1.
         -1    1    3    3    0  502 -0.24014922180E+03 -0.30730756836E+03 -0.28933924907E+03  0.48562000716E+03  0.00000000000E+00 0.  1.
         11    1    5    5    0    0  0.23811407934E+03  0.45435273174E+03  0.33703389623E+03  0.61378055267E+03  0.00000000000E+00 0. -1.
        -11    1    5    5    0    0  0.29713642744E+02  0.12161046526E+02  0.28689888313E+02  0.43056954248E+02  0.00000000000E+00 0.  1.
          3    1    6    6  503    0 -0.14923460703E+02 -0.10309116542E+03 -0.30526350202E+03  0.32254659157E+03  0.00000000000E+00 0. -1.
         -3    1    6    6    0  503 -0.82104099276E+01 -0.20546971396E+02 -0.22873498718E+01  0.22244568644E+02  0.00000000000E+00 0.  1.
<mgrwt>
<rscale>  0 0.15050312E+04</rscale>
<asrwt>0</asrwt>
<pdfrwt beam="1">  1        1 0.98992133E-01 0.15050312E+04</pdfrwt>
<pdfrwt beam="2">  1       -1 0.13539531E+00 0.15050312E+04</pdfrwt>
<totfact> 0.13670878E+01</totfact>
</mgrwt>
</event>
<event>
12    2  0.3552864E-008  0.1501633E+04  0.7818608E-02  0.8883367E-01
          1   -1    0    0  501    0  0.00000000000E+00  0.00000000000E+00  0.76403545415E+03  0.76403545415E+03  0.00000000000E+00 0. -1.
         -1   -1    0    0    0  501 -0.00000000000E+00 -0.00000000000E+00 -0.73782661203E+03  0.73782661203E+03  0.00000000000E+00 0.  1.
         23    2    1    2    0    0 -0.43644285711E+03  0.98709195497E+02 -0.12967453522E+03  0.47443357360E+03  0.89698706078E+02 0.  0.
        254    2    1    2    0    0  0.43644285711E+03 -0.98709195497E+02  0.15588337734E+03  0.10274284926E+04  0.91163798037E+03 0.  0.
         23    2    4    4    0    0 -0.92393138507E+02  0.13248873299E+03 -0.25244263187E+03  0.31413437791E+03  0.94145465047E+02 0.  0.
         23    2    4    4    0    0  0.52883599562E+03 -0.23119792849E+03  0.40832600921E+03  0.71329411467E+03  0.94542962874E+02 0.  0.
          4    1    3    3  502    0 -0.26902297237E+03  0.68465424950E+02 -0.35168382773E+02  0.27981724254E+03  0.00000000000E+00 0. -1.
         -4    1    3    3    0  502 -0.16741988475E+03  0.30243770547E+02 -0.94506152444E+02  0.19461633106E+03  0.00000000000E+00 0.  1.
         11    1    5    5    0    0 -0.64404354147E+01 -0.12842194409E+02 -0.63975473483E+01  0.15726721770E+02  0.00000000000E+00 0. -1.
        -11    1    5    5    0    0 -0.85952703092E+02  0.14533092740E+03 -0.24604508452E+03  0.29840765614E+03  0.00000000000E+00 0.  1.
          2    1    6    6  503    0  0.28837543633E+02  0.69710648779E+01  0.32413937924E+02  0.43941586681E+02  0.00000000000E+00 0. -1.
         -2    1    6    6    0  503  0.49999845199E+03 -0.23816899337E+03  0.37591207128E+03  0.66935252799E+03  0.00000000000E+00 0.  1.
<mgrwt>
<rscale>  0 0.15016334E+04</rscale>
<asrwt>0</asrwt>
<pdfrwt beam="1">  1        1 0.11754392E+00 0.15016334E+04</pdfrwt>
<pdfrwt beam="2">  1       -1 0.11351179E+00 0.15016334E+04</pdfrwt>
<totfact> 0.16300939E+01</totfact>
</mgrwt>
</event>
<event>
12    2  0.3552864E-008  0.2079411E+04  0.7818608E-02  0.8570368E-01
          2   -1    0    0  501    0  0.00000000000E+00  0.00000000000E+00  0.23972667117E+04  0.23972667117E+04  0.00000000000E+00 0. -1.
         -2   -1    0    0    0  501 -0.00000000000E+00 -0.00000000000E+00 -0.45092486339E+03  0.45092486339E+03  0.00000000000E+00 0.  1.
         23    2    1    2    0    0 -0.25078076341E+03  0.59426668296E+03  0.54367637500E+02  0.65390137132E+03  0.92667586770E+02 0.  0.
        254    2    1    2    0    0  0.25078076341E+03 -0.59426668296E+03  0.18919742108E+04  0.21942902037E+04  0.90515148023E+03 0.  0.
         23    2    4    4    0    0  0.35285401806E+03 -0.76446061894E+03  0.17150785596E+04  0.19127977612E+04  0.91623214919E+02 0.  0.
         23    2    4    4    0    0 -0.10207325465E+03  0.17019393598E+03  0.17689565118E+03  0.28149244258E+03  0.92525664889E+02 0.  0.
          1    1    3    3  502    0 -0.80618752362E+02  0.98529323986E+02  0.42021438030E+01  0.12737766260E+03  0.00000000000E+00 0. -1.
         -1    1    3    3    0  502 -0.17016201104E+03  0.49573735898E+03  0.50165493697E+02  0.52652370872E+03  0.00000000000E+00 0.  1.
         11    1    5    5    0    0  0.19453805969E+02 -0.82946893323E+02  0.22718700335E+03  0.24263670820E+03  0.00000000000E+00 0. -1.
        -11    1    5    5    0    0  0.33340021209E+03 -0.68151372562E+03  0.14878915563E+04  0.16701610530E+04  0.00000000000E+00 0.  1.
          1    1    6    6  503    0  0.58121003940E+01 -0.55224694192E+01  0.22543577954E+02  0.23926785962E+02  0.00000000000E+00 0. -1.
         -1    1    6    6    0  503 -0.10788535504E+03  0.17571640540E+03  0.15435207323E+03  0.25756565662E+03  0.00000000000E+00 0.  1.
<mgrwt>
<rscale>  0 0.20794107E+04</rscale>
<asrwt>0</asrwt>
<pdfrwt beam="1">  1        2 0.36881025E+00 0.20794107E+04</pdfrwt>
<pdfrwt beam="2">  1       -2 0.69373057E-01 0.20794107E+04</pdfrwt>
<totfact> 0.69835539E+00</totfact>
</mgrwt>
</event>
<event>
12    2  0.3552864E-008  0.1096168E+04  0.7818608E-02  0.9208935E-01
          1   -1    0    0  501    0  0.00000000000E+00  0.00000000000E+00  0.15175986623E+03  0.15175986623E+03  0.00000000000E+00 0. -1.
         -1   -1    0    0    0  501 -0.00000000000E+00 -0.00000000000E+00 -0.19794169512E+04  0.19794169512E+04  0.00000000000E+00 0.  1.
         23    2    1    2    0    0  0.87915777035E+02 -0.88422049873E+02 -0.46525124798E+03  0.49086844103E+03  0.94580441396E+02 0.  0.
        254    2    1    2    0    0 -0.87915777035E+02  0.88422049873E+02 -0.13624058369E+04  0.16403083764E+04  0.90493881687E+03 0.  0.
         23    2    4    4    0    0  0.13423295898E+03  0.43973678565E+03 -0.54731855747E+03  0.72072683635E+03  0.92209768185E+02 0.  0.
         23    2    4    4    0    0 -0.22214873602E+03 -0.35131473578E+03 -0.81508727948E+03  0.91958154002E+03  0.92145705726E+02 0.  0.
          3    1    3    3  502    0  0.39263919149E+02 -0.29187717089E+02 -0.55398437527E+02  0.73909167606E+02  0.00000000000E+00 0. -1.
         -3    1    3    3    0  502  0.48651857886E+02 -0.59234332785E+02 -0.40985281045E+03  0.41695927342E+03  0.00000000000E+00 0.  1.
         11    1    5    5    0    0  0.12411505953E+03  0.33957790408E+03 -0.47419084016E+03  0.59630080817E+03  0.00000000000E+00 0. -1.
        -11    1    5    5    0    0  0.10117899448E+02  0.10015888157E+03 -0.73127717310E+02  0.12442602817E+03  0.00000000000E+00 0.  1.
          3    1    6    6  503    0 -0.19203101251E+03 -0.31526077931E+03 -0.77252709830E+03  0.85619120899E+03  0.00000000000E+00 0. -1.
         -3    1    6    6    0  503 -0.30117723503E+02 -0.36053956471E+02 -0.42560181175E+02  0.63390331028E+02  0.00000000000E+00 0.  1.
<mgrwt>
<rscale>  0 0.10961680E+04</rscale>
<asrwt>0</asrwt>
<pdfrwt beam="1">  1        1 0.23347672E-01 0.10961680E+04</pdfrwt>
<pdfrwt beam="2">  1       -1 0.30452568E+00 0.10961680E+04</pdfrwt>
<totfact> 0.66399834E+00</totfact>
</mgrwt>
</event>
<event>
12    2  0.3552864E-008  0.1839982E+04  0.7818608E-02  0.8685322E-01
          1   -1    0    0  501    0  0.00000000000E+00  0.00000000000E+00  0.21271699547E+04  0.21271699547E+04  0.00000000000E+00 0. -1.
         -1   -1    0    0    0  501 -0.00000000000E+00 -0.00000000000E+00 -0.39789158343E+03  0.39789158343E+03  0.00000000000E+00 0.  1.
         23    2    1    2    0    0  0.15616956944E+03 -0.12517771727E+03  0.15671576856E+04  0.15825512684E+04  0.91798204172E+02 0.  0.
        254    2    1    2    0    0 -0.15616956944E+03  0.12517771727E+03  0.16212068568E+03  0.94251026973E+03  0.90663338594E+03 0.  0.
         23    2    4    4    0    0 -0.39241768510E+03  0.35410274466E+03  0.24715417243E+03  0.59055324891E+03  0.91036045056E+02 0.  0.
         23    2    4    4    0    0  0.23624811566E+03 -0.22892502738E+03 -0.85033486743E+02  0.35195702082E+03  0.91778049220E+02 0.  0.
          4    1    3    3  502    0  0.11666664436E+02 -0.60638440474E+02  0.46938808443E+03  0.47343247177E+03  0.00000000000E+00 0. -1.
         -4    1    3    3    0  502  0.14450290501E+03 -0.64539276798E+02  0.10977696012E+04  0.11091187966E+04  0.00000000000E+00 0.  1.
         11    1    5    5    0    0 -0.30905862124E+03  0.28364963215E+03  0.23474207106E+03  0.48070592372E+03  0.00000000000E+00 0. -1.
        -11    1    5    5    0    0 -0.83359063869E+02  0.70453112507E+02  0.12412101367E+02  0.10984732519E+03  0.00000000000E+00 0.  1.
          3    1    6    6  503    0  0.13001240365E+03 -0.98510556995E+02 -0.84592572391E+02  0.18374835577E+03  0.00000000000E+00 0. -1.
         -3    1    6    6    0  503  0.10623571201E+03 -0.13041447039E+03 -0.44091435168E+00  0.16820866505E+03  0.00000000000E+00 0.  1.
<mgrwt>
<rscale>  0 0.18399815E+04</rscale>
<asrwt>0</asrwt>
<pdfrwt beam="1">  1        1 0.32725691E+00 0.18399815E+04</pdfrwt>
<pdfrwt beam="2">  1       -1 0.61214091E-01 0.18399815E+04</pdfrwt>
<totfact> 0.62174681E+00</totfact>
</mgrwt>
</event>
<event>
12    2  0.3552864E-008  0.2235610E+04  0.7818608E-02  0.8503751E-01
         -2   -1    0    0    0  501 -0.00000000000E+00  0.00000000000E+00  0.63838019645E+03  0.63838019645E+03  0.00000000000E+00 0. -1.
          2   -1    0    0  501    0  0.00000000000E+00 -0.00000000000E+00 -0.19572784465E+04  0.19572784465E+04  0.00000000000E+00 0.  1.
         23    2    1    2    0    0  0.74722945187E+03  0.63499863224E+01 -0.12039881440E+04  0.14200051209E+04  0.91841801225E+02 0.  0.
        254    2    1    2    0    0 -0.74722945187E+03 -0.63499863224E+01 -0.11491010606E+03  0.11756535220E+04  0.90031366498E+03 0.  0.
         23    2    4    4    0    0  0.13688420397E+03  0.18440385224E+03  0.49246056431E+02  0.25213619834E+03  0.91681090856E+02 0.  0.
         23    2    4    4    0    0 -0.88411365584E+03 -0.19075383857E+03 -0.16415616249E+03  0.92351732370E+03  0.88842659392E+02 0.  0.
          4    1    3    3  502    0  0.48592468345E+01  0.65182181471E+00 -0.34042783955E+02  0.34394015335E+02  0.00000000000E+00 0. -1.
         -4    1    3    3    0  502  0.74237020504E+03  0.56981645077E+01 -0.11699453600E+04  0.13856111056E+04  0.00000000000E+00 0.  1.
         11    1    5    5    0    0  0.51630023440E+01  0.44324371871E+00 -0.15871143708E+02  0.16695695876E+02  0.00000000000E+00 0. -1.
        -11    1    5    5    0    0  0.13172120162E+03  0.18396060853E+03  0.65117200138E+02  0.23544050246E+03  0.00000000000E+00 0.  1.
          2    1    6    6  503    0 -0.65711291950E+02  0.82674440333E+01 -0.18467581815E+02  0.68755916826E+02  0.00000000000E+00 0. -1.
         -2    1    6    6    0  503 -0.81840236389E+03 -0.19902128260E+03 -0.14568858067E+03  0.85476140688E+03  0.00000000000E+00 0.  1.
<mgrwt>
<rscale>  0 0.22356098E+04</rscale>
<asrwt>0</asrwt>
<pdfrwt beam="1">  1        2 0.30111975E+00 0.22356098E+04</pdfrwt>
<pdfrwt beam="2">  1       -2 0.98212340E-01 0.22356098E+04</pdfrwt>
<totfact> 0.55436357E+00</totfact>
</mgrwt>
</event>
<event>
12    2  0.3552864E-008  0.2586186E+04  0.7818608E-02  0.8372909E-01
          1   -1    0    0  501    0  0.00000000000E+00  0.00000000000E+00  0.11666846442E+04  0.11666846442E+04  0.00000000000E+00 0. -1.
         -1   -1    0    0    0  501 -0.00000000000E+00 -0.00000000000E+00 -0.14331977300E+04  0.14331977300E+04  0.00000000000E+00 0.  1.
         23    2    1    2    0    0 -0.96403062019E+01  0.29964429811E+03 -0.12147138051E+04  0.12572693085E+04  0.12376124114E+03 0.  0.
        254    2    1    2    0    0  0.96403062019E+01 -0.29964429811E+03  0.94820071933E+03  0.13426130658E+04  0.90202305922E+03 0.  0.
         23    2    4    4    0    0  0.76722521343E+02  0.30582727242E+03  0.25612288544E+03  0.41640084475E+03  0.91509918731E+02 0.  0.
         23    2    4    4    0    0 -0.67082215141E+02 -0.60547157052E+03  0.69207783388E+03  0.92621222102E+03  0.88326122565E+02 0.  0.
          4    1    3    3  502    0 -0.54443798502E+02  0.77305841778E+02 -0.28435404452E+03  0.29966238170E+03  0.00000000000E+00 0. -1.
         -4    1    3    3    0  502  0.44803492300E+02  0.22233845633E+03 -0.93035976057E+03  0.95760692676E+03  0.00000000000E+00 0.  1.
         11    1    5    5    0    0  0.86198634899E+02  0.30603921835E+03  0.25330015213E+03  0.40651097759E+03  0.00000000000E+00 0. -1.
        -11    1    5    5    0    0 -0.94761135560E+01 -0.21194593373E+00  0.28227333113E+01  0.98898671655E+01  0.00000000000E+00 0.  1.
          1    1    6    6  503    0 -0.79214848699E+02 -0.54494494882E+03  0.59110540529E+03  0.80786483378E+03  0.00000000000E+00 0. -1.
         -1    1    6    6    0  503  0.12132633558E+02 -0.60526621704E+02  0.10097242859E+03  0.11834738724E+03  0.00000000000E+00 0.  1.
<mgrwt>
<rscale>  0 0.25861862E+04</rscale>
<asrwt>0</asrwt>
<pdfrwt beam="1">  1        1 0.17948995E+00 0.25861862E+04</pdfrwt>
<pdfrwt beam="2">  1       -1 0.22049196E+00 0.25861862E+04</pdfrwt>
<totfact> 0.10888486E+00</totfact>
</mgrwt>
</event>
<event>
12    2  0.3552864E-008  0.1780526E+04  0.7818608E-02  0.8716724E-01
         -1   -1    0    0    0  501 -0.00000000000E+00  0.00000000000E+00  0.39409227876E+03  0.39409227876E+03  0.00000000000E+00 0.  1.
          1   -1    0    0  501    0  0.00000000000E+00 -0.00000000000E+00 -0.20111243531E+04  0.20111243531E+04  0.00000000000E+00 0. -1.
         23    2    1    2    0    0 -0.52467304119E+03  0.31494761953E+03 -0.91793310399E+03  0.11082448887E+04  0.10550709373E+03 0.  0.
        254    2    1    2    0    0  0.52467304119E+03 -0.31494761953E+03 -0.69909897034E+03  0.12969717431E+04  0.90494338436E+03 0.  0.
         23    2    4    4    0    0  0.68903284438E+03  0.31400420371E+02 -0.49389500394E+03  0.85276680202E+03  0.86756536787E+02 0.  0.
         23    2    4    4    0    0 -0.16435980318E+03 -0.34634803990E+03 -0.20520396640E+03  0.44420494109E+03  0.90764818188E+02 0.  0.
          4    1    3    3  502    0 -0.41988045246E+03  0.25009409374E+03 -0.64912126168E+03  0.81253003788E+03  0.00000000000E+00 0. -1.
         -4    1    3    3    0  502 -0.10479258873E+03  0.64853525787E+02 -0.26881184230E+03  0.29571485086E+03  0.00000000000E+00 0.  1.
         11    1    5    5    0    0  0.19685885463E+03 -0.16048474548E+02 -0.17898674734E+03  0.26654683998E+03  0.00000000000E+00 0.  1.
        -11    1    5    5    0    0  0.49217398975E+03  0.47448894918E+02 -0.31490825660E+03  0.58621996204E+03  0.00000000000E+00 0. -1.
          3    1    6    6  503    0 -0.16951722108E+02 -0.63546682220E+02 -0.74956222050E+02  0.99719491213E+02  0.00000000000E+00 0. -1.
         -3    1    6    6    0  503 -0.14740808108E+03 -0.28280135768E+03 -0.13024774435E+03  0.34448544988E+03  0.00000000000E+00 0.  1.
<mgrwt>
<rscale>  0 0.17805264E+04</rscale>
<asrwt>0</asrwt>
<pdfrwt beam="1">  1        1 0.30940375E+00 0.17805264E+04</pdfrwt>
<pdfrwt beam="2">  1       -1 0.60629580E-01 0.17805264E+04</pdfrwt>
<totfact> 0.76376139E+00</totfact>
</mgrwt>
</event>
<event>
12    2  0.3552864E-008  0.2089805E+04  0.7818608E-02  0.8565747E-01
          2   -1    0    0  501    0  0.00000000000E+00  0.00000000000E+00  0.16499899609E+04  0.16499899609E+04  0.00000000000E+00 0. -1.
         -2   -1    0    0    0  501 -0.00000000000E+00 -0.00000000000E+00 -0.66171418099E+03  0.66171418099E+03  0.00000000000E+00 0.  1.
         23    2    1    2    0    0 -0.61379877308E+03  0.12348210228E+03  0.10259014444E+04  0.12053206005E+04  0.91253564326E+02 0.  0.
        254    2    1    2    0    0  0.61379877308E+03 -0.12348210228E+03 -0.37625664436E+02  0.11063835414E+04  0.91141213875E+03 0.  0.
         23    2    4    4    0    0  0.10356077898E+02 -0.62961671230E+02  0.35933025204E+03  0.37618801354E+03  0.91256622260E+02 0.  0.
         23    2    4    4    0    0  0.60344269518E+03 -0.60520431046E+02 -0.39695591648E+03  0.73019552787E+03  0.88349874633E+02 0.  0.
          3    1    3    3  502    0 -0.38598595057E+03  0.42978469013E+02  0.68573050674E+03  0.78807273187E+03  0.00000000000E+00 0. -1.
         -3    1    3    3    0  502 -0.22781282251E+03  0.80503633263E+02  0.34017093764E+03  0.41724786864E+03  0.00000000000E+00 0.  1.
         11    1    5    5    0    0  0.16773036963E+02  0.32134857582E+01  0.23124974423E+03  0.23187950635E+03  0.00000000000E+00 0. -1.
        -11    1    5    5    0    0 -0.64169590651E+01 -0.66175156988E+02  0.12808050782E+03  0.14430850720E+03  0.00000000000E+00 0.  1.
          1    1    6    6  503    0  0.60241521018E+03 -0.65424014456E+02 -0.39813462338E+03  0.72504866420E+03  0.00000000000E+00 0. -1.
         -1    1    6    6    0  503  0.10274850035E+01  0.49035834099E+01  0.11787068986E+01  0.51468636706E+01  0.00000000000E+00 0.  1.
<mgrwt>
<rscale>  0 0.20898055E+04</rscale>
<asrwt>0</asrwt>
<pdfrwt beam="1">  1        2 0.25384461E+00 0.20898055E+04</pdfrwt>
<pdfrwt beam="2">  1       -2 0.10180218E+00 0.20898055E+04</pdfrwt>
<totfact> 0.76352460E+00</totfact>
</mgrwt>
</event>
<event>
12    2  0.3552864E-008  0.2262010E+04  0.7818608E-02  0.8493053E-01
         -2   -1    0    0    0  501 -0.00000000000E+00  0.00000000000E+00  0.95003403975E+03  0.95003403975E+03  0.00000000000E+00 0.  1.
          2   -1    0    0  501    0  0.00000000000E+00 -0.00000000000E+00 -0.13464484762E+04  0.13464484762E+04  0.00000000000E+00 0. -1.
         23    2    1    2    0    0 -0.67508349592E+03  0.58892742262E+03  0.10588176401E+03  0.90676324954E+03  0.91844472846E+02 0.  0.
        254    2    1    2    0    0  0.67508349592E+03 -0.58892742262E+03 -0.50229620046E+03  0.13897192664E+04  0.93618637614E+03 0.  0.
         23    2    4    4    0    0  0.86198157753E+03 -0.57196273293E+03 -0.26174176089E+03  0.10710056571E+04  0.91601092972E+02 0.  0.
         23    2    4    4    0    0 -0.18689808161E+03 -0.16964689689E+02 -0.24055443957E+03  0.31871360934E+03  0.92158736848E+02 0.  0.
          4    1    3    3  502    0 -0.41731148790E+03  0.40561513021E+03  0.99445105905E+02  0.59039126084E+03  0.00000000000E+00 0.  1.
         -4    1    3    3    0  502 -0.25777200802E+03  0.18331229241E+03  0.64366581058E+01  0.31637198870E+03  0.00000000000E+00 0. -1.
         11    1    5    5    0    0  0.70643680632E+03 -0.50064334759E+03 -0.19645129269E+03  0.88785687653E+03  0.00000000000E+00 0. -1.
        -11    1    5    5    0    0  0.15554477121E+03 -0.71319385337E+02 -0.65290468201E+02  0.18314878054E+03  0.00000000000E+00 0.  1.
          2    1    6    6  503    0 -0.13991128600E+03  0.24526161855E+02 -0.19488579704E+03  0.24115798650E+03  0.00000000000E+00 0. -1.
         -2    1    6    6    0  503 -0.46986795613E+02 -0.41490851544E+02 -0.45668642525E+02  0.77555622839E+02  0.00000000000E+00 0.  1.
<mgrwt>
<rscale>  0 0.22620096E+04</rscale>
<asrwt>0</asrwt>
<pdfrwt beam="1">  1        2 0.20714592E+00 0.22620096E+04</pdfrwt>
<pdfrwt beam="2">  1       -2 0.14615908E+00 0.22620096E+04</pdfrwt>
<totfact> 0.45342110E+00</totfact>
</mgrwt>
</event>
<event>
12    2  0.3552864E-008  0.2367191E+04  0.7818608E-02  0.8451890E-01
          2   -1    0    0  501    0  0.00000000000E+00  0.00000000000E+00  0.31373370227E+04  0.31373370227E+04  0.00000000000E+00 0. -1.
         -2   -1    0    0    0  501 -0.00000000000E+00 -0.00000000000E+00 -0.44652463764E+03  0.44652463764E+03  0.00000000000E+00 0.  1.
         23    2    1    2    0    0  0.68787944077E+03  0.15902775040E+02  0.30681451733E+02  0.69473674322E+03  0.91031684670E+02 0.  0.
        254    2    1    2    0    0 -0.68787944077E+03 -0.15902775040E+02  0.26601309333E+04  0.28891249171E+04  0.89292507018E+03 0.  0.
         23    2    4    4    0    0  0.12112034319E+03  0.16820543983E+03  0.10655253007E+04  0.10892771167E+04  0.90649121119E+02 0.  0.
         23    2    4    4    0    0 -0.80899978396E+03 -0.18410821487E+03  0.15946056326E+04  0.17998478004E+04  0.91150949463E+02 0.  0.
          1    1    3    3  502    0  0.15535500095E+02  0.11009108142E+02  0.11204752757E+02  0.22092956109E+02  0.00000000000E+00 0. -1.
         -1    1    3    3    0  502  0.67234394067E+03  0.48936668975E+01  0.19476698975E+02  0.67264378711E+03  0.00000000000E+00 0.  1.
         11    1    5    5    0    0  0.72018230355E+02  0.65128966681E+02  0.68940108458E+03  0.69620561850E+03  0.00000000000E+00 0.  1.
        -11    1    5    5    0    0  0.49102112831E+02  0.10307647315E+03  0.37612421610E+03  0.39307149825E+03  0.00000000000E+00 0. -1.
          3    1    6    6  503    0 -0.72863678098E+03 -0.14727323365E+03  0.13742870344E+04  0.15624550608E+04  0.00000000000E+00 0. -1.
         -3    1    6    6    0  503 -0.80363002977E+02 -0.36834981222E+02  0.22031859822E+03  0.23739273959E+03  0.00000000000E+00 0.  1.
<mgrwt>
<rscale>  0 0.23671910E+04</rscale>
<asrwt>0</asrwt>
<pdfrwt beam="1">  1        2 0.48266722E+00 0.23671910E+04</pdfrwt>
<pdfrwt beam="2">  1       -2 0.68696100E-01 0.23671910E+04</pdfrwt>
<totfact> 0.24890465E+00</totfact>
</mgrwt>
</event>
<event>
12    2  0.3552864E-008  0.1611166E+04  0.7818608E-02  0.8813717E-01
         -2   -1    0    0    0  501 -0.00000000000E+00  0.00000000000E+00  0.17245951216E+03  0.17245951216E+03  0.00000000000E+00 0.  1.
          2   -1    0    0  501    0  0.00000000000E+00 -0.00000000000E+00 -0.37629955214E+04  0.37629955214E+04  0.00000000000E+00 0. -1.
         23    2    1    2    0    0  0.52807307083E+03 -0.67876951077E+02 -0.91904850175E+03  0.10662126832E+04  0.93224935112E+02 0.  0.
        254    2    1    2    0    0 -0.52807307083E+03  0.67876951077E+02 -0.26714875074E+04  0.28692423504E+04  0.90124231703E+03 0.  0.
         23    2    4    4    0    0 -0.46575585791E+03  0.13755416579E+03 -0.53282813359E+03  0.72667925331E+03  0.91144114188E+02 0.  0.
         23    2    4    4    0    0 -0.62317212924E+02 -0.69677214712E+02 -0.21386593739E+04  0.21425630970E+04  0.89299261689E+02 0.  0.
          3    1    3    3  502    0  0.20586506598E+03  0.14123546014E+01 -0.42628274467E+03  0.47339137988E+03  0.00000000000E+00 0. -1.
         -3    1    3    3    0  502  0.32220800485E+03 -0.69289305678E+02 -0.49276575707E+03  0.59282130327E+03  0.00000000000E+00 0.  1.
         11    1    5    5    0    0 -0.13454721682E+03  0.76347944439E+02 -0.20338591665E+03  0.25553432894E+03  0.00000000000E+00 0.  1.
        -11    1    5    5    0    0 -0.33120864109E+03  0.61206221350E+02 -0.32944221693E+03  0.47114492437E+03  0.00000000000E+00 0. -1.
          1    1    6    6  503    0  0.13447180899E+02 -0.16781190272E+02 -0.12896461207E+03  0.13074519565E+03  0.00000000000E+00 0. -1.
         -1    1    6    6    0  503 -0.75764393823E+02 -0.52896024440E+02 -0.20096947618E+04  0.20118179014E+04  0.00000000000E+00 0.  1.
<mgrwt>
<rscale>  0 0.16111665E+04</rscale>
<asrwt>0</asrwt>
<pdfrwt beam="1">  1        2 0.57892234E+00 0.16111665E+04</pdfrwt>
<pdfrwt beam="2">  1       -2 0.26532235E-01 0.16111665E+04</pdfrwt>
<totfact> 0.65619717E+00</totfact>
</mgrwt>
</event>
<event>
12    2  0.3552864E-008  0.2277161E+04  0.7818608E-02  0.8486981E-01
         -2   -1    0    0    0  501 -0.00000000000E+00  0.00000000000E+00  0.47072874901E+03  0.47072874901E+03  0.00000000000E+00 0.  1.
          2   -1    0    0  501    0  0.00000000000E+00 -0.00000000000E+00 -0.27539537263E+04  0.27539537263E+04  0.00000000000E+00 0. -1.
         23    2    1    2    0    0 -0.66599455430E+03  0.64964388731E+03 -0.90066870351E+03  0.12984940698E+04  0.96419962014E+02 0.  0.
        254    2    1    2    0    0  0.66599455430E+03 -0.64964388731E+03 -0.13825562738E+04  0.19261884056E+04  0.96599896316E+03 0.  0.
         23    2    4    4    0    0  0.24462894910E+03 -0.48381408077E+02 -0.11056928617E+04  0.11373487218E+04  0.93921920147E+02 0.  0.
         23    2    4    4    0    0  0.42136560520E+03 -0.60126247923E+03 -0.27686341209E+03  0.78883968380E+03  0.80926853426E+02 0.  0.
          3    1    3    3  502    0 -0.11068756704E+03  0.65317692234E+02 -0.14198032634E+03  0.19151123070E+03  0.00000000000E+00 0. -1.
         -3    1    3    3    0  502 -0.55530698726E+03  0.58432619507E+03 -0.75868837717E+03  0.11069828391E+04  0.00000000000E+00 0.  1.
         11    1    5    5    0    0 -0.66228994031E+01 -0.41255244985E+01 -0.12141324112E+02  0.14432411444E+02  0.00000000000E+00 0.  1.
        -11    1    5    5    0    0  0.25125184851E+03 -0.44255883578E+02 -0.10935515376E+04  0.11229163103E+04  0.00000000000E+00 0. -1.
          4    1    6    6  503    0  0.38589117963E+03 -0.53048091066E+03 -0.22208443321E+03  0.69256298960E+03  0.00000000000E+00 0. -1.
         -4    1    6    6    0  503  0.35474425574E+02 -0.70781568571E+02 -0.54778978876E+02  0.96276694200E+02  0.00000000000E+00 0.  1.
<mgrwt>
<rscale>  0 0.22771607E+04</rscale>
<asrwt>0</asrwt>
<pdfrwt beam="1">  1        2 0.42368519E+00 0.22771607E+04</pdfrwt>
<pdfrwt beam="2">  1       -2 0.72419807E-01 0.22771607E+04</pdfrwt>
<totfact> 0.38645157E+00</totfact>
</mgrwt>
</event>
<event>
12    2  0.3552864E-008  0.1540882E+04  0.7818608E-02  0.8857713E-01
         -2   -1    0    0    0  501 -0.00000000000E+00  0.00000000000E+00  0.27964642752E+03  0.27964642752E+03  0.00000000000E+00 0.  1.
          2   -1    0    0  501    0  0.00000000000E+00 -0.00000000000E+00 -0.21226077851E+04  0.21226077851E+04  0.00000000000E+00 0. -1.
         23    2    1    2    0    0  0.41415503874E+03 -0.29143292478E+03 -0.57410089297E+03  0.77085057375E+03  0.90339504028E+02 0.  0.
        254    2    1    2    0    0 -0.41415503874E+03  0.29143292478E+03 -0.12688604646E+04  0.16314036389E+04  0.89163524410E+03 0.  0.
         23    2    4    4    0    0 -0.69197867918E+02 -0.25006117327E+03 -0.75740777057E+03  0.80583124009E+03  0.91534262859E+02 0.  0.
         23    2    4    4    0    0 -0.34495717082E+03  0.54149409805E+03 -0.51145269404E+03  0.82557239879E+03  0.88173802708E+02 0.  0.
          2    1    3    3  502    0  0.46377032636E+01  0.55179598669E+01 -0.16395141188E+02  0.17909685291E+02  0.00000000000E+00 0. -1.
         -2    1    3    3    0  502  0.40951733547E+03 -0.29695088464E+03 -0.55770575178E+03  0.75294088846E+03  0.00000000000E+00 0.  1.
         11    1    5    5    0    0 -0.60182498323E+02 -0.24270141159E+03 -0.75292256206E+03  0.79335886757E+03  0.00000000000E+00 0.  1.
        -11    1    5    5    0    0 -0.90153695950E+01 -0.73597616729E+01 -0.44852085141E+01  0.12472372518E+02  0.00000000000E+00 0. -1.
          4    1    6    6  503    0 -0.33054609833E+02  0.16335041699E+02 -0.36073383540E+02  0.51582262635E+02  0.00000000000E+00 0. -1.
         -4    1    6    6    0  503 -0.31190256099E+03  0.52515905635E+03 -0.47537931050E+03  0.77399013615E+03  0.00000000000E+00 0.  1.
<mgrwt>
<rscale>  0 0.15408825E+04</rscale>
<asrwt>0</asrwt>
<pdfrwt beam="1">  1        2 0.32655504E+00 0.15408825E+04</pdfrwt>
<pdfrwt beam="2">  1       -2 0.43022528E-01 0.15408825E+04</pdfrwt>
<totfact> 0.28177801E+01</totfact>
</mgrwt>
</event>
<event>
12    2  0.3552864E-008  0.1145422E+04  0.7818608E-02  0.9162017E-01
         -1   -1    0    0    0  501 -0.00000000000E+00  0.00000000000E+00  0.14620740452E+03  0.14620740452E+03  0.00000000000E+00 0.  1.
          1   -1    0    0  501    0  0.00000000000E+00 -0.00000000000E+00 -0.22433737926E+04  0.22433737926E+04  0.00000000000E+00 0. -1.
         23    2    1    2    0    0  0.11118311134E+02  0.13176240074E+03 -0.72223096029E+03  0.73996083506E+03  0.91866916351E+02 0.  0.
        254    2    1    2    0    0 -0.11118311134E+02 -0.13176240074E+03 -0.13749354278E+04  0.16496203621E+04  0.90183976473E+03 0.  0.
         23    2    4    4    0    0 -0.33774721859E+02 -0.37505336342E+03 -0.13303118749E+04  0.13856578259E+04  0.92261415098E+02 0.  0.
         23    2    4    4    0    0  0.22656410725E+02  0.24329096269E+03 -0.44623552872E+02  0.26396253615E+03  0.89337302116E+02 0.  0.
          2    1    3    3  502    0  0.27981485438E+02  0.13740896104E+03 -0.58447415529E+03  0.60106091563E+03  0.00000000000E+00 0.  1.
         -2    1    3    3    0  502 -0.16863174304E+02 -0.56465602991E+01 -0.13775680500E+03  0.13889991942E+03  0.00000000000E+00 0. -1.
         11    1    5    5    0    0 -0.41429161979E+02 -0.25991814587E+03 -0.77466885259E+03  0.81815991664E+03  0.00000000000E+00 0.  1.
        -11    1    5    5    0    0  0.76544401205E+01 -0.11513521756E+03 -0.55564302232E+03  0.56749790927E+03  0.00000000000E+00 0. -1.
          3    1    6    6  503    0 -0.52618932104E+01  0.75033682997E+00  0.12188879697E+02  0.13297342358E+02  0.00000000000E+00 0. -1.
         -3    1    6    6    0  503  0.27918303935E+02  0.24254062586E+03 -0.56812432570E+02  0.25066519379E+03  0.00000000000E+00 0.  1.
<mgrwt>
<rscale>  0 0.11454219E+04</rscale>
<asrwt>0</asrwt>
<pdfrwt beam="1">  1        1 0.34513441E+00 0.11454219E+04</pdfrwt>
<pdfrwt beam="2">  1       -1 0.22493448E-01 0.11454219E+04</pdfrwt>
<totfact> 0.34074019E+01</totfact>
</mgrwt>
</event>
<event>
12    2  0.3552864E-008  0.1783531E+04  0.7818608E-02  0.8715107E-01
          2   -1    0    0  501    0  0.00000000000E+00  0.00000000000E+00  0.23794011986E+04  0.23794011986E+04  0.00000000000E+00 0. -1.
         -2   -1    0    0    0  501 -0.00000000000E+00 -0.00000000000E+00 -0.33422112351E+03  0.33422112351E+03  0.00000000000E+00 0.  1.
         23    2    1    2    0    0 -0.28989376045E+03 -0.36111887689E+03  0.51554004205E+02  0.47558852019E+03  0.95296325190E+02 0.  0.
        254    2    1    2    0    0  0.28989376045E+03  0.36111887689E+03  0.19936260709E+04  0.22380338019E+04  0.90543092083E+03 0.  0.
         23    2    4    4    0    0  0.18262496771E+03  0.49411287158E+03  0.19699626035E+04  0.20413296638E+04  0.93673518473E+02 0.  0.
         23    2    4    4    0    0  0.10726879274E+03 -0.13299399469E+03  0.23663467340E+02  0.19670413816E+03  0.94543967343E+02 0.  0.
          3    1    3    3  502    0 -0.13564260218E+03 -0.18111167191E+03  0.72505020685E+02  0.23760751514E+03  0.00000000000E+00 0. -1.
         -3    1    3    3    0  502 -0.15425115827E+03 -0.18000720498E+03 -0.20951016480E+02  0.23798100505E+03  0.00000000000E+00 0.  1.
         11    1    5    5    0    0  0.49493478959E+02  0.47432375760E+02  0.22741257474E+03  0.23752034414E+03  0.00000000000E+00 0.  1.
        -11    1    5    5    0    0  0.13313148875E+03  0.44668049582E+03  0.17425500288E+04  0.18038093196E+04  0.00000000000E+00 0. -1.
          4    1    6    6  503    0  0.42585951370E+02 -0.10567784315E+03  0.46222589013E+02  0.12295485969E+03  0.00000000000E+00 0. -1.
         -4    1    6    6    0  503  0.64682841374E+02 -0.27316151538E+02 -0.22559121673E+02  0.73749278462E+02  0.00000000000E+00 0.  1.
<mgrwt>
<rscale>  0 0.17835315E+04</rscale>
<asrwt>0</asrwt>
<pdfrwt beam="1">  1        2 0.36606171E+00 0.17835315E+04</pdfrwt>
<pdfrwt beam="2">  1       -2 0.51418636E-01 0.17835315E+04</pdfrwt>
<totfact> 0.13810342E+01</totfact>
</mgrwt>
</event>
<event>
12    2  0.3552864E-008  0.1918979E+04  0.7818608E-02  0.8645466E-01
          2   -1    0    0  501    0  0.00000000000E+00  0.00000000000E+00  0.15720072602E+04  0.15720072602E+04  0.00000000000E+00 0. -1.
         -2   -1    0    0    0  501 -0.00000000000E+00 -0.00000000000E+00 -0.58563361455E+03  0.58563361455E+03  0.00000000000E+00 0.  1.
         23    2    1    2    0    0 -0.34131670882E+03 -0.29245991221E+03  0.10644071715E+04  0.11588185911E+04  0.88701771975E+02 0.  0.
        254    2    1    2    0    0  0.34131670882E+03  0.29245991221E+03 -0.78033525833E+02  0.99882228367E+03  0.88855322138E+03 0.  0.
         23    2    4    4    0    0 -0.28347502174E+03  0.17177783780E+02 -0.83594664216E+02  0.30983403208E+03  0.91410586594E+02 0.  0.
         23    2    4    4    0    0  0.62479173057E+03  0.27528212843E+03  0.55611383829E+01  0.68898825159E+03  0.92352194096E+02 0.  0.
          2    1    3    3  502    0 -0.27893682794E+03 -0.23224870139E+03  0.93570983476E+03  0.10036424205E+04  0.00000000000E+00 0. -1.
         -2    1    3    3    0  502 -0.62379880890E+02 -0.60211210821E+02  0.12869733670E+03  0.15517617060E+03  0.00000000000E+00 0.  1.
         11    1    5    5    0    0 -0.25396599290E+03  0.44630409038E+02 -0.68555854601E+02  0.26681548711E+03  0.00000000000E+00 0.  1.
        -11    1    5    5    0    0 -0.29509028841E+02 -0.27452625258E+02 -0.15038809614E+02  0.43018544970E+02  0.00000000000E+00 0. -1.
          2    1    6    6  503    0  0.12318041596E+02  0.22964466743E+02 -0.47916947730E+01  0.26496437880E+02  0.00000000000E+00 0. -1.
         -2    1    6    6    0  503  0.61247368897E+03  0.25231766169E+03  0.10352833156E+02  0.66249181371E+03  0.00000000000E+00 0.  1.
<mgrwt>
<rscale>  0 0.19189792E+04</rscale>
<asrwt>0</asrwt>
<pdfrwt beam="1">  1        2 0.24184727E+00 0.19189792E+04</pdfrwt>
<pdfrwt beam="2">  1       -2 0.90097480E-01 0.19189792E+04</pdfrwt>
<totfact> 0.11398368E+01</totfact>
</mgrwt>
</event>
<event>
12    2  0.3552864E-008  0.1983474E+04  0.7818608E-02  0.8614386E-01
          1   -1    0    0  501    0  0.00000000000E+00  0.00000000000E+00  0.31977477974E+04  0.31977477974E+04  0.00000000000E+00 0. -1.
         -1   -1    0    0    0  501 -0.00000000000E+00 -0.00000000000E+00 -0.30757332393E+03  0.30757332393E+03  0.00000000000E+00 0.  1.
         23    2    1    2    0    0  0.12632792232E+03 -0.29376483913E+03 -0.11380406233E+03  0.35416729494E+03  0.10112657184E+03 0.  0.
        254    2    1    2    0    0 -0.12632792232E+03  0.29376483913E+03  0.30039785358E+04  0.31511538264E+04  0.89645237987E+03 0.  0.
         23    2    4    4    0    0 -0.53756608200E+02  0.30519779471E+03  0.28795902755E+03  0.43262415405E+03  0.90596855922E+02 0.  0.
         23    2    4    4    0    0 -0.72571314120E+02 -0.11432955575E+02  0.27160195083E+04  0.27185296724E+04  0.90798139243E+02 0.  0.
          2    1    3    3  502    0  0.66340997346E+01  0.72997527615E+01 -0.97829135894E+01  0.13892554408E+02  0.00000000000E+00 0. -1.
         -2    1    3    3    0  502  0.11969382259E+03 -0.30106459189E+03 -0.10402114874E+03  0.34027474053E+03  0.00000000000E+00 0.  1.
         11    1    5    5    0    0 -0.60146046550E+02  0.16769672690E+03  0.11701135048E+03  0.21314641745E+03  0.00000000000E+00 0. -1.
        -11    1    5    5    0    0  0.63894383499E+01  0.13750106781E+03  0.17094767707E+03  0.21947773661E+03  0.00000000000E+00 0.  1.
          4    1    6    6  503    0 -0.78740172287E+02 -0.32554623969E+02  0.24860944132E+04  0.24875540697E+04  0.00000000000E+00 0. -1.
         -4    1    6    6    0  503  0.61688581666E+01  0.21121668394E+02  0.22992509504E+03  0.23097560264E+03  0.00000000000E+00 0.  1.
<mgrwt>
<rscale>  0 0.19834736E+04</rscale>
<asrwt>0</asrwt>
<pdfrwt beam="1">  1        1 0.49196118E+00 0.19834736E+04</pdfrwt>
<pdfrwt beam="2">  1       -1 0.47318975E-01 0.19834736E+04</pdfrwt>
<totfact> 0.17716217E+00</totfact>
</mgrwt>
</event>
<event>
12    2  0.3552864E-008  0.2428458E+04  0.7818608E-02  0.8428926E-01
         -2   -1    0    0    0  501 -0.00000000000E+00  0.00000000000E+00  0.78096135580E+03  0.78096135580E+03  0.00000000000E+00 0.  1.
          2   -1    0    0  501    0  0.00000000000E+00 -0.00000000000E+00 -0.18878679919E+04  0.18878679919E+04  0.00000000000E+00 0. -1.
         23    2    1    2    0    0  0.36442788850E+03 -0.39112499788E+03  0.50803303631E+03  0.74282415735E+03  0.88902828281E+02 0.  0.
        254    2    1    2    0    0 -0.36442788850E+03  0.39112499788E+03 -0.16149396724E+04  0.19260051904E+04  0.90314970953E+03 0.  0.
         23    2    4    4    0    0  0.18475717624E+03 -0.47639689906E+02 -0.87945551624E+03  0.90439007454E+03  0.89859043302E+02 0.  0.
         23    2    4    4    0    0 -0.54918506473E+03  0.43876468779E+03 -0.73548415619E+03  0.10216151158E+04  0.92961359073E+02 0.  0.
          1    1    3    3  502    0  0.21180610711E+02 -0.18795100902E+01  0.33081126915E+02  0.39325714059E+02  0.00000000000E+00 0. -1.
         -1    1    3    3    0  502  0.34324727778E+03 -0.38924548779E+03  0.47495190940E+03  0.70349844329E+03  0.00000000000E+00 0.  1.
         11    1    5    5    0    0  0.10500477490E+03 -0.53148039764E+01 -0.63801734997E+03  0.64662229219E+03  0.00000000000E+00 0. -1.
        -11    1    5    5    0    0  0.79752401340E+02 -0.42324885930E+02 -0.24143816627E+03  0.25776778235E+03  0.00000000000E+00 0.  1.
          1    1    6    6  503    0 -0.22531280707E+03  0.16519741193E+03 -0.35677693344E+03  0.45315099710E+03  0.00000000000E+00 0.  1.
         -1    1    6    6    0  503 -0.32387225766E+03  0.27356727586E+03 -0.37870722275E+03  0.56846411871E+03  0.00000000000E+00 0. -1.
<mgrwt>
<rscale>  0 0.24284579E+04</rscale>
<asrwt>0</asrwt>
<pdfrwt beam="1">  1        2 0.29044123E+00 0.24284579E+04</pdfrwt>
<pdfrwt beam="2">  1       -2 0.12014790E+00 0.24284579E+04</pdfrwt>
<totfact> 0.36628524E+00</totfact>
</mgrwt>
</event>
<event>
12    2  0.3552864E-008  0.1543949E+04  0.7818608E-02  0.8855742E-01
         -2   -1    0    0    0  501 -0.00000000000E+00  0.00000000000E+00  0.11590607515E+04  0.11590607515E+04  0.00000000000E+00 0.  1.
          2   -1    0    0  501    0  0.00000000000E+00 -0.00000000000E+00 -0.51416201236E+03  0.51416201236E+03  0.00000000000E+00 0. -1.
         23    2    1    2    0    0  0.75068221822E+02  0.21483942976E+03  0.69709468754E+03  0.73905227635E+03  0.92011114975E+02 0.  0.
        254    2    1    2    0    0 -0.75068221822E+02 -0.21483942976E+03 -0.52195948442E+02  0.93417048747E+03  0.90452134531E+03 0.  0.
         23    2    4    4    0    0  0.86095147597E+02 -0.53978922228E+03 -0.59380505583E+02  0.55741936407E+03  0.91681645181E+02 0.  0.
         23    2    4    4    0    0 -0.16116336942E+03  0.32494979252E+03  0.71845571408E+01  0.37675112340E+03  0.10160606192E+03 0.  0.
          3    1    3    3  502    0 -0.14275524862E+02  0.90865802099E+02  0.28904640301E+03  0.30332854744E+03  0.00000000000E+00 0. -1.
         -3    1    3    3    0  502  0.89343746684E+02  0.12397362766E+03  0.40804828453E+03  0.43572372891E+03  0.00000000000E+00 0.  1.
         11    1    5    5    0    0  0.10584748661E+03 -0.45422298091E+03 -0.47576940786E+02  0.46881315266E+03  0.00000000000E+00 0.  1.
        -11    1    5    5    0    0 -0.19752339012E+02 -0.85566241369E+02 -0.11803564797E+02  0.88606211410E+02  0.00000000000E+00 0. -1.
          1    1    6    6  503    0 -0.10295939385E+02  0.54343157822E+02  0.35367798695E+02  0.65651095607E+02  0.00000000000E+00 0. -1.
         -1    1    6    6    0  503 -0.15086743003E+03  0.27060663470E+03 -0.28183241554E+02  0.31110002779E+03  0.00000000000E+00 0.  1.
<mgrwt>
<rscale>  0 0.15439495E+04</rscale>
<asrwt>0</asrwt>
<pdfrwt beam="1">  1        2 0.79101848E-01 0.15439495E+04</pdfrwt>
<pdfrwt beam="2">  1       -2 0.17831704E+00 0.15439495E+04</pdfrwt>
<totfact> 0.10680053E+01</totfact>
</mgrwt>
</event>
<event>
12    2  0.3552864E-008  0.1804767E+04  0.7818608E-02  0.8703769E-01
         -1   -1    0    0    0  501 -0.00000000000E+00  0.00000000000E+00  0.12695654448E+04  0.12695654448E+04  0.00000000000E+00 0.  1.
          1   -1    0    0  501    0  0.00000000000E+00 -0.00000000000E+00 -0.64139727452E+03  0.64139727452E+03  0.00000000000E+00 0. -1.
         23    2    1    2    0    0  0.28667591271E+03 -0.56524118466E+03  0.46484188462E+03  0.79084332395E+03  0.87604278312E+02 0.  0.
        254    2    1    2    0    0 -0.28667591271E+03  0.56524118466E+03  0.16332628569E+03  0.11201193954E+04  0.90901667123E+03 0.  0.
         23    2    4    4    0    0 -0.98901404836E+02 -0.14447311628E+03  0.30962792407E+03  0.36603230632E+03  0.86349456869E+02 0.  0.
         23    2    4    4    0    0 -0.18777450788E+03  0.70971430094E+03 -0.14630163838E+03  0.75408708907E+03  0.91046766729E+02 0.  0.
          2    1    3    3  502    0  0.48897221531E+02 -0.69111109013E+02  0.30848080911E+02  0.90104870892E+02  0.00000000000E+00 0. -1.
         -2    1    3    3    0  502  0.23777869118E+03 -0.49613007565E+03  0.43399380371E+03  0.70073845306E+03  0.00000000000E+00 0.  1.
         11    1    5    5    0    0 -0.85836125411E+02 -0.50547164183E+02  0.14231071922E+03  0.17371009481E+03  0.00000000000E+00 0. -1.
        -11    1    5    5    0    0 -0.13065279425E+02 -0.93925952100E+02  0.16731720485E+03  0.19232221151E+03  0.00000000000E+00 0.  1.
          2    1    6    6  503    0 -0.23767284200E+02  0.12359060318E+03 -0.59778623501E+02  0.13933055954E+03  0.00000000000E+00 0. -1.
         -2    1    6    6    0  503 -0.16400722368E+03  0.58612369776E+03 -0.86523014879E+02  0.61475652953E+03  0.00000000000E+00 0.  1.
<mgrwt>
<rscale>  0 0.18047668E+04</rscale>
<asrwt>0</asrwt>
<pdfrwt beam="1">  1        1 0.98676504E-01 0.18047668E+04</pdfrwt>
<pdfrwt beam="2">  1       -1 0.19531776E+00 0.18047668E+04</pdfrwt>
<totfact> 0.47513504E+00</totfact>
</mgrwt>
</event>
<event>
12    2  0.3552864E-008  0.4805801E+04  0.7818608E-02  0.7859183E-01
          2   -1    0    0  501    0  0.00000000000E+00  0.00000000000E+00  0.35082562729E+04  0.35082562729E+04  0.00000000000E+00 0. -1.
         -2   -1    0    0    0  501 -0.00000000000E+00 -0.00000000000E+00 -0.16458121346E+04  0.16458121346E+04  0.00000000000E+00 0.  1.
         23    2    1    2    0    0  0.82771966788E+02 -0.23112848654E+04  0.10685279731E+04  0.25491586897E+04  0.87000393473E+02 0.  0.
        254    2    1    2    0    0 -0.82771966788E+02  0.23112848654E+04  0.79391616518E+03  0.26049097178E+04  0.89797707825E+03 0.  0.
         23    2    4    4    0    0 -0.43794424531E+03  0.16323184154E+04  0.40027050901E+03  0.17391879432E+04  0.91102416693E+02 0.  0.
         23    2    4    4    0    0  0.35517227853E+03  0.67896645004E+03  0.39364565617E+03  0.86572177458E+03  0.85874912824E+02 0.  0.
          1    1    3    3  502    0  0.57320265926E+02 -0.16387799376E+04  0.71377873137E+03  0.17883974318E+04  0.00000000000E+00 0. -1.
         -1    1    3    3    0  502  0.25451700862E+02 -0.67250492779E+03  0.35474924171E+03  0.76076125787E+03  0.00000000000E+00 0.  1.
         11    1    5    5    0    0 -0.38761435224E+03  0.15211258517E+04  0.38431977703E+03  0.16160972848E+04  0.00000000000E+00 0. -1.
        -11    1    5    5    0    0 -0.50329893078E+02  0.11119256363E+03  0.15950731979E+02  0.12309065844E+03  0.00000000000E+00 0.  1.
          1    1    6    6  503    0  0.35321047921E+03  0.63475719980E+03  0.36449477346E+03  0.81273045052E+03  0.00000000000E+00 0. -1.
         -1    1    6    6    0  503  0.19617993192E+01  0.44209250240E+02  0.29150882716E+02  0.52991324068E+02  0.00000000000E+00 0.  1.
<mgrwt>
<rscale>  0 0.48058010E+04</rscale>
<asrwt>0</asrwt>
<pdfrwt beam="1">  1        2 0.53973173E+00 0.48058010E+04</pdfrwt>
<pdfrwt beam="2">  1       -2 0.25320187E+00 0.48058010E+04</pdfrwt>
<totfact> 0.36351305E-02</totfact>
</mgrwt>
</event>
<event>
12    2  0.3552864E-008  0.2141532E+04  0.7818608E-02  0.8543166E-01
          2   -1    0    0  501    0  0.00000000000E+00  0.00000000000E+00  0.97581793898E+03  0.97581793898E+03  0.00000000000E+00 0. -1.
         -2   -1    0    0    0  501 -0.00000000000E+00 -0.00000000000E+00 -0.11749524638E+04  0.11749524638E+04  0.00000000000E+00 0.  1.
         23    2    1    2    0    0 -0.53429053089E+03 -0.59797794797E+03  0.27983206939E+03  0.85483522457E+03  0.96918916896E+02 0.  0.
        254    2    1    2    0    0  0.53429053089E+03  0.59797794797E+03 -0.47896659426E+03  0.12959351783E+04  0.89832899884E+03 0.  0.
         23    2    4    4    0    0  0.13818278204E+02  0.51926969084E+03  0.67669562951E+02  0.53170839060E+03  0.91119077293E+02 0.  0.
         23    2    4    4    0    0  0.52047225269E+03  0.78708257130E+02 -0.54663615721E+03  0.76422678765E+03  0.90250424029E+02 0.  0.
          3    1    3    3  502    0 -0.39545527686E+03 -0.38258443312E+03  0.21283391371E+03  0.58996101506E+03  0.00000000000E+00 0. -1.
         -3    1    3    3    0  502 -0.13883525403E+03 -0.21539351485E+03  0.66998155678E+02  0.26487420951E+03  0.00000000000E+00 0.  1.
         11    1    5    5    0    0 -0.29208657147E+02  0.74771009256E+02  0.17466673678E+01  0.80292591965E+02  0.00000000000E+00 0. -1.
        -11    1    5    5    0    0  0.43026935351E+02  0.44449868159E+03  0.65922895583E+02  0.45141579864E+03  0.00000000000E+00 0.  1.
          2    1    6    6  503    0  0.28590694979E+03  0.19290771775E+02 -0.35060038567E+03  0.45280851168E+03  0.00000000000E+00 0. -1.
         -2    1    6    6    0  503  0.23456530289E+03  0.59417485355E+02 -0.19603577154E+03  0.31141827597E+03  0.00000000000E+00 0.  1.
<mgrwt>
<rscale>  0 0.21415319E+04</rscale>
<asrwt>0</asrwt>
<pdfrwt beam="1">  1        2 0.15012584E+00 0.21415319E+04</pdfrwt>
<pdfrwt beam="2">  1       -2 0.18076192E+00 0.21415319E+04</pdfrwt>
<totfact> 0.42953204E+00</totfact>
</mgrwt>
</event>
<event>
12    2  0.3552864E-008  0.2348978E+04  0.7818608E-02  0.8458856E-01
         -1   -1    0    0    0  501 -0.00000000000E+00  0.00000000000E+00  0.81237111340E+03  0.81237111340E+03  0.00000000000E+00 0.  1.
          1   -1    0    0  501    0  0.00000000000E+00 -0.00000000000E+00 -0.16980231407E+04  0.16980231407E+04  0.00000000000E+00 0. -1.
         23    2    1    2    0    0  0.78041064222E+02 -0.72656422884E+03 -0.10762372414E+04  0.13039915389E+04  0.90118518449E+02 0.  0.
        254    2    1    2    0    0 -0.78041064222E+02  0.72656422884E+03  0.19058521412E+03  0.12064027152E+04  0.94079689683E+03 0.  0.
         23    2    4    4    0    0 -0.44898565567E+03  0.22089736318E+03 -0.84564068908E+02  0.51522013099E+03  0.88977174463E+02 0.  0.
         23    2    4    4    0    0  0.37094459144E+03  0.50566686567E+03  0.27514928303E+03  0.69118258422E+03  0.93420382301E+02 0.  0.
          1    1    3    3  502    0  0.47469058780E+02 -0.61587323781E+03 -0.85580667487E+03  0.10554421923E+04  0.00000000000E+00 0. -1.
         -1    1    3    3    0  502  0.30572005442E+02 -0.11069099104E+03 -0.22043056657E+03  0.24854934659E+03  0.00000000000E+00 0.  1.
         11    1    5    5    0    0 -0.35842128821E+03  0.13789333622E+03 -0.47836347023E+02  0.38699962288E+03  0.00000000000E+00 0.  1.
        -11    1    5    5    0    0 -0.90564367454E+02  0.83004026962E+02 -0.36727721885E+02  0.12822050811E+03  0.00000000000E+00 0. -1.
          3    1    6    6  503    0  0.10894953357E+03  0.19229807165E+03  0.13678989484E+03  0.25992311278E+03  0.00000000000E+00 0. -1.
         -3    1    6    6    0  503  0.26199505787E+03  0.31336879401E+03  0.13835938819E+03  0.43125947144E+03  0.00000000000E+00 0.  1.
<mgrwt>
<rscale>  0 0.23489785E+04</rscale>
<asrwt>0</asrwt>
<pdfrwt beam="1">  1        1 0.26123433E+00 0.23489785E+04</pdfrwt>
<pdfrwt beam="2">  1       -1 0.12498017E+00 0.23489785E+04</pdfrwt>
<totfact> 0.24089563E+00</totfact>
</mgrwt>
</event>
<event>
12    2  0.3552864E-008  0.3530294E+04  0.7818608E-02  0.8106648E-01
          2   -1    0    0  501    0  0.00000000000E+00  0.00000000000E+00  0.33550469297E+04  0.33550469297E+04  0.00000000000E+00 0. -1.
         -2   -1    0    0    0  501 -0.00000000000E+00 -0.00000000000E+00 -0.92867362413E+03  0.92867362413E+03  0.00000000000E+00 0.  1.
         23    2    1    2    0    0  0.84917543706E+03  0.28010909364E+01  0.28105420850E+04  0.29374164152E+04  0.90341660017E+02 0.  0.
        254    2    1    2    0    0 -0.84917543706E+03 -0.28010909364E+01 -0.38416877947E+03  0.13463041386E+04  0.97151552409E+03 0.  0.
         23    2    4    4    0    0 -0.21690622992E+03 -0.73054392996E+02  0.31277071284E+03  0.39836705281E+03  0.92116953063E+02 0.  0.
         23    2    4    4    0    0 -0.63226920714E+03  0.70253302059E+02 -0.69693949231E+03  0.94793708582E+03  0.90333747681E+02 0.  0.
          1    1    3    3  502    0  0.10034912584E+03 -0.26036779333E+02  0.38842925955E+03  0.40202630586E+03  0.00000000000E+00 0.  1.
         -1    1    3    3    0  502  0.74882631122E+03  0.28837870270E+02  0.24221128255E+04  0.25353901093E+04  0.00000000000E+00 0. -1.
         11    1    5    5    0    0 -0.96622884519E+02 -0.80962568295E+02  0.16603414592E+03  0.20846644068E+03  0.00000000000E+00 0.  1.
        -11    1    5    5    0    0 -0.12028334540E+03  0.79081752992E+01  0.14673656692E+03  0.18990061213E+03  0.00000000000E+00 0. -1.
          3    1    6    6  503    0 -0.36279497585E+03  0.46971995007E+02 -0.46484458391E+03  0.59152941602E+03  0.00000000000E+00 0. -1.
         -3    1    6    6    0  503 -0.26947423129E+03  0.23281307053E+02 -0.23209490840E+03  0.35640766980E+03  0.00000000000E+00 0.  1.
<mgrwt>
<rscale>  0 0.35302938E+04</rscale>
<asrwt>0</asrwt>
<pdfrwt beam="1">  1        2 0.51616106E+00 0.35302938E+04</pdfrwt>
<pdfrwt beam="2">  1       -2 0.14287287E+00 0.35302938E+04</pdfrwt>
<totfact> 0.28521906E-01</totfact>
</mgrwt>
</event>
<event>
12    2  0.3552864E-008  0.1758930E+04  0.7818608E-02  0.8728450E-01
          2   -1    0    0  501    0  0.00000000000E+00  0.00000000000E+00  0.88233459845E+03  0.88233459845E+03  0.00000000000E+00 0. -1.
         -2   -1    0    0    0  501 -0.00000000000E+00 -0.00000000000E+00 -0.87660427977E+03  0.87660427977E+03  0.00000000000E+00 0.  1.
         23    2    1    2    0    0  0.38218792748E+03  0.10141353112E+03 -0.46987667269E+03  0.62090904953E+03  0.91605917053E+02 0.  0.
        254    2    1    2    0    0 -0.38218792748E+03 -0.10141353112E+03  0.47560699137E+03  0.11380298287E+04  0.95527878892E+03 0.  0.
         23    2    4    4    0    0 -0.20522862683E+03 -0.49131788810E+03  0.44403096384E+03  0.69920431325E+03  0.90615221549E+02 0.  0.
         23    2    4    4    0    0 -0.17695930064E+03  0.38990435698E+03  0.31576027527E+02  0.43882551544E+03  0.90723678348E+02 0.  0.
          3    1    3    3  502    0  0.28148800804E+02  0.67502904589E+01 -0.83502409904E+02  0.88377451127E+02  0.00000000000E+00 0. -1.
         -3    1    3    3    0  502  0.35403912667E+03  0.94663240660E+02 -0.38637426279E+03  0.53253159840E+03  0.00000000000E+00 0.  1.
         11    1    5    5    0    0 -0.85404697162E+02 -0.31040553460E+03  0.24241978691E+03  0.40300485269E+03  0.00000000000E+00 0. -1.
        -11    1    5    5    0    0 -0.11982392967E+03 -0.18091235351E+03  0.20161117693E+03  0.29619946056E+03  0.00000000000E+00 0.  1.
          4    1    6    6  503    0 -0.96555328716E+02  0.30610704138E+03  0.33155824284E+02  0.32268213612E+03  0.00000000000E+00 0.  1.
         -4    1    6    6    0  503 -0.80403971925E+02  0.83797315604E+02 -0.15797967561E+01  0.11614337933E+03  0.00000000000E+00 0. -1.
<mgrwt>
<rscale>  0 0.17589295E+04</rscale>
<asrwt>0</asrwt>
<pdfrwt beam="1">  1        2 0.13574378E+00 0.17589295E+04</pdfrwt>
<pdfrwt beam="2">  1       -2 0.13486220E+00 0.17589295E+04</pdfrwt>
<totfact> 0.11292048E+01</totfact>
</mgrwt>
</event>
<event>
12    2  0.3552864E-008  0.2102844E+04  0.7818608E-02  0.8559992E-01
         -1   -1    0    0    0  501 -0.00000000000E+00  0.00000000000E+00  0.16366791690E+04  0.16366791690E+04  0.00000000000E+00 0.  1.
          1   -1    0    0  501    0  0.00000000000E+00 -0.00000000000E+00 -0.67544585319E+03  0.67544585319E+03  0.00000000000E+00 0. -1.
         23    2    1    2    0    0  0.69285798461E+03  0.27288746975E+03 -0.67761292306E+02  0.75331522679E+03  0.91501257883E+02 0.  0.
        254    2    1    2    0    0 -0.69285798461E+03 -0.27288746975E+03  0.10289946081E+04  0.15588097954E+04  0.90362509745E+03 0.  0.
         23    2    4    4    0    0  0.14270502317E+03 -0.19199121784E+03  0.48260878427E+02  0.26465705056E+03  0.10241528527E+03 0.  0.
         23    2    4    4    0    0 -0.83556300777E+03 -0.80896251903E+02  0.98073372967E+03  0.12941527448E+04  0.91010630805E+02 0.  0.
          4    1    3    3  502    0  0.37535807309E+03  0.19187639851E+03 -0.18516388872E+02  0.42196337755E+03  0.00000000000E+00 0. -1.
         -4    1    3    3    0  502  0.31749991152E+03  0.81011071240E+02 -0.49244903433E+02  0.33135184924E+03  0.00000000000E+00 0.  1.
         11    1    5    5    0    0  0.31097765405E+02 -0.75195594048E+01 -0.20917027082E+02  0.38224819277E+02  0.00000000000E+00 0.  1.
        -11    1    5    5    0    0  0.11160725776E+03 -0.18447165844E+03  0.69177905509E+02  0.22643223128E+03  0.00000000000E+00 0. -1.
          2    1    6    6  503    0 -0.61152973110E+03 -0.46155941978E+02  0.65497019210E+03  0.89726525373E+03  0.00000000000E+00 0. -1.
         -2    1    6    6    0  503 -0.22403327667E+03 -0.34740309925E+02  0.32576353757E+03  0.39688749111E+03  0.00000000000E+00 0.  1.
<mgrwt>
<rscale>  0 0.21028439E+04</rscale>
<asrwt>0</asrwt>
<pdfrwt beam="1">  1        1 0.10391475E+00 0.21028439E+04</pdfrwt>
<pdfrwt beam="2">  1       -1 0.25179679E+00 0.21028439E+04</pdfrwt>
<totfact> 0.17942454E+00</totfact>
</mgrwt>
</event>
<event>
12    2  0.3552864E-008  0.2059012E+04  0.7818608E-02  0.8579517E-01
         -2   -1    0    0    0  501 -0.00000000000E+00  0.00000000000E+00  0.11501825274E+04  0.11501825274E+04  0.00000000000E+00 0.  1.
          2   -1    0    0  501    0  0.00000000000E+00 -0.00000000000E+00 -0.92149078507E+03  0.92149078507E+03  0.00000000000E+00 0. -1.
         23    2    1    2    0    0 -0.28048929448E+03  0.75258869195E+03  0.28946439365E+03  0.85846695090E+03  0.90066014830E+02 0.  0.
        254    2    1    2    0    0  0.28048929448E+03 -0.75258869195E+03 -0.60772651365E+02  0.12132063615E+04  0.90725540887E+03 0.  0.
         23    2    4    4    0    0 -0.25707942181E+02 -0.35664378017E+03 -0.44346653531E+03  0.57657165138E+03  0.88975373076E+02 0.  0.
         23    2    4    4    0    0  0.30619723666E+03 -0.39594491177E+03  0.38269388394E+03  0.63663471014E+03  0.91214168032E+02 0.  0.
          1    1    3    3  502    0 -0.14329491256E+03  0.44331319717E+03  0.12557516484E+03  0.48252372457E+03  0.00000000000E+00 0.  1.
         -1    1    3    3    0  502 -0.13719438192E+03  0.30927549478E+03  0.16388922881E+03  0.37594322633E+03  0.00000000000E+00 0. -1.
         11    1    5    5    0    0 -0.56928921335E+01 -0.27925449382E+03 -0.28479879362E+03  0.39890579613E+03  0.00000000000E+00 0.  1.
        -11    1    5    5    0    0 -0.20015050047E+02 -0.77389286355E+02 -0.15866774169E+03  0.17766585525E+03  0.00000000000E+00 0. -1.
          3    1    6    6  503    0  0.77258472057E+01 -0.29398146208E+02  0.34167441972E+01  0.30587805682E+02  0.00000000000E+00 0. -1.
         -3    1    6    6    0  503  0.29847138945E+03 -0.36654676557E+03  0.37927713975E+03  0.60604690446E+03  0.00000000000E+00 0.  1.
<mgrwt>
<rscale>  0 0.20590120E+04</rscale>
<asrwt>0</asrwt>
<pdfrwt beam="1">  1        2 0.14176781E+00 0.20590120E+04</pdfrwt>
<pdfrwt beam="2">  1       -2 0.17695116E+00 0.20590120E+04</pdfrwt>
<totfact> 0.49910361E+00</totfact>
</mgrwt>
</event>
<event>
12    2  0.3552864E-008  0.4006019E+04  0.7818608E-02  0.8003334E-01
          2   -1    0    0  501    0  0.00000000000E+00  0.00000000000E+00  0.33144562004E+04  0.33144562004E+04  0.00000000000E+00 0. -1.
         -2   -1    0    0    0  501 -0.00000000000E+00 -0.00000000000E+00 -0.12104689226E+04  0.12104689226E+04  0.00000000000E+00 0.  1.
         23    2    1    2    0    0  0.30682335748E+03 -0.85448866066E+03 -0.88705195072E+03  0.12725371146E+04  0.90543364804E+02 0.  0.
        254    2    1    2    0    0 -0.30682335748E+03  0.85448866066E+03  0.29910392285E+04  0.32523880084E+04  0.89856588325E+03 0.  0.
         23    2    4    4    0    0  0.22700565488E+03 -0.13203255675E+02  0.42259346308E+03  0.48771187939E+03  0.87015797118E+02 0.  0.
         23    2    4    4    0    0 -0.53382901236E+03  0.86769191634E+03  0.25684457655E+04  0.27646761290E+04  0.93047149627E+02 0.  0.
          3    1    3    3  502    0  0.10281505279E+03 -0.36509897026E+03 -0.42039206226E+03  0.56621345726E+03  0.00000000000E+00 0. -1.
         -3    1    3    3    0  502  0.20400830469E+03 -0.48938969040E+03 -0.46665988846E+03  0.70632365736E+03  0.00000000000E+00 0.  1.
         11    1    5    5    0    0  0.55930058974E+02 -0.15191625257E+02  0.45708703358E+02  0.73812211303E+02  0.00000000000E+00 0. -1.
        -11    1    5    5    0    0  0.17107559590E+03  0.19883695822E+01  0.37688475972E+03  0.41389966808E+03  0.00000000000E+00 0.  1.
          4    1    6    6  503    0 -0.45279130336E+03  0.68065155945E+03  0.19904587423E+04  0.21517975078E+04  0.00000000000E+00 0.  1.
         -4    1    6    6    0  503 -0.81037708997E+02  0.18704035689E+03  0.57798702317E+03  0.61287862121E+03  0.00000000000E+00 0. -1.
<mgrwt>
<rscale>  0 0.40060186E+04</rscale>
<asrwt>0</asrwt>
<pdfrwt beam="1">  1        2 0.50991633E+00 0.40060186E+04</pdfrwt>
<pdfrwt beam="2">  1       -2 0.18622599E+00 0.40060186E+04</pdfrwt>
<totfact> 0.14099748E-01</totfact>
</mgrwt>
</event>
<event>
12    2  0.3552864E-008  0.1851409E+04  0.7818608E-02  0.8679428E-01
         -2   -1    0    0    0  501 -0.00000000000E+00  0.00000000000E+00  0.15515692146E+04  0.15515692146E+04  0.00000000000E+00 0.  1.
          2   -1    0    0  501    0  0.00000000000E+00 -0.00000000000E+00 -0.55229832475E+03  0.55229832475E+03  0.00000000000E+00 0. -1.
         23    2    1    2    0    0  0.33679982097E+03  0.49798801172E+03  0.80024151725E+03  0.10049590918E+04  0.90167128804E+02 0.  0.
        254    2    1    2    0    0 -0.33679982097E+03 -0.49798801172E+03  0.19902937258E+03  0.10989084475E+04  0.89808735968E+03 0.  0.
         23    2    4    4    0    0 -0.97332419242E+02 -0.19653839052E+03  0.53186154271E+03  0.58225823853E+03  0.89705166727E+02 0.  0.
         23    2    4    4    0    0 -0.23946740172E+03 -0.30144962120E+03 -0.33283217013E+03  0.51665020897E+03  0.89071175746E+02 0.  0.
          1    1    3    3  502    0  0.16536499739E+03  0.24683400450E+03  0.32108504098E+03  0.43745652547E+03  0.00000000000E+00 0. -1.
         -1    1    3    3    0  502  0.17143482358E+03  0.25115400722E+03  0.47915647627E+03  0.56750256636E+03  0.00000000000E+00 0.  1.
         11    1    5    5    0    0 -0.79999023014E+02 -0.73548677726E+02  0.30247365325E+03  0.32140249313E+03  0.00000000000E+00 0. -1.
        -11    1    5    5    0    0 -0.17333396228E+02 -0.12298971279E+03  0.22938788946E+03  0.26085574540E+03  0.00000000000E+00 0.  1.
          3    1    6    6  503    0 -0.32869411131E+02 -0.10517232906E+03 -0.92629845091E+02  0.14395105136E+03  0.00000000000E+00 0.  1.
         -3    1    6    6    0  503 -0.20659799059E+03 -0.19627729214E+03 -0.24020232503E+03  0.37269915760E+03  0.00000000000E+00 0. -1.
<mgrwt>
<rscale>  0 0.18514093E+04</rscale>
<asrwt>0</asrwt>
<pdfrwt beam="1">  1        2 0.84968974E-01 0.18514093E+04</pdfrwt>
<pdfrwt beam="2">  1       -2 0.23870295E+00 0.18514093E+04</pdfrwt>
<totfact> 0.38850370E+00</totfact>
</mgrwt>
</event>
<event>
12    2  0.3552864E-008  0.2153148E+04  0.7818608E-02  0.8538186E-01
         -2   -1    0    0    0  501 -0.00000000000E+00  0.00000000000E+00  0.66803822708E+03  0.66803822708E+03  0.00000000000E+00 0. -1.
          2   -1    0    0  501    0  0.00000000000E+00 -0.00000000000E+00 -0.17349477294E+04  0.17349477294E+04  0.00000000000E+00 0.  1.
         23    2    1    2    0    0 -0.20730918168E+03  0.63346187598E+03 -0.10863000843E+04  0.12778228726E+04  0.92370858111E+02 0.  0.
        254    2    1    2    0    0  0.20730918168E+03 -0.63346187598E+03  0.19390582012E+02  0.11251630839E+04  0.90629185449E+03 0.  0.
         23    2    4    4    0    0  0.10601704038E+03  0.11749244431E+03 -0.25695804703E+03  0.31353636098E+03  0.85050128776E+02 0.  0.
         23    2    4    4    0    0  0.10129214130E+03 -0.75095432028E+03  0.27634862904E+03  0.81162672288E+03  0.90426121706E+02 0.  0.
          3    1    3    3  502    0 -0.11066560700E+00  0.58133739629E+02 -0.62919284655E+02  0.85664346794E+02  0.00000000000E+00 0. -1.
         -3    1    3    3    0  502 -0.20719851607E+03  0.57532813635E+03 -0.10233807996E+04  0.11921585258E+04  0.00000000000E+00 0.  1.
         11    1    5    5    0    0  0.59566922493E+02  0.88815234874E+02 -0.22778826818E+03  0.25164232419E+03  0.00000000000E+00 0.  1.
        -11    1    5    5    0    0  0.46450117891E+02  0.28677209432E+02 -0.29169778847E+02  0.61894036796E+02  0.00000000000E+00 0. -1.
          2    1    6    6  503    0  0.61256091238E+02 -0.56959950513E+03  0.16982829693E+03  0.59752619641E+03  0.00000000000E+00 0. -1.
         -2    1    6    6    0  503  0.40036050057E+02 -0.18135481515E+03  0.10652033211E+03  0.21410052647E+03  0.00000000000E+00 0.  1.
<mgrwt>
<rscale>  0 0.21531478E+04</rscale>
<asrwt>0</asrwt>
<pdfrwt beam="1">  1        2 0.26691503E+00 0.21531478E+04</pdfrwt>
<pdfrwt beam="2">  1       -2 0.10277511E+00 0.21531478E+04</pdfrwt>
<totfact> 0.66585076E+00</totfact>
</mgrwt>
</event>
<event>
12    2  0.3552864E-008  0.1399609E+04  0.7818608E-02  0.8954102E-01
         -2   -1    0    0    0  501 -0.00000000000E+00  0.00000000000E+00  0.50125096810E+03  0.50125096810E+03  0.00000000000E+00 0.  1.
          2   -1    0    0  501    0  0.00000000000E+00 -0.00000000000E+00 -0.97700785526E+03  0.97700785526E+03  0.00000000000E+00 0. -1.
         23    2    1    2    0    0 -0.12041720612E+03 -0.32898351385E+03  0.48552106731E+02  0.36525763762E+03  0.91243514051E+02 0.  0.
        254    2    1    2    0    0  0.12041720612E+03  0.32898351385E+03 -0.52430899389E+03  0.11130011857E+04  0.91713753737E+03 0.  0.
         23    2    4    4    0    0  0.49868146498E+03  0.22465098521E+03 -0.18018666798E+03  0.58332270789E+03  0.92988588314E+02 0.  0.
         23    2    4    4    0    0 -0.37826425886E+03  0.10433252864E+03 -0.34412232591E+03  0.52967847784E+03  0.90387989444E+02 0.  0.
          3    1    3    3  502    0  0.47453794798E+01 -0.35840579769E+02  0.28222701833E+02  0.45864874178E+02  0.00000000000E+00 0. -1.
         -3    1    3    3    0  502 -0.12516258560E+03 -0.29314293408E+03  0.20329404898E+02  0.31939276344E+03  0.00000000000E+00 0.  1.
         11    1    5    5    0    0  0.15734725946E+03  0.28852844279E+02 -0.70499993149E+02  0.17481674896E+03  0.00000000000E+00 0. -1.
        -11    1    5    5    0    0  0.34133420551E+03  0.19579814093E+03 -0.10968667483E+03  0.40850595893E+03  0.00000000000E+00 0.  1.
          1    1    6    6  503    0 -0.22580689094E+02 -0.15431914193E+02 -0.24282622957E+02  0.36574270646E+02  0.00000000000E+00 0. -1.
         -1    1    6    6    0  503 -0.35568356977E+03  0.11976444284E+03 -0.31983970295E+03  0.49310420720E+03  0.00000000000E+00 0.  1.
<mgrwt>
<rscale>  0 0.13996087E+04</rscale>
<asrwt>0</asrwt>
<pdfrwt beam="1">  1        2 0.15030890E+00 0.13996087E+04</pdfrwt>
<pdfrwt beam="2">  1       -2 0.77115534E-01 0.13996087E+04</pdfrwt>
<totfact> 0.38090711E+01</totfact>
</mgrwt>
</event>
<event>
12    2  0.3552864E-008  0.1201472E+04  0.7818608E-02  0.9111569E-01
         -2   -1    0    0    0  501 -0.00000000000E+00  0.00000000000E+00  0.21431134264E+03  0.21431134264E+03  0.00000000000E+00 0.  1.
          2   -1    0    0  501    0  0.00000000000E+00 -0.00000000000E+00 -0.16839223715E+04  0.16839223715E+04  0.00000000000E+00 0. -1.
         23    2    1    2    0    0  0.76698886613E+02 -0.16126109906E+03 -0.46969719636E+02  0.20645723745E+03  0.92361112259E+02 0.  0.
        254    2    1    2    0    0 -0.76698886613E+02  0.16126109906E+03 -0.14226413093E+04  0.16917764767E+04  0.89794849022E+03 0.  0.
         23    2    4    4    0    0 -0.22845436359E+02 -0.29942651105E+03 -0.10314885263E+04  0.10782710871E+04  0.92313638181E+02 0.  0.
         23    2    4    4    0    0 -0.53853450254E+02  0.46068761010E+03 -0.39115278293E+03  0.61350538964E+03  0.90857555100E+02 0.  0.
          2    1    3    3  502    0  0.57532298342E+02 -0.16515862942E+03 -0.57679397330E+02  0.18415822301E+03  0.00000000000E+00 0. -1.
         -2    1    3    3    0  502  0.19166588272E+02  0.38975303667E+01  0.10709677693E+02  0.22299014445E+02  0.00000000000E+00 0.  1.
         11    1    5    5    0    0  0.30696707596E+02 -0.18780757280E+03 -0.63596912450E+03  0.66383032438E+03  0.00000000000E+00 0. -1.
        -11    1    5    5    0    0 -0.53542143955E+02 -0.11161893825E+03 -0.39551940184E+03  0.41444076270E+03  0.00000000000E+00 0.  1.
          1    1    6    6  503    0 -0.77432063026E+02  0.39898934388E+03 -0.34184769964E+03  0.53108198111E+03  0.00000000000E+00 0. -1.
         -1    1    6    6    0  503  0.23578612772E+02  0.61698266226E+02 -0.49305083292E+02  0.82423408532E+02  0.00000000000E+00 0.  1.
<mgrwt>
<rscale>  0 0.12014719E+04</rscale>
<asrwt>0</asrwt>
<pdfrwt beam="1">  1        2 0.25906498E+00 0.12014719E+04</pdfrwt>
<pdfrwt beam="2">  1       -2 0.32970976E-01 0.12014719E+04</pdfrwt>
<totfact> 0.84776532E+01</totfact>
</mgrwt>
</event>
<event>
12    2  0.3772868E-008  0.2675619E+04  0.7818608E-02  0.8342959E-01
         -1   -1    0    0    0  501 -0.00000000000E+00  0.00000000000E+00  0.10879736071E+04  0.10879736071E+04  0.00000000000E+00 0.  1.
          1   -1    0    0  501    0  0.00000000000E+00 -0.00000000000E+00 -0.16450164139E+04  0.16450164139E+04  0.00000000000E+00 0. -1.
         23    2    1    2    0    0 -0.23181539365E+03 -0.26800230514E+03  0.90538452063E+03  0.97660887771E+03  0.92087770852E+02 0.  0.
        254    2    1    2    0    0  0.23181539365E+03  0.26800230514E+03 -0.14624273274E+04  0.17563811433E+04  0.90587936297E+03 0.  0.
         23    2    4    4    0    0  0.46895549014E+03 -0.48207305899E+02 -0.11413705648E+04  0.12385204310E+04  0.94672571828E+02 0.  0.
         23    2    4    4    0    0 -0.23714009649E+03  0.31620961104E+03 -0.32105676263E+03  0.51786071226E+03  0.94224885224E+02 0.  0.
          1    1    3    3  502    0 -0.13980121161E+02 -0.39353802289E+01  0.10629945131E+03  0.10728701858E+03  0.00000000000E+00 0. -1.
         -1    1    3    3    0  502 -0.21783527249E+03 -0.26406692491E+03  0.79908506932E+03  0.86932185914E+03  0.00000000000E+00 0.  1.
         11    1    5    5    0    0  0.75116937538E+01 -0.24153665831E+01 -0.16276209117E+01  0.80565928663E+01  0.00000000000E+00 0. -1.
        -11    1    5    5    0    0  0.46144379639E+03 -0.45791939316E+02 -0.11397429439E+04  0.12304638381E+04  0.00000000000E+00 0.  1.
          4    1    6    6  503    0 -0.67309213104E+01  0.18028538453E+02 -0.50272933740E+02  0.53830301571E+02  0.00000000000E+00 0. -1.
         -4    1    6    6    0  503 -0.23040917518E+03  0.29818107259E+03 -0.27078382889E+03  0.46403041069E+03  0.00000000000E+00 0.  1.
<mgrwt>
<rscale>  0 0.26756191E+04</rscale>
<asrwt>0</asrwt>
<pdfrwt beam="1">  1        1 0.25307945E+00 0.26756191E+04</pdfrwt>
<pdfrwt beam="2">  1       -1 0.16738055E+00 0.26756191E+04</pdfrwt>
<totfact> 0.11699503E+00</totfact>
</mgrwt>
</event>
<event>
12    2  0.3552864E-008  0.4071838E+04  0.7818608E-02  0.7990209E-01
          2   -1    0    0  501    0  0.00000000000E+00  0.00000000000E+00  0.24135344598E+04  0.24135344598E+04  0.00000000000E+00 0. -1.
         -2   -1    0    0    0  501 -0.00000000000E+00 -0.00000000000E+00 -0.17173843634E+04  0.17173843634E+04  0.00000000000E+00 0.  1.
         23    2    1    2    0    0  0.41975836484E+03  0.98107977660E+03 -0.13059174453E+04  0.16890413148E+04  0.93410792861E+02 0.  0.
        254    2    1    2    0    0 -0.41975836484E+03 -0.98107977660E+03  0.20020675417E+04  0.24418775085E+04  0.90320358290E+03 0.  0.
         23    2    4    4    0    0 -0.36122040619E+03 -0.19661028877E+03  0.13559521937E+04  0.14199142280E+04  0.91729361231E+02 0.  0.
         23    2    4    4    0    0 -0.58537958643E+02 -0.78446948783E+03  0.64611534796E+03  0.10219632805E+04  0.90137860503E+02 0.  0.
          3    1    3    3  502    0  0.20114553083E+03  0.57844847628E+03 -0.71872402755E+03  0.94425970584E+03  0.00000000000E+00 0. -1.
         -3    1    3    3    0  502  0.21861283400E+03  0.40263130031E+03 -0.58719341774E+03  0.74478160894E+03  0.00000000000E+00 0.  1.
         11    1    5    5    0    0 -0.15082798319E+03 -0.13426411644E+03  0.65110707293E+03  0.68170107371E+03  0.00000000000E+00 0. -1.
        -11    1    5    5    0    0 -0.21039242300E+03 -0.62346172326E+02  0.70484512077E+03  0.73821315426E+03  0.00000000000E+00 0.  1.
          2    1    6    6  503    0  0.39774115400E+00 -0.16132579768E+03  0.17886819373E+03  0.24087341472E+03  0.00000000000E+00 0.  1.
         -2    1    6    6    0  503 -0.58935699797E+02 -0.62314369015E+03  0.46724715423E+03  0.78108986578E+03  0.00000000000E+00 0. -1.
<mgrwt>
<rscale>  0 0.40718381E+04</rscale>
<asrwt>0</asrwt>
<pdfrwt beam="1">  1        2 0.37131299E+00 0.40718381E+04</pdfrwt>
<pdfrwt beam="2">  1       -2 0.26421298E+00 0.40718381E+04</pdfrwt>
<totfact> 0.16104725E-01</totfact>
</mgrwt>
</event>
<event>
12    2  0.3552864E-008  0.1720477E+04  0.7818608E-02  0.8749771E-01
          1   -1    0    0  501    0  0.00000000000E+00  0.00000000000E+00  0.52120797637E+03  0.52120797637E+03  0.00000000000E+00 0. -1.
         -1   -1    0    0    0  501 -0.00000000000E+00 -0.00000000000E+00 -0.14197985061E+04  0.14197985061E+04  0.00000000000E+00 0.  1.
         23    2    1    2    0    0  0.16414881097E+03  0.36994316036E+03 -0.85840983059E+03  0.95327644707E+03  0.89809650088E+02 0.  0.
        254    2    1    2    0    0 -0.16414881097E+03 -0.36994316036E+03 -0.40180699099E+02  0.98773003536E+03  0.90010741588E+03 0.  0.
         23    2    4    4    0    0 -0.35065471095E+03 -0.32168527481E+03 -0.35893688545E+03  0.60417313555E+03  0.98738784879E+02 0.  0.
         23    2    4    4    0    0  0.18650589998E+03 -0.48257885552E+02  0.31875618635E+03  0.38355689980E+03  0.91635772515E+02 0.  0.
          4    1    3    3  502    0  0.13579539543E+03  0.19684266084E+03 -0.49009799755E+03  0.54532877216E+03  0.00000000000E+00 0. -1.
         -4    1    3    3    0  502  0.28353415545E+02  0.17310049952E+03 -0.36831183304E+03  0.40794767491E+03  0.00000000000E+00 0.  1.
         11    1    5    5    0    0 -0.26318819447E+03 -0.19574843924E+03 -0.28229635283E+03  0.43275478968E+03  0.00000000000E+00 0. -1.
        -11    1    5    5    0    0 -0.87466516487E+02 -0.12593683557E+03 -0.76640532622E+02  0.17141834587E+03  0.00000000000E+00 0.  1.
          1    1    6    6  503    0  0.84290625551E+02 -0.55586557617E+02  0.10060407890E+03  0.14253405079E+03  0.00000000000E+00 0. -1.
         -1    1    6    6    0  503  0.10221527443E+03  0.73286720651E+01  0.21815210745E+03  0.24102284901E+03  0.00000000000E+00 0.  1.
<mgrwt>
<rscale>  0 0.17204770E+04</rscale>
<asrwt>0</asrwt>
<pdfrwt beam="1">  1        1 0.80185845E-01 0.17204770E+04</pdfrwt>
<pdfrwt beam="2">  1       -1 0.21843053E+00 0.17204770E+04</pdfrwt>
<totfact> 0.44805074E+00</totfact>
</mgrwt>
</event>
<event>
12    2  0.3552864E-008  0.3162425E+04  0.7818608E-02  0.8198812E-01
         -2   -1    0    0    0  501 -0.00000000000E+00  0.00000000000E+00  0.80366574680E+03  0.80366574680E+03  0.00000000000E+00 0.  1.
          2   -1    0    0  501    0  0.00000000000E+00 -0.00000000000E+00 -0.31110366037E+04  0.31110366037E+04  0.00000000000E+00 0. -1.
         23    2    1    2    0    0  0.78609160670E+03  0.11321802281E+04 -0.15687556666E+04  0.20904481337E+04  0.95952983296E+02 0.  0.
        254    2    1    2    0    0 -0.78609160670E+03 -0.11321802281E+04 -0.73861519025E+03  0.18242542168E+04  0.93945673945E+03 0.  0.
         23    2    4    4    0    0 -0.71353034638E+03 -0.12858274271E+04 -0.61655444084E+03  0.15968969832E+04  0.86387897431E+02 0.  0.
         23    2    4    4    0    0 -0.72561260323E+02  0.15364719908E+03 -0.12206074941E+03  0.22735723360E+03  0.88993746082E+02 0.  0.
          4    1    3    3  502    0  0.71453134958E+03  0.10096618305E+04 -0.13638238458E+04  0.18411918813E+04  0.00000000000E+00 0. -1.
         -4    1    3    3    0  502  0.71560257128E+02  0.12251839760E+03 -0.20493182080E+03  0.24925625233E+03  0.00000000000E+00 0.  1.
         11    1    5    5    0    0 -0.51231515550E+02 -0.65556738814E+02 -0.51843722628E+02  0.98031248923E+02  0.00000000000E+00 0.  1.
        -11    1    5    5    0    0 -0.66229883083E+03 -0.12202706883E+04 -0.56471071821E+03  0.14988657343E+04  0.00000000000E+00 0. -1.
          3    1    6    6  503    0 -0.30611784065E+02  0.76144444164E+02 -0.11172283088E+03  0.13862556994E+03  0.00000000000E+00 0. -1.
         -3    1    6    6    0  503 -0.41949476258E+02  0.77502754914E+02 -0.10337918529E+02  0.88731663667E+02  0.00000000000E+00 0.  1.
<mgrwt>
<rscale>  0 0.31624254E+04</rscale>
<asrwt>0</asrwt>
<pdfrwt beam="1">  1        2 0.47862102E+00 0.31624254E+04</pdfrwt>
<pdfrwt beam="2">  1       -2 0.12364088E+00 0.31624254E+04</pdfrwt>
<totfact> 0.61580365E-01</totfact>
</mgrwt>
</event>
<event>
12    2  0.3552864E-008  0.3659803E+04  0.7818608E-02  0.8076929E-01
          2   -1    0    0  501    0  0.00000000000E+00  0.00000000000E+00  0.25932320321E+04  0.25932320321E+04  0.00000000000E+00 0. -1.
         -2   -1    0    0    0  501 -0.00000000000E+00 -0.00000000000E+00 -0.12912607375E+04  0.12912607375E+04  0.00000000000E+00 0.  1.
         23    2    1    2    0    0 -0.11609187382E+04  0.95654499206E+03  0.14725597067E+04  0.21070157282E+04  0.91501641768E+02 0.  0.
        254    2    1    2    0    0  0.11609187382E+04 -0.95654499206E+03 -0.17058841212E+03  0.17774770414E+04  0.93145777562E+03 0.  0.
         23    2    4    4    0    0  0.74303821046E+03 -0.92339841602E+03 -0.44378509846E+03  0.12689700346E+04  0.92570611783E+02 0.  0.
         23    2    4    4    0    0  0.41788052774E+03 -0.33146576045E+02  0.27319668633E+03  0.50850700680E+03  0.90664853015E+02 0.  0.
          3    1    3    3  502    0 -0.11353202647E+04  0.93584221422E+03  0.14568142873E+04  0.20705218234E+04  0.00000000000E+00 0. -1.
         -3    1    3    3    0  502 -0.25598473454E+02  0.20702777841E+02  0.15745419356E+02  0.36493904754E+02  0.00000000000E+00 0.  1.
         11    1    5    5    0    0  0.56277831659E+03 -0.67703120641E+03 -0.36951454363E+03  0.95479405425E+03  0.00000000000E+00 0. -1.
        -11    1    5    5    0    0  0.18025989387E+03 -0.24636720961E+03 -0.74270554826E+02  0.31417598034E+03  0.00000000000E+00 0.  1.
          2    1    6    6  503    0  0.11714045820E+02 -0.17317477997E+02  0.49112548059E+01  0.21476366951E+02  0.00000000000E+00 0. -1.
         -2    1    6    6    0  503  0.40616648192E+03 -0.15829098048E+02  0.26828543153E+03  0.48703063985E+03  0.00000000000E+00 0.  1.
<mgrwt>
<rscale>  0 0.36598026E+04</rscale>
<asrwt>0</asrwt>
<pdfrwt beam="1">  1        2 0.39895877E+00 0.36598026E+04</pdfrwt>
<pdfrwt beam="2">  1       -2 0.19865550E+00 0.36598026E+04</pdfrwt>
<totfact> 0.33806587E-01</totfact>
</mgrwt>
</event>
<event>
12    2  0.3552864E-008  0.3429731E+04  0.7818608E-02  0.8130648E-01
         -2   -1    0    0    0  501 -0.00000000000E+00  0.00000000000E+00  0.13671931895E+04  0.13671931895E+04  0.00000000000E+00 0.  1.
          2   -1    0    0  501    0  0.00000000000E+00 -0.00000000000E+00 -0.21509491470E+04  0.21509491470E+04  0.00000000000E+00 0. -1.
         23    2    1    2    0    0 -0.13733187507E+04  0.34137816482E+03  0.39396782491E+03  0.14716644717E+04  0.89678470171E+02 0.  0.
        254    2    1    2    0    0  0.13733187507E+04 -0.34137816482E+03 -0.11777237824E+04  0.20464778648E+04  0.89358541893E+03 0.  0.
         23    2    4    4    0    0  0.13854513202E+04 -0.28711928592E+03 -0.74639445303E+03  0.16020838301E+04  0.87493279706E+02 0.  0.
         23    2    4    4    0    0 -0.12132569563E+02 -0.54258878908E+02 -0.43132932940E+03  0.44439403469E+03  0.91377472532E+02 0.  0.
          4    1    3    3  502    0 -0.68045002964E+01 -0.23894897327E+01  0.77845630523E+01  0.10611800384E+02  0.00000000000E+00 0. -1.
         -4    1    3    3    0  502 -0.13665142504E+04  0.34376765456E+03  0.38618326186E+03  0.14610526714E+04  0.00000000000E+00 0.  1.
         11    1    5    5    0    0  0.69826105383E+03 -0.10034549133E+03 -0.36558237865E+03  0.79453646392E+03  0.00000000000E+00 0. -1.
        -11    1    5    5    0    0  0.68719026639E+03 -0.18677379459E+03 -0.38081207437E+03  0.80754736613E+03  0.00000000000E+00 0.  1.
          4    1    6    6  503    0 -0.15426795897E+02 -0.79034068585E+02 -0.35722059272E+03  0.36618427314E+03  0.00000000000E+00 0. -1.
         -4    1    6    6    0  503  0.32942263339E+01  0.24775189677E+02 -0.74108736677E+02  0.78209761555E+02  0.00000000000E+00 0.  1.
<mgrwt>
<rscale>  0 0.34297306E+04</rscale>
<asrwt>0</asrwt>
<pdfrwt beam="1">  1        2 0.33091525E+00 0.34297306E+04</pdfrwt>
<pdfrwt beam="2">  1       -2 0.21033741E+00 0.34297306E+04</pdfrwt>
<totfact> 0.51812023E-01</totfact>
</mgrwt>
</event>
<event>
12    2  0.3552864E-008  0.1600651E+04  0.7818608E-02  0.8820148E-01
          1   -1    0    0  501    0  0.00000000000E+00  0.00000000000E+00  0.10254476175E+04  0.10254476175E+04  0.00000000000E+00 0. -1.
         -1   -1    0    0    0  501 -0.00000000000E+00 -0.00000000000E+00 -0.62462603022E+03  0.62462603022E+03  0.00000000000E+00 0.  1.
         23    2    1    2    0    0  0.34725933576E+03 -0.14703054957E+03  0.36621584827E+03  0.53379562361E+03  0.92826135744E+02 0.  0.
        254    2    1    2    0    0 -0.34725933576E+03  0.14703054957E+03  0.34605738968E+02  0.11162780241E+04  0.10500819211E+04 0.  0.
         23    2    4    4    0    0 -0.33684047529E+03  0.48893568087E+03  0.30376370083E+03  0.67321057829E+03  0.91763233122E+02 0.  0.
         23    2    4    4    0    0 -0.10418860466E+02 -0.34190513130E+03 -0.26915796186E+03  0.44306744579E+03  0.82795420275E+02 0.  0.
          1    1    3    3  502    0  0.24582499382E+03 -0.12830130610E+03  0.31146998151E+03  0.41701882705E+03  0.00000000000E+00 0. -1.
         -1    1    3    3    0  502  0.10143434194E+03 -0.18729243463E+02  0.54745866762E+02  0.11677679656E+03  0.00000000000E+00 0.  1.
         11    1    5    5    0    0 -0.29912612715E+03  0.44135238580E+03  0.30136726577E+03  0.61244640359E+03  0.00000000000E+00 0.  1.
        -11    1    5    5    0    0 -0.37714348139E+02  0.47583295070E+02  0.23964350612E+01  0.60764174694E+02  0.00000000000E+00 0. -1.
          1    1    6    6  503    0 -0.45264786993E+02 -0.18310301826E+03 -0.15889145610E+03  0.24662139214E+03  0.00000000000E+00 0. -1.
         -1    1    6    6    0  503  0.34845926527E+02 -0.15880211304E+03 -0.11026650576E+03  0.19644605365E+03  0.00000000000E+00 0.  1.
<mgrwt>
<rscale>  0 0.16006515E+04</rscale>
<asrwt>0</asrwt>
<pdfrwt beam="1">  1        1 0.15776117E+00 0.16006515E+04</pdfrwt>
<pdfrwt beam="2">  1       -1 0.96096312E-01 0.16006515E+04</pdfrwt>
<totfact> 0.14475747E+01</totfact>
</mgrwt>
</event>
<event>
12    2  0.3552864E-008  0.1225936E+04  0.7818608E-02  0.9090453E-01
         -3   -1    0    0    0  501 -0.00000000000E+00  0.00000000000E+00  0.26576298011E+03  0.26576298011E+03  0.00000000000E+00 0. -1.
          3   -1    0    0  501    0  0.00000000000E+00 -0.00000000000E+00 -0.14137770543E+04  0.14137770543E+04  0.00000000000E+00 0.  1.
         23    2    1    2    0    0 -0.10631090193E+02  0.12586645390E+03 -0.58619427445E+03  0.60675803320E+03  0.92607770552E+02 0.  0.
        254    2    1    2    0    0  0.10631090193E+02 -0.12586645390E+03 -0.56181979974E+03  0.10727820012E+04  0.90513222815E+03 0.  0.
         23    2    4    4    0    0 -0.25577126681E+03 -0.27072447945E+02  0.14190424053E+03  0.30746603467E+03  0.90811291310E+02 0.  0.
         23    2    4    4    0    0  0.26640235700E+03 -0.98794005954E+02 -0.70372404027E+03  0.76531596654E+03  0.98744783955E+02 0.  0.
          2    1    3    3  502    0  0.40453611766E+02  0.59377460869E+02 -0.30368385268E+03  0.31206739647E+03  0.00000000000E+00 0. -1.
         -2    1    3    3    0  502 -0.51084701959E+02  0.66488993031E+02 -0.28251042177E+03  0.29469063673E+03  0.00000000000E+00 0.  1.
         11    1    5    5    0    0 -0.23407851180E+03  0.29199675495E+01  0.11023893353E+03  0.25875451371E+03  0.00000000000E+00 0. -1.
        -11    1    5    5    0    0 -0.21692755012E+02 -0.29992415495E+02  0.31665306993E+02  0.48711520959E+02  0.00000000000E+00 0.  1.
          3    1    6    6  503    0  0.23959040239E+02 -0.27581926000E+02 -0.35625294377E+02  0.51029009892E+02  0.00000000000E+00 0. -1.
         -3    1    6    6    0  503  0.24244331677E+03 -0.71212079954E+02 -0.66809874589E+03  0.71428695665E+03  0.00000000000E+00 0.  1.
<mgrwt>
<rscale>  0 0.12259357E+04</rscale>
<asrwt>0</asrwt>
<pdfrwt beam="1">  1        3 0.21750416E+00 0.12259357E+04</pdfrwt>
<pdfrwt beam="2">  1       -3 0.40886613E-01 0.12259357E+04</pdfrwt>
<totfact> 0.17687776E+00</totfact>
</mgrwt>
</event>
<event>
12    2  0.3552864E-008  0.1394223E+04  0.7818608E-02  0.8958011E-01
          2   -1    0    0  501    0  0.00000000000E+00  0.00000000000E+00  0.15358144620E+04  0.15358144620E+04  0.00000000000E+00 0. -1.
         -2   -1    0    0    0  501 -0.00000000000E+00 -0.00000000000E+00 -0.31642147390E+03  0.31642147390E+03  0.00000000000E+00 0.  1.
         23    2    1    2    0    0  0.64817697115E+02  0.37536280880E+03  0.53840272498E+03  0.66596016223E+03  0.92341059785E+02 0.  0.
        254    2    1    2    0    0 -0.64817697115E+02 -0.37536280880E+03  0.68099026309E+03  0.11862757736E+04  0.89353449884E+03 0.  0.
         23    2    4    4    0    0  0.20249304490E+03  0.22032330353E+03  0.21199831618E+03  0.37744709198E+03  0.89315339488E+02 0.  0.
         23    2    4    4    0    0 -0.26731074201E+03 -0.59568611233E+03  0.46899194691E+03  0.80882868166E+03  0.89181908493E+02 0.  0.
          4    1    3    3  502    0  0.66006372839E+02  0.18820743583E+03  0.22274805246E+03  0.29899092801E+03  0.00000000000E+00 0.  1.
         -4    1    3    3    0  502 -0.11886757243E+01  0.18715537297E+03  0.31565467251E+03  0.36696923422E+03  0.00000000000E+00 0. -1.
         11    1    5    5    0    0  0.90072412172E+02  0.37635339704E+02  0.71958460890E+02  0.12127439269E+03  0.00000000000E+00 0. -1.
        -11    1    5    5    0    0  0.11242063273E+03  0.18268796382E+03  0.14003985529E+03  0.25617269928E+03  0.00000000000E+00 0.  1.
          3    1    6    6  503    0 -0.21763601904E+03 -0.51897294472E+03  0.43514078159E+03  0.71136899985E+03  0.00000000000E+00 0.  1.
         -3    1    6    6    0  503 -0.49674722978E+02 -0.76713167605E+02  0.33851165312E+02  0.97459681817E+02  0.00000000000E+00 0. -1.
<mgrwt>
<rscale>  0 0.13942233E+04</rscale>
<asrwt>0</asrwt>
<pdfrwt beam="1">  1        2 0.23627914E+00 0.13942233E+04</pdfrwt>
<pdfrwt beam="2">  1       -2 0.48680228E-01 0.13942233E+04</pdfrwt>
<totfact> 0.47138039E+01</totfact>
</mgrwt>
</event>
<event>
12    2  0.3552864E-008  0.4498838E+04  0.7818608E-02  0.7910840E-01
         -2   -1    0    0    0  501 -0.00000000000E+00  0.00000000000E+00  0.29680677853E+04  0.29680677853E+04  0.00000000000E+00 0.  1.
          2   -1    0    0  501    0  0.00000000000E+00 -0.00000000000E+00 -0.17047743201E+04  0.17047743201E+04  0.00000000000E+00 0. -1.
         23    2    1    2    0    0  0.50337033299E+02 -0.19616590214E+04 -0.33319770406E+03  0.19925219183E+04  0.92102940932E+02 0.  0.
        254    2    1    2    0    0 -0.50337033299E+02  0.19616590214E+04  0.15964911693E+04  0.26803201871E+04  0.88582860544E+03 0.  0.
         23    2    4    4    0    0  0.15287458640E+03  0.40403643540E+03  0.80687167285E+03  0.91979248518E+03  0.91434342811E+02 0.  0.
         23    2    4    4    0    0 -0.20321161970E+03  0.15576225860E+04  0.78961949646E+03  0.17605277019E+04  0.92063874672E+02 0.  0.
          1    1    3    3  502    0 -0.92942486567E+01 -0.74576537397E+03 -0.91637483116E+02  0.75143183616E+03  0.00000000000E+00 0. -1.
         -1    1    3    3    0  502  0.59631281956E+02 -0.12158936475E+04 -0.24156022095E+03  0.12410900822E+04  0.00000000000E+00 0.  1.
         11    1    5    5    0    0  0.93492708496E+01  0.17267358603E+02  0.95122671142E+02  0.97128230210E+02  0.00000000000E+00 0.  1.
        -11    1    5    5    0    0  0.14352531555E+03  0.38676907680E+03  0.71174900171E+03  0.82266425497E+03  0.00000000000E+00 0. -1.
          4    1    6    6  503    0 -0.20372046088E+03  0.13101281448E+04  0.65649089145E+03  0.14794992641E+04  0.00000000000E+00 0. -1.
         -4    1    6    6    0  503  0.50884118720E+00  0.24749444126E+03  0.13312860501E+03  0.28102843779E+03  0.00000000000E+00 0.  1.
<mgrwt>
<rscale>  0 0.44988380E+04</rscale>
<asrwt>0</asrwt>
<pdfrwt beam="1">  1        2 0.26227297E+00 0.44988380E+04</pdfrwt>
<pdfrwt beam="2">  1       -2 0.45662581E+00 0.44988380E+04</pdfrwt>
<totfact> 0.23216168E-02</totfact>
</mgrwt>
</event>
<event>
12    2  0.3552864E-008  0.1188510E+04  0.7818608E-02  0.9122974E-01
         -2   -1    0    0    0  501 -0.00000000000E+00  0.00000000000E+00  0.13035447210E+03  0.13035447210E+03  0.00000000000E+00 0.  1.
          2   -1    0    0  501    0  0.00000000000E+00 -0.00000000000E+00 -0.27090672567E+04  0.27090672567E+04  0.00000000000E+00 0. -1.
         23    2    1    2    0    0 -0.19506253645E+03 -0.26278327493E+02 -0.80667103278E+03  0.83552095203E+03  0.92936335910E+02 0.  0.
        254    2    1    2    0    0  0.19506253645E+03  0.26278327493E+02 -0.17720417518E+04  0.20039007767E+04  0.91473843763E+03 0.  0.
         23    2    4    4    0    0  0.14944611138E+02  0.42286901904E+03 -0.12233588663E+04  0.12977897356E+04  0.92788648749E+02 0.  0.
         23    2    4    4    0    0  0.18011792531E+03 -0.39659069155E+03 -0.54868288545E+03  0.70611104112E+03  0.88392589992E+02 0.  0.
          3    1    3    3  502    0 -0.20165771486E+03 -0.26277223400E+02 -0.70794317083E+03  0.73657305107E+03  0.00000000000E+00 0. -1.
         -3    1    3    3    0  502  0.65951784163E+01 -0.11040923957E-02 -0.98727861952E+02  0.98947900964E+02  0.00000000000E+00 0.  1.
         11    1    5    5    0    0  0.17075624578E+02  0.92186229534E+02 -0.17527757917E+03  0.19877652686E+03  0.00000000000E+00 0. -1.
        -11    1    5    5    0    0 -0.21310134399E+01  0.33068278951E+03 -0.10480812872E+04  0.10990132088E+04  0.00000000000E+00 0.  1.
          4    1    6    6  503    0  0.60331076797E+02 -0.14855471927E+03 -0.27170314577E+03  0.31548524983E+03  0.00000000000E+00 0. -1.
         -4    1    6    6    0  503  0.11978684851E+03 -0.24803597228E+03 -0.27697973969E+03  0.39062579129E+03  0.00000000000E+00 0.  1.
<mgrwt>
<rscale>  0 0.11885100E+04</rscale>
<asrwt>0</asrwt>
<pdfrwt beam="1">  1        2 0.41677958E+00 0.11885100E+04</pdfrwt>
<pdfrwt beam="2">  1       -2 0.20054534E-01 0.11885100E+04</pdfrwt>
<totfact> 0.55632126E+01</totfact>
</mgrwt>
</event>
<event>
12    2  0.3552864E-008  0.1180226E+04  0.7818608E-02  0.9130342E-01
         -2   -1    0    0    0  501 -0.00000000000E+00  0.00000000000E+00  0.13187228645E+03  0.13187228645E+03  0.00000000000E+00 0.  1.
          2   -1    0    0  501    0  0.00000000000E+00 -0.00000000000E+00 -0.26406884603E+04  0.26406884603E+04  0.00000000000E+00 0. -1.
         23    2    1    2    0    0 -0.85845326715E+02 -0.81765323249E+02 -0.65933920767E+02  0.16605981147E+03  0.95778864433E+02 0.  0.
        254    2    1    2    0    0  0.85845326715E+02  0.81765323249E+02 -0.24428822531E+04  0.26065009353E+04  0.90117613982E+03 0.  0.
         23    2    4    4    0    0  0.19155644911E+03  0.39632257259E+03 -0.70834482279E+03  0.83820133757E+03  0.84045461469E+02 0.  0.
         23    2    4    4    0    0 -0.10571112240E+03 -0.31455724934E+03 -0.17345374303E+04  0.17682995977E+04  0.90234503648E+02 0.  0.
          2    1    3    3  502    0 -0.54958760913E+02  0.73250790796E+01 -0.39679159071E+02  0.68180333302E+02  0.00000000000E+00 0. -1.
         -2    1    3    3    0  502 -0.30886565802E+02 -0.89090402329E+02 -0.26254761695E+02  0.97879478165E+02  0.00000000000E+00 0.  1.
         11    1    5    5    0    0  0.17318721198E+03  0.33240283822E+03 -0.54126810871E+03  0.65837422698E+03  0.00000000000E+00 0. -1.
        -11    1    5    5    0    0  0.18369237133E+02  0.63919734373E+02 -0.16707671409E+03  0.17982711059E+03  0.00000000000E+00 0.  1.
          1    1    6    6  503    0 -0.11926499437E+03 -0.29776247105E+03 -0.16597481401E+04  0.16904586704E+04  0.00000000000E+00 0. -1.
         -1    1    6    6    0  503  0.13553871975E+02 -0.16794778290E+02 -0.74789290226E+02  0.77840927255E+02  0.00000000000E+00 0.  1.
<mgrwt>
<rscale>  0 0.11802265E+04</rscale>
<asrwt>0</asrwt>
<pdfrwt beam="1">  1        2 0.40625974E+00 0.11802265E+04</pdfrwt>
<pdfrwt beam="2">  1       -2 0.20288045E-01 0.11802265E+04</pdfrwt>
<totfact> 0.59833109E+01</totfact>
</mgrwt>
</event>
<event>
12    2  0.3552864E-008  0.1360224E+04  0.7818608E-02  0.8983124E-01
         -2   -1    0    0    0  501 -0.00000000000E+00  0.00000000000E+00  0.17690062140E+03  0.17690062140E+03  0.00000000000E+00 0.  1.
          2   -1    0    0  501    0  0.00000000000E+00 -0.00000000000E+00 -0.26147586426E+04  0.26147586426E+04  0.00000000000E+00 0. -1.
         23    2    1    2    0    0  0.10059385090E+03 -0.18113493915E+03 -0.15506695671E+04  0.15671036312E+04  0.91152046488E+02 0.  0.
        254    2    1    2    0    0 -0.10059385090E+03  0.18113493915E+03 -0.88718845411E+03  0.12245556328E+04  0.81823233603E+03 0.  0.
         23    2    4    4    0    0 -0.29155941987E+03  0.42216870303E+03 -0.58524729185E+03  0.78367046741E+03  0.91606221019E+02 0.  0.
         23    2    4    4    0    0  0.19096556897E+03 -0.24103376388E+03 -0.30194116226E+03  0.44088516541E+03  0.92984621022E+02 0.  0.
          1    1    3    3  502    0  0.10136536353E+03 -0.91032390198E+02 -0.92623376548E+03  0.93620020364E+03  0.00000000000E+00 0. -1.
         -1    1    3    3    0  502 -0.77151263473E+00 -0.90102548951E+02 -0.62443580163E+03  0.63090342757E+03  0.00000000000E+00 0.  1.
         11    1    5    5    0    0 -0.81915725690E+02  0.59888686035E+02 -0.94441411445E+02  0.13862186345E+03  0.00000000000E+00 0.  1.
        -11    1    5    5    0    0 -0.20964369418E+03  0.36228001699E+03 -0.49080588041E+03  0.64504860396E+03  0.00000000000E+00 0. -1.
          1    1    6    6  503    0  0.47264110887E+02 -0.40664300071E+02 -0.11730414775E+03  0.13284481381E+03  0.00000000000E+00 0.  1.
         -1    1    6    6    0  503  0.14370145808E+03 -0.20036946381E+03 -0.18463701451E+03  0.30804035160E+03  0.00000000000E+00 0. -1.
<mgrwt>
<rscale>  0 0.13602241E+04</rscale>
<asrwt>0</asrwt>
<pdfrwt beam="1">  1        2 0.40227055E+00 0.13602241E+04</pdfrwt>
<pdfrwt beam="2">  1       -2 0.27215481E-01 0.13602241E+04</pdfrwt>
<totfact> 0.35953951E+01</totfact>
</mgrwt>
</event>
<event>
12    2  0.3552864E-008  0.1722952E+04  0.7818608E-02  0.8748381E-01
         -1   -1    0    0    0  501 -0.00000000000E+00  0.00000000000E+00  0.46413965858E+03  0.46413965858E+03  0.00000000000E+00 0.  1.
          1   -1    0    0  501    0  0.00000000000E+00 -0.00000000000E+00 -0.15989606018E+04  0.15989606018E+04  0.00000000000E+00 0. -1.
         23    2    1    2    0    0  0.78758897514E+02  0.43679738479E+03 -0.92819141655E+03  0.10329812869E+04  0.92282793908E+02 0.  0.
        254    2    1    2    0    0 -0.78758897514E+02 -0.43679738479E+03 -0.20662952666E+03  0.10301189735E+04  0.90634122652E+03 0.  0.
         23    2    4    4    0    0  0.39002406615E+03 -0.22165836879E+03  0.23251474513E+02  0.45806160386E+03  0.89602439891E+02 0.  0.
         23    2    4    4    0    0 -0.46878296366E+03 -0.21513901600E+03 -0.22988100117E+03  0.57205736959E+03  0.91444497821E+02 0.  0.
          2    1    3    3  502    0  0.47817179327E+02  0.18320949307E+03 -0.49626190836E+03  0.53115730502E+03  0.00000000000E+00 0. -1.
         -2    1    3    3    0  502  0.30941718187E+02  0.25358789172E+03 -0.43192950819E+03  0.50182398189E+03  0.00000000000E+00 0.  1.
         11    1    5    5    0    0  0.24338093257E+03 -0.10288891507E+03  0.45230714253E+02  0.26807876584E+03  0.00000000000E+00 0. -1.
        -11    1    5    5    0    0  0.14664313358E+03 -0.11876945372E+03 -0.21979239739E+02  0.18998283803E+03  0.00000000000E+00 0.  1.
          4    1    6    6  503    0 -0.99983348927E+02 -0.67149675888E+01 -0.42750339129E+02  0.10894655730E+03  0.00000000000E+00 0.  1.
         -4    1    6    6    0  503 -0.36879961474E+03 -0.20842404841E+03 -0.18713066204E+03  0.46311081229E+03  0.00000000000E+00 0. -1.
<mgrwt>
<rscale>  0 0.17229522E+04</rscale>
<asrwt>0</asrwt>
<pdfrwt beam="1">  1        1 0.24599394E+00 0.17229522E+04</pdfrwt>
<pdfrwt beam="2">  1       -1 0.71406101E-01 0.17229522E+04</pdfrwt>
<totfact> 0.10512134E+01</totfact>
</mgrwt>
</event>
<event>
12    2  0.3552864E-008  0.1541593E+04  0.7818608E-02  0.8857255E-01
         -1   -1    0    0    0  501 -0.00000000000E+00  0.00000000000E+00  0.94591659223E+03  0.94591659223E+03  0.00000000000E+00 0.  1.
          1   -1    0    0  501    0  0.00000000000E+00 -0.00000000000E+00 -0.62809718443E+03  0.62809718443E+03  0.00000000000E+00 0. -1.
         23    2    1    2    0    0  0.49229927761E+03  0.90081341665E+02  0.79887730708E+02  0.51708224929E+03  0.10256108504E+03 0.  0.
        254    2    1    2    0    0 -0.49229927761E+03 -0.90081341665E+02  0.23793167710E+03  0.10569315274E+04  0.90001085756E+03 0.  0.
         23    2    4    4    0    0 -0.33512949278E+03  0.37101267720E+03  0.24166486871E+03  0.56151267370E+03  0.83260977546E+02 0.  0.
         23    2    4    4    0    0 -0.15716978482E+03 -0.46109401887E+03 -0.37331916117E+01  0.49541885366E+03  0.90088114362E+02 0.  0.
          1    1    3    3  502    0  0.48027912801E+03  0.84066658657E+02  0.95114709126E+02  0.49677162941E+03  0.00000000000E+00 0. -1.
         -1    1    3    3    0  502  0.12020149600E+02  0.60146830078E+01 -0.15226978418E+02  0.20310619878E+02  0.00000000000E+00 0.  1.
         11    1    5    5    0    0 -0.15802584245E+03  0.22971972101E+03  0.15445825253E+03  0.31874859823E+03  0.00000000000E+00 0. -1.
        -11    1    5    5    0    0 -0.17710365034E+03  0.14129295619E+03  0.87206616182E+02  0.24276407547E+03  0.00000000000E+00 0.  1.
          1    1    6    6  503    0 -0.12758020080E+03 -0.25451172697E+03 -0.24212925059E+02  0.28572572958E+03  0.00000000000E+00 0. -1.
         -1    1    6    6    0  503 -0.29589584025E+02 -0.20658229190E+03  0.20479733447E+02  0.20969312409E+03  0.00000000000E+00 0.  1.
<mgrwt>
<rscale>  0 0.15415934E+04</rscale>
<asrwt>0</asrwt>
<pdfrwt beam="1">  1        1 0.96630335E-01 0.15415934E+04</pdfrwt>
<pdfrwt beam="2">  1       -1 0.14552563E+00 0.15415934E+04</pdfrwt>
<totfact> 0.11689653E+01</totfact>
</mgrwt>
</event>
<event>
12    2  0.3552864E-008  0.2051415E+04  0.7818608E-02  0.8582953E-01
         -2   -1    0    0    0  501 -0.00000000000E+00  0.00000000000E+00  0.11123401146E+04  0.11123401146E+04  0.00000000000E+00 0.  1.
          2   -1    0    0  501    0  0.00000000000E+00 -0.00000000000E+00 -0.94582226639E+03  0.94582226639E+03  0.00000000000E+00 0. -1.
         23    2    1    2    0    0  0.56966624926E+03  0.76936275253E+02 -0.51384309485E+03  0.77596954930E+03  0.87493938752E+02 0.  0.
        254    2    1    2    0    0 -0.56966624926E+03 -0.76936275253E+02  0.68036094309E+03  0.12821928317E+04  0.92232782613E+03 0.  0.
         23    2    4    4    0    0 -0.13631426574E+01 -0.72039448100E+02 -0.19948686065E+03  0.23084047436E+03  0.91108598866E+02 0.  0.
         23    2    4    4    0    0 -0.56830310661E+03 -0.48968271530E+01  0.87984780374E+03  0.10513523574E+04  0.90648892464E+02 0.  0.
          2    1    3    3  502    0  0.23231476427E+03  0.86863339418E+00 -0.24766596715E+03  0.33957228318E+03  0.00000000000E+00 0. -1.
         -2    1    3    3    0  502  0.33735148499E+03  0.76067641858E+02 -0.26617712770E+03  0.43639726612E+03  0.00000000000E+00 0.  1.
         11    1    5    5    0    0  0.46848643730E+01 -0.19493762274E+02  0.41267046566E+01  0.20469108752E+02  0.00000000000E+00 0. -1.
        -11    1    5    5    0    0 -0.60480070304E+01 -0.52545685825E+02 -0.20361356531E+03  0.21037136560E+03  0.00000000000E+00 0.  1.
          2    1    6    6  503    0 -0.26073035712E+03  0.30785919058E+02  0.34784745539E+03  0.43580493820E+03  0.00000000000E+00 0. -1.
         -2    1    6    6    0  503 -0.30757274948E+03 -0.35682746211E+02  0.53200034835E+03  0.61554741917E+03  0.00000000000E+00 0.  1.
<mgrwt>
<rscale>  0 0.20514152E+04</rscale>
<asrwt>0</asrwt>
<pdfrwt beam="1">  1        2 0.14551112E+00 0.20514152E+04</pdfrwt>
<pdfrwt beam="2">  1       -2 0.17112925E+00 0.20514152E+04</pdfrwt>
<totfact> 0.52877791E+00</totfact>
</mgrwt>
</event>
<event>
12    2  0.3552864E-008  0.2817018E+04  0.7818608E-02  0.8298004E-01
          2   -1    0    0  501    0  0.00000000000E+00  0.00000000000E+00  0.19174568680E+04  0.19174568680E+04  0.00000000000E+00 0. -1.
         -2   -1    0    0    0  501 -0.00000000000E+00 -0.00000000000E+00 -0.10346502404E+04  0.10346502404E+04  0.00000000000E+00 0.  1.
         23    2    1    2    0    0 -0.50191249425E+03  0.49951172560E+03  0.14971580268E+04  0.16584853025E+04  0.87539850673E+02 0.  0.
        254    2    1    2    0    0  0.50191249425E+03 -0.49951172560E+03 -0.61435139920E+03  0.12936218059E+04  0.89140429606E+03 0.  0.
         23    2    4    4    0    0  0.21035566718E+03 -0.53203657338E+03 -0.75835283932E+03  0.95444930055E+03  0.92531163806E+02 0.  0.
         23    2    4    4    0    0  0.29155682706E+03  0.32524847787E+02  0.14400144012E+03  0.33917250532E+03  0.90765216229E+02 0.  0.
          1    1    3    3  502    0 -0.40781939909E+03  0.36649022778E+03  0.12072365685E+04  0.13259154882E+04  0.00000000000E+00 0. -1.
         -1    1    3    3    0  502 -0.94093095153E+02  0.13302149781E+03  0.28992145825E+03  0.33256981431E+03  0.00000000000E+00 0.  1.
         11    1    5    5    0    0  0.12089253651E+03 -0.37577901633E+03 -0.57509415789E+03  0.69753721401E+03  0.00000000000E+00 0.  1.
        -11    1    5    5    0    0  0.89463130675E+02 -0.15625755706E+03 -0.18325868144E+03  0.25691208654E+03  0.00000000000E+00 0. -1.
          3    1    6    6  503    0  0.80378274973E+02  0.33227489718E+02  0.80857478644E+02  0.11875464207E+03  0.00000000000E+00 0. -1.
         -3    1    6    6    0  503  0.21117855209E+03 -0.70264193123E+00  0.63143961480E+02  0.22041786325E+03  0.00000000000E+00 0.  1.
<mgrwt>
<rscale>  0 0.28170177E+04</rscale>
<asrwt>0</asrwt>
<pdfrwt beam="1">  1        2 0.29499336E+00 0.28170177E+04</pdfrwt>
<pdfrwt beam="2">  1       -2 0.15917696E+00 0.28170177E+04</pdfrwt>
<totfact> 0.16485389E+00</totfact>
</mgrwt>
</event>
<event>
12    2  0.3552864E-008  0.1755561E+04  0.7818608E-02  0.8730295E-01
         -2   -1    0    0    0  501 -0.00000000000E+00  0.00000000000E+00  0.46477671635E+03  0.46477671635E+03  0.00000000000E+00 0.  1.
          2   -1    0    0  501    0  0.00000000000E+00 -0.00000000000E+00 -0.16577826757E+04  0.16577826757E+04  0.00000000000E+00 0. -1.
         23    2    1    2    0    0 -0.83016117560E+02  0.62245819588E+03 -0.60397516622E+03  0.87722002240E+03  0.10189742340E+03 0.  0.
        254    2    1    2    0    0  0.83016117560E+02 -0.62245819588E+03 -0.58903079315E+03  0.12453393697E+04  0.89975940616E+03 0.  0.
         23    2    4    4    0    0 -0.38125418060E+02  0.15064768721E+02 -0.58241009911E+03  0.59044056443E+03  0.87966140184E+02 0.  0.
         23    2    4    4    0    0  0.12114153562E+03 -0.63752296460E+03 -0.66206940465E+01  0.65489880525E+03  0.87964819539E+02 0.  0.
          4    1    3    3  502    0  0.57582072788E+01  0.31348079444E+03 -0.32482991024E+03  0.45146188767E+03  0.00000000000E+00 0. -1.
         -4    1    3    3    0  502 -0.88774324839E+02  0.30897740144E+03 -0.27914525598E+03  0.42575813473E+03  0.00000000000E+00 0.  1.
         11    1    5    5    0    0 -0.56733605019E+02 -0.26709880668E+00 -0.21893129112E+03  0.22616295787E+03  0.00000000000E+00 0.  1.
        -11    1    5    5    0    0  0.18608186959E+02  0.15331867528E+02 -0.36347880799E+03  0.36427760656E+03  0.00000000000E+00 0. -1.
          4    1    6    6  503    0  0.10959863816E+03 -0.34247397588E+03 -0.21119727002E+01  0.35958969127E+03  0.00000000000E+00 0.  1.
         -4    1    6    6    0  503  0.11542897463E+02 -0.29504898873E+03 -0.45087213463E+01  0.29530911398E+03  0.00000000000E+00 0. -1.
<mgrwt>
<rscale>  0 0.17555612E+04</rscale>
<asrwt>0</asrwt>
<pdfrwt beam="1">  1        2 0.25504348E+00 0.17555612E+04</pdfrwt>
<pdfrwt beam="2">  1       -2 0.71504111E-01 0.17555612E+04</pdfrwt>
<totfact> 0.17401126E+01</totfact>
</mgrwt>
</event>
<event>
12    2  0.3552864E-008  0.1234725E+04  0.7818608E-02  0.9082993E-01
          1   -1    0    0  501    0  0.00000000000E+00  0.00000000000E+00  0.54385547862E+03  0.54385547862E+03  0.00000000000E+00 0. -1.
         -1   -1    0    0    0  501 -0.00000000000E+00 -0.00000000000E+00 -0.70080455853E+03  0.70080455853E+03  0.00000000000E+00 0.  1.
         23    2    1    2    0    0  0.22374524700E+03 -0.18513821377E+02 -0.13388188970E+03  0.27682147245E+03  0.91110208452E+02 0.  0.
        254    2    1    2    0    0 -0.22374524700E+03  0.18513821377E+02 -0.23067190211E+02  0.96783856469E+03  0.94115604173E+03 0.  0.
         23    2    4    4    0    0  0.23351229954E+03 -0.10315962641E+03 -0.30491329047E+03  0.40923137302E+03  0.96583121733E+02 0.  0.
         23    2    4    4    0    0 -0.45725754654E+03  0.12167344779E+03  0.28184610026E+03  0.55860719167E+03  0.93358869894E+02 0.  0.
          1    1    3    3  502    0  0.53404560488E+02 -0.12631131941E+02 -0.81979095721E+02  0.98651734452E+02  0.00000000000E+00 0. -1.
         -1    1    3    3    0  502  0.17034068651E+03 -0.58826894354E+01 -0.51902793978E+02  0.17816973800E+03  0.00000000000E+00 0.  1.
         11    1    5    5    0    0  0.19238435902E+03 -0.57811269255E+02 -0.27642081759E+03  0.34170506705E+03  0.00000000000E+00 0. -1.
        -11    1    5    5    0    0  0.41127940514E+02 -0.45348357154E+02 -0.28492472880E+02  0.67526305973E+02  0.00000000000E+00 0.  1.
          2    1    6    6  503    0 -0.14889920441E+03  0.75026466540E+02  0.13173200961E+03  0.21249297897E+03  0.00000000000E+00 0. -1.
         -2    1    6    6    0  503 -0.30835834213E+03  0.46646981247E+02  0.15011409065E+03  0.34611421270E+03  0.00000000000E+00 0.  1.
<mgrwt>
<rscale>  0 0.12347249E+04</rscale>
<asrwt>0</asrwt>
<pdfrwt beam="1">  1        1 0.83670074E-01 0.12347249E+04</pdfrwt>
<pdfrwt beam="2">  1       -1 0.10781609E+00 0.12347249E+04</pdfrwt>
<totfact> 0.31150276E+01</totfact>
</mgrwt>
</event>
<event>
12    2  0.3552864E-008  0.1956855E+04  0.7818608E-02  0.8627062E-01
         -1   -1    0    0    0  501 -0.00000000000E+00  0.00000000000E+00  0.62746260179E+03  0.62746260179E+03  0.00000000000E+00 0.  1.
          1   -1    0    0  501    0  0.00000000000E+00 -0.00000000000E+00 -0.15257009875E+04  0.15257009875E+04  0.00000000000E+00 0. -1.
         23    2    1    2    0    0  0.43438037402E+03  0.61297145694E+03 -0.18925773045E+03  0.77999367719E+03  0.90284724997E+02 0.  0.
        254    2    1    2    0    0 -0.43438037402E+03 -0.61297145694E+03 -0.70898065529E+03  0.13731699121E+04  0.90472190293E+03 0.  0.
         23    2    4    4    0    0 -0.31895505051E+03  0.13042137412E+03 -0.44502909339E+03  0.57083992771E+03  0.95211711612E+02 0.  0.
         23    2    4    4    0    0 -0.11542532350E+03 -0.74339283106E+03 -0.26395156190E+03  0.80232998442E+03  0.90039270830E+02 0.  0.
          2    1    3    3  502    0  0.24735809688E+03  0.39163696127E+03 -0.15372310087E+03  0.48805361311E+03  0.00000000000E+00 0.  1.
         -2    1    3    3    0  502  0.18702227713E+03  0.22133449567E+03 -0.35534629585E+02  0.29194006409E+03  0.00000000000E+00 0. -1.
         11    1    5    5    0    0 -0.66117320257E+02  0.36830549651E+01 -0.13998435583E+03  0.15485698179E+03  0.00000000000E+00 0.  1.
        -11    1    5    5    0    0 -0.25283773026E+03  0.12673831915E+03 -0.30504473756E+03  0.41598294592E+03  0.00000000000E+00 0. -1.
          1    1    6    6  503    0 -0.87190866362E+02 -0.28016043116E+03 -0.11035446277E+03  0.31348081571E+03  0.00000000000E+00 0.  1.
         -1    1    6    6    0  503 -0.28234457142E+02 -0.46323239990E+03 -0.15359709914E+03  0.48884916871E+03  0.00000000000E+00 0. -1.
<mgrwt>
<rscale>  0 0.19568549E+04</rscale>
<asrwt>0</asrwt>
<pdfrwt beam="1">  1        1 0.23472323E+00 0.19568549E+04</pdfrwt>
<pdfrwt beam="2">  1       -1 0.96532709E-01 0.19568549E+04</pdfrwt>
<totfact> 0.60375933E+00</totfact>
</mgrwt>
</event>
<event>
12    2  0.3552864E-008  0.1319061E+04  0.7818608E-02  0.9014585E-01
          1   -1    0    0  501    0  0.00000000000E+00  0.00000000000E+00  0.97841632592E+03  0.97841632592E+03  0.00000000000E+00 0. -1.
         -1   -1    0    0    0  501 -0.00000000000E+00 -0.00000000000E+00 -0.44457622466E+03  0.44457622466E+03  0.00000000000E+00 0.  1.
         23    2    1    2    0    0  0.24351357101E+03 -0.20510464937E+03  0.27998478782E+03  0.43366869686E+03  0.91160741340E+02 0.  0.
        254    2    1    2    0    0 -0.24351357101E+03  0.20510464937E+03  0.25385531343E+03  0.98932385372E+03  0.90163872528E+03 0.  0.
         23    2    4    4    0    0 -0.23636213615E+02 -0.34425612931E+03  0.77490850586E+02  0.36542947279E+03  0.91994100337E+02 0.  0.
         23    2    4    4    0    0 -0.21987735739E+03  0.54936077868E+03  0.17636446285E+03  0.62389438093E+03  0.89422912933E+02 0.  0.
          1    1    3    3  502    0  0.19892512094E+03 -0.16096530402E+03  0.26656173335E+03  0.36950803851E+03  0.00000000000E+00 0. -1.
         -1    1    3    3    0  502  0.44588450068E+02 -0.44139345352E+02  0.13423054471E+02  0.64160658343E+02  0.00000000000E+00 0.  1.
         11    1    5    5    0    0  0.16355699485E+02 -0.17600249521E+03  0.76193818526E+02  0.19248346736E+03  0.00000000000E+00 0. -1.
        -11    1    5    5    0    0 -0.39991913100E+02 -0.16825363410E+03  0.12970320597E+01  0.17294600543E+03  0.00000000000E+00 0.  1.
          1    1    6    6  503    0 -0.16933162184E+03  0.44755426420E+03  0.10568800133E+03  0.49004894774E+03  0.00000000000E+00 0. -1.
         -1    1    6    6    0  503 -0.50545735555E+02  0.10180651448E+03  0.70676461516E+02  0.13384543319E+03  0.00000000000E+00 0.  1.
<mgrwt>
<rscale>  0 0.13190612E+04</rscale>
<asrwt>0</asrwt>
<pdfrwt beam="1">  1        1 0.15052559E+00 0.13190612E+04</pdfrwt>
<pdfrwt beam="2">  1       -1 0.68396342E-01 0.13190612E+04</pdfrwt>
<totfact> 0.33406807E+01</totfact>
</mgrwt>
</event>
<event>
12    2  0.3552864E-008  0.1538190E+04  0.7818608E-02  0.8859447E-01
         -1   -1    0    0    0  501 -0.00000000000E+00  0.00000000000E+00  0.10574097961E+04  0.10574097961E+04  0.00000000000E+00 0.  1.
          1   -1    0    0  501    0  0.00000000000E+00 -0.00000000000E+00 -0.55939250191E+03  0.55939250191E+03  0.00000000000E+00 0. -1.
         23    2    1    2    0    0 -0.97947234415E+02 -0.43512282474E+03 -0.81489878607E+02  0.46246046668E+03  0.91123814612E+02 0.  0.
        254    2    1    2    0    0  0.97947234415E+02  0.43512282474E+03  0.57950717278E+03  0.11543418313E+04  0.89316905839E+03 0.  0.
         23    2    4    4    0    0  0.36731900379E+02  0.65920488425E+03  0.60937023407E+03  0.90309886882E+03  0.91406634178E+02 0.  0.
         23    2    4    4    0    0  0.61215334036E+02 -0.22408205951E+03 -0.29863061294E+02  0.25124296248E+03  0.90945792940E+02 0.  0.
          4    1    3    3  502    0 -0.49811312059E+02 -0.30686556555E+03 -0.94301978351E+02  0.32486998207E+03  0.00000000000E+00 0. -1.
         -4    1    3    3    0  502 -0.48135922356E+02 -0.12825725918E+03  0.12812099744E+02  0.13759048461E+03  0.00000000000E+00 0.  1.
         11    1    5    5    0    0  0.52915846307E+02  0.61117483921E+03  0.54059772479E+03  0.81766782432E+03  0.00000000000E+00 0.  1.
        -11    1    5    5    0    0 -0.16183945928E+02  0.48030045033E+02  0.68772509282E+02  0.85431044502E+02  0.00000000000E+00 0. -1.
          4    1    6    6  503    0  0.54861428012E+02 -0.49185971468E+02  0.11777874480E+00  0.73682087000E+02  0.00000000000E+00 0. -1.
         -4    1    6    6    0  503  0.63539060240E+01 -0.17489608804E+03 -0.29980840038E+02  0.17756087548E+03  0.00000000000E+00 0.  1.
<mgrwt>
<rscale>  0 0.15381900E+04</rscale>
<asrwt>0</asrwt>
<pdfrwt beam="1">  1        1 0.86060385E-01 0.15381900E+04</pdfrwt>
<pdfrwt beam="2">  1       -1 0.16267843E+00 0.15381900E+04</pdfrwt>
<totfact> 0.10186818E+01</totfact>
</mgrwt>
</event>
<event>
12    2  0.3552864E-008  0.1491807E+04  0.7818608E-02  0.8889919E-01
          2   -1    0    0  501    0  0.00000000000E+00  0.00000000000E+00  0.24805438357E+04  0.24805438357E+04  0.00000000000E+00 0. -1.
         -2   -1    0    0    0  501 -0.00000000000E+00 -0.00000000000E+00 -0.22429438887E+03  0.22429438887E+03  0.00000000000E+00 0.  1.
         23    2    1    2    0    0  0.30516837663E+03 -0.12666424251E+03  0.12377080596E+04  0.12843658934E+04  0.92211380840E+02 0.  0.
        254    2    1    2    0    0 -0.30516837663E+03  0.12666424251E+03  0.10185413872E+04  0.14204723312E+04  0.93335069391E+03 0.  0.
         23    2    4    4    0    0  0.24345573712E+03 -0.16234851422E+03  0.57981416786E+03  0.65539784267E+03  0.87943885000E+02 0.  0.
         23    2    4    4    0    0 -0.54862411375E+03  0.28901275673E+03  0.43872721932E+03  0.76507448851E+03  0.91326930653E+02 0.  0.
          3    1    3    3  502    0  0.29633895898E+03 -0.13897298430E+03  0.11965464594E+04  0.12405054206E+04  0.00000000000E+00 0. -1.
         -3    1    3    3    0  502  0.88294176464E+01  0.12308741785E+02  0.41161600222E+02  0.43860472787E+02  0.00000000000E+00 0.  1.
         11    1    5    5    0    0 -0.69602006773E+01 -0.51800050349E+00  0.19195284713E+02  0.20424780860E+02  0.00000000000E+00 0. -1.
        -11    1    5    5    0    0  0.25041593780E+03 -0.16183051371E+03  0.56061888315E+03  0.63497306181E+03  0.00000000000E+00 0.  1.
          1    1    6    6  503    0 -0.19017752137E+02 -0.54780446817E+00  0.32009743060E+02  0.37237059992E+02  0.00000000000E+00 0. -1.
         -1    1    6    6    0  503 -0.52960636161E+03  0.28956056120E+03  0.40671747626E+03  0.72783742852E+03  0.00000000000E+00 0.  1.
<mgrwt>
<rscale>  0 0.14918070E+04</rscale>
<asrwt>0</asrwt>
<pdfrwt beam="1">  1        2 0.38162211E+00 0.14918070E+04</pdfrwt>
<pdfrwt beam="2">  1       -2 0.34506831E-01 0.14918070E+04</pdfrwt>
<totfact> 0.27262934E+01</totfact>
</mgrwt>
</event>
<event>
12    2  0.3552864E-008  0.2631599E+04  0.7818608E-02  0.8357546E-01
         -1   -1    0    0    0  501 -0.00000000000E+00  0.00000000000E+00  0.47405439733E+03  0.47405439733E+03  0.00000000000E+00 0.  1.
          1   -1    0    0  501    0  0.00000000000E+00 -0.00000000000E+00 -0.36521716780E+04  0.36521716780E+04  0.00000000000E+00 0. -1.
         23    2    1    2    0    0  0.65954922513E+02  0.11320707836E+04 -0.17612717089E+04  0.20967512783E+04  0.91397919891E+02 0.  0.
        254    2    1    2    0    0 -0.65954922513E+02 -0.11320707836E+04 -0.14168455719E+04  0.20294747971E+04  0.90850551267E+03 0.  0.
         23    2    4    4    0    0  0.23583696486E+03  0.70011215341E+01 -0.13664407818E+03  0.28714413413E+03  0.90066974894E+02 0.  0.
         23    2    4    4    0    0 -0.30179188737E+03 -0.11390719051E+04 -0.12802014937E+04  0.17423306629E+04  0.90758615329E+02 0.  0.
          3    1    3    3  502    0  0.31609252631E+02  0.14584078392E+03 -0.19542764432E+03  0.24588746058E+03  0.00000000000E+00 0. -1.
         -3    1    3    3    0  502  0.34345669883E+02  0.98622999969E+03 -0.15658440645E+04  0.18508638177E+04  0.00000000000E+00 0.  1.
         11    1    5    5    0    0  0.10858097910E+03 -0.32273014478E+02 -0.94317011559E+02  0.14740106904E+03  0.00000000000E+00 0. -1.
        -11    1    5    5    0    0  0.12725598576E+03  0.39274136012E+02 -0.42327066626E+02  0.13974306509E+03  0.00000000000E+00 0.  1.
          2    1    6    6  503    0 -0.74856818955E+02 -0.15771661256E+03 -0.19359609837E+03  0.26068663664E+03  0.00000000000E+00 0. -1.
         -2    1    6    6    0  503 -0.22693506841E+03 -0.98135529259E+03 -0.10866053953E+04  0.14816440263E+04  0.00000000000E+00 0.  1.
<mgrwt>
<rscale>  0 0.26315988E+04</rscale>
<asrwt>0</asrwt>
<pdfrwt beam="1">  1        1 0.56187254E+00 0.26315988E+04</pdfrwt>
<pdfrwt beam="2">  1       -1 0.72931449E-01 0.26315988E+04</pdfrwt>
<totfact> 0.31444036E-01</totfact>
</mgrwt>
</event>
<event>
12    2  0.3552864E-008  0.1442285E+04  0.7818608E-02  0.8923767E-01
          4   -1    0    0  501    0  0.00000000000E+00  0.00000000000E+00  0.37154198845E+03  0.37154198845E+03  0.00000000000E+00 0. -1.
         -4   -1    0    0    0  501 -0.00000000000E+00 -0.00000000000E+00 -0.13996975808E+04  0.13996975808E+04  0.00000000000E+00 0.  1.
         23    2    1    2    0    0  0.11422072834E+03 -0.24794487967E+03 -0.73827357244E+03  0.79218795047E+03  0.89391515173E+02 0.  0.
        254    2    1    2    0    0 -0.11422072834E+03  0.24794487967E+03 -0.28988201988E+03  0.97905161875E+03  0.89442017452E+03 0.  0.
         23    2    4    4    0    0 -0.25095780033E+03  0.21496485031E+03  0.24325003226E+03  0.42008328083E+03  0.90053762991E+02 0.  0.
         23    2    4    4    0    0  0.13673707199E+03  0.32980029359E+02 -0.53313205214E+03  0.55896833792E+03  0.91821068265E+02 0.  0.
          1    1    3    3  502    0  0.20913069883E+02 -0.64737246691E+02 -0.94931654054E+02  0.11679163730E+03  0.00000000000E+00 0. -1.
         -1    1    3    3    0  502  0.93307658453E+02 -0.18320763298E+03 -0.64334191838E+03  0.67539631318E+03  0.00000000000E+00 0.  1.
         11    1    5    5    0    0 -0.22321445276E+03  0.14865855331E+03  0.21129811986E+03  0.34142488610E+03  0.00000000000E+00 0. -1.
        -11    1    5    5    0    0 -0.27743347569E+02  0.66306297002E+02  0.31951912403E+02  0.78658394737E+02  0.00000000000E+00 0.  1.
          1    1    6    6  503    0  0.41948438721E+02  0.27683103607E+02 -0.34075150333E+03  0.34443811165E+03  0.00000000000E+00 0. -1.
         -1    1    6    6    0  503  0.94788633269E+02  0.52969257512E+01 -0.19238054881E+03  0.21453022627E+03  0.00000000000E+00 0.  1.
<mgrwt>
<rscale>  0 0.14422849E+04</rscale>
<asrwt>0</asrwt>
<pdfrwt beam="1">  1        4 0.57160306E-01 0.14422849E+04</pdfrwt>
<pdfrwt beam="2">  1       -4 0.21533809E+00 0.14422849E+04</pdfrwt>
<totfact> 0.59033163E-01</totfact>
</mgrwt>
</event>
<event>
12    2  0.3552864E-008  0.1649703E+04  0.7818608E-02  0.8790582E-01
         -2   -1    0    0    0  501 -0.00000000000E+00  0.00000000000E+00  0.46446119805E+03  0.46446119805E+03  0.00000000000E+00 0.  1.
          2   -1    0    0  501    0  0.00000000000E+00 -0.00000000000E+00 -0.14648795659E+04  0.14648795659E+04  0.00000000000E+00 0. -1.
         23    2    1    2    0    0 -0.17948554461E+03 -0.10489194133E+03 -0.97309252768E+03  0.99932958624E+03  0.92375182960E+02 0.  0.
        254    2    1    2    0    0  0.17948554461E+03  0.10489194133E+03 -0.27325840159E+02  0.93001117770E+03  0.90606661401E+03 0.  0.
         23    2    4    4    0    0  0.27601294675E+03  0.44343197518E+03 -0.14165614819E+03  0.54887807364E+03  0.91572987428E+02 0.  0.
         23    2    4    4    0    0 -0.96527402140E+02 -0.33854003385E+03  0.11433030803E+03  0.38113310406E+03  0.90907259302E+02 0.  0.
          4    1    3    3  502    0 -0.67104338978E+01  0.61632157979E+01 -0.65898427054E+01  0.11244606660E+02  0.00000000000E+00 0.  1.
         -4    1    3    3    0  502 -0.17277511071E+03 -0.11105515713E+03 -0.96650268497E+03  0.98808497958E+03  0.00000000000E+00 0. -1.
         11    1    5    5    0    0  0.39129098797E+02  0.80868877228E+02 -0.60341259223E+02  0.10822166715E+03  0.00000000000E+00 0. -1.
        -11    1    5    5    0    0  0.23688384795E+03  0.36256309795E+03 -0.81314888963E+02  0.44065640649E+03  0.00000000000E+00 0.  1.
          4    1    6    6  503    0 -0.46390403764E+02 -0.26292668189E+03  0.11425457778E+03  0.29040767579E+03  0.00000000000E+00 0.  1.
         -4    1    6    6    0  503 -0.50136998376E+02 -0.75613351954E+02  0.75730250333E-01  0.90725428271E+02  0.00000000000E+00 0. -1.
<mgrwt>
<rscale>  0 0.16497027E+04</rscale>
<asrwt>0</asrwt>
<pdfrwt beam="1">  1        2 0.22536608E+00 0.16497027E+04</pdfrwt>
<pdfrwt beam="2">  1       -2 0.71455570E-01 0.16497027E+04</pdfrwt>
<totfact> 0.22556412E+01</totfact>
</mgrwt>
</event>
<event>
12    2  0.3552864E-008  0.2044941E+04  0.7818608E-02  0.8585893E-01
         -2   -1    0    0    0  501 -0.00000000000E+00  0.00000000000E+00  0.60822279455E+03  0.60822279455E+03  0.00000000000E+00 0.  1.
          2   -1    0    0  501    0  0.00000000000E+00 -0.00000000000E+00 -0.17188529863E+04  0.17188529863E+04  0.00000000000E+00 0. -1.
         23    2    1    2    0    0 -0.52088659886E+03 -0.57437726729E+03 -0.74988863337E+03  0.10825653387E+04  0.91556846494E+02 0.  0.
        254    2    1    2    0    0  0.52088659886E+03  0.57437726729E+03 -0.36074155840E+03  0.12445104421E+04  0.90412370534E+03 0.  0.
         23    2    4    4    0    0  0.25793904271E+02  0.54017538924E+02 -0.49623559527E+03  0.50794435096E+03  0.90412817952E+02 0.  0.
         23    2    4    4    0    0  0.49509269459E+03  0.52035972836E+03  0.13549403687E+03  0.73656609117E+03  0.90994227856E+02 0.  0.
          1    1    3    3  502    0 -0.49200378589E+03 -0.54591543916E+03 -0.73496088160E+03  0.10393550354E+04  0.00000000000E+00 0. -1.
         -1    1    3    3    0  502 -0.28882812967E+02 -0.28461828125E+02 -0.14927751762E+02  0.43210303376E+02  0.00000000000E+00 0.  1.
         11    1    5    5    0    0  0.24902978252E+01  0.76211132320E+02 -0.34856557450E+03  0.35680848925E+03  0.00000000000E+00 0. -1.
        -11    1    5    5    0    0  0.23303606446E+02 -0.22193593396E+02 -0.14767002076E+03  0.15113586171E+03  0.00000000000E+00 0.  1.
          1    1    6    6  503    0  0.44304198517E+03  0.42255699111E+03  0.10090893185E+03  0.62050239636E+03  0.00000000000E+00 0. -1.
         -1    1    6    6    0  503  0.52050709416E+02  0.97802737251E+02  0.34585105012E+02  0.11606369481E+03  0.00000000000E+00 0.  1.
<mgrwt>
<rscale>  0 0.20449407E+04</rscale>
<asrwt>0</asrwt>
<pdfrwt beam="1">  1        2 0.26443892E+00 0.20449407E+04</pdfrwt>
<pdfrwt beam="2">  1       -2 0.93572739E-01 0.20449407E+04</pdfrwt>
<totfact> 0.85561115E+00</totfact>
</mgrwt>
</event>
<event>
12    2  0.3552864E-008  0.2471089E+04  0.7818608E-02  0.8413358E-01
         -2   -1    0    0    0  501 -0.00000000000E+00  0.00000000000E+00  0.62460116381E+03  0.62460116381E+03  0.00000000000E+00 0.  1.
          2   -1    0    0  501    0  0.00000000000E+00 -0.00000000000E+00 -0.24440717243E+04  0.24440717243E+04  0.00000000000E+00 0. -1.
         23    2    1    2    0    0 -0.19449796937E+03  0.48488534364E+03  0.36335469530E+03  0.64308694516E+03  0.92687258367E+02 0.  0.
        254    2    1    2    0    0  0.19449796937E+03 -0.48488534364E+03 -0.21828252558E+04  0.24255859429E+04  0.91967266611E+03 0.  0.
         23    2    4    4    0    0 -0.12841118120E+03  0.22244969359E+03 -0.64843871206E+03  0.70312353790E+03  0.89087870209E+02 0.  0.
         23    2    4    4    0    0  0.32290915057E+03 -0.70733503723E+03 -0.15343865437E+04  0.17224624050E+04  0.89115076346E+02 0.  0.
          3    1    3    3  502    0 -0.80288836941E+02  0.22075128952E+03  0.21895665541E+03  0.32112216695E+03  0.00000000000E+00 0. -1.
         -3    1    3    3    0  502 -0.11420913243E+03  0.26413405412E+03  0.14439803990E+03  0.32196477820E+03  0.00000000000E+00 0.  1.
         11    1    5    5    0    0 -0.32606546444E+02  0.44033373340E+02 -0.25277929341E+03  0.25864936887E+03  0.00000000000E+00 0. -1.
        -11    1    5    5    0    0 -0.95804634757E+02  0.17841632025E+03 -0.39565941864E+03  0.44447416903E+03  0.00000000000E+00 0.  1.
          1    1    6    6  503    0  0.10499972561E+02 -0.47896940689E+02 -0.14576888421E+03  0.15379510380E+03  0.00000000000E+00 0. -1.
         -1    1    6    6    0  503  0.31240917801E+03 -0.65943809654E+03 -0.13886176595E+04  0.15686673012E+04  0.00000000000E+00 0.  1.
<mgrwt>
<rscale>  0 0.24710889E+04</rscale>
<asrwt>0</asrwt>
<pdfrwt beam="1">  1        2 0.37601104E+00 0.24710889E+04</pdfrwt>
<pdfrwt beam="2">  1       -2 0.96092486E-01 0.24710889E+04</pdfrwt>
<totfact> 0.30416568E+00</totfact>
</mgrwt>
</event>
<event>
12    2  0.3552864E-008  0.1131155E+04  0.7818608E-02  0.9175347E-01
          2   -1    0    0  501    0  0.00000000000E+00  0.00000000000E+00  0.47366619258E+03  0.47366619258E+03  0.00000000000E+00 0.  1.
         -2   -1    0    0    0  501 -0.00000000000E+00 -0.00000000000E+00 -0.67532310945E+03  0.67532310945E+03  0.00000000000E+00 0. -1.
         23    2    1    2    0    0 -0.78168976768E+02 -0.17197772198E+03 -0.40544323156E+01  0.21663449988E+03  0.10595915407E+03 0.  0.
        254    2    1    2    0    0  0.78168976768E+02  0.17197772198E+03 -0.19760248455E+03  0.93235480216E+03  0.89137646896E+03 0.  0.
         23    2    4    4    0    0 -0.37484676814E+03  0.13307977426E+03  0.42795450996E+02  0.41019397026E+03  0.90594242145E+02 0.  0.
         23    2    4    4    0    0  0.45301574491E+03  0.38897947711E+02 -0.24039793555E+03  0.52216083190E+03  0.90135739174E+02 0.  0.
          4    1    3    3  502    0 -0.76951683544E+02 -0.17339869927E+03 -0.28745806584E+02  0.19187233231E+03  0.00000000000E+00 0. -1.
         -4    1    3    3    0  502 -0.12172932235E+01  0.14209772983E+01  0.24691374268E+02  0.24762167565E+02  0.00000000000E+00 0.  1.
         11    1    5    5    0    0 -0.36865408852E+03  0.13456555546E+03  0.27245478228E+02  0.39339044445E+03  0.00000000000E+00 0.  1.
        -11    1    5    5    0    0 -0.61926796179E+01 -0.14857811963E+01  0.15549972768E+02  0.16803525812E+02  0.00000000000E+00 0. -1.
          2    1    6    6  503    0  0.78465967772E+02 -0.26850340708E+02 -0.50603166606E+02  0.97152093982E+02  0.00000000000E+00 0. -1.
         -2    1    6    6    0  503  0.37454977714E+03  0.65748288419E+02 -0.18979476894E+03  0.42500873791E+03  0.00000000000E+00 0.  1.
<mgrwt>
<rscale>  0 0.11311547E+04</rscale>
<asrwt>0</asrwt>
<pdfrwt beam="1">  1        2 0.72871723E-01 0.11311547E+04</pdfrwt>
<pdfrwt beam="2">  1       -2 0.10389586E+00 0.11311547E+04</pdfrwt>
<totfact> 0.48998555E+01</totfact>
</mgrwt>
</event>
<event>
12    2  0.3552864E-008  0.2286105E+04  0.7818608E-02  0.8483420E-01
          1   -1    0    0  501    0  0.00000000000E+00  0.00000000000E+00  0.14335844925E+04  0.14335844925E+04  0.00000000000E+00 0.  1.
         -1   -1    0    0    0  501 -0.00000000000E+00 -0.00000000000E+00 -0.91140031986E+03  0.91140031986E+03  0.00000000000E+00 0. -1.
         23    2    1    2    0    0 -0.18475633479E+03  0.84052082331E+03  0.66121662970E+03  0.10890293102E+04  0.90372835560E+02 0.  0.
        254    2    1    2    0    0  0.18475633479E+03 -0.84052082331E+03 -0.13903245706E+03  0.12559555022E+04  0.90414824097E+03 0.  0.
         23    2    4    4    0    0 -0.35206951458E+03 -0.32020071049E+03 -0.13441442618E+03  0.50268811157E+03  0.90258858024E+02 0.  0.
         23    2    4    4    0    0  0.53682584937E+03 -0.52032011282E+03 -0.46180308771E+01  0.75326739060E+03  0.92062061521E+02 0.  0.
          2    1    3    3  502    0 -0.49258051503E+02  0.41591892371E+03  0.34368682843E+03  0.54178920511E+03  0.00000000000E+00 0. -1.
         -2    1    3    3    0  502 -0.13549828329E+03  0.42460189960E+03  0.31752980127E+03  0.54724010508E+03  0.00000000000E+00 0.  1.
         11    1    5    5    0    0 -0.29550000156E+03 -0.30002133533E+03 -0.97699380820E+02  0.43229413781E+03  0.00000000000E+00 0.  1.
        -11    1    5    5    0    0 -0.56569513025E+02 -0.20179375161E+02 -0.36715045361E+02  0.70393973760E+02  0.00000000000E+00 0. -1.
          3    1    6    6  503    0  0.38591845437E+03 -0.42814557374E+03 -0.57519204942E+01  0.57643279775E+03  0.00000000000E+00 0. -1.
         -3    1    6    6    0  503  0.15090739500E+03 -0.92174539076E+02  0.11338896171E+01  0.17683459284E+03  0.00000000000E+00 0.  1.
<mgrwt>
<rscale>  0 0.22861053E+04</rscale>
<asrwt>0</asrwt>
<pdfrwt beam="1">  1        1 0.22055146E+00 0.22861053E+04</pdfrwt>
<pdfrwt beam="2">  1       -1 0.14021543E+00 0.22861053E+04</pdfrwt>
<totfact> 0.27494624E+00</totfact>
</mgrwt>
</event>
<event>
12    2  0.3552864E-008  0.1062767E+04  0.7818608E-02  0.9242262E-01
          1   -1    0    0  501    0  0.00000000000E+00  0.00000000000E+00  0.94583341827E+03  0.94583341827E+03  0.00000000000E+00 0. -1.
         -1   -1    0    0    0  501 -0.00000000000E+00 -0.00000000000E+00 -0.29853903265E+03  0.29853903265E+03  0.00000000000E+00 0.  1.
         23    2    1    2    0    0  0.10560804829E+03  0.55148394457E+02  0.16884551865E+03  0.22729814998E+03  0.94663797416E+02 0.  0.
        254    2    1    2    0    0 -0.10560804829E+03 -0.55148394457E+02  0.47844886697E+03  0.10170743009E+04  0.88956866517E+03 0.  0.
         23    2    4    4    0    0 -0.14337213443E+03  0.47032003801E+02  0.71753939486E+03  0.73895962336E+03  0.91820278028E+02 0.  0.
         23    2    4    4    0    0  0.37764086149E+02 -0.10218039826E+03 -0.23909052790E+03  0.27811467758E+03  0.91195029276E+02 0.  0.
          3    1    3    3  502    0  0.66343272396E+02  0.29144507544E+02  0.16480294298E+03  0.18003011450E+03  0.00000000000E+00 0. -1.
         -3    1    3    3    0  502  0.39264775889E+02  0.26003886913E+02  0.40425756759E+01  0.47268035482E+02  0.00000000000E+00 0.  1.
         11    1    5    5    0    0 -0.12275602823E+03  0.72911434900E+02  0.60756529653E+03  0.62411594224E+03  0.00000000000E+00 0. -1.
        -11    1    5    5    0    0 -0.20616106201E+02 -0.25879431100E+02  0.10997409834E+03  0.11484368112E+03  0.00000000000E+00 0.  1.
          1    1    6    6  503    0  0.38651781888E+02 -0.69592812030E+02 -0.23127392823E+03  0.24459098431E+03  0.00000000000E+00 0. -1.
         -1    1    6    6    0  503 -0.88769573946E+00 -0.32587586228E+02 -0.78165996696E+01  0.33523693267E+02  0.00000000000E+00 0.  1.
<mgrwt>
<rscale>  0 0.10627666E+04</rscale>
<asrwt>0</asrwt>
<pdfrwt beam="1">  1        1 0.14551283E+00 0.10627666E+04</pdfrwt>
<pdfrwt beam="2">  1       -1 0.45929082E-01 0.10627666E+04</pdfrwt>
<totfact> 0.78592340E+01</totfact>
</mgrwt>
</event>
<event>
12    2  0.3552864E-008  0.1142760E+04  0.7818608E-02  0.9164489E-01
          1   -1    0    0  501    0  0.00000000000E+00  0.00000000000E+00  0.15719713011E+04  0.15719713011E+04  0.00000000000E+00 0. -1.
         -1   -1    0    0    0  501 -0.00000000000E+00 -0.00000000000E+00 -0.20768512871E+03  0.20768512871E+03  0.00000000000E+00 0.  1.
         23    2    1    2    0    0  0.15457484858E+03  0.12838765109E+03  0.25361498140E+03  0.33647753387E+03  0.92302758599E+02 0.  0.
        254    2    1    2    0    0 -0.15457484858E+03 -0.12838765109E+03  0.11106711910E+04  0.14431788959E+04  0.89933200678E+03 0.  0.
         23    2    4    4    0    0 -0.31827966754E+03 -0.42088491134E+03  0.86217931367E+03  0.10146398074E+04  0.87719521388E+02 0.  0.
         23    2    4    4    0    0  0.16370481896E+03  0.29249726025E+03  0.24849187733E+03  0.42853908857E+03  0.97691464979E+02 0.  0.
          4    1    3    3  502    0  0.14656139741E+03  0.14195483913E+03  0.24379490072E+03  0.31791095165E+03  0.00000000000E+00 0.  1.
         -4    1    3    3    0  502  0.80134511667E+01 -0.13567188036E+02  0.98200806779E+01  0.18566582220E+02  0.00000000000E+00 0. -1.
         11    1    5    5    0    0 -0.15078454283E+03 -0.15024779024E+03  0.28768561305E+03  0.35787342565E+03  0.00000000000E+00 0. -1.
        -11    1    5    5    0    0 -0.16749512470E+03 -0.27063712109E+03  0.57449370062E+03  0.65676638173E+03  0.00000000000E+00 0.  1.
          4    1    6    6  503    0  0.95858141544E+02  0.76319032400E+02  0.84358076134E+02  0.14876042154E+03  0.00000000000E+00 0. -1.
         -4    1    6    6    0  503  0.67846677417E+02  0.21617822785E+03  0.16413380119E+03  0.27977866703E+03  0.00000000000E+00 0.  1.
<mgrwt>
<rscale>  0 0.11427599E+04</rscale>
<asrwt>0</asrwt>
<pdfrwt beam="1">  1        1 0.24184173E+00 0.11427599E+04</pdfrwt>
<pdfrwt beam="2">  1       -1 0.31951559E-01 0.11427599E+04</pdfrwt>
<totfact> 0.52917840E+01</totfact>
</mgrwt>
</event>
<event>
12    2  0.3552864E-008  0.1242316E+04  0.7818608E-02  0.9076603E-01
          2   -1    0    0  501    0  0.00000000000E+00  0.00000000000E+00  0.10991216026E+04  0.10991216026E+04  0.00000000000E+00 0. -1.
         -2   -1    0    0    0  501 -0.00000000000E+00 -0.00000000000E+00 -0.35104138900E+03  0.35104138900E+03  0.00000000000E+00 0.  1.
         23    2    1    2    0    0 -0.10758563429E+02  0.20335191084E+03 -0.52445414023E+02  0.22981650605E+03  0.92721942765E+02 0.  0.
        254    2    1    2    0    0  0.10758563429E+02 -0.20335191084E+03  0.80052562767E+03  0.12203464856E+04  0.89829645331E+03 0.  0.
         23    2    4    4    0    0 -0.91647831298E+02 -0.62992849601E+02 -0.17462577962E+03  0.22562794578E+03  0.89701632795E+02 0.  0.
         23    2    4    4    0    0  0.10240639473E+03 -0.14035906124E+03  0.97515140729E+03  0.99471853982E+03  0.91416467760E+02 0.  0.
          2    1    3    3  502    0  0.12470953470E+02 -0.27728708102E+01  0.62781244169E+01  0.14234758135E+02  0.00000000000E+00 0. -1.
         -2    1    3    3    0  502 -0.23229516899E+02  0.20612478165E+03 -0.58723538440E+02  0.21558174791E+03  0.00000000000E+00 0.  1.
         11    1    5    5    0    0 -0.85083182451E+02 -0.64793109380E+02 -0.87342711040E+02  0.13807984694E+03  0.00000000000E+00 0.  1.
        -11    1    5    5    0    0 -0.65646488467E+01  0.18002597792E+01 -0.87283068576E+02  0.87548098836E+02  0.00000000000E+00 0. -1.
          3    1    6    6  503    0  0.44466850175E+02 -0.12133500731E+03  0.76729369536E+03  0.77809967209E+03  0.00000000000E+00 0. -1.
         -3    1    6    6    0  503  0.57939544552E+02 -0.19024053928E+02  0.20785771193E+03  0.21661886773E+03  0.00000000000E+00 0.  1.
<mgrwt>
<rscale>  0 0.12423159E+04</rscale>
<asrwt>0</asrwt>
<pdfrwt beam="1">  1        2 0.16909563E+00 0.12423159E+04</pdfrwt>
<pdfrwt beam="2">  1       -2 0.54006368E-01 0.12423159E+04</pdfrwt>
<totfact> 0.69302536E+01</totfact>
</mgrwt>
</event>
<event>
12    2  0.3552864E-008  0.1461734E+04  0.7818608E-02  0.8910305E-01
         -1   -1    0    0    0  501 -0.00000000000E+00  0.00000000000E+00  0.71861477727E+03  0.71861477727E+03  0.00000000000E+00 0.  1.
          1   -1    0    0  501    0  0.00000000000E+00 -0.00000000000E+00 -0.74332862142E+03  0.74332862142E+03  0.00000000000E+00 0. -1.
         23    2    1    2    0    0  0.23878188863E+03  0.16788611715E+03 -0.35423421224E+03  0.46838941918E+03  0.93296474809E+02 0.  0.
        254    2    1    2    0    0 -0.23878188863E+03 -0.16788611715E+03  0.32952036809E+03  0.99355397950E+03  0.89070943553E+03 0.  0.
         23    2    4    4    0    0 -0.15582247761E+03 -0.10063466803E+03 -0.29132134051E+03  0.35760547810E+03  0.92766230880E+02 0.  0.
         23    2    4    4    0    0 -0.82959411022E+02 -0.67251449118E+02  0.62084170859E+03  0.63594850141E+03  0.87069213999E+02 0.  0.
          3    1    3    3  502    0  0.21972755786E+03  0.11069922690E+03 -0.27908193822E+03  0.37205005948E+03  0.00000000000E+00 0. -1.
         -3    1    3    3    0  502  0.19054330776E+02  0.57186890255E+02 -0.75152274017E+02  0.96339359704E+02  0.00000000000E+00 0.  1.
         11    1    5    5    0    0 -0.30400777468E+02 -0.69927332964E+02 -0.84807374341E+02  0.11404529762E+03  0.00000000000E+00 0. -1.
        -11    1    5    5    0    0 -0.12542170014E+03 -0.30707335070E+02 -0.20651396617E+03  0.24356018048E+03  0.00000000000E+00 0.  1.
          3    1    6    6  503    0 -0.90246556651E+02 -0.40633234950E+02  0.56562937135E+03  0.57422302854E+03  0.00000000000E+00 0. -1.
         -3    1    6    6    0  503  0.72871456287E+01 -0.26618214169E+02  0.55212337243E+02  0.61725472868E+02  0.00000000000E+00 0.  1.
<mgrwt>
<rscale>  0 0.14617345E+04</rscale>
<asrwt>0</asrwt>
<pdfrwt beam="1">  1        1 0.11435825E+00 0.14617345E+04</pdfrwt>
<pdfrwt beam="2">  1       -1 0.11055612E+00 0.14617345E+04</pdfrwt>
<totfact> 0.18180680E+01</totfact>
</mgrwt>
</event>
<event>
12    2  0.3552864E-008  0.1562400E+04  0.7818608E-02  0.8843986E-01
          1   -1    0    0  501    0  0.00000000000E+00  0.00000000000E+00  0.19783079963E+04  0.19783079963E+04  0.00000000000E+00 0. -1.
         -1   -1    0    0    0  501 -0.00000000000E+00 -0.00000000000E+00 -0.30848248923E+03  0.30848248923E+03  0.00000000000E+00 0.  1.
         23    2    1    2    0    0 -0.33683488015E+03  0.25959676483E+03  0.10267391473E+04  0.11157713767E+04  0.99520207105E+02 0.  0.
        254    2    1    2    0    0  0.33683488015E+03 -0.25959676483E+03  0.64308635978E+03  0.11710191089E+04  0.88140652959E+03 0.  0.
         23    2    4    4    0    0 -0.27870431636E+03  0.27282873356E+02  0.17944337504E+03  0.34343720573E+03  0.85608050430E+02 0.  0.
         23    2    4    4    0    0  0.61553919651E+03 -0.28687963819E+03  0.46364298474E+03  0.82758190314E+03  0.93480264483E+02 0.  0.
          4    1    3    3  502    0 -0.29562758697E+03  0.24629193860E+03  0.97574438606E+03  0.10488720113E+04  0.00000000000E+00 0. -1.
         -4    1    3    3    0  502 -0.41207293181E+02  0.13304826230E+02  0.50994761258E+02  0.66899365379E+02  0.00000000000E+00 0.  1.
         11    1    5    5    0    0 -0.93920777744E+02  0.47152374720E+02  0.46423410341E+02  0.11488947716E+03  0.00000000000E+00 0. -1.
        -11    1    5    5    0    0 -0.18478353862E+03 -0.19869501364E+02  0.13301996470E+03  0.22854772858E+03  0.00000000000E+00 0.  1.
          2    1    6    6  503    0  0.13139881228E+03 -0.22149801553E+02  0.78270536600E+02  0.15453976342E+03  0.00000000000E+00 0. -1.
         -2    1    6    6    0  503  0.48414038423E+03 -0.26472983664E+03  0.38537244814E+03  0.67304213972E+03  0.00000000000E+00 0.  1.
<mgrwt>
<rscale>  0 0.15623999E+04</rscale>
<asrwt>0</asrwt>
<pdfrwt beam="1">  1        1 0.30435507E+00 0.15623999E+04</pdfrwt>
<pdfrwt beam="2">  1       -1 0.47458846E-01 0.15623999E+04</pdfrwt>
<totfact> 0.13154516E+01</totfact>
</mgrwt>
</event>
<event>
12    2  0.3552864E-008  0.2266097E+04  0.7818608E-02  0.8491410E-01
         -1   -1    0    0    0  501 -0.00000000000E+00  0.00000000000E+00  0.63049910618E+03  0.63049910618E+03  0.00000000000E+00 0.  1.
          1   -1    0    0  501    0  0.00000000000E+00 -0.00000000000E+00 -0.20361630007E+04  0.20361630007E+04  0.00000000000E+00 0. -1.
         23    2    1    2    0    0 -0.80074477052E+03  0.21167400325E+03 -0.37242305266E+02  0.83401990909E+03  0.90576753563E+02 0.  0.
        254    2    1    2    0    0  0.80074477052E+03 -0.21167400325E+03 -0.13684215892E+04  0.18326421978E+04  0.89442814582E+03 0.  0.
         23    2    4    4    0    0  0.32873961769E+03 -0.52675710578E+03 -0.86430859516E+03  0.10681915171E+04  0.91983611891E+02 0.  0.
         23    2    4    4    0    0  0.47200515282E+03  0.31508310253E+03 -0.50411299408E+03  0.76445068066E+03  0.90491472342E+02 0.  0.
          3    1    3    3  502    0 -0.23907843519E+03  0.58114813314E+02 -0.52334914130E+02  0.25154477323E+03  0.00000000000E+00 0. -1.
         -3    1    3    3    0  502 -0.56166633532E+03  0.15355918994E+03  0.15092608864E+02  0.58247513586E+03  0.00000000000E+00 0.  1.
         11    1    5    5    0    0  0.24842840319E+03 -0.31590669286E+03 -0.54112775262E+03  0.67404224998E+03  0.00000000000E+00 0.  1.
        -11    1    5    5    0    0  0.80311214507E+02 -0.21085041292E+03 -0.32318084254E+03  0.39414926715E+03  0.00000000000E+00 0. -1.
          1    1    6    6  503    0  0.24654984111E+03  0.11367530092E+03 -0.21758956432E+03  0.34792832120E+03  0.00000000000E+00 0. -1.
         -1    1    6    6    0  503  0.22545531171E+03  0.20140780161E+03 -0.28652342975E+03  0.41652235946E+03  0.00000000000E+00 0.  1.
<mgrwt>
<rscale>  0 0.22660970E+04</rscale>
<asrwt>0</asrwt>
<pdfrwt beam="1">  1        1 0.31325584E+00 0.22660970E+04</pdfrwt>
<pdfrwt beam="2">  1       -1 0.96999865E-01 0.22660970E+04</pdfrwt>
<totfact> 0.26075367E+00</totfact>
</mgrwt>
</event>
<event>
12    2  0.3552864E-008  0.1792129E+04  0.7818608E-02  0.8710496E-01
          1   -1    0    0  501    0  0.00000000000E+00  0.00000000000E+00  0.27234439504E+04  0.27234439504E+04  0.00000000000E+00 0. -1.
         -1   -1    0    0    0  501 -0.00000000000E+00 -0.00000000000E+00 -0.29482217844E+03  0.29482217844E+03  0.00000000000E+00 0.  1.
         23    2    1    2    0    0 -0.36948958547E+02 -0.62571086622E+03  0.52911204790E+03  0.82536521967E+03  0.91590790795E+02 0.  0.
        254    2    1    2    0    0  0.36948958547E+02  0.62571086622E+03  0.18995097241E+04  0.21929009092E+04  0.89877577408E+03 0.  0.
         23    2    4    4    0    0  0.42077289697E+03  0.17110167304E+03  0.58418327934E+03  0.74573855322E+03  0.92359474639E+02 0.  0.
         23    2    4    4    0    0 -0.38382393842E+03  0.45460919318E+03  0.13153264448E+04  0.14471623560E+04  0.10101927597E+03 0.  0.
          3    1    3    3  502    0 -0.14449588640E+02 -0.13795347502E+03  0.16912957778E+03  0.21873446451E+03  0.00000000000E+00 0. -1.
         -3    1    3    3    0  502 -0.22499369908E+02 -0.48775739119E+03  0.35998247013E+03  0.60663075516E+03  0.00000000000E+00 0.  1.
         11    1    5    5    0    0  0.25848854298E+03  0.58835371027E+02  0.36001809977E+03  0.44709166834E+03  0.00000000000E+00 0.  1.
        -11    1    5    5    0    0  0.16228435399E+03  0.11226630201E+03  0.22416517957E+03  0.29864688488E+03  0.00000000000E+00 0. -1.
          1    1    6    6  503    0 -0.19768332895E+03  0.16158341300E+03  0.51624332832E+03  0.57592974566E+03  0.00000000000E+00 0. -1.
         -1    1    6    6    0  503 -0.18614060947E+03  0.29302578018E+03  0.79908311643E+03  0.87123261034E+03  0.00000000000E+00 0.  1.
<mgrwt>
<rscale>  0 0.17921291E+04</rscale>
<asrwt>0</asrwt>
<pdfrwt beam="1">  1        1 0.41899136E+00 0.17921291E+04</pdfrwt>
<pdfrwt beam="2">  1       -1 0.45357260E-01 0.17921291E+04</pdfrwt>
<totfact> 0.43123452E+00</totfact>
</mgrwt>
</event>
<event>
12    2  0.3552864E-008  0.1607186E+04  0.7818608E-02  0.8816145E-01
          2   -1    0    0  501    0  0.00000000000E+00  0.00000000000E+00  0.15142154488E+04  0.15142154488E+04  0.00000000000E+00 0. -1.
         -2   -1    0    0    0  501 -0.00000000000E+00 -0.00000000000E+00 -0.42646623891E+03  0.42646623891E+03  0.00000000000E+00 0.  1.
         23    2    1    2    0    0  0.23732446274E+03  0.46968903667E+03  0.56521174220E+03  0.77737237258E+03  0.88953922601E+02 0.  0.
        254    2    1    2    0    0 -0.23732446274E+03 -0.46968903667E+03  0.52253746771E+03  0.11633093151E+04  0.89627700280E+03 0.  0.
         23    2    4    4    0    0  0.13096495953E+03  0.20069010248E+03  0.54719405201E+02  0.26219955543E+03  0.91247222990E+02 0.  0.
         23    2    4    4    0    0 -0.36828942227E+03 -0.67037913915E+03  0.46781806251E+03  0.90110975971E+03  0.89998725962E+02 0.  0.
          4    1    3    3  502    0  0.22709471244E+03  0.39424823405E+03  0.45524452651E+03  0.64362353700E+03  0.00000000000E+00 0. -1.
         -4    1    3    3    0  502  0.10229750304E+02  0.75440802626E+02  0.10996721569E+03  0.13374883558E+03  0.00000000000E+00 0.  1.
         11    1    5    5    0    0  0.12875342955E+03  0.19051264736E+03  0.25705068585E+02  0.23137256746E+03  0.00000000000E+00 0. -1.
        -11    1    5    5    0    0  0.22115299766E+01  0.10177455123E+02  0.29014336616E+02  0.30826987963E+02  0.00000000000E+00 0.  1.
          4    1    6    6  503    0 -0.28291231520E+03 -0.47309271326E+03  0.37656326167E+03  0.66757470254E+03  0.00000000000E+00 0. -1.
         -4    1    6    6    0  503 -0.85377107078E+02 -0.19728642589E+03  0.91254800839E+02  0.23353505718E+03  0.00000000000E+00 0.  1.
<mgrwt>
<rscale>  0 0.16071861E+04</rscale>
<asrwt>0</asrwt>
<pdfrwt beam="1">  1        2 0.23295622E+00 0.16071861E+04</pdfrwt>
<pdfrwt beam="2">  1       -2 0.65610191E-01 0.16071861E+04</pdfrwt>
<totfact> 0.25551203E+01</totfact>
</mgrwt>
</event>
<event>
12    2  0.3552864E-008  0.1985056E+04  0.7818608E-02  0.8613640E-01
         -2   -1    0    0    0  501 -0.00000000000E+00  0.00000000000E+00  0.56051221041E+03  0.56051221041E+03  0.00000000000E+00 0.  1.
          2   -1    0    0  501    0  0.00000000000E+00 -0.00000000000E+00 -0.17575204602E+04  0.17575204602E+04  0.00000000000E+00 0. -1.
         23    2    1    2    0    0  0.70030771446E+03  0.19868294162E+03 -0.82652796499E+03  0.11058655743E+04  0.99420245907E+02 0.  0.
        254    2    1    2    0    0 -0.70030771446E+03 -0.19868294162E+03 -0.37048028476E+03  0.12121670963E+04  0.89564927380E+03 0.  0.
         23    2    4    4    0    0 -0.17162084313E+01  0.47789365546E+02  0.23183860234E+03  0.25291727501E+03  0.89057518672E+02 0.  0.
         23    2    4    4    0    0 -0.69859150603E+03 -0.24647230717E+03 -0.60231888710E+03  0.95924982126E+03  0.92701064404E+02 0.  0.
          3    1    3    3  502    0  0.12954258578E+03  0.92161792102E+01 -0.10827386043E+03  0.16908414574E+03  0.00000000000E+00 0. -1.
         -3    1    3    3    0  502  0.57076512868E+03  0.18946676241E+03 -0.71825410457E+03  0.93678142856E+03  0.00000000000E+00 0.  1.
         11    1    5    5    0    0 -0.43913991461E+02  0.37177972479E+02  0.13526907989E+03  0.14699783760E+03  0.00000000000E+00 0.  1.
        -11    1    5    5    0    0  0.42197783030E+02  0.10611393067E+02  0.96569522447E+02  0.10591943741E+03  0.00000000000E+00 0. -1.
          1    1    6    6  503    0 -0.40131368041E+02  0.33876363475E+01 -0.50183207310E+02  0.64345606507E+02  0.00000000000E+00 0. -1.
         -1    1    6    6    0  503 -0.65846013798E+03 -0.24985994352E+03 -0.55213567979E+03  0.89490421475E+03  0.00000000000E+00 0.  1.
<mgrwt>
<rscale>  0 0.19850558E+04</rscale>
<asrwt>0</asrwt>
<pdfrwt beam="1">  1        2 0.27038775E+00 0.19850558E+04</pdfrwt>
<pdfrwt beam="2">  1       -2 0.86232651E-01 0.19850558E+04</pdfrwt>
<totfact> 0.98803175E+00</totfact>
</mgrwt>
</event>
<event>
12    2  0.3552864E-008  0.1309472E+04  0.7818608E-02  0.9022088E-01
          1   -1    0    0  501    0  0.00000000000E+00  0.00000000000E+00  0.53808023252E+03  0.53808023252E+03  0.00000000000E+00 0. -1.
         -1   -1    0    0    0  501 -0.00000000000E+00 -0.00000000000E+00 -0.79668245696E+03  0.79668245696E+03  0.00000000000E+00 0.  1.
         23    2    1    2    0    0  0.17082666760E+03  0.27354541305E+03 -0.18283059764E+03  0.38144893280E+03  0.89818803912E+02 0.  0.
        254    2    1    2    0    0 -0.17082666760E+03 -0.27354541305E+03 -0.75771626797E+02  0.95331375668E+03  0.89389984668E+03 0.  0.
         23    2    4    4    0    0 -0.51461383343E+03 -0.75518756373E+02 -0.12074263345E+03  0.54352186557E+03  0.10152218817E+03 0.  0.
         23    2    4    4    0    0  0.34378716584E+03 -0.19802665668E+03  0.44971006655E+02  0.40979189111E+03  0.92210793470E+02 0.  0.
          4    1    3    3  502    0  0.53397309830E+02  0.24956841328E+02 -0.21875763252E+02  0.62870228598E+02  0.00000000000E+00 0. -1.
         -4    1    3    3    0  502  0.11742935777E+03  0.24858857172E+03 -0.16095483439E+03  0.31857870420E+03  0.00000000000E+00 0.  1.
         11    1    5    5    0    0 -0.10048150192E+03  0.36273678930E+00 -0.62886323616E+02  0.11853840518E+03  0.00000000000E+00 0. -1.
        -11    1    5    5    0    0 -0.41413233152E+03 -0.75881493162E+02 -0.57856309835E+02  0.42498346039E+03  0.00000000000E+00 0.  1.
          2    1    6    6  503    0  0.26387701779E+02 -0.27727916122E+02  0.31109979846E+02  0.49325236782E+02  0.00000000000E+00 0. -1.
         -2    1    6    6    0  503  0.31739946406E+03 -0.17029874056E+03  0.13861026809E+02  0.36046665433E+03  0.00000000000E+00 0.  1.
<mgrwt>
<rscale>  0 0.13094718E+04</rscale>
<asrwt>0</asrwt>
<pdfrwt beam="1">  1        1 0.82781575E-01 0.13094718E+04</pdfrwt>
<pdfrwt beam="2">  1       -1 0.12256653E+00 0.13094718E+04</pdfrwt>
<totfact> 0.23091600E+01</totfact>
</mgrwt>
</event>
<event>
12    2  0.3552864E-008  0.1630310E+04  0.7818608E-02  0.8802141E-01
          2   -1    0    0  501    0  0.00000000000E+00  0.00000000000E+00  0.15923163606E+04  0.15923163606E+04  0.00000000000E+00 0. -1.
         -2   -1    0    0    0  501 -0.00000000000E+00 -0.00000000000E+00 -0.41730243070E+03  0.41730243070E+03  0.00000000000E+00 0.  1.
         23    2    1    2    0    0  0.62197474778E+02 -0.52787418887E+03  0.19762632548E+03  0.57637598720E+03  0.10311851893E+03 0.  0.
        254    2    1    2    0    0 -0.62197474778E+02  0.52787418887E+03  0.97738760446E+03  0.14332428042E+04  0.90353678462E+03 0.  0.
         23    2    4    4    0    0  0.34955393713E+03  0.50225399625E+03  0.49920097829E+03  0.79506874950E+03  0.92117685600E+02 0.  0.
         23    2    4    4    0    0 -0.41175141190E+03  0.25620192621E+02  0.47818662617E+03  0.63817405465E+03  0.91695447574E+02 0.  0.
          1    1    3    3  502    0  0.65592875229E+01 -0.16624117992E+03  0.13899719085E+02  0.16695016126E+03  0.00000000000E+00 0. -1.
         -1    1    3    3    0  502  0.55638187255E+02 -0.36163300895E+03  0.18372660640E+03  0.40942582594E+03  0.00000000000E+00 0.  1.
         11    1    5    5    0    0  0.17782441142E+03  0.29906937875E+03  0.23320716991E+03  0.41886704179E+03  0.00000000000E+00 0. -1.
        -11    1    5    5    0    0  0.17172952571E+03  0.20318461750E+03  0.26599380838E+03  0.37620170771E+03  0.00000000000E+00 0.  1.
          1    1    6    6  503    0 -0.48268662034E+02  0.95172194704E+01  0.20024203670E+02  0.53116945823E+02  0.00000000000E+00 0. -1.
         -1    1    6    6    0  503 -0.36348274987E+03  0.16102973151E+02  0.45816242250E+03  0.58505710883E+03  0.00000000000E+00 0.  1.
<mgrwt>
<rscale>  0 0.16303098E+04</rscale>
<asrwt>0</asrwt>
<pdfrwt beam="1">  1        2 0.24497174E+00 0.16303098E+04</pdfrwt>
<pdfrwt beam="2">  1       -2 0.64200375E-01 0.16303098E+04</pdfrwt>
<totfact> 0.24155865E+01</totfact>
</mgrwt>
</event>
<event>
12    2  0.3552864E-008  0.1510270E+04  0.7818608E-02  0.8877652E-01
          2   -1    0    0  501    0  0.00000000000E+00  0.00000000000E+00  0.66276371155E+03  0.66276371155E+03  0.00000000000E+00 0. -1.
         -2   -1    0    0    0  501 -0.00000000000E+00 -0.00000000000E+00 -0.86038024905E+03  0.86038024905E+03  0.00000000000E+00 0.  1.
         23    2    1    2    0    0 -0.37302917183E+03 -0.18381702093E+03 -0.30719930728E+03  0.52494429295E+03  0.90860531000E+02 0.  0.
        254    2    1    2    0    0  0.37302917183E+03  0.18381702093E+03  0.10958276979E+03  0.99819966764E+03  0.90080782236E+03 0.  0.
         23    2    4    4    0    0  0.22098208343E+03  0.39860499512E+03  0.38633121266E+03  0.60448546400E+03  0.91825089090E+02 0.  0.
         23    2    4    4    0    0  0.15204708840E+03 -0.21478797419E+03 -0.27674844288E+03  0.39371420364E+03  0.95754804401E+02 0.  0.
          3    1    3    3  502    0 -0.34518593401E+03 -0.16281204670E+03 -0.24467741794E+03  0.45335210426E+03  0.00000000000E+00 0. -1.
         -3    1    3    3    0  502 -0.27843237815E+02 -0.21004974232E+02 -0.62521889348E+02  0.71592188694E+02  0.00000000000E+00 0.  1.
         11    1    5    5    0    0  0.80805747441E+02  0.11895762915E+03  0.17716654444E+03  0.22818516784E+03  0.00000000000E+00 0.  1.
        -11    1    5    5    0    0  0.14017633599E+03  0.27964736596E+03  0.20916466823E+03  0.37630029617E+03  0.00000000000E+00 0. -1.
          3    1    6    6  503    0  0.14267445547E+03 -0.22049237500E+03 -0.24145284364E+03  0.35675252400E+03  0.00000000000E+00 0. -1.
         -3    1    6    6    0  503  0.93726329270E+01  0.57044008086E+01 -0.35295599235E+02  0.36961679641E+02  0.00000000000E+00 0.  1.
<mgrwt>
<rscale>  0 0.15102699E+04</rscale>
<asrwt>0</asrwt>
<pdfrwt beam="1">  1        2 0.10196365E+00 0.15102699E+04</pdfrwt>
<pdfrwt beam="2">  1       -2 0.13236619E+00 0.15102699E+04</pdfrwt>
<totfact> 0.17571666E+01</totfact>
</mgrwt>
</event>
<event>
12    2  0.3552864E-008  0.2056624E+04  0.7818608E-02  0.8580595E-01
          2   -1    0    0  501    0  0.00000000000E+00  0.00000000000E+00  0.14206193195E+04  0.14206193195E+04  0.00000000000E+00 0. -1.
         -2   -1    0    0    0  501 -0.00000000000E+00 -0.00000000000E+00 -0.74434153199E+03  0.74434153199E+03  0.00000000000E+00 0.  1.
         23    2    1    2    0    0  0.68985107249E+01  0.13668027720E+03  0.11347116446E+04  0.11468049815E+04  0.94138523199E+02 0.  0.
        254    2    1    2    0    0 -0.68985107249E+01 -0.13668027720E+03 -0.45843385702E+03  0.10181558701E+04  0.89874951287E+03 0.  0.
         23    2    4    4    0    0  0.20649548942E+03  0.27017966723E+03 -0.41836991279E+03  0.54738328023E+03  0.94644766440E+02 0.  0.
         23    2    4    4    0    0 -0.21339400014E+03 -0.40685994443E+03 -0.40063944236E+02  0.47077258985E+03  0.94602843751E+02 0.  0.
          3    1    3    3  502    0  0.23505622653E+02  0.79101034278E+01  0.39555492966E+03  0.39633166213E+03  0.00000000000E+00 0. -1.
         -3    1    3    3    0  502 -0.16607111928E+02  0.12877017377E+03  0.73915671490E+03  0.75047331932E+03  0.00000000000E+00 0.  1.
         11    1    5    5    0    0  0.33077868195E+02  0.15295597059E+01 -0.35431668540E+02  0.48496268442E+02  0.00000000000E+00 0. -1.
        -11    1    5    5    0    0  0.17341762122E+03  0.26865010752E+03 -0.38293824425E+03  0.49888701179E+03  0.00000000000E+00 0.  1.
          3    1    6    6  503    0  0.69174310914E+01 -0.58452053892E+01 -0.80319857222E+01  0.12104960702E+02  0.00000000000E+00 0. -1.
         -3    1    6    6    0  503 -0.22031143123E+03 -0.40101473904E+03 -0.32031958514E+02  0.45866762914E+03  0.00000000000E+00 0.  1.
<mgrwt>
<rscale>  0 0.20566244E+04</rscale>
<asrwt>0</asrwt>
<pdfrwt beam="1">  1        2 0.21855682E+00 0.20566244E+04</pdfrwt>
<pdfrwt beam="2">  1       -2 0.11451408E+00 0.20566244E+04</pdfrwt>
<totfact> 0.77607070E+00</totfact>
</mgrwt>
</event>
<event>
12    2  0.3552864E-008  0.1161317E+04  0.7818608E-02  0.9147406E-01
          2   -1    0    0  501    0  0.00000000000E+00  0.00000000000E+00  0.29007406088E+04  0.29007406088E+04  0.00000000000E+00 0. -1.
         -2   -1    0    0    0  501 -0.00000000000E+00 -0.00000000000E+00 -0.11623380981E+03  0.11623380981E+03  0.00000000000E+00 0.  1.
         23    2    1    2    0    0  0.72514002002E+02 -0.20558165510E+03  0.50571217447E+03  0.55828957531E+03  0.91762460154E+02 0.  0.
        254    2    1    2    0    0 -0.72514002002E+02  0.20558165510E+03  0.22787946245E+04  0.24586848433E+04  0.89705301990E+03 0.  0.
         23    2    4    4    0    0 -0.34212860930E+03  0.26309273848E+03  0.54621319761E+03  0.70218516413E+03  0.91898711299E+02 0.  0.
         23    2    4    4    0    0  0.26961460729E+03 -0.57511083388E+02  0.17325814269E+04  0.17564996792E+04  0.86331690890E+02 0.  0.
          3    1    3    3  502    0  0.55690920131E+02 -0.20921695836E+03  0.48647712764E+03  0.53247836573E+03  0.00000000000E+00 0. -1.
         -3    1    3    3    0  502  0.16823081871E+02  0.36353032658E+01  0.19235046827E+02  0.25811209579E+02  0.00000000000E+00 0.  1.
         11    1    5    5    0    0 -0.32986034208E+03  0.22027071881E+03  0.49491486197E+03  0.63424581626E+03  0.00000000000E+00 0. -1.
        -11    1    5    5    0    0 -0.12268267213E+02  0.42822019678E+02  0.51298335632E+02  0.67939347865E+02  0.00000000000E+00 0.  1.
          1    1    6    6  503    0  0.26063574816E+03 -0.62485834763E+02  0.17173083032E+04  0.17380976040E+04  0.00000000000E+00 0. -1.
         -1    1    6    6    0  503  0.89788591347E+01  0.49747513744E+01  0.15273123680E+02  0.18402075143E+02  0.00000000000E+00 0.  1.
<mgrwt>
<rscale>  0 0.11613167E+04</rscale>
<asrwt>0</asrwt>
<pdfrwt beam="1">  1        2 0.44626773E+00 0.11613167E+04</pdfrwt>
<pdfrwt beam="2">  1       -2 0.17882127E-01 0.11613167E+04</pdfrwt>
<totfact> 0.52319688E+01</totfact>
</mgrwt>
</event>
<event>
12    2  0.3552864E-008  0.1560799E+04  0.7818608E-02  0.8845000E-01
          2   -1    0    0  501    0  0.00000000000E+00  0.00000000000E+00  0.21866989021E+04  0.21866989021E+04  0.00000000000E+00 0.  1.
         -2   -1    0    0    0  501 -0.00000000000E+00 -0.00000000000E+00 -0.27851251138E+03  0.27851251138E+03  0.00000000000E+00 0. -1.
         23    2    1    2    0    0  0.27676277438E+03 -0.33279753494E+03  0.10829942391E+04  0.11697392380E+04  0.89786025265E+02 0.  0.
        254    2    1    2    0    0 -0.27676277438E+03  0.33279753494E+03  0.82519215163E+03  0.12954721755E+04  0.89997457628E+03 0.  0.
         23    2    4    4    0    0 -0.35999944175E+03  0.55947537010E+03  0.35681065871E+03  0.76049641926E+03  0.91807786825E+02 0.  0.
         23    2    4    4    0    0  0.83236667380E+02 -0.22667783516E+03  0.46838149292E+03  0.53497575629E+03  0.92231519301E+02 0.  0.
          3    1    3    3  502    0  0.15257156396E+03 -0.16004440966E+03  0.43957468172E+03  0.49205507416E+03  0.00000000000E+00 0.  1.
         -3    1    3    3    0  502  0.12419121042E+03 -0.17275312528E+03  0.64341955740E+03  0.67768416381E+03  0.00000000000E+00 0. -1.
         11    1    5    5    0    0 -0.21999225680E+03  0.26799581378E+03  0.21006374492E+03  0.40539502486E+03  0.00000000000E+00 0. -1.
        -11    1    5    5    0    0 -0.14000718495E+03  0.29147955633E+03  0.14674691379E+03  0.35510139439E+03  0.00000000000E+00 0.  1.
          1    1    6    6  503    0  0.79210648113E+02 -0.11156861829E+03  0.31263808824E+03  0.34126889337E+03  0.00000000000E+00 0. -1.
         -1    1    6    6    0  503  0.40260192667E+01 -0.11510921687E+03  0.15574340468E+03  0.19370686291E+03  0.00000000000E+00 0.  1.
<mgrwt>
<rscale>  0 0.15607985E+04</rscale>
<asrwt>0</asrwt>
<pdfrwt beam="1">  1        2 0.33641521E+00 0.15607985E+04</pdfrwt>
<pdfrwt beam="2">  1       -2 0.42848080E-01 0.15607985E+04</pdfrwt>
<totfact> 0.26113782E+01</totfact>
</mgrwt>
</event>
<event>
12    2  0.3552864E-008  0.1308371E+04  0.7818608E-02  0.9022953E-01
          2   -1    0    0  501    0  0.00000000000E+00  0.00000000000E+00  0.16504921043E+04  0.16504921043E+04  0.00000000000E+00 0. -1.
         -2   -1    0    0    0  501 -0.00000000000E+00 -0.00000000000E+00 -0.25929151958E+03  0.25929151958E+03  0.00000000000E+00 0.  1.
         23    2    1    2    0    0  0.19805334079E+03  0.14310205015E+02  0.77741651724E+03  0.80668438214E+03  0.83266700155E+02 0.  0.
        254    2    1    2    0    0 -0.19805334079E+03 -0.14310205015E+02  0.61378406753E+03  0.11030992418E+04  0.89480006030E+03 0.  0.
         23    2    4    4    0    0 -0.95670853361E+02  0.34734341670E+02 -0.21868973222E+03  0.25797543086E+03  0.91469870870E+02 0.  0.
         23    2    4    4    0    0 -0.10238248743E+03 -0.49044546685E+02  0.83247379975E+03  0.84512381092E+03  0.91291222040E+02 0.  0.
          1    1    3    3  502    0  0.17680013079E+03  0.19758445419E+02  0.75355153906E+03  0.77426649445E+03  0.00000000000E+00 0. -1.
         -1    1    3    3    0  502  0.21253210004E+02 -0.54482404034E+01  0.23864978178E+02  0.32417887692E+02  0.00000000000E+00 0.  1.
         11    1    5    5    0    0 -0.99436382427E+02  0.11482458033E+02 -0.21041307708E+03  0.23300880670E+03  0.00000000000E+00 0. -1.
        -11    1    5    5    0    0  0.37655290657E+01  0.23251883637E+02 -0.82766551362E+01  0.24966624162E+02  0.00000000000E+00 0.  1.
          1    1    6    6  503    0 -0.85842620230E+02 -0.72551091175E+02  0.56212148538E+03  0.57324792246E+03  0.00000000000E+00 0. -1.
         -1    1    6    6    0  503 -0.16539867203E+02  0.23506544489E+02  0.27035231437E+03  0.27187588846E+03  0.00000000000E+00 0.  1.
<mgrwt>
<rscale>  0 0.13083709E+04</rscale>
<asrwt>0</asrwt>
<pdfrwt beam="1">  1        2 0.25392186E+00 0.13083709E+04</pdfrwt>
<pdfrwt beam="2">  1       -2 0.39891004E-01 0.13083709E+04</pdfrwt>
<totfact> 0.60855488E+01</totfact>
</mgrwt>
</event>
<event>
12    2  0.3552864E-008  0.1641409E+04  0.7818608E-02  0.8795505E-01
          2   -1    0    0  501    0  0.00000000000E+00  0.00000000000E+00  0.31226740743E+04  0.31226740743E+04  0.00000000000E+00 0. -1.
         -2   -1    0    0    0  501 -0.00000000000E+00 -0.00000000000E+00 -0.21569839799E+03  0.21569839799E+03  0.00000000000E+00 0.  1.
         23    2    1    2    0    0 -0.75135571193E+02  0.73306555370E+02 -0.11961262679E+03  0.18420306361E+03  0.92759813703E+02 0.  0.
        254    2    1    2    0    0  0.75135571193E+02 -0.73306555370E+02  0.30265883031E+04  0.31541694087E+04  0.88177587690E+03 0.  0.
         23    2    4    4    0    0 -0.34585503115E+03  0.38889689737E+02  0.20447209147E+04  0.20761714763E+04  0.92066656475E+02 0.  0.
         23    2    4    4    0    0  0.42099060234E+03 -0.11219624511E+03  0.98186738834E+03  0.10779979324E+04  0.90525627528E+02 0.  0.
          2    1    3    3  502    0  0.63679870084E+01  0.56004479825E+02 -0.55148474898E+02  0.78856878600E+02  0.00000000000E+00 0. -1.
         -2    1    3    3    0  502 -0.81503558201E+02  0.17302075545E+02 -0.64464151894E+02  0.10534618501E+03  0.00000000000E+00 0.  1.
         11    1    5    5    0    0 -0.55100389717E+01  0.16706290466E+02  0.14656259744E+03  0.14761455091E+03  0.00000000000E+00 0.  1.
        -11    1    5    5    0    0 -0.34034499218E+03  0.22183399271E+02  0.18981583173E+04  0.19285569254E+04  0.00000000000E+00 0. -1.
          4    1    6    6  503    0  0.31706157762E+03 -0.45438006902E+02  0.74243454823E+03  0.80858006090E+03  0.00000000000E+00 0. -1.
         -4    1    6    6    0  503  0.10392902472E+03 -0.66758238205E+02  0.23943284011E+03  0.26941787147E+03  0.00000000000E+00 0.  1.
<mgrwt>
<rscale>  0 0.16414089E+04</rscale>
<asrwt>0</asrwt>
<pdfrwt beam="1">  1        2 0.48041136E+00 0.16414089E+04</pdfrwt>
<pdfrwt beam="2">  1       -2 0.33184371E-01 0.16414089E+04</pdfrwt>
<totfact> 0.11875512E+01</totfact>
</mgrwt>
</event>
<event>
12    2  0.3552864E-008  0.2980991E+04  0.7818608E-02  0.8249180E-01
          2   -1    0    0  501    0  0.00000000000E+00  0.00000000000E+00  0.13814723206E+04  0.13814723206E+04  0.00000000000E+00 0. -1.
         -2   -1    0    0    0  501 -0.00000000000E+00 -0.00000000000E+00 -0.16081227815E+04  0.16081227815E+04  0.00000000000E+00 0.  1.
         23    2    1    2    0    0 -0.11311156780E+04  0.59496920567E+01 -0.84467523385E+03  0.14142760401E+04  0.85102238971E+02 0.  0.
        254    2    1    2    0    0  0.11311156780E+04 -0.59496920567E+01  0.61802477292E+03  0.15753190620E+04  0.90565857328E+03 0.  0.
         23    2    4    4    0    0  0.78677211716E+03 -0.42538285748E+03  0.41166850336E+03  0.98854728456E+03  0.88282712771E+02 0.  0.
         23    2    4    4    0    0  0.34434356085E+03  0.41943316542E+03  0.20635626956E+03  0.58677177747E+03  0.84979648691E+02 0.  0.
          1    1    3    3  502    0 -0.54002137915E+02  0.19687982590E+01 -0.19669877196E+02  0.57506618183E+02  0.00000000000E+00 0. -1.
         -1    1    3    3    0  502 -0.10771135401E+04  0.39808937976E+01 -0.82500535665E+03  0.13567694219E+04  0.00000000000E+00 0.  1.
         11    1    5    5    0    0  0.10951655239E+03 -0.82440048698E+02  0.90574241041E+02  0.16429829584E+03  0.00000000000E+00 0.  1.
        -11    1    5    5    0    0  0.67725556477E+03 -0.34294280878E+03  0.32109426232E+03  0.82424898871E+03  0.00000000000E+00 0. -1.
          4    1    6    6  503    0  0.32417093420E+03  0.40818098702E+03  0.17936097591E+03  0.55124302483E+03  0.00000000000E+00 0. -1.
         -4    1    6    6    0  503  0.20172626650E+02  0.11252178399E+02  0.26995293647E+02  0.35528752634E+02  0.00000000000E+00 0.  1.
<mgrwt>
<rscale>  0 0.29809912E+04</rscale>
<asrwt>0</asrwt>
<pdfrwt beam="1">  1        2 0.21253420E+00 0.29809912E+04</pdfrwt>
<pdfrwt beam="2">  1       -2 0.24740350E+00 0.29809912E+04</pdfrwt>
<totfact> 0.84769217E-01</totfact>
</mgrwt>
</event>
<event>
12    2  0.3552864E-008  0.1604545E+04  0.7818608E-02  0.8817761E-01
          2   -1    0    0  501    0  0.00000000000E+00  0.00000000000E+00  0.20749219531E+04  0.20749219531E+04  0.00000000000E+00 0. -1.
         -2   -1    0    0    0  501 -0.00000000000E+00 -0.00000000000E+00 -0.31020021509E+03  0.31020021509E+03  0.00000000000E+00 0.  1.
         23    2    1    2    0    0  0.72020860297E+01 -0.55704087719E+03  0.66747990276E+03  0.87411649420E+03  0.90574919036E+02 0.  0.
        254    2    1    2    0    0 -0.72020860297E+01  0.55704087719E+03  0.10972418353E+04  0.15110056740E+04  0.87684211401E+03 0.  0.
         23    2    4    4    0    0  0.45005295235E+01 -0.27066440959E+02  0.87348867496E+03  0.87871764475E+03  0.91702709441E+02 0.  0.
         23    2    4    4    0    0 -0.11702615553E+02  0.58410731814E+03  0.22375316031E+03  0.63228802925E+03  0.91675323087E+02 0.  0.
          3    1    3    3  502    0  0.88413743519E+01 -0.87708827217E+02  0.60804914349E+02  0.10708989626E+03  0.00000000000E+00 0. -1.
         -3    1    3    3    0  502 -0.16392883222E+01 -0.46933204997E+03  0.60667498841E+03  0.76702659794E+03  0.00000000000E+00 0.  1.
         11    1    5    5    0    0 -0.14348500875E+02 -0.47233495688E+02  0.77093391883E+03  0.77251277646E+03  0.00000000000E+00 0.  1.
        -11    1    5    5    0    0  0.18849030399E+02  0.20167054729E+02  0.10255475613E+03  0.10620486829E+03  0.00000000000E+00 0. -1.
          4    1    6    6  503    0 -0.44854457544E+02  0.33570742219E+03  0.10228300497E+03  0.35379826001E+03  0.00000000000E+00 0.  1.
         -4    1    6    6    0  503  0.33151841990E+02  0.24839989595E+03  0.12147015533E+03  0.27848976924E+03  0.00000000000E+00 0. -1.
<mgrwt>
<rscale>  0 0.16045451E+04</rscale>
<asrwt>0</asrwt>
<pdfrwt beam="1">  1        2 0.31921875E+00 0.16045451E+04</pdfrwt>
<pdfrwt beam="2">  1       -2 0.47723111E-01 0.16045451E+04</pdfrwt>
<totfact> 0.24212817E+01</totfact>
</mgrwt>
</event>
<event>
12    2  0.3552864E-008  0.3010412E+04  0.7818608E-02  0.8240764E-01
         -1   -1    0    0    0  501 -0.00000000000E+00  0.00000000000E+00  0.14079670136E+04  0.14079670136E+04  0.00000000000E+00 0.  1.
          1   -1    0    0  501    0  0.00000000000E+00 -0.00000000000E+00 -0.16091610287E+04  0.16091610287E+04  0.00000000000E+00 0. -1.
         23    2    1    2    0    0  0.95005498061E+03 -0.82989001320E+03 -0.62474147812E+03  0.14107261543E+04  0.92328045047E+02 0.  0.
        254    2    1    2    0    0 -0.95005498061E+03  0.82989001320E+03  0.42354746312E+03  0.16064018880E+04  0.89989592283E+03 0.  0.
         23    2    4    4    0    0 -0.34986704279E+03  0.17209772807E+03 -0.26239430311E+03  0.47861556987E+03  0.90540144557E+02 0.  0.
         23    2    4    4    0    0 -0.60018793782E+03  0.65779228513E+03  0.68594176622E+03  0.11277863181E+04  0.92030546779E+02 0.  0.
          1    1    3    3  502    0  0.24209815073E+03 -0.20373280150E+03 -0.20170631657E+03  0.37523860027E+03  0.00000000000E+00 0. -1.
         -1    1    3    3    0  502  0.70795682988E+03 -0.62615721170E+03 -0.42303516155E+03  0.10354875541E+04  0.00000000000E+00 0.  1.
         11    1    5    5    0    0 -0.33511112487E+03  0.14231541824E+03 -0.22247698919E+03  0.42667218681E+03  0.00000000000E+00 0.  1.
        -11    1    5    5    0    0 -0.14755917922E+02  0.29782309832E+02 -0.39917313922E+02  0.51943383057E+02  0.00000000000E+00 0. -1.
          1    1    6    6  503    0 -0.28588851391E+03  0.24819663577E+03  0.27534888992E+03  0.46813547566E+03  0.00000000000E+00 0. -1.
         -1    1    6    6    0  503 -0.31429942390E+03  0.40959564935E+03  0.41059287630E+03  0.65965084242E+03  0.00000000000E+00 0.  1.
<mgrwt>
<rscale>  0 0.30104124E+04</rscale>
<asrwt>0</asrwt>
<pdfrwt beam="1">  1        1 0.24756323E+00 0.30104124E+04</pdfrwt>
<pdfrwt beam="2">  1       -1 0.21661031E+00 0.30104124E+04</pdfrwt>
<totfact> 0.54239583E-01</totfact>
</mgrwt>
</event>
<event>
12    2  0.3552864E-008  0.1615044E+04  0.7818608E-02  0.8811359E-01
          2   -1    0    0  501    0  0.00000000000E+00  0.00000000000E+00  0.18986559520E+04  0.18986559520E+04  0.00000000000E+00 0. -1.
         -2   -1    0    0    0  501 -0.00000000000E+00 -0.00000000000E+00 -0.34344901993E+03  0.34344901993E+03  0.00000000000E+00 0.  1.
         23    2    1    2    0    0  0.26756747199E+03 -0.16581931549E+03  0.11403915194E+04  0.11864928187E+04  0.90465428680E+02 0.  0.
        254    2    1    2    0    0 -0.26756747199E+03  0.16581931549E+03  0.41481541267E+03  0.10556121532E+04  0.91823569635E+03 0.  0.
         23    2    4    4    0    0 -0.39158522171E+03  0.40937101826E+03  0.49496947115E+03  0.75657671624E+03  0.80560125020E+02 0.  0.
         23    2    4    4    0    0  0.12401774972E+03 -0.24355170276E+03 -0.80154058483E+02  0.29903543701E+03  0.91102608804E+02 0.  0.
          3    1    3    3  502    0  0.15985492636E+03 -0.14889966206E+03  0.76843067999E+03  0.79888072752E+03  0.00000000000E+00 0. -1.
         -3    1    3    3    0  502  0.10771254563E+03 -0.16919653431E+02  0.37196083945E+03  0.38761209120E+03  0.00000000000E+00 0.  1.
         11    1    5    5    0    0 -0.51475164728E+02  0.95244612452E+02  0.11147544478E+03  0.15539627915E+03  0.00000000000E+00 0. -1.
        -11    1    5    5    0    0 -0.34011005698E+03  0.31412640580E+03  0.38349402637E+03  0.60118043709E+03  0.00000000000E+00 0.  1.
          3    1    6    6  503    0 -0.54906274982E+01 -0.67012335237E+02 -0.33713363146E+02  0.75215629485E+02  0.00000000000E+00 0. -1.
         -3    1    6    6    0  503  0.12950837722E+03 -0.17653936753E+03 -0.46440695337E+02  0.22381980752E+03  0.00000000000E+00 0.  1.
<mgrwt>
<rscale>  0 0.16150437E+04</rscale>
<asrwt>0</asrwt>
<pdfrwt beam="1">  1        2 0.29210091E+00 0.16150437E+04</pdfrwt>
<pdfrwt beam="2">  1       -2 0.52838312E-01 0.16150437E+04</pdfrwt>
<totfact> 0.24615835E+01</totfact>
</mgrwt>
</event>
<event>
12    2  0.3552864E-008  0.1246150E+04  0.7818608E-02  0.9073394E-01
          2   -1    0    0  501    0  0.00000000000E+00  0.00000000000E+00  0.73356297110E+03  0.73356297110E+03  0.00000000000E+00 0. -1.
         -2   -1    0    0    0  501 -0.00000000000E+00 -0.00000000000E+00 -0.52922816511E+03  0.52922816511E+03  0.00000000000E+00 0.  1.
         23    2    1    2    0    0  0.16500988150E+03  0.18232950123E+03  0.21823320565E+03  0.34145018388E+03  0.92142216227E+02 0.  0.
        254    2    1    2    0    0 -0.16500988150E+03 -0.18232950123E+03 -0.13898399655E+02  0.92134095233E+03  0.88780835596E+03 0.  0.
         23    2    4    4    0    0  0.20404435387E+03  0.22064158233E+03 -0.15511231612E+03  0.34954316093E+03  0.88339031796E+02 0.  0.
         23    2    4    4    0    0 -0.36905423537E+03 -0.40297108356E+03  0.14121391647E+03  0.57179779140E+03  0.91785735352E+02 0.  0.
          3    1    3    3  502    0  0.47301445664E+02  0.11698989387E+03  0.12551934236E+03  0.17798642458E+03  0.00000000000E+00 0. -1.
         -3    1    3    3    0  502  0.11770843583E+03  0.65339607358E+02  0.92713863291E+02  0.16346375929E+03  0.00000000000E+00 0.  1.
         11    1    5    5    0    0  0.17273058504E+03  0.20520475942E+03 -0.10407828988E+03  0.28771016444E+03  0.00000000000E+00 0.  1.
        -11    1    5    5    0    0  0.31313768830E+02  0.15436822909E+02 -0.51034026247E+02  0.61832996489E+02  0.00000000000E+00 0. -1.
          3    1    6    6  503    0 -0.14410312728E+03 -0.16731242458E+03  0.10339079887E+03  0.24382127881E+03  0.00000000000E+00 0. -1.
         -3    1    6    6    0  503 -0.22495110809E+03 -0.23565865898E+03  0.37823117597E+02  0.32797651259E+03  0.00000000000E+00 0.  1.
<mgrwt>
<rscale>  0 0.12461496E+04</rscale>
<asrwt>0</asrwt>
<pdfrwt beam="1">  1        2 0.11285584E+00 0.12461496E+04</pdfrwt>
<pdfrwt beam="2">  1       -2 0.81419718E-01 0.12461496E+04</pdfrwt>
<totfact> 0.50460150E+01</totfact>
</mgrwt>
</event>
<event>
12    2  0.3552864E-008  0.1436015E+04  0.7818608E-02  0.8928154E-01
         -1   -1    0    0    0  501 -0.00000000000E+00  0.00000000000E+00  0.44947386011E+03  0.44947386011E+03  0.00000000000E+00 0.  1.
          1   -1    0    0  501    0  0.00000000000E+00 -0.00000000000E+00 -0.11469742943E+04  0.11469742943E+04  0.00000000000E+00 0. -1.
         23    2    1    2    0    0  0.59411207794E+02  0.37664240207E+03 -0.42686611075E+03  0.57982734756E+03  0.92714000164E+02 0.  0.
        254    2    1    2    0    0 -0.59411207794E+02 -0.37664240207E+03 -0.27063432343E+03  0.10166208068E+04  0.90271021775E+03 0.  0.
         23    2    4    4    0    0 -0.18619815466E+03 -0.13161384941E+03  0.29407684564E+03  0.38315939624E+03  0.91312505347E+02 0.  0.
         23    2    4    4    0    0  0.12678694687E+03 -0.24502855266E+03 -0.56471116907E+03  0.63346141059E+03  0.79124792103E+02 0.  0.
          1    1    3    3  502    0  0.58882728847E+02  0.30664792062E+03 -0.39335282503E+03  0.50222163229E+03  0.00000000000E+00 0. -1.
         -1    1    3    3    0  502  0.52847894655E+00  0.69994481452E+02 -0.33513285714E+02  0.77605715273E+02  0.00000000000E+00 0.  1.
         11    1    5    5    0    0 -0.28774984112E+01 -0.67756710908E+01  0.60918123044E+02  0.61361286093E+02  0.00000000000E+00 0.  1.
        -11    1    5    5    0    0 -0.18332065625E+03 -0.12483817832E+03  0.23315872260E+03  0.32179811015E+03  0.00000000000E+00 0. -1.
          4    1    6    6  503    0  0.10779178614E+03 -0.14226509900E+03 -0.40513909017E+03  0.44271447902E+03  0.00000000000E+00 0. -1.
         -4    1    6    6    0  503  0.18995160731E+02 -0.10276345367E+03 -0.15957207890E+03  0.19074693157E+03  0.00000000000E+00 0.  1.
<mgrwt>
<rscale>  0 0.14360153E+04</rscale>
<asrwt>0</asrwt>
<pdfrwt beam="1">  1        1 0.17645758E+00 0.14360153E+04</pdfrwt>
<pdfrwt beam="2">  1       -1 0.69149826E-01 0.14360153E+04</pdfrwt>
<totfact> 0.24054675E+01</totfact>
</mgrwt>
</event>
<event>
12    2  0.3552864E-008  0.2612617E+04  0.7818608E-02  0.8363928E-01
          1   -1    0    0  501    0  0.00000000000E+00  0.00000000000E+00  0.29272343879E+04  0.29272343879E+04  0.00000000000E+00 0. -1.
         -1   -1    0    0    0  501 -0.00000000000E+00 -0.00000000000E+00 -0.58295379441E+03  0.58295379441E+03  0.00000000000E+00 0.  1.
         23    2    1    2    0    0 -0.42225953071E+02  0.30378376405E+03 -0.45538501238E+03  0.55650595655E+03  0.90861233576E+02 0.  0.
        254    2    1    2    0    0  0.42225953071E+02 -0.30378376405E+03  0.27996656059E+04  0.29536822258E+04  0.88996830265E+03 0.  0.
         23    2    4    4    0    0  0.14404924715E+03  0.27381971775E+03  0.13307206471E+04  0.13693185432E+04  0.92132560229E+02 0.  0.
         23    2    4    4    0    0 -0.10182329407E+03 -0.57760348181E+03  0.14689449588E+04  0.15843636826E+04  0.91734515805E+02 0.  0.
          1    1    3    3  502    0 -0.48255563752E+02  0.74305547170E+02 -0.10200756317E+03  0.13511275557E+03  0.00000000000E+00 0. -1.
         -1    1    3    3    0  502  0.60296106809E+01  0.22947821688E+03 -0.35337744921E+03  0.42139320099E+03  0.00000000000E+00 0.  1.
         11    1    5    5    0    0  0.80568236078E+02  0.23465705356E+03  0.10393690171E+04  0.10685705999E+04  0.00000000000E+00 0. -1.
        -11    1    5    5    0    0  0.63481011067E+02  0.39162664189E+02  0.29135163002E+03  0.30074794322E+03  0.00000000000E+00 0.  1.
          4    1    6    6  503    0 -0.41947833839E+02 -0.74599076803E+02  0.17525730856E+03  0.19503786101E+03  0.00000000000E+00 0.  1.
         -4    1    6    6    0  503 -0.59875460236E+02 -0.50300440500E+03  0.12936876502E+04  0.13893258216E+04  0.00000000000E+00 0. -1.
<mgrwt>
<rscale>  0 0.26126174E+04</rscale>
<asrwt>0</asrwt>
<pdfrwt beam="1">  1        1 0.45034374E+00 0.26126174E+04</pdfrwt>
<pdfrwt beam="2">  1       -1 0.89685201E-01 0.26126174E+04</pdfrwt>
<totfact> 0.72286385E-01</totfact>
</mgrwt>
</event>
<event>
12    2  0.3552864E-008  0.1986019E+04  0.7818608E-02  0.8613185E-01
         -2   -1    0    0    0  501 -0.00000000000E+00  0.00000000000E+00  0.54467731327E+03  0.54467731327E+03  0.00000000000E+00 0.  1.
          2   -1    0    0  501    0  0.00000000000E+00 -0.00000000000E+00 -0.18103703113E+04  0.18103703113E+04  0.00000000000E+00 0. -1.
         23    2    1    2    0    0  0.61525258991E+03  0.10613580774E+03  0.60149633265E+02  0.63392421401E+03  0.91876937542E+02 0.  0.
        254    2    1    2    0    0 -0.61525258991E+03 -0.10613580774E+03 -0.13258426313E+04  0.17211234106E+04  0.90255556745E+03 0.  0.
         23    2    4    4    0    0  0.17886978938E+03  0.28735868885E+02 -0.60100831517E+03  0.63378771341E+03  0.87496965990E+02 0.  0.
         23    2    4    4    0    0 -0.79412237929E+03 -0.13487167663E+03 -0.72483431617E+03  0.10873356972E+04  0.89963381587E+02 0.  0.
          1    1    3    3  502    0  0.35263597288E+03  0.27051618649E+02  0.25805272601E+01  0.35368146482E+03  0.00000000000E+00 0. -1.
         -1    1    3    3    0  502  0.26261661703E+03  0.79084189095E+02  0.57569106005E+02  0.28024274919E+03  0.00000000000E+00 0.  1.
         11    1    5    5    0    0  0.18374195205E+03  0.25472918931E+02 -0.59976142463E+03  0.62779275323E+03  0.00000000000E+00 0. -1.
        -11    1    5    5    0    0 -0.48721626758E+01  0.32629499541E+01 -0.12468905458E+01  0.59949601813E+01  0.00000000000E+00 0.  1.
          1    1    6    6  503    0 -0.62233732752E+03 -0.10128446084E+03 -0.51527728876E+03  0.81429292981E+03  0.00000000000E+00 0. -1.
         -1    1    6    6    0  503 -0.17178505177E+03 -0.33587215791E+02 -0.20955702742E+03  0.27304276737E+03  0.00000000000E+00 0.  1.
<mgrwt>
<rscale>  0 0.19860188E+04</rscale>
<asrwt>0</asrwt>
<pdfrwt beam="1">  1        2 0.27851851E+00 0.19860188E+04</pdfrwt>
<pdfrwt beam="2">  1       -2 0.83796511E-01 0.19860188E+04</pdfrwt>
<totfact> 0.98570837E+00</totfact>
</mgrwt>
</event>
<event>
12    2  0.3552864E-008  0.2174214E+04  0.7818608E-02  0.8529238E-01
         -2   -1    0    0    0  501 -0.00000000000E+00  0.00000000000E+00  0.65742412003E+03  0.65742412003E+03  0.00000000000E+00 0.  1.
          2   -1    0    0  501    0  0.00000000000E+00 -0.00000000000E+00 -0.17976244971E+04  0.17976244971E+04  0.00000000000E+00 0. -1.
         23    2    1    2    0    0  0.87351485727E+03  0.14428094587E+03 -0.30528359338E+03  0.94131193568E+03  0.94999424448E+02 0.  0.
        254    2    1    2    0    0 -0.87351485727E+03 -0.14428094587E+03 -0.83491678370E+03  0.15137366815E+04  0.90025968914E+03 0.  0.
         23    2    4    4    0    0 -0.73166669226E+03 -0.44096880927E+03 -0.79551210688E+03  0.11710528363E+04  0.93464399043E+02 0.  0.
         23    2    4    4    0    0 -0.14184816501E+03  0.29668786339E+03 -0.39404676828E+02  0.34268384518E+03  0.87948274501E+02 0.  0.
          3    1    3    3  502    0  0.45360591037E+03  0.72677039807E+02 -0.20846207329E+03  0.50447666947E+03  0.00000000000E+00 0. -1.
         -3    1    3    3    0  502  0.41990894690E+03  0.71603906066E+02 -0.96821520093E+02  0.43683526621E+03  0.00000000000E+00 0.  1.
         11    1    5    5    0    0 -0.49854336504E+03 -0.25971851356E+03 -0.55839534842E+03  0.79234118803E+03  0.00000000000E+00 0. -1.
        -11    1    5    5    0    0 -0.23312332723E+03 -0.18125029571E+03 -0.23711675846E+03  0.37871164826E+03  0.00000000000E+00 0.  1.
          4    1    6    6  503    0 -0.73536956413E+02  0.72910802493E+02 -0.32777136922E+02  0.10861864381E+03  0.00000000000E+00 0.  1.
         -4    1    6    6    0  503 -0.68311208598E+02  0.22377706090E+03 -0.66275399064E+01  0.23406520137E+03  0.00000000000E+00 0. -1.
<mgrwt>
<rscale>  0 0.21742141E+04</rscale>
<asrwt>0</asrwt>
<pdfrwt beam="1">  1        2 0.27655761E+00 0.21742141E+04</pdfrwt>
<pdfrwt beam="2">  1       -2 0.10114218E+00 0.21742141E+04</pdfrwt>
<totfact> 0.63739011E+00</totfact>
</mgrwt>
</event>
<event>
12    2  0.3552864E-008  0.2931136E+04  0.7818608E-02  0.8263673E-01
          2   -1    0    0  501    0  0.00000000000E+00  0.00000000000E+00  0.13645994504E+04  0.13645994504E+04  0.00000000000E+00 0. -1.
         -2   -1    0    0    0  501 -0.00000000000E+00 -0.00000000000E+00 -0.15740074337E+04  0.15740074337E+04  0.00000000000E+00 0.  1.
         23    2    1    2    0    0 -0.42725358708E+03  0.35516982754E+03  0.11110192395E+04  0.12456149436E+04  0.92204137334E+02 0.  0.
        254    2    1    2    0    0  0.42725358708E+03 -0.35516982754E+03 -0.13204272228E+04  0.16929919405E+04  0.90222082990E+03 0.  0.
         23    2    4    4    0    0  0.62896562851E+03 -0.35209272617E+03 -0.12733438746E+04  0.14659052289E+04  0.88918318778E+02 0.  0.
         23    2    4    4    0    0 -0.20171204143E+03 -0.30771013787E+01 -0.47083348166E+02  0.22708671161E+03  0.93028580044E+02 0.  0.
          2    1    3    3  502    0 -0.59895510920E+01  0.31188005366E+02  0.63343744795E+02  0.70858989590E+02  0.00000000000E+00 0.  1.
         -2    1    3    3    0  502 -0.42126403599E+03  0.32398182218E+03  0.10476754947E+04  0.11747559540E+04  0.00000000000E+00 0. -1.
         11    1    5    5    0    0  0.51978283936E+03 -0.32747097126E+03 -0.10799985329E+04  0.12425008121E+04  0.00000000000E+00 0. -1.
        -11    1    5    5    0    0  0.10918278915E+03 -0.24621754911E+02 -0.19334534174E+03  0.22340441677E+03  0.00000000000E+00 0.  1.
          1    1    6    6  503    0 -0.19606977419E+03 -0.12183725683E+02 -0.19400871424E+02  0.19740363050E+03  0.00000000000E+00 0. -1.
         -1    1    6    6    0  503 -0.56422672431E+01  0.91066243043E+01 -0.27682476742E+02  0.29683081114E+02  0.00000000000E+00 0.  1.
<mgrwt>
<rscale>  0 0.29311361E+04</rscale>
<asrwt>0</asrwt>
<pdfrwt beam="1">  1        2 0.20993838E+00 0.29311361E+04</pdfrwt>
<pdfrwt beam="2">  1       -2 0.24215499E+00 0.29311361E+04</pdfrwt>
<totfact> 0.93780837E-01</totfact>
</mgrwt>
</event>
<event>
12    2  0.3552864E-008  0.1476349E+04  0.7818608E-02  0.8900335E-01
          2   -1    0    0  501    0  0.00000000000E+00  0.00000000000E+00  0.25934706638E+04  0.25934706638E+04  0.00000000000E+00 0. -1.
         -2   -1    0    0    0  501 -0.00000000000E+00 -0.00000000000E+00 -0.21010517562E+03  0.21010517562E+03  0.00000000000E+00 0.  1.
         23    2    1    2    0    0  0.17341462427E+03 -0.50953987014E+02  0.15632712349E+04  0.15764452367E+04  0.93239958607E+02 0.  0.
        254    2    1    2    0    0 -0.17341462427E+03  0.50953987014E+02  0.82009425325E+03  0.12271306026E+04  0.89477706219E+03 0.  0.
         23    2    4    4    0    0  0.12775392414E+03  0.37888428548E+03  0.58547378139E+03  0.71539003201E+03  0.95545707860E+02 0.  0.
         23    2    4    4    0    0 -0.30116854841E+03 -0.32793029846E+03  0.23462047186E+03  0.51174057063E+03  0.92686949532E+02 0.  0.
          4    1    3    3  502    0  0.56173675192E+02 -0.57925931385E+02  0.81884636190E+03  0.82281240858E+03  0.00000000000E+00 0. -1.
         -4    1    3    3    0  502  0.11724094907E+03  0.69719443704E+01  0.74442487300E+03  0.75363282816E+03  0.00000000000E+00 0.  1.
         11    1    5    5    0    0  0.12534252622E+03  0.35168449963E+03  0.48964984754E+03  0.61575133727E+03  0.00000000000E+00 0. -1.
        -11    1    5    5    0    0  0.24113979196E+01  0.27199785844E+02  0.95823933851E+02  0.99638694736E+02  0.00000000000E+00 0.  1.
          2    1    6    6  503    0 -0.28089316550E+03 -0.25613259246E+03  0.19874545231E+03  0.42895760882E+03  0.00000000000E+00 0. -1.
         -2    1    6    6    0  503 -0.20275382903E+02 -0.71797706000E+02  0.35875019544E+02  0.82782961810E+02  0.00000000000E+00 0.  1.
<mgrwt>
<rscale>  0 0.14763490E+04</rscale>
<asrwt>0</asrwt>
<pdfrwt beam="1">  1        2 0.39899546E+00 0.14763490E+04</pdfrwt>
<pdfrwt beam="2">  1       -2 0.32323875E-01 0.14763490E+04</pdfrwt>
<totfact> 0.26584390E+01</totfact>
</mgrwt>
</event>
<event>
12    2  0.3552864E-008  0.1893802E+04  0.7818608E-02  0.8657948E-01
         -1   -1    0    0    0  501 -0.00000000000E+00  0.00000000000E+00  0.10263505967E+04  0.10263505967E+04  0.00000000000E+00 0.  1.
          1   -1    0    0  501    0  0.00000000000E+00 -0.00000000000E+00 -0.87360175433E+03  0.87360175433E+03  0.00000000000E+00 0. -1.
         23    2    1    2    0    0 -0.42454590174E+02 -0.68218220882E+03 -0.19452518721E+03  0.71728050251E+03  0.97346353636E+02 0.  0.
        254    2    1    2    0    0  0.42454590174E+02  0.68218220882E+03  0.34727402954E+03  0.11826718485E+04  0.90052123314E+03 0.  0.
         23    2    4    4    0    0  0.15164619690E+03  0.28496406594E+03 -0.27218386150E+03  0.43265570841E+03  0.94370650339E+02 0.  0.
         23    2    4    4    0    0 -0.10919160673E+03  0.39721814288E+03  0.61945789104E+03  0.75001614007E+03  0.95347111048E+02 0.  0.
          2    1    3    3  502    0 -0.62104569748E+01 -0.59835858748E+03 -0.17946421340E+03  0.62472311697E+03  0.00000000000E+00 0. -1.
         -2    1    3    3    0  502 -0.36244133199E+02 -0.83823621338E+02 -0.15060973812E+02  0.92557385538E+02  0.00000000000E+00 0.  1.
         11    1    5    5    0    0  0.15687605410E+03  0.25757047675E+03 -0.26982039941E+03  0.40466738784E+03  0.00000000000E+00 0. -1.
        -11    1    5    5    0    0 -0.52298572024E+01  0.27393589193E+02 -0.23634620905E+01  0.27988320569E+02  0.00000000000E+00 0.  1.
          3    1    6    6  503    0 -0.73047001519E+02  0.35913356565E+03  0.50380591181E+03  0.62300335407E+03  0.00000000000E+00 0. -1.
         -3    1    6    6    0  503 -0.36144605208E+02  0.38084577230E+02  0.11565197923E+03  0.12701278600E+03  0.00000000000E+00 0.  1.
<mgrwt>
<rscale>  0 0.18938022E+04</rscale>
<asrwt>0</asrwt>
<pdfrwt beam="1">  1        1 0.13440027E+00 0.18938022E+04</pdfrwt>
<pdfrwt beam="2">  1       -1 0.15790009E+00 0.18938022E+04</pdfrwt>
<totfact> 0.54311858E+00</totfact>
</mgrwt>
</event>
<event>
12    2  0.3552864E-008  0.1226542E+04  0.7818608E-02  0.9089936E-01
         -2   -1    0    0    0  501 -0.00000000000E+00  0.00000000000E+00  0.22975917981E+03  0.22975917981E+03  0.00000000000E+00 0.  1.
          2   -1    0    0  501    0  0.00000000000E+00 -0.00000000000E+00 -0.16369376180E+04  0.16369376180E+04  0.00000000000E+00 0. -1.
         23    2    1    2    0    0 -0.94127333436E+02  0.11385443033E+01 -0.71872513429E+03  0.73062806240E+03  0.91598557445E+02 0.  0.
        254    2    1    2    0    0  0.94127333436E+02 -0.11385443033E+01 -0.68845330392E+03  0.11360687354E+04  0.89878972443E+03 0.  0.
         23    2    4    4    0    0  0.14931452314E+03 -0.37406789470E+02  0.18394417836E+03  0.25639582913E+03  0.90604998353E+02 0.  0.
         23    2    4    4    0    0 -0.55187189702E+02  0.36268245167E+02 -0.87239748228E+03  0.87967290628E+03  0.91575343045E+02 0.  0.
          3    1    3    3  502    0 -0.93138597998E+02 -0.19078827428E+02 -0.68284855681E+03  0.68943524107E+03  0.00000000000E+00 0. -1.
         -3    1    3    3    0  502 -0.98873543710E+00  0.20217371731E+02 -0.35876577477E+02  0.41192821328E+02  0.00000000000E+00 0.  1.
         11    1    5    5    0    0  0.73342787178E+02 -0.57005380146E+02  0.13517312863E+03  0.16401387899E+03  0.00000000000E+00 0.  1.
        -11    1    5    5    0    0  0.75971735959E+02  0.19598590676E+02  0.48771049729E+02  0.92381950146E+02  0.00000000000E+00 0. -1.
          1    1    6    6  503    0 -0.33820204353E+02 -0.17757894997E+02 -0.14460581759E+03  0.14956601064E+03  0.00000000000E+00 0. -1.
         -1    1    6    6    0  503 -0.21366985349E+02  0.54026140163E+02 -0.72779166469E+03  0.73010689565E+03  0.00000000000E+00 0.  1.
<mgrwt>
<rscale>  0 0.12265422E+04</rscale>
<asrwt>0</asrwt>
<pdfrwt beam="1">  1        2 0.25183656E+00 0.12265422E+04</pdfrwt>
<pdfrwt beam="2">  1       -2 0.35347565E-01 0.12265422E+04</pdfrwt>
<totfact> 0.78714043E+01</totfact>
</mgrwt>
</event>
<event>
12    2  0.3552864E-008  0.2251085E+04  0.7818608E-02  0.8497461E-01
         -2   -1    0    0    0  501 -0.00000000000E+00  0.00000000000E+00  0.19802343598E+04  0.19802343598E+04  0.00000000000E+00 0. -1.
          2   -1    0    0  501    0  0.00000000000E+00 -0.00000000000E+00 -0.63974519707E+03  0.63974519707E+03  0.00000000000E+00 0.  1.
         23    2    1    2    0    0 -0.38539648348E+03  0.17179979790E+03 -0.40669086311E+03  0.59139849795E+03  0.79429876059E+02 0.  0.
        254    2    1    2    0    0  0.38539648348E+03 -0.17179979790E+03  0.17471800258E+04  0.20285810589E+04  0.94045597978E+03 0.  0.
         23    2    4    4    0    0 -0.18410616513E+03 -0.17031515851E+03  0.10191737232E+03  0.28514660012E+03  0.89549425022E+02 0.  0.
         23    2    4    4    0    0  0.56950264861E+03 -0.14846393964E+01  0.16452626535E+04  0.17434344588E+04  0.91318356091E+02 0.  0.
          1    1    3    3  502    0 -0.43630961592E+02 -0.81475826555E+00 -0.64571799359E+02  0.77934856854E+02  0.00000000000E+00 0. -1.
         -1    1    3    3    0  502 -0.34176552189E+03  0.17261455617E+03 -0.34211906375E+03  0.51346364110E+03  0.00000000000E+00 0.  1.
         11    1    5    5    0    0 -0.98707951258E+01 -0.34021722177E+02  0.43985036655E+02  0.56476487372E+02  0.00000000000E+00 0.  1.
        -11    1    5    5    0    0 -0.17423537001E+03 -0.13629343633E+03  0.57932335661E+02  0.22867011275E+03  0.00000000000E+00 0. -1.
          3    1    6    6  503    0  0.37173300482E+03  0.14472074976E+02  0.94446671020E+03  0.10150922296E+04  0.00000000000E+00 0. -1.
         -3    1    6    6    0  503  0.19776964379E+03 -0.15956714373E+02  0.70079594332E+03  0.72834222925E+03  0.00000000000E+00 0.  1.
<mgrwt>
<rscale>  0 0.22510846E+04</rscale>
<asrwt>0</asrwt>
<pdfrwt beam="1">  1        2 0.98422339E-01 0.22510846E+04</pdfrwt>
<pdfrwt beam="2">  1       -2 0.30465144E+00 0.22510846E+04</pdfrwt>
<totfact> 0.12429978E+00</totfact>
</mgrwt>
</event>
<event>
12    2  0.3552864E-008  0.1605407E+04  0.7818608E-02  0.8817233E-01
          1   -1    0    0  501    0  0.00000000000E+00  0.00000000000E+00  0.31171885034E+03  0.31171885034E+03  0.00000000000E+00 0. -1.
         -1   -1    0    0    0  501 -0.00000000000E+00 -0.00000000000E+00 -0.20670333618E+04  0.20670333618E+04  0.00000000000E+00 0.  1.
         23    2    1    2    0    0  0.24814227866E+03  0.26522615130E+03 -0.48823340042E+01  0.37478339867E+03  0.92299820918E+02 0.  0.
        254    2    1    2    0    0 -0.24814227866E+03 -0.26522615130E+03 -0.17504321775E+04  0.20039688135E+04  0.90551570703E+03 0.  0.
         23    2    4    4    0    0 -0.32656021514E+03 -0.25892510911E+02 -0.16966139038E+04  0.17303942987E+04  0.91943973107E+02 0.  0.
         23    2    4    4    0    0  0.78417936476E+02 -0.23933364039E+03 -0.53818273672E+02  0.27357451477E+03  0.92285667192E+02 0.  0.
          3    1    3    3  502    0  0.14816271083E+03  0.18274873735E+03  0.37897161071E+02  0.23829705138E+03  0.00000000000E+00 0. -1.
         -3    1    3    3    0  502  0.99979567836E+02  0.82477413955E+02 -0.42779495075E+02  0.13648634729E+03  0.00000000000E+00 0.  1.
         11    1    5    5    0    0 -0.12842474513E+03 -0.66528353402E+01 -0.45107469290E+03  0.46904749648E+03  0.00000000000E+00 0.  1.
        -11    1    5    5    0    0 -0.19813547000E+03 -0.19239675571E+02 -0.12455392109E+04  0.12613468022E+04  0.00000000000E+00 0. -1.
          1    1    6    6  503    0  0.85081966908E+02 -0.20372472024E+03 -0.16234602211E+02  0.22137358704E+03  0.00000000000E+00 0. -1.
         -1    1    6    6    0  503 -0.66640304320E+01 -0.35608920151E+02 -0.37583671461E+02  0.52200927735E+02  0.00000000000E+00 0.  1.
<mgrwt>
<rscale>  0 0.16054074E+04</rscale>
<asrwt>0</asrwt>
<pdfrwt beam="1">  1        1 0.47956745E-01 0.16054074E+04</pdfrwt>
<pdfrwt beam="2">  1       -1 0.31800514E+00 0.16054074E+04</pdfrwt>
<totfact> 0.20224363E+00</totfact>
</mgrwt>
</event>
<event>
12    2  0.3552864E-008  0.1897728E+04  0.7818608E-02  0.8655988E-01
          1   -1    0    0  501    0  0.00000000000E+00  0.00000000000E+00  0.20810841894E+04  0.20810841894E+04  0.00000000000E+00 0. -1.
         -1   -1    0    0    0  501 -0.00000000000E+00 -0.00000000000E+00 -0.43263147397E+03  0.43263147397E+03  0.00000000000E+00 0.  1.
         23    2    1    2    0    0 -0.12061135798E+03 -0.37010940721E+03 -0.18009862392E+03  0.43806240831E+03  0.89079101112E+02 0.  0.
        254    2    1    2    0    0  0.12061135798E+03  0.37010940721E+03  0.18285513394E+04  0.20756532551E+04  0.90178066162E+03 0.  0.
         23    2    4    4    0    0 -0.31940838403E+03  0.51486805686E+02  0.11689825708E+04  0.12163169531E+04  0.90741790224E+02 0.  0.
         23    2    4    4    0    0  0.44001974201E+03  0.31862260152E+03  0.65956876855E+03  0.85933630202E+03  0.91050447361E+02 0.  0.
          3    1    3    3  502    0 -0.33868900706E+02 -0.52796601562E+02 -0.62958404950E+02  0.88872629788E+02  0.00000000000E+00 0. -1.
         -3    1    3    3    0  502 -0.86742457279E+02 -0.31731280565E+03 -0.11714021897E+03  0.34918977852E+03  0.00000000000E+00 0.  1.
         11    1    5    5    0    0 -0.60522333645E+02 -0.75362721483E+01  0.35266027496E+03  0.35789526094E+03  0.00000000000E+00 0. -1.
        -11    1    5    5    0    0 -0.25888605038E+03  0.59023077834E+02  0.81632229587E+03  0.85842169214E+03  0.00000000000E+00 0.  1.
          2    1    6    6  503    0  0.98737392301E+00  0.30877259483E+01  0.27015567438E+02  0.27209370496E+02  0.00000000000E+00 0. -1.
         -2    1    6    6    0  503  0.43903236809E+03  0.31553487558E+03  0.63255320111E+03  0.83212693153E+03  0.00000000000E+00 0.  1.
<mgrwt>
<rscale>  0 0.18977276E+04</rscale>
<asrwt>0</asrwt>
<pdfrwt beam="1">  1        1 0.32016679E+00 0.18977276E+04</pdfrwt>
<pdfrwt beam="2">  1       -1 0.66558689E-01 0.18977276E+04</pdfrwt>
<totfact> 0.56189993E+00</totfact>
</mgrwt>
</event>
<event>
12    2  0.3552864E-008  0.2690023E+04  0.7818608E-02  0.8338249E-01
         -2   -1    0    0    0  501 -0.00000000000E+00  0.00000000000E+00  0.11100770894E+04  0.11100770894E+04  0.00000000000E+00 0.  1.
          2   -1    0    0  501    0  0.00000000000E+00 -0.00000000000E+00 -0.16296674454E+04  0.16296674454E+04  0.00000000000E+00 0. -1.
         23    2    1    2    0    0 -0.68078863534E+03  0.77901543809E+02  0.75933153258E+03  0.10266103381E+04  0.88332290032E+02 0.  0.
        254    2    1    2    0    0  0.68078863534E+03 -0.77901543809E+02 -0.12789218885E+04  0.17131341967E+04  0.91084892393E+03 0.  0.
         23    2    4    4    0    0  0.30416418140E+03 -0.45553153568E+03 -0.88087212670E+03  0.10412489087E+04  0.90767598503E+02 0.  0.
         23    2    4    4    0    0  0.37662445394E+03  0.37762999187E+03 -0.39804976184E+03  0.67188528800E+03  0.92389594962E+02 0.  0.
          4    1    3    3  502    0 -0.12836971730E+03  0.17323757493E+02  0.19887593457E+03  0.23734054488E+03  0.00000000000E+00 0. -1.
         -4    1    3    3    0  502 -0.55241891804E+03  0.60577786316E+02  0.56045559800E+03  0.78926979325E+03  0.00000000000E+00 0.  1.
         11    1    5    5    0    0  0.96860206312E+02 -0.19823486159E+03 -0.29161982520E+03  0.36567893344E+03  0.00000000000E+00 0. -1.
        -11    1    5    5    0    0  0.20730397509E+03 -0.25729667410E+03 -0.58925230151E+03  0.67556997522E+03  0.00000000000E+00 0.  1.
          2    1    6    6  503    0  0.72385729926E+02  0.71597733677E+02 -0.12503643368E+03  0.16124527625E+03  0.00000000000E+00 0. -1.
         -2    1    6    6    0  503  0.30423872401E+03  0.30603225820E+03 -0.27301332816E+03  0.51064001175E+03  0.00000000000E+00 0.  1.
<mgrwt>
<rscale>  0 0.26900234E+04</rscale>
<asrwt>0</asrwt>
<pdfrwt beam="1">  1        2 0.25071807E+00 0.26900234E+04</pdfrwt>
<pdfrwt beam="2">  1       -2 0.17078109E+00 0.26900234E+04</pdfrwt>
<totfact> 0.19834623E+00</totfact>
</mgrwt>
</event>
<event>
12    2  0.3552864E-008  0.1729804E+04  0.7818608E-02  0.8744546E-01
         -1   -1    0    0    0  501 -0.00000000000E+00  0.00000000000E+00  0.37591619422E+03  0.37591619422E+03  0.00000000000E+00 0.  1.
          1   -1    0    0  501    0  0.00000000000E+00 -0.00000000000E+00 -0.19899525624E+04  0.19899525624E+04  0.00000000000E+00 0. -1.
         23    2    1    2    0    0  0.17630165677E+03 -0.46914185083E+03 -0.68266548257E+02  0.51367160467E+03  0.89564755678E+02 0.  0.
        254    2    1    2    0    0 -0.17630165677E+03  0.46914185083E+03 -0.15457698199E+04  0.18521971520E+04  0.88884959534E+03 0.  0.
         23    2    4    4    0    0 -0.52124622680E+03  0.19426562670E+03 -0.95164099976E+03  0.11060139879E+04  0.90606767254E+02 0.  0.
         23    2    4    4    0    0  0.34494457003E+03  0.27487622413E+03 -0.59412882017E+03  0.74618316408E+03  0.96211041059E+02 0.  0.
          4    1    3    3  502    0  0.45818495416E+02 -0.13139001369E+03 -0.59899503019E+02  0.15149462262E+03  0.00000000000E+00 0. -1.
         -4    1    3    3    0  502  0.13048316135E+03 -0.33775183714E+03 -0.83670452378E+01  0.36217698206E+03  0.00000000000E+00 0.  1.
         11    1    5    5    0    0 -0.41444584546E+02 -0.25340683783E+01 -0.10823719839E+03  0.11592828044E+03  0.00000000000E+00 0.  1.
        -11    1    5    5    0    0 -0.47980164225E+03  0.19679969508E+03 -0.84340380137E+03  0.99008570743E+03  0.00000000000E+00 0. -1.
          1    1    6    6  503    0  0.23374229080E+03  0.23962422745E+03 -0.44489954612E+03  0.55676820583E+03  0.00000000000E+00 0. -1.
         -1    1    6    6    0  503  0.11120227923E+03  0.35251996685E+02 -0.14922927405E+03  0.18941495825E+03  0.00000000000E+00 0.  1.
<mgrwt>
<rscale>  0 0.17298039E+04</rscale>
<asrwt>0</asrwt>
<pdfrwt beam="1">  1        1 0.30614655E+00 0.17298039E+04</pdfrwt>
<pdfrwt beam="2">  1       -1 0.57833260E-01 0.17298039E+04</pdfrwt>
<totfact> 0.87046712E+00</totfact>
</mgrwt>
</event>
<event>
12    2  0.3552864E-008  0.1567810E+04  0.7818608E-02  0.8840571E-01
         -2   -1    0    0    0  501 -0.00000000000E+00  0.00000000000E+00  0.55479764907E+03  0.55479764907E+03  0.00000000000E+00 0.  1.
          2   -1    0    0  501    0  0.00000000000E+00 -0.00000000000E+00 -0.11076236113E+04  0.11076236113E+04  0.00000000000E+00 0. -1.
         23    2    1    2    0    0 -0.33317696733E+03  0.37592899495E+03 -0.20081343690E+03  0.54915701808E+03  0.94434597781E+02 0.  0.
        254    2    1    2    0    0  0.33317696733E+03 -0.37592899495E+03 -0.35201252536E+03  0.11132642423E+04  0.92903980238E+03 0.  0.
         23    2    4    4    0    0 -0.45797653836E+02 -0.24208943785E+03 -0.58386697945E+03  0.64035355530E+03  0.91909221948E+02 0.  0.
         23    2    4    4    0    0  0.37897462117E+03 -0.13383955710E+03  0.23185445409E+03  0.47291068701E+03  0.91396058311E+02 0.  0.
          4    1    3    3  502    0 -0.29814571096E+03  0.36594523186E+03 -0.20020216183E+03  0.51272573885E+03  0.00000000000E+00 0. -1.
         -4    1    3    3    0  502 -0.35031256376E+02  0.99837630950E+01 -0.61127507159E+00  0.36431279226E+02  0.00000000000E+00 0.  1.
         11    1    5    5    0    0  0.11073064378E+02 -0.52633112870E+02 -0.21689806060E+03  0.22346728176E+03  0.00000000000E+00 0. -1.
        -11    1    5    5    0    0 -0.56870718214E+02 -0.18945632498E+03 -0.36696891885E+03  0.41688627354E+03  0.00000000000E+00 0.  1.
          1    1    6    6  503    0  0.13076269062E+03 -0.28613505471E+02  0.32868826519E+02  0.13783313720E+03  0.00000000000E+00 0. -1.
         -1    1    6    6    0  503  0.24821193054E+03 -0.10522605163E+03  0.19898562757E+03  0.33507754981E+03  0.00000000000E+00 0.  1.
<mgrwt>
<rscale>  0 0.15678099E+04</rscale>
<asrwt>0</asrwt>
<pdfrwt beam="1">  1        2 0.17040363E+00 0.15678099E+04</pdfrwt>
<pdfrwt beam="2">  1       -2 0.85353485E-01 0.15678099E+04</pdfrwt>
<totfact> 0.24731664E+01</totfact>
</mgrwt>
</event>
<event>
12    2  0.3552864E-008  0.1647565E+04  0.7818608E-02  0.8791849E-01
         -2   -1    0    0    0  501 -0.00000000000E+00  0.00000000000E+00  0.34915607628E+03  0.34915607628E+03  0.00000000000E+00 0.  1.
          2   -1    0    0  501    0  0.00000000000E+00 -0.00000000000E+00 -0.19435927721E+04  0.19435927721E+04  0.00000000000E+00 0. -1.
         23    2    1    2    0    0  0.17215277113E+03  0.53239717931E+03 -0.38632695810E+03  0.68574845328E+03  0.88989266067E+02 0.  0.
        254    2    1    2    0    0 -0.17215277113E+03 -0.53239717931E+03 -0.12081097377E+04  0.16070003951E+04  0.89990988345E+03 0.  0.
         23    2    4    4    0    0  0.35340198047E+03 -0.12612372524E+03 -0.47823410497E+03  0.61573065951E+03  0.98062388524E+02 0.  0.
         23    2    4    4    0    0 -0.52555475160E+03 -0.40627345407E+03 -0.72987563278E+03  0.99126973561E+03  0.92904967574E+02 0.  0.
          1    1    3    3  502    0  0.61441575334E+02  0.29393244503E+03 -0.24311140846E+03  0.38636059109E+03  0.00000000000E+00 0. -1.
         -1    1    3    3    0  502  0.11071119580E+03  0.23846473428E+03 -0.14321554964E+03  0.29938786219E+03  0.00000000000E+00 0.  1.
         11    1    5    5    0    0  0.40783767513E+02 -0.35653502524E+02 -0.30353226638E+02  0.62095139118E+02  0.00000000000E+00 0. -1.
        -11    1    5    5    0    0  0.31261821295E+03 -0.90470222721E+02 -0.44788087833E+03  0.55363552039E+03  0.00000000000E+00 0.  1.
          1    1    6    6  503    0 -0.43530638818E+02 -0.44615382709E+02 -0.34992667072E+02  0.71483813825E+02  0.00000000000E+00 0. -1.
         -1    1    6    6    0  503 -0.48202411278E+03 -0.36165807136E+03 -0.69488296570E+03  0.91978592178E+03  0.00000000000E+00 0.  1.
<mgrwt>
<rscale>  0 0.16475645E+04</rscale>
<asrwt>0</asrwt>
<pdfrwt beam="1">  1        2 0.29901427E+00 0.16475645E+04</pdfrwt>
<pdfrwt beam="2">  1       -2 0.53716321E-01 0.16475645E+04</pdfrwt>
<totfact> 0.22406683E+01</totfact>
</mgrwt>
</event>
<event>
12    2  0.3552864E-008  0.1039041E+04  0.7818608E-02  0.9266732E-01
         -1   -1    0    0    0  501 -0.00000000000E+00  0.00000000000E+00  0.61727807371E+03  0.61727807371E+03  0.00000000000E+00 0.  1.
          1   -1    0    0  501    0  0.00000000000E+00 -0.00000000000E+00 -0.43724457171E+03  0.43724457171E+03  0.00000000000E+00 0. -1.
         23    2    1    2    0    0 -0.12289645484E+02  0.81445424436E+02  0.75980926918E+02  0.14537078962E+03  0.92602228229E+02 0.  0.
        254    2    1    2    0    0  0.12289645484E+02 -0.81445424436E+02  0.10405257508E+03  0.90915185580E+03  0.89941412373E+03 0.  0.
         23    2    4    4    0    0 -0.31654335903E+03 -0.30814517592E+03 -0.82714527094E+02  0.45895037944E+03  0.92954882636E+02 0.  0.
         23    2    4    4    0    0  0.32883300451E+03  0.22669975148E+03  0.18676710217E+03  0.45020147636E+03  0.90969756970E+02 0.  0.
          3    1    3    3  502    0 -0.39796091710E+01  0.52878864309E+02 -0.10374968137E+02  0.54033800010E+02  0.00000000000E+00 0. -1.
         -3    1    3    3    0  502 -0.83100363133E+01  0.28566560127E+02  0.86355895054E+02  0.91336989614E+02  0.00000000000E+00 0.  1.
         11    1    5    5    0    0 -0.26617791105E+02 -0.27871611893E+02  0.19147703448E+02  0.43034498954E+02  0.00000000000E+00 0. -1.
        -11    1    5    5    0    0 -0.28992556792E+03 -0.28027356403E+03 -0.10186223054E+03  0.41591588048E+03  0.00000000000E+00 0.  1.
          4    1    6    6  503    0  0.16480481984E+03  0.93738599886E+02  0.42010745111E+02  0.19419695275E+03  0.00000000000E+00 0. -1.
         -4    1    6    6    0  503  0.16402818467E+03  0.13296115160E+03  0.14475635706E+03  0.25600452361E+03  0.00000000000E+00 0.  1.
<mgrwt>
<rscale>  0 0.10390409E+04</rscale>
<asrwt>0</asrwt>
<pdfrwt beam="1">  1        1 0.67268396E-01 0.10390409E+04</pdfrwt>
<pdfrwt beam="2">  1       -1 0.94965857E-01 0.10390409E+04</pdfrwt>
<totfact> 0.57102332E+01</totfact>
</mgrwt>
</event>
<event>
12    2  0.3552864E-008  0.1123473E+04  0.7818608E-02  0.9182610E-01
          2   -1    0    0  501    0  0.00000000000E+00  0.00000000000E+00  0.20276025075E+04  0.20276025075E+04  0.00000000000E+00 0. -1.
         -2   -1    0    0    0  501 -0.00000000000E+00 -0.00000000000E+00 -0.15562621832E+03  0.15562621832E+03  0.00000000000E+00 0.  1.
         23    2    1    2    0    0 -0.10714525611E+03  0.12362779476E+03  0.44769035767E+03  0.48444098123E+03  0.86559057322E+02 0.  0.
        254    2    1    2    0    0  0.10714525611E+03 -0.12362779476E+03  0.14242859315E+04  0.16987877446E+04  0.91133168984E+03 0.  0.
         23    2    4    4    0    0 -0.91196155815E+02 -0.47732276531E+03  0.61502435760E+03  0.78913739049E+03  0.91263900333E+02 0.  0.
         23    2    4    4    0    0  0.19834141192E+03  0.35369497055E+03  0.80926157391E+03  0.90965035410E+03  0.90111174781E+02 0.  0.
          4    1    3    3  502    0 -0.91622099224E+02  0.12595523166E+03  0.44040533764E+03  0.46713615881E+03  0.00000000000E+00 0. -1.
         -4    1    3    3    0  502 -0.15523156883E+02 -0.23274369012E+01  0.72850200285E+01  0.17304822419E+02  0.00000000000E+00 0.  1.
         11    1    5    5    0    0 -0.73370780685E+01  0.50970761605E+00  0.25058913117E+01  0.77699425804E+01  0.00000000000E+00 0. -1.
        -11    1    5    5    0    0 -0.83859077746E+02 -0.47783247293E+03  0.61251846629E+03  0.78136744791E+03  0.00000000000E+00 0.  1.
          4    1    6    6  503    0  0.29081751993E+02  0.54002508052E+02  0.63448247456E+02  0.88247942073E+02  0.00000000000E+00 0. -1.
         -4    1    6    6    0  503  0.16925965993E+03  0.29969246250E+03  0.74581332646E+03  0.82140241202E+03  0.00000000000E+00 0.  1.
<mgrwt>
<rscale>  0 0.11234734E+04</rscale>
<asrwt>0</asrwt>
<pdfrwt beam="1">  1        2 0.31193883E+00 0.11234734E+04</pdfrwt>
<pdfrwt beam="2">  1       -2 0.23942497E-01 0.11234734E+04</pdfrwt>
<totfact> 0.99409860E+01</totfact>
</mgrwt>
</event>
<event>
12    2  0.3552864E-008  0.1152252E+04  0.7818608E-02  0.9155709E-01
          1   -1    0    0  501    0  0.00000000000E+00  0.00000000000E+00  0.93514801057E+03  0.93514801057E+03  0.00000000000E+00 0. -1.
         -1   -1    0    0    0  501 -0.00000000000E+00 -0.00000000000E+00 -0.35493964963E+03  0.35493964963E+03  0.00000000000E+00 0.  1.
         23    2    1    2    0    0  0.69455436278E+02  0.15382872642E+03  0.30977674457E+03  0.36437026509E+03  0.91196073954E+02 0.  0.
        254    2    1    2    0    0 -0.69455436278E+02 -0.15382872642E+03  0.27043161637E+03  0.92571739511E+03  0.86909844193E+03 0.  0.
         23    2    4    4    0    0  0.27467039918E+03  0.84363839942E+02 -0.14021314696E+03  0.33235245677E+03  0.90759810836E+02 0.  0.
         23    2    4    4    0    0 -0.34412583546E+03 -0.23819256636E+03  0.41064476333E+03  0.59336493834E+03  0.91074360268E+02 0.  0.
          2    1    3    3  502    0  0.53397619230E+02  0.14922406289E+03  0.20941928623E+03  0.26263199373E+03  0.00000000000E+00 0. -1.
         -2    1    3    3    0  502  0.16057817048E+02  0.46046635244E+01  0.10035745834E+03  0.10173827136E+03  0.00000000000E+00 0.  1.
         11    1    5    5    0    0  0.26611184857E+03  0.71473935573E+02 -0.15031247855E+03  0.31387558144E+03  0.00000000000E+00 0. -1.
        -11    1    5    5    0    0  0.85585506092E+01  0.12889904369E+02  0.10099331593E+02  0.18476875326E+02  0.00000000000E+00 0.  1.
          3    1    6    6  503    0 -0.73628048267E+02 -0.72987229013E+02  0.56401061892E+02  0.11802247614E+03  0.00000000000E+00 0. -1.
         -3    1    6    6    0  503 -0.27049778720E+03 -0.16520533735E+03  0.35424370144E+03  0.47534246220E+03  0.00000000000E+00 0.  1.
<mgrwt>
<rscale>  0 0.11522519E+04</rscale>
<asrwt>0</asrwt>
<pdfrwt beam="1">  1        1 0.14386892E+00 0.11522519E+04</pdfrwt>
<pdfrwt beam="2">  1       -1 0.54606100E-01 0.11522519E+04</pdfrwt>
<totfact> 0.57309473E+01</totfact>
</mgrwt>
</event>
<event>
12    2  0.3552864E-008  0.1418359E+04  0.7818608E-02  0.8940635E-01
          2   -1    0    0  501    0  0.00000000000E+00  0.00000000000E+00  0.31402389209E+03  0.31402389209E+03  0.00000000000E+00 0.  1.
         -2   -1    0    0    0  501 -0.00000000000E+00 -0.00000000000E+00 -0.16015843513E+04  0.16015843513E+04  0.00000000000E+00 0. -1.
         23    2    1    2    0    0  0.10598445819E+03  0.13942495800E+03 -0.86725415792E+03  0.88939385089E+03  0.90662138133E+02 0.  0.
        254    2    1    2    0    0 -0.10598445819E+03 -0.13942495800E+03 -0.42030630128E+03  0.10262143925E+04  0.91966655271E+03 0.  0.
         23    2    4    4    0    0 -0.42388496519E+03 -0.23156336820E+03 -0.46851969566E+03  0.67911827918E+03  0.91601717702E+02 0.  0.
         23    2    4    4    0    0  0.31790050700E+03  0.92138410204E+02  0.48213394379E+02  0.34709611331E+03  0.92741368808E+02 0.  0.
          3    1    3    3  502    0  0.58828424640E+02  0.89013788707E+02 -0.70555415379E+03  0.71357613613E+03  0.00000000000E+00 0. -1.
         -3    1    3    3    0  502  0.47156033550E+02  0.50411169289E+02 -0.16170000413E+03  0.17581771476E+03  0.00000000000E+00 0.  1.
         11    1    5    5    0    0 -0.39446871257E+03 -0.21888605513E+03 -0.46331511311E+03  0.64666650166E+03  0.00000000000E+00 0. -1.
        -11    1    5    5    0    0 -0.29416252620E+02 -0.12677313073E+02 -0.52045825510E+01  0.32451777524E+02  0.00000000000E+00 0.  1.
          1    1    6    6  503    0  0.30913438858E+03  0.10195592800E+03  0.58070186804E+02  0.33065273030E+03  0.00000000000E+00 0. -1.
         -1    1    6    6    0  503  0.87661184270E+01 -0.98175178004E+01 -0.98567924250E+01  0.16443383014E+02  0.00000000000E+00 0.  1.
<mgrwt>
<rscale>  0 0.14183593E+04</rscale>
<asrwt>0</asrwt>
<pdfrwt beam="1">  1        2 0.48311368E-01 0.14183593E+04</pdfrwt>
<pdfrwt beam="2">  1       -2 0.24639759E+00 0.14183593E+04</pdfrwt>
<totfact> 0.68641648E+00</totfact>
</mgrwt>
</event>
<event>
12    2  0.3552864E-008  0.1837609E+04  0.7818608E-02  0.8686551E-01
          1   -1    0    0  501    0  0.00000000000E+00  0.00000000000E+00  0.11560910855E+04  0.11560910855E+04  0.00000000000E+00 0. -1.
         -1   -1    0    0    0  501 -0.00000000000E+00 -0.00000000000E+00 -0.73022076744E+03  0.73022076744E+03  0.00000000000E+00 0.  1.
         23    2    1    2    0    0 -0.26380114601E+03  0.11121945353E+02  0.82524175076E+03  0.87110552488E+03  0.89923000207E+02 0.  0.
        254    2    1    2    0    0  0.26380114601E+03 -0.11121945353E+02 -0.39937143271E+03  0.10152063281E+04  0.89522712479E+03 0.  0.
         23    2    4    4    0    0 -0.95061369843E+02 -0.13428389633E+03 -0.56191990173E+03  0.59258719201E+03  0.91305943560E+02 0.  0.
         23    2    4    4    0    0  0.35886251585E+03  0.12316195098E+03  0.16254846901E+03  0.42261913605E+03  0.90740056880E+02 0.  0.
          3    1    3    3  502    0 -0.20466636025E+03  0.54988919605E+01  0.73565610003E+03  0.76361538377E+03  0.00000000000E+00 0. -1.
         -3    1    3    3    0  502 -0.59134785765E+02  0.56230533920E+01  0.89585650737E+02  0.10749014111E+03  0.00000000000E+00 0.  1.
         11    1    5    5    0    0 -0.95298373877E+02 -0.14547874639E+03 -0.54667535445E+03  0.57367219636E+03  0.00000000000E+00 0. -1.
        -11    1    5    5    0    0  0.23700403312E+00  0.11194850060E+02 -0.15244547277E+02  0.18914995651E+02  0.00000000000E+00 0.  1.
          2    1    6    6  503    0  0.29624286799E+03  0.92046161800E+02  0.16745204164E+03  0.35252307582E+03  0.00000000000E+00 0. -1.
         -2    1    6    6    0  503  0.62619647861E+02  0.31115789176E+02 -0.49035726306E+01  0.70096060224E+02  0.00000000000E+00 0.  1.
<mgrwt>
<rscale>  0 0.18376090E+04</rscale>
<asrwt>0</asrwt>
<pdfrwt beam="1">  1        1 0.17786017E+00 0.18376090E+04</pdfrwt>
<pdfrwt beam="2">  1       -1 0.11234166E+00 0.18376090E+04</pdfrwt>
<totfact> 0.78612082E+00</totfact>
</mgrwt>
</event>
<event>
12    2  0.3552864E-008  0.1761536E+04  0.7818608E-02  0.8727026E-01
          1   -1    0    0  501    0  0.00000000000E+00  0.00000000000E+00  0.31876363461E+04  0.31876363461E+04  0.00000000000E+00 0. -1.
         -1   -1    0    0    0  501 -0.00000000000E+00 -0.00000000000E+00 -0.24336290465E+03  0.24336290465E+03  0.00000000000E+00 0.  1.
         23    2    1    2    0    0  0.41925418641E+03  0.41370958212E+03  0.12120929030E+04  0.13507641967E+04  0.92005534069E+02 0.  0.
        254    2    1    2    0    0 -0.41925418641E+03 -0.41370958212E+03  0.17321805384E+04  0.20802350541E+04  0.98994887311E+03 0.  0.
         23    2    4    4    0    0 -0.30181980773E+03 -0.71392705497E+03  0.14261023083E+04  0.16257187138E+04  0.91687003001E+02 0.  0.
         23    2    4    4    0    0 -0.11743437868E+03  0.30021747286E+03  0.30607823018E+03  0.45451634032E+03  0.94762103842E+02 0.  0.
          2    1    3    3  502    0  0.16706730847E+03  0.12528895715E+03  0.50661472081E+03  0.54796649869E+03  0.00000000000E+00 0. -1.
         -2    1    3    3    0  502  0.25218687794E+03  0.28842062497E+03  0.70547818219E+03  0.80279769796E+03  0.00000000000E+00 0.  1.
         11    1    5    5    0    0 -0.22467016732E+03 -0.54720843843E+03  0.11635174904E+04  0.13052535040E+04  0.00000000000E+00 0. -1.
        -11    1    5    5    0    0 -0.77149640404E+02 -0.16671861655E+03  0.26258481783E+03  0.32046520977E+03  0.00000000000E+00 0.  1.
          4    1    6    6  503    0 -0.10259277996E+02 -0.49477388368E+01  0.43562367819E+01  0.12194658810E+02  0.00000000000E+00 0. -1.
         -4    1    6    6    0  503 -0.10717510068E+03  0.30516521169E+03  0.30172199339E+03  0.44232168151E+03  0.00000000000E+00 0.  1.
<mgrwt>
<rscale>  0 0.17615362E+04</rscale>
<asrwt>0</asrwt>
<pdfrwt beam="1">  1        1 0.49040556E+00 0.17615362E+04</pdfrwt>
<pdfrwt beam="2">  1       -1 0.37440449E-01 0.17615362E+04</pdfrwt>
<totfact> 0.28379574E+00</totfact>
</mgrwt>
</event>
<event>
12    2  0.3552864E-008  0.1527775E+04  0.7818608E-02  0.8866190E-01
          2   -1    0    0  501    0  0.00000000000E+00  0.00000000000E+00  0.27800379787E+04  0.27800379787E+04  0.00000000000E+00 0.  1.
         -2   -1    0    0    0  501 -0.00000000000E+00 -0.00000000000E+00 -0.20989791100E+03  0.20989791100E+03  0.00000000000E+00 0. -1.
         23    2    1    2    0    0  0.40042602712E+03 -0.25127547844E+03  0.58380574847E+03  0.75692308139E+03  0.92860271024E+02 0.  0.
        254    2    1    2    0    0 -0.40042602712E+03  0.25127547844E+03  0.19863343193E+04  0.22330128083E+04  0.90406957980E+03 0.  0.
         23    2    4    4    0    0 -0.25083627954E+03  0.41361988271E+03  0.41639168769E+03  0.64464390312E+03  0.90462576484E+02 0.  0.
         23    2    4    4    0    0 -0.14958974758E+03 -0.16234440427E+03  0.15699426316E+04  0.15883689052E+04  0.97278540740E+02 0.  0.
          3    1    3    3  502    0  0.29999582598E+03 -0.23038122700E+03  0.47798824729E+03  0.60954554375E+03  0.00000000000E+00 0. -1.
         -3    1    3    3    0  502  0.10043020115E+03 -0.20894251439E+02  0.10581750117E+03  0.14737753764E+03  0.00000000000E+00 0.  1.
         11    1    5    5    0    0 -0.11646609948E+02  0.38888607576E+01  0.31192763226E+02  0.33522458725E+02  0.00000000000E+00 0. -1.
        -11    1    5    5    0    0 -0.23918966959E+03  0.40973102195E+03  0.38519892446E+03  0.61112144439E+03  0.00000000000E+00 0.  1.
          2    1    6    6  503    0 -0.83264818784E+01 -0.30324995569E+02  0.50768033813E+03  0.50865338039E+03  0.00000000000E+00 0. -1.
         -2    1    6    6    0  503 -0.14126326570E+03 -0.13201940870E+03  0.10622622934E+04  0.10797155248E+04  0.00000000000E+00 0.  1.
<mgrwt>
<rscale>  0 0.15277751E+04</rscale>
<asrwt>0</asrwt>
<pdfrwt beam="1">  1        2 0.42769812E+00 0.15277751E+04</pdfrwt>
<pdfrwt beam="2">  1       -2 0.32291988E-01 0.15277751E+04</pdfrwt>
<totfact> 0.20567440E+01</totfact>
</mgrwt>
</event>
<event>
12    2  0.3552864E-008  0.1360735E+04  0.7818608E-02  0.8982742E-01
          2   -1    0    0  501    0  0.00000000000E+00  0.00000000000E+00  0.20928275795E+03  0.20928275795E+03  0.00000000000E+00 0. -1.
         -2   -1    0    0    0  501 -0.00000000000E+00 -0.00000000000E+00 -0.22118393154E+04  0.22118393154E+04  0.00000000000E+00 0.  1.
         23    2    1    2    0    0  0.37146711579E+03 -0.43447264751E+02 -0.63264301400E+03  0.74068132618E+03  0.92174621590E+02 0.  0.
        254    2    1    2    0    0 -0.37146711579E+03  0.43447264751E+02 -0.13699135435E+04  0.16804407472E+04  0.89852240111E+03 0.  0.
         23    2    4    4    0    0 -0.59451605877E+03  0.23532201218E+03 -0.10753473431E+04  0.12543814786E+04  0.90968081810E+02 0.  0.
         23    2    4    4    0    0  0.22304894298E+03 -0.19187474743E+03 -0.29456620033E+03  0.42605926858E+03  0.90501404973E+02 0.  0.
          1    1    3    3  502    0  0.37706281110E+03 -0.43710102093E+02 -0.62360838495E+03  0.73005092584E+03  0.00000000000E+00 0. -1.
         -1    1    3    3    0  502 -0.55956953060E+01  0.26283734183E+00 -0.90346290468E+01  0.10630400342E+02  0.00000000000E+00 0.  1.
         11    1    5    5    0    0 -0.48496999426E+03  0.20595165540E+03 -0.81604145776E+03  0.97135762749E+03  0.00000000000E+00 0.  1.
        -11    1    5    5    0    0 -0.10954606451E+03  0.29370356779E+02 -0.25930588537E+03  0.28302385111E+03  0.00000000000E+00 0. -1.
          2    1    6    6  503    0 -0.39527890795E+01 -0.58644689422E+01 -0.30363168163E+02  0.31175928509E+02  0.00000000000E+00 0. -1.
         -2    1    6    6    0  503  0.22700173206E+03 -0.18601027849E+03 -0.26420303216E+03  0.39488334007E+03  0.00000000000E+00 0.  1.
<mgrwt>
<rscale>  0 0.13607348E+04</rscale>
<asrwt>0</asrwt>
<pdfrwt beam="1">  1        2 0.32197345E-01 0.13607348E+04</pdfrwt>
<pdfrwt beam="2">  1       -2 0.34028299E+00 0.13607348E+04</pdfrwt>
<totfact> 0.28992910E+00</totfact>
</mgrwt>
</event>
<event>
12    2  0.3552864E-008  0.1106012E+04  0.7818608E-02  0.9199352E-01
          1   -1    0    0  501    0  0.00000000000E+00  0.00000000000E+00  0.15859701844E+04  0.15859701844E+04  0.00000000000E+00 0. -1.
         -1   -1    0    0    0  501 -0.00000000000E+00 -0.00000000000E+00 -0.19282569615E+03  0.19282569615E+03  0.00000000000E+00 0.  1.
         23    2    1    2    0    0  0.10620143573E+03 -0.12546010907E+03  0.13861414368E+03  0.23395045267E+03  0.92195171023E+02 0.  0.
        254    2    1    2    0    0 -0.10620143573E+03  0.12546010907E+03  0.12545303446E+04  0.15448454279E+04  0.88638706369E+03 0.  0.
         23    2    4    4    0    0  0.25717183713E+03 -0.15624699597E+03  0.91021725422E+03  0.96320541277E+03  0.93374192054E+02 0.  0.
         23    2    4    4    0    0 -0.36337327286E+03  0.28170710503E+03  0.34431309035E+03  0.58164001511E+03  0.91403361762E+02 0.  0.
          1    1    3    3  502    0  0.62476399411E+01  0.50152209920E+01 -0.96888445765E+01  0.12572157955E+02  0.00000000000E+00 0. -1.
         -1    1    3    3    0  502  0.99953795789E+02 -0.13047533006E+03  0.14830298826E+03  0.22137829472E+03  0.00000000000E+00 0.  1.
         11    1    5    5    0    0  0.24641491281E+03 -0.11418568936E+03  0.77763757020E+03  0.82369828912E+03  0.00000000000E+00 0. -1.
        -11    1    5    5    0    0  0.10756924325E+02 -0.42061306602E+02  0.13257968401E+03  0.13950712364E+03  0.00000000000E+00 0.  1.
          4    1    6    6  503    0 -0.30969343367E+03  0.22165601717E+03  0.32019596937E+03  0.49756092251E+03  0.00000000000E+00 0. -1.
         -4    1    6    6    0  503 -0.53679839192E+02  0.60051087867E+02  0.24117120979E+02  0.84079092609E+02  0.00000000000E+00 0.  1.
<mgrwt>
<rscale>  0 0.11060123E+04</rscale>
<asrwt>0</asrwt>
<pdfrwt beam="1">  1        1 0.24399540E+00 0.11060123E+04</pdfrwt>
<pdfrwt beam="2">  1       -1 0.29665493E-01 0.11060123E+04</pdfrwt>
<totfact> 0.59148361E+01</totfact>
</mgrwt>
</event>
<event>
12    2  0.3552864E-008  0.1181932E+04  0.7818608E-02  0.9128820E-01
          2   -1    0    0  501    0  0.00000000000E+00  0.00000000000E+00  0.87271757441E+03  0.87271757441E+03  0.00000000000E+00 0. -1.
         -2   -1    0    0    0  501 -0.00000000000E+00 -0.00000000000E+00 -0.40017637288E+03  0.40017637288E+03  0.00000000000E+00 0.  1.
         23    2    1    2    0    0 -0.11435674764E+03 -0.19009531240E+03  0.18198465005E+03  0.29684826693E+03  0.76070935312E+02 0.  0.
        254    2    1    2    0    0  0.11435674764E+03  0.19009531240E+03  0.29055655148E+03  0.97604568036E+03  0.90500186023E+03 0.  0.
         23    2    4    4    0    0 -0.87714661471E+02 -0.29010008113E+03  0.31573427065E+03  0.44679322037E+03  0.89911807854E+02 0.  0.
         23    2    4    4    0    0  0.20207140911E+03  0.48019539353E+03 -0.25177719172E+02  0.52925245999E+03  0.89742846599E+02 0.  0.
          3    1    3    3  502    0 -0.30487350891E+01 -0.53298204117E+02  0.69627419725E+02  0.87738081386E+02  0.00000000000E+00 0. -1.
         -3    1    3    3    0  502 -0.11130801255E+03 -0.13679710828E+03  0.11235723032E+03  0.20911018554E+03  0.00000000000E+00 0.  1.
         11    1    5    5    0    0  0.14434414566E+02 -0.41780075957E+02  0.70135840685E+02  0.82903336600E+02  0.00000000000E+00 0.  1.
        -11    1    5    5    0    0 -0.10214907604E+03 -0.24832000518E+03  0.24559842997E+03  0.36388988377E+03  0.00000000000E+00 0. -1.
          1    1    6    6  503    0  0.91576555475E+02  0.31714274427E+03 -0.35587269485E+02  0.33201240866E+03  0.00000000000E+00 0. -1.
         -1    1    6    6    0  503  0.11049485363E+03  0.16305264926E+03  0.10409550313E+02  0.19724005133E+03  0.00000000000E+00 0.  1.
<mgrwt>
<rscale>  0 0.11819322E+04</rscale>
<asrwt>0</asrwt>
<pdfrwt beam="1">  1        2 0.13426424E+00 0.11819322E+04</pdfrwt>
<pdfrwt beam="2">  1       -2 0.61565596E-01 0.11819322E+04</pdfrwt>
<totfact> 0.74164678E+01</totfact>
</mgrwt>
</event>
<event>
12    2  0.3552864E-008  0.2406075E+04  0.7818608E-02  0.8437233E-01
          2   -1    0    0  501    0  0.00000000000E+00  0.00000000000E+00  0.21156836915E+04  0.21156836915E+04  0.00000000000E+00 0.  1.
         -2   -1    0    0    0  501 -0.00000000000E+00 -0.00000000000E+00 -0.68408132167E+03  0.68408132167E+03  0.00000000000E+00 0. -1.
         23    2    1    2    0    0 -0.10057974512E+04 -0.69869893489E+02  0.86457859139E+03  0.13314343120E+04  0.93332050158E+02 0.  0.
        254    2    1    2    0    0  0.10057974512E+04  0.69869893489E+02  0.56702377839E+03  0.14683307012E+04  0.90441625809E+03 0.  0.
         23    2    4    4    0    0  0.49187560982E+03 -0.20403936376E+03 -0.12978774324E+03  0.55562314269E+03  0.91096327621E+02 0.  0.
         23    2    4    4    0    0  0.51392184136E+03  0.27390925724E+03  0.69681152163E+03  0.91270755847E+03  0.91361098815E+02 0.  0.
          4    1    3    3  502    0 -0.45641101582E+03 -0.57743973341E+02  0.34351392545E+03  0.57414910851E+03  0.00000000000E+00 0. -1.
         -4    1    3    3    0  502 -0.54938643536E+03 -0.12125920147E+02  0.52106466594E+03  0.75728520346E+03  0.00000000000E+00 0.  1.
         11    1    5    5    0    0  0.29072236112E+03 -0.16538226032E+03 -0.64476635977E+02  0.34062885942E+03  0.00000000000E+00 0.  1.
        -11    1    5    5    0    0  0.20115324870E+03 -0.38657103436E+02 -0.65311107263E+02  0.21499428328E+03  0.00000000000E+00 0. -1.
          4    1    6    6  503    0  0.40946784207E+03  0.25155483751E+03  0.53878184453E+03  0.72196234386E+03  0.00000000000E+00 0.  1.
         -4    1    6    6    0  503  0.10445399929E+03  0.22354419734E+02  0.15802967710E+03  0.19074521460E+03  0.00000000000E+00 0. -1.
<mgrwt>
<rscale>  0 0.24060754E+04</rscale>
<asrwt>0</asrwt>
<pdfrwt beam="1">  1        2 0.32548980E+00 0.24060754E+04</pdfrwt>
<pdfrwt beam="2">  1       -2 0.10524328E+00 0.24060754E+04</pdfrwt>
<totfact> 0.37829679E+00</totfact>
</mgrwt>
</event>
<event>
12    2  0.3552864E-008  0.1410408E+04  0.7818608E-02  0.8946319E-01
         -1   -1    0    0    0  501 -0.00000000000E+00  0.00000000000E+00  0.12465962887E+03  0.12465962887E+03  0.00000000000E+00 0.  1.
          1   -1    0    0  501    0  0.00000000000E+00 -0.00000000000E+00 -0.39893616589E+04  0.39893616589E+04  0.00000000000E+00 0. -1.
         23    2    1    2    0    0  0.95728831713E+02  0.23953563015E+03 -0.21039260419E+04  0.21228880387E+04  0.11665122186E+03 0.  0.
        254    2    1    2    0    0 -0.95728831713E+02 -0.23953563015E+03 -0.17607759881E+04  0.19911332491E+04  0.89316191588E+03 0.  0.
         23    2    4    4    0    0 -0.47917880417E+03 -0.21384956917E+03 -0.96966585883E+03  0.11068527076E+04  0.97606730579E+02 0.  0.
         23    2    4    4    0    0  0.38344997246E+03 -0.25686060975E+02 -0.79111012927E+03  0.88428054152E+03  0.91668884392E+02 0.  0.
          4    1    3    3  502    0  0.92028197937E+02  0.12829242500E+03 -0.89234729922E+03  0.90620739235E+03  0.00000000000E+00 0.  1.
         -4    1    3    3    0  502  0.37006337762E+01  0.11124320515E+03 -0.12115787427E+04  0.12166806463E+04  0.00000000000E+00 0. -1.
         11    1    5    5    0    0 -0.12141642022E+03 -0.40336811263E+02 -0.32687289648E+03  0.35101979417E+03  0.00000000000E+00 0. -1.
        -11    1    5    5    0    0 -0.35776238395E+03 -0.17351275791E+03 -0.64279296234E+03  0.75583291339E+03  0.00000000000E+00 0.  1.
          2    1    6    6  503    0  0.94969645272E+02  0.32929166881E+02 -0.21380628671E+03  0.23625556457E+03  0.00000000000E+00 0. -1.
         -2    1    6    6    0  503  0.28848032718E+03 -0.58615227856E+02 -0.57730384256E+03  0.64802497694E+03  0.00000000000E+00 0.  1.
<mgrwt>
<rscale>  0 0.14104075E+04</rscale>
<asrwt>0</asrwt>
<pdfrwt beam="1">  1        1 0.61374801E+00 0.14104075E+04</pdfrwt>
<pdfrwt beam="2">  1       -1 0.19178403E-01 0.14104075E+04</pdfrwt>
<totfact> 0.21442548E+00</totfact>
</mgrwt>
</event>
<event>
12    2  0.3552864E-008  0.1400696E+04  0.7818608E-02  0.8953315E-01
         -2   -1    0    0    0  501 -0.00000000000E+00  0.00000000000E+00  0.68644040758E+03  0.68644040758E+03  0.00000000000E+00 0.  1.
          2   -1    0    0  501    0  0.00000000000E+00 -0.00000000000E+00 -0.71453702599E+03  0.71453702599E+03  0.00000000000E+00 0. -1.
         23    2    1    2    0    0 -0.17615906235E+03  0.62058249986E+02 -0.31432111008E+03  0.37738230375E+03  0.93468718319E+02 0.  0.
        254    2    1    2    0    0  0.17615906235E+03 -0.62058249986E+02  0.28622449167E+03  0.10235951298E+04  0.96485195160E+03 0.  0.
         23    2    4    4    0    0  0.54679226095E+03 -0.17990437400E+03  0.13956416028E+03  0.59864757926E+03  0.86910349814E+02 0.  0.
         23    2    4    4    0    0 -0.37063319860E+03  0.11784612401E+03  0.14666033138E+03  0.42494755055E+03  0.88399610130E+02 0.  0.
          1    1    3    3  502    0 -0.17663577575E+03  0.60380880882E+02 -0.32053435217E+03  0.37092899451E+03  0.00000000000E+00 0. -1.
         -1    1    3    3    0  502  0.47671339307E+00  0.16773691036E+01  0.62132420950E+01  0.64533092363E+01  0.00000000000E+00 0.  1.
         11    1    5    5    0    0  0.33609696869E+03 -0.15423912081E+03  0.94023316595E+02  0.38156423157E+03  0.00000000000E+00 0. -1.
        -11    1    5    5    0    0  0.21069529226E+03 -0.25665253188E+02  0.45540843689E+02  0.21708334769E+03  0.00000000000E+00 0.  1.
          1    1    6    6  503    0 -0.23615424027E+03  0.92472263372E+02  0.52939749830E+02  0.25908022271E+03  0.00000000000E+00 0. -1.
         -1    1    6    6    0  503 -0.13447895833E+03  0.25373860641E+02  0.93720581554E+02  0.16586732784E+03  0.00000000000E+00 0.  1.
<mgrwt>
<rscale>  0 0.14006957E+04</rscale>
<asrwt>0</asrwt>
<pdfrwt beam="1">  1        2 0.10992877E+00 0.14006957E+04</pdfrwt>
<pdfrwt beam="2">  1       -2 0.10560622E+00 0.14006957E+04</pdfrwt>
<totfact> 0.28167667E+01</totfact>
</mgrwt>
</event>
<event>
12    2  0.3552864E-008  0.1308116E+04  0.7818608E-02  0.9023154E-01
         -2   -1    0    0    0  501 -0.00000000000E+00  0.00000000000E+00  0.21491683246E+03  0.21491683246E+03  0.00000000000E+00 0. -1.
          2   -1    0    0  501    0  0.00000000000E+00 -0.00000000000E+00 -0.19904999892E+04  0.19904999892E+04  0.00000000000E+00 0.  1.
         23    2    1    2    0    0  0.13698467777E+03 -0.16933623440E+03 -0.90454593439E+03  0.93493479671E+03  0.91979152245E+02 0.  0.
        254    2    1    2    0    0 -0.13698467777E+03  0.16933623440E+03 -0.87103722236E+03  0.12704820250E+04  0.89887661600E+03 0.  0.
         23    2    4    4    0    0  0.34663409911E+03 -0.22261902353E+02 -0.18273894425E+03  0.40278157282E+03  0.90491340426E+02 0.  0.
         23    2    4    4    0    0 -0.48361877688E+03  0.19159813675E+03 -0.68829827811E+03  0.86770045214E+03  0.92480201372E+02 0.  0.
          3    1    3    3  502    0  0.32107696288E+02  0.38154132558E+01 -0.16758044370E+03  0.17067122385E+03  0.00000000000E+00 0. -1.
         -3    1    3    3    0  502  0.10487698148E+03 -0.17315164766E+03 -0.73696549069E+03  0.76426357286E+03  0.00000000000E+00 0.  1.
         11    1    5    5    0    0  0.24679961857E+03 -0.22324251903E+00 -0.17015649202E+03  0.29977213569E+03  0.00000000000E+00 0.  1.
        -11    1    5    5    0    0  0.99834480546E+02 -0.22038659834E+02 -0.12582452239E+02  0.10300943713E+03  0.00000000000E+00 0. -1.
          3    1    6    6  503    0 -0.44107098133E+03  0.14503835057E+03 -0.62210055283E+03  0.77626595413E+03  0.00000000000E+00 0. -1.
         -3    1    6    6    0  503 -0.42547795548E+02  0.46559786180E+02 -0.66197725284E+02  0.91434498018E+02  0.00000000000E+00 0.  1.
<mgrwt>
<rscale>  0 0.13081161E+04</rscale>
<asrwt>0</asrwt>
<pdfrwt beam="1">  1        2 0.30623078E+00 0.13081161E+04</pdfrwt>
<pdfrwt beam="2">  1       -2 0.33064126E-01 0.13081161E+04</pdfrwt>
<totfact> 0.56617457E+01</totfact>
</mgrwt>
</event>
<event>
12    2  0.3552864E-008  0.2469411E+04  0.7818608E-02  0.8413965E-01
          1   -1    0    0  501    0  0.00000000000E+00  0.00000000000E+00  0.21179083012E+04  0.21179083012E+04  0.00000000000E+00 0. -1.
         -1   -1    0    0    0  501 -0.00000000000E+00 -0.00000000000E+00 -0.71981295409E+03  0.71981295409E+03  0.00000000000E+00 0.  1.
         23    2    1    2    0    0 -0.40730196503E+02  0.50810805264E+03  0.16830857520E+04  0.17610267076E+04  0.92761383488E+02 0.  0.
        254    2    1    2    0    0  0.40730196503E+02 -0.50810805264E+03 -0.28499040493E+03  0.10766945476E+04  0.90455451795E+03 0.  0.
         23    2    4    4    0    0  0.22776502371E+03 -0.51955623178E+03  0.15101992843E+03  0.59356776049E+03  0.87750119681E+02 0.  0.
         23    2    4    4    0    0 -0.18703482720E+03  0.11448179147E+02 -0.43601033336E+03  0.48312678714E+03  0.90517369941E+02 0.  0.
          4    1    3    3  502    0  0.19532632401E+02  0.30519004083E+03  0.10365273360E+04  0.10806994971E+04  0.00000000000E+00 0.  1.
         -4    1    3    3    0  502 -0.60262828904E+02  0.20291801181E+03  0.64655841601E+03  0.68032721052E+03  0.00000000000E+00 0. -1.
         11    1    5    5    0    0 -0.62747311235E+01 -0.11332612284E+02  0.10485927235E+02  0.16665983974E+02  0.00000000000E+00 0.  1.
        -11    1    5    5    0    0  0.23403975483E+03 -0.50822361950E+03  0.14053400119E+03  0.57690177652E+03  0.00000000000E+00 0. -1.
          3    1    6    6  503    0 -0.13046021159E+03  0.47066584476E+02 -0.32777442575E+03  0.35590898325E+03  0.00000000000E+00 0. -1.
         -3    1    6    6    0  503 -0.56574615612E+02 -0.35618405329E+02 -0.10823590761E+03  0.12721780389E+03  0.00000000000E+00 0.  1.
<mgrwt>
<rscale>  0 0.24694111E+04</rscale>
<asrwt>0</asrwt>
<pdfrwt beam="1">  1        1 0.32583204E+00 0.24694111E+04</pdfrwt>
<pdfrwt beam="2">  1       -1 0.11074046E+00 0.24694111E+04</pdfrwt>
<totfact> 0.16575714E+00</totfact>
</mgrwt>
</event>
<event>
12    2  0.3552864E-008  0.1322485E+04  0.7818608E-02  0.9011922E-01
         -2   -1    0    0    0  501 -0.00000000000E+00  0.00000000000E+00  0.16975713731E+03  0.16975713731E+03  0.00000000000E+00 0.  1.
          2   -1    0    0  501    0  0.00000000000E+00 -0.00000000000E+00 -0.25756911448E+04  0.25756911448E+04  0.00000000000E+00 0. -1.
         23    2    1    2    0    0  0.25396678332E+03 -0.22099653688E+03 -0.81557465153E+03  0.88716865136E+03  0.92561370968E+02 0.  0.
        254    2    1    2    0    0 -0.25396678332E+03  0.22099653688E+03 -0.15903593560E+04  0.18582796308E+04  0.90034532745E+03 0.  0.
         23    2    4    4    0    0  0.43822683730E+02  0.43398891403E+03 -0.13226682770E+04  0.13957461747E+04  0.91592621070E+02 0.  0.
         23    2    4    4    0    0 -0.29778946705E+03 -0.21299237715E+03 -0.26769107900E+03  0.46253345605E+03  0.90743400733E+02 0.  0.
          1    1    3    3  502    0  0.12424781765E+03 -0.80598711194E+02 -0.46301379463E+03  0.48612287177E+03  0.00000000000E+00 0. -1.
         -1    1    3    3    0  502  0.12971896566E+03 -0.14039782569E+03 -0.35256085690E+03  0.40104577959E+03  0.00000000000E+00 0.  1.
         11    1    5    5    0    0  0.52161876266E+02  0.39524376466E+03 -0.11101536850E+04  0.11795675899E+04  0.00000000000E+00 0.  1.
        -11    1    5    5    0    0 -0.83391925354E+01  0.38745149372E+02 -0.21251459200E+03  0.21617858484E+03  0.00000000000E+00 0. -1.
          1    1    6    6  503    0 -0.52240711535E+02 -0.47053193169E+02 -0.12432321692E+02  0.71397881984E+02  0.00000000000E+00 0. -1.
         -1    1    6    6    0  503 -0.24554875551E+03 -0.16593918398E+03 -0.25525875731E+03  0.39113557406E+03  0.00000000000E+00 0.  1.
<mgrwt>
<rscale>  0 0.13224855E+04</rscale>
<asrwt>0</asrwt>
<pdfrwt beam="1">  1        2 0.39626016E+00 0.13224855E+04</pdfrwt>
<pdfrwt beam="2">  1       -2 0.26116484E-01 0.13224855E+04</pdfrwt>
<totfact> 0.40991753E+01</totfact>
</mgrwt>
</event>
<event>
12    2  0.3552864E-008  0.1735307E+04  0.7818608E-02  0.8741480E-01
         -1   -1    0    0    0  501 -0.00000000000E+00  0.00000000000E+00  0.13182197710E+04  0.13182197710E+04  0.00000000000E+00 0.  1.
          1   -1    0    0  501    0  0.00000000000E+00 -0.00000000000E+00 -0.57109056567E+03  0.57109056567E+03  0.00000000000E+00 0. -1.
         23    2    1    2    0    0 -0.59067972418E+03 -0.14242626193E+03  0.81876006458E+02  0.61890835514E+03  0.84593705332E+02 0.  0.
        254    2    1    2    0    0  0.59067972418E+03  0.14242626193E+03  0.66525319886E+03  0.12704019815E+04  0.89564032925E+03 0.  0.
         23    2    4    4    0    0  0.62961206970E+03  0.17177739517E+03  0.84024650552E+03  0.10677811107E+04  0.90683397153E+02 0.  0.
         23    2    4    4    0    0 -0.38932345514E+02 -0.29351133235E+02 -0.17499330666E+03  0.20262087081E+03  0.89751564685E+02 0.  0.
          2    1    3    3  502    0 -0.42259835756E+03 -0.65702821776E+02  0.40668494215E+02  0.42960465433E+03  0.00000000000E+00 0. -1.
         -2    1    3    3    0  502 -0.16808136662E+03 -0.76723440156E+02  0.41207512243E+02  0.18930370081E+03  0.00000000000E+00 0.  1.
         11    1    5    5    0    0  0.51139499690E+03  0.13412842188E+03  0.73308477534E+03  0.90384100607E+03  0.00000000000E+00 0. -1.
        -11    1    5    5    0    0  0.11821707280E+03  0.37648973287E+02  0.10716173018E+03  0.16394010463E+03  0.00000000000E+00 0.  1.
          2    1    6    6  503    0 -0.29283430602E+02  0.18734785132E+02 -0.13480050711E+03  0.13921094856E+03  0.00000000000E+00 0. -1.
         -2    1    6    6    0  503 -0.96489149123E+01 -0.48085918367E+02 -0.40192799546E+02  0.63409922249E+02  0.00000000000E+00 0.  1.
<mgrwt>
<rscale>  0 0.17353073E+04</rscale>
<asrwt>0</asrwt>
<pdfrwt beam="1">  1        1 0.87860087E-01 0.17353073E+04</pdfrwt>
<pdfrwt beam="2">  1       -1 0.20280304E+00 0.17353073E+04</pdfrwt>
<totfact> 0.50214304E+00</totfact>
</mgrwt>
</event>
<event>
12    2  0.3552864E-008  0.1443512E+04  0.7818608E-02  0.8922911E-01
          2   -1    0    0  501    0  0.00000000000E+00  0.00000000000E+00  0.15634260879E+04  0.15634260879E+04  0.00000000000E+00 0. -1.
         -2   -1    0    0    0  501 -0.00000000000E+00 -0.00000000000E+00 -0.33319864460E+03  0.33319864460E+03  0.00000000000E+00 0.  1.
         23    2    1    2    0    0 -0.17392967580E+03  0.28090867007E+03  0.86874676812E+01  0.34310054085E+03  0.92093951969E+02 0.  0.
        254    2    1    2    0    0  0.17392967580E+03 -0.28090867007E+03  0.12215399757E+04  0.15535241917E+04  0.90117494917E+03 0.  0.
         23    2    4    4    0    0 -0.10694397854E+03 -0.54565340397E+03  0.74121682580E+03  0.93043149154E+03  0.84414014202E+02 0.  0.
         23    2    4    4    0    0  0.28087365434E+03  0.26474473390E+03  0.48032314985E+03  0.62309270015E+03  0.92490004174E+02 0.  0.
          4    1    3    3  502    0 -0.49137570615E+02  0.55619310367E+02  0.38897968141E+02  0.83791768433E+02  0.00000000000E+00 0. -1.
         -4    1    3    3    0  502 -0.12479210519E+03  0.22528935970E+03 -0.30210500460E+02  0.25930877242E+03  0.00000000000E+00 0.  1.
         11    1    5    5    0    0 -0.41202001487E+02 -0.12869103784E+03  0.12912249864E+03  0.18689999412E+03  0.00000000000E+00 0. -1.
        -11    1    5    5    0    0 -0.65741977049E+02 -0.41696236612E+03  0.61209432716E+03  0.74353149742E+03  0.00000000000E+00 0.  1.
          3    1    6    6  503    0  0.12955096969E+03  0.10419933237E+03  0.27703617449E+03  0.32309440817E+03  0.00000000000E+00 0. -1.
         -3    1    6    6    0  503  0.15132268465E+03  0.16054540153E+03  0.20328697536E+03  0.29999829199E+03  0.00000000000E+00 0.  1.
<mgrwt>
<rscale>  0 0.14435116E+04</rscale>
<asrwt>0</asrwt>
<pdfrwt beam="1">  1        2 0.24052709E+00 0.14435116E+04</pdfrwt>
<pdfrwt beam="2">  1       -2 0.51261331E-01 0.14435116E+04</pdfrwt>
<totfact> 0.40782550E+01</totfact>
</mgrwt>
</event>
<event>
12    2  0.3552864E-008  0.2016716E+04  0.7818608E-02  0.8598845E-01
         -1   -1    0    0    0  501 -0.00000000000E+00  0.00000000000E+00  0.60211820570E+03  0.60211820570E+03  0.00000000000E+00 0.  1.
          1   -1    0    0  501    0  0.00000000000E+00 -0.00000000000E+00 -0.16886813963E+04  0.16886813963E+04  0.00000000000E+00 0. -1.
         23    2    1    2    0    0  0.28517764966E+03 -0.38654519157E+03 -0.11848818905E+04  0.12817946366E+04  0.91153272853E+02 0.  0.
        254    2    1    2    0    0 -0.28517764966E+03  0.38654519157E+03  0.98318699881E+02  0.10090049653E+04  0.88186222073E+03 0.  0.
         23    2    4    4    0    0 -0.14657295220E+03  0.32671951999E+03  0.46838574862E+03  0.59689605446E+03  0.93115064625E+02 0.  0.
         23    2    4    4    0    0 -0.13860469746E+03  0.59825671585E+02 -0.37006704874E+03  0.41210891089E+03  0.10046770990E+03 0.  0.
          4    1    3    3  502    0  0.20901513850E+03 -0.28372689516E+03 -0.75349086953E+03  0.83182736768E+03  0.00000000000E+00 0. -1.
         -4    1    3    3    0  502  0.76162511165E+02 -0.10281829642E+03 -0.43139102094E+03  0.44996726895E+03  0.00000000000E+00 0.  1.
         11    1    5    5    0    0 -0.13859104720E+03  0.21064082403E+03  0.34478317878E+03  0.42714456040E+03  0.00000000000E+00 0.  1.
        -11    1    5    5    0    0 -0.79819049988E+01  0.11607869596E+03  0.12360256984E+03  0.16975149406E+03  0.00000000000E+00 0. -1.
          2    1    6    6  503    0 -0.25926335014E+02  0.28450255489E+02 -0.20746772069E+02  0.43726655897E+02  0.00000000000E+00 0. -1.
         -2    1    6    6    0  503 -0.11267836245E+03  0.31375416095E+02 -0.34932027667E+03  0.36838225499E+03  0.00000000000E+00 0.  1.
<mgrwt>
<rscale>  0 0.20167160E+04</rscale>
<asrwt>0</asrwt>
<pdfrwt beam="1">  1        1 0.25979714E+00 0.20167160E+04</pdfrwt>
<pdfrwt beam="2">  1       -1 0.92633570E-01 0.20167160E+04</pdfrwt>
<totfact> 0.50913486E+00</totfact>
</mgrwt>
</event>
<event>
12    2  0.3552864E-008  0.2158495E+04  0.7818608E-02  0.8535905E-01
          2   -1    0    0  501    0  0.00000000000E+00  0.00000000000E+00  0.28834988104E+04  0.28834988104E+04  0.00000000000E+00 0. -1.
         -2   -1    0    0    0  501 -0.00000000000E+00 -0.00000000000E+00 -0.40394512045E+03  0.40394512045E+03  0.00000000000E+00 0.  1.
         23    2    1    2    0    0  0.13971273435E+03  0.18784558172E+03 -0.27896876246E+03  0.37631601441E+03  0.94786927149E+02 0.  0.
        254    2    1    2    0    0 -0.13971273435E+03 -0.18784558172E+03  0.27585224524E+04  0.29111279164E+04  0.90022997877E+03 0.  0.
         23    2    4    4    0    0 -0.50723460882E+03 -0.56750947719E+02  0.13475744863E+04  0.14437805137E+04  0.89652424786E+02 0.  0.
         23    2    4    4    0    0  0.36752187447E+03 -0.13109463400E+03  0.14109479661E+04  0.14673474027E+04  0.10037980800E+03 0.  0.
          3    1    3    3  502    0  0.12091406193E+03  0.84766147143E+02 -0.15742646457E+03  0.21584392931E+03  0.00000000000E+00 0. -1.
         -3    1    3    3    0  502  0.18798672418E+02  0.10307943458E+03 -0.12154229789E+03  0.16047208510E+03  0.00000000000E+00 0.  1.
         11    1    5    5    0    0 -0.44063299019E+02 -0.31588261676E+02  0.15170310387E+03  0.16110004445E+03  0.00000000000E+00 0.  1.
        -11    1    5    5    0    0 -0.46317130980E+03 -0.25162686044E+02  0.11958713824E+04  0.12826804693E+04  0.00000000000E+00 0. -1.
          1    1    6    6  503    0  0.26610891779E+03 -0.13913233495E+03  0.10947796920E+04  0.11352155464E+04  0.00000000000E+00 0. -1.
         -1    1    6    6    0  503  0.10141295667E+03  0.80377009491E+01  0.31616827414E+03  0.33213185633E+03  0.00000000000E+00 0.  1.
<mgrwt>
<rscale>  0 0.21584951E+04</rscale>
<asrwt>0</asrwt>
<pdfrwt beam="1">  1        2 0.44361519E+00 0.21584951E+04</pdfrwt>
<pdfrwt beam="2">  1       -2 0.62145405E-01 0.21584951E+04</pdfrwt>
<totfact> 0.45385581E+00</totfact>
</mgrwt>
</event>
<event>
12    2  0.3552864E-008  0.1386711E+04  0.7818608E-02  0.8963494E-01
         -1   -1    0    0    0  501 -0.00000000000E+00  0.00000000000E+00  0.34117396514E+03  0.34117396514E+03  0.00000000000E+00 0.  1.
          1   -1    0    0  501    0  0.00000000000E+00 -0.00000000000E+00 -0.14090822256E+04  0.14090822256E+04  0.00000000000E+00 0. -1.
         23    2    1    2    0    0  0.16920866523E+03 -0.11681974495E+03  0.11373358757E+03  0.25199749909E+03  0.91043865292E+02 0.  0.
        254    2    1    2    0    0 -0.16920866523E+03  0.11681974495E+03 -0.11816418480E+04  0.14982586916E+04  0.89789934007E+03 0.  0.
         23    2    4    4    0    0 -0.19216365077E+01  0.67882512048E+02  0.13097521679E+03  0.17104602708E+03  0.86547720005E+02 0.  0.
         23    2    4    4    0    0 -0.16728702872E+03  0.48937232898E+02 -0.13126170648E+04  0.13272126646E+04  0.90277878741E+02 0.  0.
          1    1    3    3  502    0  0.81099311735E+01 -0.24365851661E+02 -0.11336542912E+02  0.28071033398E+02  0.00000000000E+00 0. -1.
         -1    1    3    3    0  502  0.16109873405E+03 -0.92453893286E+02  0.12507013049E+03  0.22392646569E+03  0.00000000000E+00 0.  1.
         11    1    5    5    0    0 -0.30334396659E+02  0.17008626346E+02  0.90863463982E+01  0.35944828302E+02  0.00000000000E+00 0.  1.
        -11    1    5    5    0    0  0.28412760151E+02  0.50873885702E+02  0.12188887040E+03  0.13510119878E+03  0.00000000000E+00 0. -1.
          4    1    6    6  503    0 -0.11173620101E+03 -0.91598541277E+00 -0.56965486389E+03  0.58051053531E+03  0.00000000000E+00 0. -1.
         -4    1    6    6    0  503 -0.55550827704E+02  0.49853218311E+02 -0.74296220092E+03  0.74670212925E+03  0.00000000000E+00 0.  1.
<mgrwt>
<rscale>  0 0.13867115E+04</rscale>
<asrwt>0</asrwt>
<pdfrwt beam="1">  1        1 0.21678189E+00 0.13867115E+04</pdfrwt>
<pdfrwt beam="2">  1       -1 0.52488301E-01 0.13867115E+04</pdfrwt>
<totfact> 0.27022421E+01</totfact>
</mgrwt>
</event>
<event>
12    2  0.3552864E-008  0.1356872E+04  0.7818608E-02  0.8985642E-01
         -2   -1    0    0    0  501 -0.00000000000E+00  0.00000000000E+00  0.19059586252E+03  0.19059586252E+03  0.00000000000E+00 0.  1.
          2   -1    0    0  501    0  0.00000000000E+00 -0.00000000000E+00 -0.24149290723E+04  0.24149290723E+04  0.00000000000E+00 0. -1.
         23    2    1    2    0    0 -0.91931685657E+02  0.34787153164E+03 -0.70874970305E+03  0.80072428911E+03  0.96784338802E+02 0.  0.
        254    2    1    2    0    0  0.91931685657E+02 -0.34787153164E+03 -0.15155835068E+04  0.18048006457E+04  0.91150752469E+03 0.  0.
         23    2    4    4    0    0 -0.13086530827E+03 -0.13929564231E+03  0.40863346835E+02  0.21607273542E+03  0.92133647485E+02 0.  0.
         23    2    4    4    0    0  0.22279699393E+03 -0.20857588933E+03 -0.15564468536E+04  0.15887279103E+04  0.91581454878E+02 0.  0.
          3    1    3    3  502    0 -0.61296460481E+02  0.86813031502E+02 -0.15730234284E+03  0.18983620721E+03  0.00000000000E+00 0. -1.
         -3    1    3    3    0  502 -0.30635225176E+02  0.26105850014E+03 -0.55144736021E+03  0.61088808190E+03  0.00000000000E+00 0.  1.
         11    1    5    5    0    0 -0.24903395987E+02 -0.19656019529E+02  0.46342024762E+02  0.56161565990E+02  0.00000000000E+00 0.  1.
        -11    1    5    5    0    0 -0.10596191229E+03 -0.11963962279E+03 -0.54786779276E+01  0.15991116943E+03  0.00000000000E+00 0. -1.
          1    1    6    6  503    0  0.15679639311E+03 -0.16481559579E+03 -0.13176553894E+04  0.13371480901E+04  0.00000000000E+00 0. -1.
         -1    1    6    6    0  503  0.66000600818E+02 -0.43760293535E+02 -0.23879146417E+03  0.25157982026E+03  0.00000000000E+00 0.  1.
<mgrwt>
<rscale>  0 0.13568721E+04</rscale>
<asrwt>0</asrwt>
<pdfrwt beam="1">  1        2 0.37152754E+00 0.13568721E+04</pdfrwt>
<pdfrwt beam="2">  1       -2 0.29322441E-01 0.13568721E+04</pdfrwt>
<totfact> 0.40858357E+01</totfact>
</mgrwt>
</event>
<event>
12    2  0.3552864E-008  0.1927276E+04  0.7818608E-02  0.8641397E-01
         -2   -1    0    0    0  501 -0.00000000000E+00  0.00000000000E+00  0.83243415217E+03  0.83243415217E+03  0.00000000000E+00 0. -1.
          2   -1    0    0  501    0  0.00000000000E+00 -0.00000000000E+00 -0.11155219836E+04  0.11155219836E+04  0.00000000000E+00 0.  1.
         23    2    1    2    0    0  0.18449164964E+03  0.75484863286E+02 -0.84196834716E+03  0.87058084957E+03  0.96255829193E+02 0.  0.
        254    2    1    2    0    0 -0.18449164964E+03 -0.75484863286E+02  0.55888051575E+03  0.10773752862E+04  0.89925243564E+03 0.  0.
         23    2    4    4    0    0 -0.33902787343E+03 -0.66330011761E+02  0.74054189506E+03  0.82193233396E+03  0.88492337746E+02 0.  0.
         23    2    4    4    0    0  0.15453622379E+03 -0.91548515250E+01 -0.18166137931E+03  0.25544295222E+03  0.91021916787E+02 0.  0.
          1    1    3    3  502    0  0.60600542884E+02 -0.32697564147E+00 -0.41920329493E+03  0.42356101708E+03  0.00000000000E+00 0. -1.
         -1    1    3    3    0  502  0.12389110675E+03  0.75811838928E+02 -0.42276505223E+03  0.44701983249E+03  0.00000000000E+00 0.  1.
         11    1    5    5    0    0 -0.79603378613E+02  0.11852135366E+02  0.11637768979E+03  0.14149536275E+03  0.00000000000E+00 0. -1.
        -11    1    5    5    0    0 -0.25942449482E+03 -0.78182147128E+02  0.62416420527E+03  0.68043697121E+03  0.00000000000E+00 0.  1.
          4    1    6    6  503    0  0.66646530613E+02 -0.44168614874E+02 -0.53732356012E+02  0.96331680486E+02  0.00000000000E+00 0. -1.
         -4    1    6    6    0  503  0.87889693182E+02  0.35013763348E+02 -0.12792902330E+03  0.15911127174E+03  0.00000000000E+00 0.  1.
<mgrwt>
<rscale>  0 0.19272764E+04</rscale>
<asrwt>0</asrwt>
<pdfrwt beam="1">  1        2 0.17161877E+00 0.19272764E+04</pdfrwt>
<pdfrwt beam="2">  1       -2 0.12806679E+00 0.19272764E+04</pdfrwt>
<totfact> 0.89846632E+00</totfact>
</mgrwt>
</event>
<event>
12    2  0.3552864E-008  0.2005564E+04  0.7818608E-02  0.8604024E-01
         -2   -1    0    0    0  501 -0.00000000000E+00  0.00000000000E+00  0.12109652245E+04  0.12109652245E+04  0.00000000000E+00 0.  1.
          2   -1    0    0  501    0  0.00000000000E+00 -0.00000000000E+00 -0.83038893896E+03  0.83038893896E+03  0.00000000000E+00 0. -1.
         23    2    1    2    0    0 -0.36713175882E+03  0.70069166787E+03  0.30756729436E+02  0.79669311616E+03  0.89551120440E+02 0.  0.
        254    2    1    2    0    0  0.36713175882E+03 -0.70069166787E+03  0.34981955613E+03  0.12446610473E+04  0.89501556362E+03 0.  0.
         23    2    4    4    0    0  0.52178683586E+03 -0.97659782893E+02  0.35341304368E+02  0.54095449217E+03  0.97896984319E+02 0.  0.
         23    2    4    4    0    0 -0.15465507704E+03 -0.60303188498E+03  0.31447825176E+03  0.70370655515E+03  0.93491698970E+02 0.  0.
          1    1    3    3  502    0 -0.26324401010E+03  0.56459498628E+03  0.12308515501E+01  0.62294977517E+03  0.00000000000E+00 0. -1.
         -1    1    3    3    0  502 -0.10388774872E+03  0.13609668159E+03  0.29525877886E+02  0.17374334099E+03  0.00000000000E+00 0.  1.
         11    1    5    5    0    0  0.38319695600E+03 -0.10992113170E+03  0.56528471938E+01  0.39869100437E+03  0.00000000000E+00 0.  1.
        -11    1    5    5    0    0  0.13858987985E+03  0.12261348805E+02  0.29688457175E+02  0.14226348780E+03  0.00000000000E+00 0. -1.
          2    1    6    6  503    0 -0.94775004726E+02 -0.50747359171E+03  0.24705309877E+03  0.57231720349E+03  0.00000000000E+00 0. -1.
         -2    1    6    6    0  503 -0.59880072314E+02 -0.95558293271E+02  0.67425152997E+02  0.13138935166E+03  0.00000000000E+00 0.  1.
<mgrwt>
<rscale>  0 0.20055644E+04</rscale>
<asrwt>0</asrwt>
<pdfrwt beam="1">  1        2 0.12775215E+00 0.20055644E+04</pdfrwt>
<pdfrwt beam="2">  1       -2 0.18630234E+00 0.20055644E+04</pdfrwt>
<totfact> 0.49925817E+00</totfact>
</mgrwt>
</event>
<event>
12    2  0.3552864E-008  0.1278518E+04  0.7818608E-02  0.9046776E-01
          2   -1    0    0  501    0  0.00000000000E+00  0.00000000000E+00  0.16249626839E+04  0.16249626839E+04  0.00000000000E+00 0. -1.
         -2   -1    0    0    0  501 -0.00000000000E+00 -0.00000000000E+00 -0.25148401941E+03  0.25148401941E+03  0.00000000000E+00 0.  1.
         23    2    1    2    0    0  0.28267069220E+03  0.46343154382E+02  0.19309576907E+03  0.35738823653E+03  0.91596765201E+02 0.  0.
        254    2    1    2    0    0 -0.28267069220E+03 -0.46343154382E+02  0.11803828955E+04  0.15190584668E+04  0.91224143596E+03 0.  0.
         23    2    4    4    0    0 -0.37213187660E+03  0.15210861464E+03  0.11535834986E+03  0.42822208591E+03  0.91909965460E+02 0.  0.
         23    2    4    4    0    0  0.89461184400E+02 -0.19845176902E+03  0.10650245456E+04  0.10908363809E+04  0.90886297104E+02 0.  0.
          3    1    3    3  502    0  0.28254510494E+03  0.58523298368E+02  0.18583976963E+03  0.34321004175E+03  0.00000000000E+00 0. -1.
         -3    1    3    3    0  502  0.12558725822E+00 -0.12180143986E+02  0.72559994326E+01  0.14178194788E+02  0.00000000000E+00 0.  1.
         11    1    5    5    0    0 -0.29964955786E+02  0.28561283434E+02  0.38226780857E+02  0.56346537262E+02  0.00000000000E+00 0. -1.
        -11    1    5    5    0    0 -0.34216692082E+03  0.12354733121E+03  0.77131569007E+02  0.37187554865E+03  0.00000000000E+00 0.  1.
          2    1    6    6  503    0  0.27632763260E+01 -0.80962862822E+01  0.22496328556E+03  0.22512588789E+03  0.00000000000E+00 0. -1.
         -2    1    6    6    0  503  0.86697908074E+02 -0.19035548274E+03  0.84006126003E+03  0.86571049299E+03  0.00000000000E+00 0.  1.
<mgrwt>
<rscale>  0 0.12785181E+04</rscale>
<asrwt>0</asrwt>
<pdfrwt beam="1">  1        2 0.24999425E+00 0.12785181E+04</pdfrwt>
<pdfrwt beam="2">  1       -2 0.38689850E-01 0.12785181E+04</pdfrwt>
<totfact> 0.66890177E+01</totfact>
</mgrwt>
</event>
<event>
12    2  0.3552864E-008  0.1602220E+04  0.7818608E-02  0.8819185E-01
          2   -1    0    0  501    0  0.00000000000E+00  0.00000000000E+00  0.81844817970E+03  0.81844817970E+03  0.00000000000E+00 0.  1.
         -2   -1    0    0    0  501 -0.00000000000E+00 -0.00000000000E+00 -0.78413946046E+03  0.78413946046E+03  0.00000000000E+00 0. -1.
         23    2    1    2    0    0 -0.61010174319E+02 -0.28562559668E+03  0.46629116632E+03  0.55744059466E+03  0.89489339790E+02 0.  0.
        254    2    1    2    0    0  0.61010174319E+02  0.28562559668E+03 -0.43198244708E+03  0.10451470455E+04  0.90576999801E+03 0.  0.
         23    2    4    4    0    0  0.29204365621E+03  0.50035158364E+03 -0.40630455606E+03  0.71318978893E+03  0.88966726242E+02 0.  0.
         23    2    4    4    0    0 -0.23103348189E+03 -0.21472598696E+03 -0.25677891019E+02  0.33195725657E+03  0.10026239013E+03 0.  0.
          4    1    3    3  502    0 -0.51647388051E+02 -0.68612985317E+02  0.16502194609E+03  0.18603074245E+03  0.00000000000E+00 0. -1.
         -4    1    3    3    0  502 -0.93627862682E+01 -0.21701261136E+03  0.30126922024E+03  0.37140985221E+03  0.00000000000E+00 0.  1.
         11    1    5    5    0    0  0.25353951607E+03  0.40707602376E+03 -0.37083407529E+03  0.60622692676E+03  0.00000000000E+00 0. -1.
        -11    1    5    5    0    0  0.38504140140E+02  0.93275559876E+02 -0.35470480772E+02  0.10696286217E+03  0.00000000000E+00 0.  1.
          1    1    6    6  503    0 -0.23400524543E+03 -0.18964283119E+03 -0.83346029405E+01  0.30131764621E+03  0.00000000000E+00 0. -1.
         -1    1    6    6    0  503  0.29717635404E+01 -0.25083155768E+02 -0.17343288079E+02  0.30639610363E+02  0.00000000000E+00 0.  1.
<mgrwt>
<rscale>  0 0.16022204E+04</rscale>
<asrwt>0</asrwt>
<pdfrwt beam="1">  1        2 0.12591510E+00 0.16022204E+04</pdfrwt>
<pdfrwt beam="2">  1       -2 0.12063684E+00 0.16022204E+04</pdfrwt>
<totfact> 0.16785778E+01</totfact>
</mgrwt>
</event>
<event>
12    2  0.3552864E-008  0.1499246E+04  0.7818608E-02  0.8884955E-01
         -1   -1    0    0    0  501 -0.00000000000E+00  0.00000000000E+00  0.52078494164E+03  0.52078494164E+03  0.00000000000E+00 0.  1.
          1   -1    0    0  501    0  0.00000000000E+00 -0.00000000000E+00 -0.10790141665E+04  0.10790141665E+04  0.00000000000E+00 0. -1.
         23    2    1    2    0    0  0.31690706980E+03  0.31889026347E+03 -0.33382635120E+03  0.56741084500E+03  0.91618465603E+02 0.  0.
        254    2    1    2    0    0 -0.31690706980E+03 -0.31889026347E+03 -0.22440287363E+03  0.10323882631E+04  0.90185796281E+03 0.  0.
         23    2    4    4    0    0 -0.98466279049E+02 -0.59957210106E+03 -0.25245161329E+03  0.66415474676E+03  0.90484242345E+02 0.  0.
         23    2    4    4    0    0 -0.21844079075E+03  0.28068183758E+03  0.28048739662E+02  0.36823351635E+03  0.91162041178E+02 0.  0.
          4    1    3    3  502    0  0.28395742579E+03  0.25668710620E+03 -0.31166254449E+03  0.49361283592E+03  0.00000000000E+00 0. -1.
         -4    1    3    3    0  502  0.32949644013E+02  0.62203157275E+02 -0.22163806702E+02  0.73798009073E+02  0.00000000000E+00 0.  1.
         11    1    5    5    0    0 -0.41521063758E+02 -0.47599150183E+03 -0.18600265067E+03  0.51272692011E+03  0.00000000000E+00 0. -1.
        -11    1    5    5    0    0 -0.56945215291E+02 -0.12358059923E+03 -0.66448962622E+02  0.15142782665E+03  0.00000000000E+00 0.  1.
          3    1    6    6  503    0 -0.10862333588E+03  0.15074011445E+03 -0.30546706634E+02  0.18829421788E+03  0.00000000000E+00 0. -1.
         -3    1    6    6    0  503 -0.10981745487E+03  0.12994172314E+03  0.58595446296E+02  0.17993929846E+03  0.00000000000E+00 0.  1.
<mgrwt>
<rscale>  0 0.14992456E+04</rscale>
<asrwt>0</asrwt>
<pdfrwt beam="1">  1        1 0.16600218E+00 0.14992456E+04</pdfrwt>
<pdfrwt beam="2">  1       -1 0.80120761E-01 0.14992456E+04</pdfrwt>
<totfact> 0.19785297E+01</totfact>
</mgrwt>
</event>
<event>
12    2  0.3552864E-008  0.1877772E+04  0.7818608E-02  0.8666001E-01
          2   -1    0    0  501    0  0.00000000000E+00  0.00000000000E+00  0.61664711983E+03  0.61664711983E+03  0.00000000000E+00 0. -1.
         -2   -1    0    0    0  501 -0.00000000000E+00 -0.00000000000E+00 -0.14295156555E+04  0.14295156555E+04  0.00000000000E+00 0.  1.
         23    2    1    2    0    0 -0.67908349067E+03 -0.89721774627E+02 -0.69916644179E+02  0.69459154798E+03  0.91458718864E+02 0.  0.
        254    2    1    2    0    0  0.67908349067E+03  0.89721774627E+02 -0.74295189147E+03  0.13515712273E+04  0.89753155117E+03 0.  0.
         23    2    4    4    0    0 -0.12497103975E+03  0.23495575663E+03 -0.72141630472E+02  0.29052790632E+03  0.91542783205E+02 0.  0.
         23    2    4    4    0    0  0.80405453042E+03 -0.14523398200E+03 -0.67081026099E+03  0.10610433210E+04  0.90718936017E+02 0.  0.
          1    1    3    3  502    0 -0.14818032288E+03 -0.17388626076E+02  0.22461524628E+02  0.15087840300E+03  0.00000000000E+00 0. -1.
         -1    1    3    3    0  502 -0.53090316779E+03 -0.72333148550E+02 -0.92378168807E+02  0.54371314498E+03  0.00000000000E+00 0.  1.
         11    1    5    5    0    0 -0.30200933515E+02  0.91934370814E+02 -0.69141620130E+02  0.11893102436E+03  0.00000000000E+00 0. -1.
        -11    1    5    5    0    0 -0.94770106238E+02  0.14302138581E+03 -0.30000103417E+01  0.17159688196E+03  0.00000000000E+00 0.  1.
          1    1    6    6  503    0  0.44555453665E+02  0.11350999412E+02 -0.28391296396E+02  0.54037943613E+02  0.00000000000E+00 0. -1.
         -1    1    6    6    0  503  0.75949907676E+03 -0.15658498141E+03 -0.64241896460E+03  0.10070053774E+04  0.00000000000E+00 0.  1.
<mgrwt>
<rscale>  0 0.18777718E+04</rscale>
<asrwt>0</asrwt>
<pdfrwt beam="1">  1        2 0.94868789E-01 0.18777718E+04</pdfrwt>
<pdfrwt beam="2">  1       -2 0.21992548E+00 0.18777718E+04</pdfrwt>
<totfact> 0.44504811E+00</totfact>
</mgrwt>
</event>
<event>
12    2  0.3552864E-008  0.1449540E+04  0.7818608E-02  0.8918719E-01
         -2   -1    0    0    0  501 -0.00000000000E+00  0.00000000000E+00  0.39277920358E+03  0.39277920358E+03  0.00000000000E+00 0.  1.
          2   -1    0    0  501    0  0.00000000000E+00 -0.00000000000E+00 -0.13373718367E+04  0.13373718367E+04  0.00000000000E+00 0. -1.
         23    2    1    2    0    0 -0.14113468852E+03  0.12641551252E+03 -0.87146123933E+03  0.89666452027E+03  0.93073563106E+02 0.  0.
        254    2    1    2    0    0  0.14113468852E+03 -0.12641551252E+03 -0.73131393768E+02  0.83348651998E+03  0.80836359154E+03 0.  0.
         23    2    4    4    0    0 -0.26696393247E+03 -0.23991666987E+03  0.67852794125E+02  0.37656916329E+03  0.91490892136E+02 0.  0.
         23    2    4    4    0    0  0.40809862099E+03  0.11350115735E+03 -0.14098418789E+03  0.45691735669E+03  0.97313577870E+02 0.  0.
          4    1    3    3  502    0 -0.12948662383E+03  0.68736740696E+02 -0.70576871173E+03  0.72083354509E+03  0.00000000000E+00 0. -1.
         -4    1    3    3    0  502 -0.11648064692E+02  0.57678771825E+02 -0.16569252760E+03  0.17583097518E+03  0.00000000000E+00 0.  1.
         11    1    5    5    0    0 -0.92791946942E+02 -0.13073277585E+03  0.58950222237E+02  0.17081139540E+03  0.00000000000E+00 0.  1.
        -11    1    5    5    0    0 -0.17417198553E+03 -0.10918389403E+03  0.89025718888E+01  0.20575776788E+03  0.00000000000E+00 0. -1.
          1    1    6    6  503    0  0.69868038306E+02  0.38384630632E+02  0.72928686226E+01  0.80050662572E+02  0.00000000000E+00 0. -1.
         -1    1    6    6    0  503  0.33823058268E+03  0.75116526722E+02 -0.14827705652E+03  0.37686669412E+03  0.00000000000E+00 0.  1.
<mgrwt>
<rscale>  0 0.14495404E+04</rscale>
<asrwt>0</asrwt>
<pdfrwt beam="1">  1        2 0.20574951E+00 0.14495404E+04</pdfrwt>
<pdfrwt beam="2">  1       -2 0.60427571E-01 0.14495404E+04</pdfrwt>
<totfact> 0.38902888E+01</totfact>
</mgrwt>
</event>
<event>
12    2  0.3552864E-008  0.1427030E+04  0.7818608E-02  0.8934482E-01
          1   -1    0    0  501    0  0.00000000000E+00  0.00000000000E+00  0.31505128841E+04  0.31505128841E+04  0.00000000000E+00 0. -1.
         -1   -1    0    0    0  501 -0.00000000000E+00 -0.00000000000E+00 -0.16159389188E+03  0.16159389188E+03  0.00000000000E+00 0.  1.
         23    2    1    2    0    0 -0.16602488622E+03  0.51318832803E+02  0.18165876000E+04  0.18270028652E+04  0.88040193304E+02 0.  0.
        254    2    1    2    0    0  0.16602488622E+03 -0.51318832803E+02  0.11723313923E+04  0.14851039108E+04  0.89497198120E+03 0.  0.
         23    2    4    4    0    0 -0.17489860861E+03 -0.38079430516E+03  0.54111547825E+03  0.69038775349E+03  0.90749453015E+02 0.  0.
         23    2    4    4    0    0  0.34092349483E+03  0.32947547236E+03  0.63121591402E+03  0.79471615731E+03  0.91418402796E+02 0.  0.
          4    1    3    3  502    0 -0.68959676192E+02  0.57814683597E+02  0.11270153748E+04  0.11306023305E+04  0.00000000000E+00 0.  1.
         -4    1    3    3    0  502 -0.97065210027E+02 -0.64958507940E+01  0.68957222517E+03  0.69640053475E+03  0.00000000000E+00 0. -1.
         11    1    5    5    0    0 -0.26642435523E+02 -0.86905093133E+02  0.18073223285E+03  0.20230287832E+03  0.00000000000E+00 0.  1.
        -11    1    5    5    0    0 -0.14825617309E+03 -0.29388921203E+03  0.36038324540E+03  0.48808487517E+03  0.00000000000E+00 0. -1.
          3    1    6    6  503    0  0.32771077385E+03  0.31749147134E+03  0.62851265590E+03  0.77667454206E+03  0.00000000000E+00 0. -1.
         -3    1    6    6    0  503  0.13212720985E+02  0.11984001023E+02  0.27032581213E+01  0.18041615250E+02  0.00000000000E+00 0.  1.
<mgrwt>
<rscale>  0 0.14270300E+04</rscale>
<asrwt>0</asrwt>
<pdfrwt beam="1">  1        1 0.48469425E+00 0.14270300E+04</pdfrwt>
<pdfrwt beam="2">  1       -1 0.24860601E-01 0.14270300E+04</pdfrwt>
<totfact> 0.64277925E+00</totfact>
</mgrwt>
</event>
<event>
12    2  0.3552864E-008  0.2395243E+04  0.7818608E-02  0.8441287E-01
         -2   -1    0    0    0  501 -0.00000000000E+00  0.00000000000E+00  0.23469739375E+04  0.23469739375E+04  0.00000000000E+00 0.  1.
          2   -1    0    0  501    0  0.00000000000E+00 -0.00000000000E+00 -0.61112601863E+03  0.61112601863E+03  0.00000000000E+00 0. -1.
         23    2    1    2    0    0  0.10150705093E+04 -0.12063520887E+03  0.58885679898E+03  0.11832661208E+04  0.91898805642E+02 0.  0.
        254    2    1    2    0    0 -0.10150705093E+04  0.12063520887E+03  0.11469911198E+04  0.17748338353E+04  0.88855248660E+03 0.  0.
         23    2    4    4    0    0 -0.10461296959E+04  0.13513775585E+03  0.12490006291E+04  0.16373280790E+04  0.90504767713E+02 0.  0.
         23    2    4    4    0    0  0.31059186638E+02 -0.14502546976E+02 -0.10200950924E+03  0.13750575632E+03  0.85597290271E+02 0.  0.
          1    1    3    3  502    0  0.88810285451E+03 -0.13590905219E+03  0.51363856771E+03  0.10349021832E+04  0.00000000000E+00 0. -1.
         -1    1    3    3    0  502  0.12696765478E+03  0.15273843318E+02  0.75218231273E+02  0.14836393755E+03  0.00000000000E+00 0.  1.
         11    1    5    5    0    0 -0.29622366780E+03  0.51982964853E+02  0.41733596099E+03  0.51441228050E+03  0.00000000000E+00 0.  1.
        -11    1    5    5    0    0 -0.74990602813E+03  0.83154790993E+02  0.83166466809E+03  0.11229157985E+04  0.00000000000E+00 0. -1.
          3    1    6    6  503    0  0.46630348707E+02 -0.40582519199E+02 -0.67266831255E+02  0.91357303332E+02  0.00000000000E+00 0. -1.
         -3    1    6    6    0  503 -0.15571162069E+02  0.26079972224E+02 -0.34742677986E+02  0.46148452986E+02  0.00000000000E+00 0.  1.
<mgrwt>
<rscale>  0 0.23952427E+04</rscale>
<asrwt>0</asrwt>
<pdfrwt beam="1">  1        2 0.94019389E-01 0.23952427E+04</pdfrwt>
<pdfrwt beam="2">  1       -2 0.36107291E+00 0.23952427E+04</pdfrwt>
<totfact> 0.57805831E-01</totfact>
</mgrwt>
</event>
<event>
12    2  0.3552864E-008  0.5326194E+04  0.7818608E-02  0.7780068E-01
         -2   -1    0    0    0  501 -0.00000000000E+00  0.00000000000E+00  0.32123948935E+04  0.32123948935E+04  0.00000000000E+00 0. -1.
          2   -1    0    0  501    0  0.00000000000E+00 -0.00000000000E+00 -0.22077255485E+04  0.22077255485E+04  0.00000000000E+00 0.  1.
         23    2    1    2    0    0  0.13617984040E+04 -0.21740595561E+04  0.83810427934E+03  0.27003059711E+04  0.90574322430E+02 0.  0.
        254    2    1    2    0    0 -0.13617984040E+04  0.21740595561E+04  0.16656506573E+03  0.27198144709E+04  0.88804109626E+03 0.  0.
         23    2    4    4    0    0 -0.44724257360E+02  0.54932965356E+03  0.27659578432E+03  0.62343342507E+03  0.91655224156E+02 0.  0.
         23    2    4    4    0    0 -0.13170741466E+04  0.16247299025E+04 -0.11003071860E+03  0.20963810459E+04  0.90967942245E+02 0.  0.
          1    1    3    3  502    0  0.93058466525E+03 -0.14051944890E+04  0.54493977509E+03  0.17713042454E+04  0.00000000000E+00 0. -1.
         -1    1    3    3    0  502  0.43121373875E+03 -0.76886506704E+03  0.29316450425E+03  0.92900172570E+03  0.00000000000E+00 0.  1.
         11    1    5    5    0    0 -0.14989208402E+02  0.36992323668E+03  0.13927679054E+03  0.39555770981E+03  0.00000000000E+00 0.  1.
        -11    1    5    5    0    0 -0.29735048958E+02  0.17940641688E+03  0.13731899378E+03  0.22787571526E+03  0.00000000000E+00 0. -1.
          3    1    6    6  503    0 -0.31516071979E+03  0.35092938923E+03 -0.54496253067E+02  0.47481318129E+03  0.00000000000E+00 0. -1.
         -3    1    6    6    0  503 -0.10019134268E+04  0.12738005133E+04 -0.55534465531E+02  0.16215678646E+04  0.00000000000E+00 0.  1.
<mgrwt>
<rscale>  0 0.53261942E+04</rscale>
<asrwt>0</asrwt>
<pdfrwt beam="1">  1        2 0.33965008E+00 0.53261942E+04</pdfrwt>
<pdfrwt beam="2">  1       -2 0.49421460E+00 0.53261942E+04</pdfrwt>
<totfact> 0.65532388E-03</totfact>
</mgrwt>
</event>
<event>
12    2  0.3552864E-008  0.2619831E+04  0.7818608E-02  0.8361496E-01
         -1   -1    0    0    0  501 -0.00000000000E+00  0.00000000000E+00  0.99974471244E+03  0.99974471244E+03  0.00000000000E+00 0.  1.
          1   -1    0    0  501    0  0.00000000000E+00 -0.00000000000E+00 -0.17163165237E+04  0.17163165237E+04  0.00000000000E+00 0. -1.
         23    2    1    2    0    0 -0.68861192748E+03 -0.77330098742E+03  0.20887464062E+03  0.10602716505E+04  0.91468866753E+02 0.  0.
        254    2    1    2    0    0  0.68861192748E+03  0.77330098742E+03 -0.92544645192E+03  0.16557895857E+04  0.90166912601E+03 0.  0.
         23    2    4    4    0    0  0.54029046717E+03  0.12196431517E+03 -0.78804290517E+03  0.96740934127E+03  0.89889543928E+02 0.  0.
         23    2    4    4    0    0  0.14832146031E+03  0.65133667225E+03 -0.13740354675E+03  0.68838024439E+03  0.93535608186E+02 0.  0.
          1    1    3    3  502    0 -0.71582294886E+02 -0.44067245720E+02  0.22336979049E+02  0.86976362993E+02  0.00000000000E+00 0. -1.
         -1    1    3    3    0  502 -0.61702963259E+03 -0.72923374170E+03  0.18653766157E+03  0.97329528753E+03  0.00000000000E+00 0.  1.
         11    1    5    5    0    0  0.35652594258E+03  0.59673886987E+02 -0.44529872722E+03  0.57355268022E+03  0.00000000000E+00 0. -1.
        -11    1    5    5    0    0  0.18376452459E+03  0.62290428186E+02 -0.34274417795E+03  0.39385666106E+03  0.00000000000E+00 0.  1.
          1    1    6    6  503    0  0.42337958068E+02  0.39135167567E+03 -0.86989512900E+02  0.40313249943E+03  0.00000000000E+00 0. -1.
         -1    1    6    6    0  503  0.10598350224E+03  0.25998499658E+03 -0.50414033853E+02  0.28524774496E+03  0.00000000000E+00 0.  1.
<mgrwt>
<rscale>  0 0.26198308E+04</rscale>
<asrwt>0</asrwt>
<pdfrwt beam="1">  1        1 0.26404870E+00 0.26198308E+04</pdfrwt>
<pdfrwt beam="2">  1       -1 0.15380688E+00 0.26198308E+04</pdfrwt>
<totfact> 0.13312598E+00</totfact>
</mgrwt>
</event>
<event>
12    2  0.3552864E-008  0.1920241E+04  0.7818608E-02  0.8644846E-01
          2   -1    0    0  501    0  0.00000000000E+00  0.00000000000E+00  0.53526680090E+03  0.53526680090E+03  0.00000000000E+00 0. -1.
         -2   -1    0    0    0  501 -0.00000000000E+00 -0.00000000000E+00 -0.17221909907E+04  0.17221909907E+04  0.00000000000E+00 0.  1.
         23    2    1    2    0    0 -0.24580288656E+03  0.63765639377E+03 -0.77395091832E+03  0.10367280790E+04  0.93703523180E+02 0.  0.
        254    2    1    2    0    0  0.24580288656E+03 -0.63765639377E+03 -0.41297327145E+03  0.12207297126E+04  0.92336849234E+03 0.  0.
         23    2    4    4    0    0 -0.66640523391E+02  0.53146780903E+02 -0.43921872682E+03  0.45625789731E+03  0.89401561474E+02 0.  0.
         23    2    4    4    0    0  0.31244340996E+03 -0.69080317467E+03  0.26245455369E+02  0.76447181525E+03  0.94331446659E+02 0.  0.
          2    1    3    3  502    0 -0.59676626300E+02  0.15700110888E+03 -0.25466442493E+03  0.30506493938E+03  0.00000000000E+00 0. -1.
         -2    1    3    3    0  502 -0.18612626026E+03  0.48065528489E+03 -0.51928649339E+03  0.73166313962E+03  0.00000000000E+00 0.  1.
         11    1    5    5    0    0 -0.63710244311E+02 -0.17744063371E+01 -0.17178475594E+03  0.18322703436E+03  0.00000000000E+00 0. -1.
        -11    1    5    5    0    0 -0.29302790801E+01  0.54921187240E+02 -0.26743397088E+03  0.27303086295E+03  0.00000000000E+00 0.  1.
          4    1    6    6  503    0  0.20837016303E+03 -0.42322253063E+03  0.59378345293E+02  0.47545896055E+03  0.00000000000E+00 0. -1.
         -4    1    6    6    0  503  0.10407324692E+03 -0.26758064404E+03 -0.33132889924E+02  0.28901285471E+03  0.00000000000E+00 0.  1.
<mgrwt>
<rscale>  0 0.19202413E+04</rscale>
<asrwt>0</asrwt>
<pdfrwt beam="1">  1        2 0.82348739E-01 0.19202413E+04</pdfrwt>
<pdfrwt beam="2">  1       -2 0.26495246E+00 0.19202413E+04</pdfrwt>
<totfact> 0.27665975E+00</totfact>
</mgrwt>
</event>
<event>
12    2  0.3552864E-008  0.2902755E+04  0.7818608E-02  0.8272058E-01
         -3   -1    0    0    0  501 -0.00000000000E+00  0.00000000000E+00  0.32911613782E+04  0.32911613782E+04  0.00000000000E+00 0. -1.
          3   -1    0    0  501    0  0.00000000000E+00 -0.00000000000E+00 -0.64004652163E+03  0.64004652163E+03  0.00000000000E+00 0.  1.
         23    2    1    2    0    0 -0.35682125223E+03  0.55395757884E+03 -0.33218834741E+03  0.74428445670E+03  0.97055907284E+02 0.  0.
        254    2    1    2    0    0  0.35682125223E+03 -0.55395757884E+03  0.29833032040E+04  0.31869234431E+04  0.90674837760E+03 0.  0.
         23    2    4    4    0    0  0.15296629171E+03  0.19929760922E+03  0.35695069960E+03  0.44558156879E+03  0.89503681807E+02 0.  0.
         23    2    4    4    0    0  0.20385496052E+03 -0.75325518806E+03  0.26263525044E+04  0.27413418743E+04  0.90981160040E+02 0.  0.
          4    1    3    3  502    0 -0.69282004170E+02  0.12592006185E+03 -0.11785138168E+03  0.18586233142E+03  0.00000000000E+00 0. -1.
         -4    1    3    3    0  502 -0.28753924806E+03  0.42803751699E+03 -0.21433696573E+03  0.55842212528E+03  0.00000000000E+00 0.  1.
         11    1    5    5    0    0 -0.38227303099E+01 -0.48231659574E+01  0.86839960948E+00  0.62153290144E+01  0.00000000000E+00 0. -1.
        -11    1    5    5    0    0  0.15678902202E+03  0.20412077518E+03  0.35608229999E+03  0.43936623977E+03  0.00000000000E+00 0.  1.
          3    1    6    6  503    0  0.14173895906E+03 -0.35228283121E+03  0.12424144966E+04  0.12991485316E+04  0.00000000000E+00 0. -1.
         -3    1    6    6    0  503  0.62116001456E+02 -0.40097235686E+03  0.13839380077E+04  0.14421933428E+04  0.00000000000E+00 0.  1.
<mgrwt>
<rscale>  0 0.29027548E+04</rscale>
<asrwt>0</asrwt>
<pdfrwt beam="1">  1        3 0.98468698E-01 0.29027548E+04</pdfrwt>
<pdfrwt beam="2">  1       -3 0.50633251E+00 0.29027548E+04</pdfrwt>
<totfact> 0.57132785E-03</totfact>
</mgrwt>
</event>
<event>
12    2  0.3552864E-008  0.1994708E+04  0.7818608E-02  0.8609099E-01
          2   -1    0    0  501    0  0.00000000000E+00  0.00000000000E+00  0.76529543210E+03  0.76529543210E+03  0.00000000000E+00 0. -1.
         -2   -1    0    0    0  501 -0.00000000000E+00 -0.00000000000E+00 -0.12997793530E+04  0.12997793530E+04  0.00000000000E+00 0.  1.
         23    2    1    2    0    0  0.16558337463E+02  0.28040769663E+03  0.55290277911E+03  0.62713956575E+03  0.93273237898E+02 0.  0.
        254    2    1    2    0    0 -0.16558337463E+02 -0.28040769663E+03 -0.10873867001E+04  0.14379352194E+04  0.89796726270E+03 0.  0.
         23    2    4    4    0    0 -0.19517811270E+03 -0.55850391387E+03 -0.66000987724E+03  0.88998829223E+03  0.80280787008E+02 0.  0.
         23    2    4    4    0    0  0.17861977523E+03  0.27809621724E+03 -0.42737682281E+03  0.54794692718E+03  0.91391225949E+02 0.  0.
          4    1    3    3  502    0 -0.27259903742E+02  0.14494084395E+03  0.34453708807E+03  0.37477560707E+03  0.00000000000E+00 0. -1.
         -4    1    3    3    0  502  0.43818241205E+02  0.13546685268E+03  0.20836569103E+03  0.25236395867E+03  0.00000000000E+00 0.  1.
         11    1    5    5    0    0 -0.42506036126E+02 -0.20362279722E+03 -0.27229225137E+03  0.34265445687E+03  0.00000000000E+00 0. -1.
        -11    1    5    5    0    0 -0.15267207657E+03 -0.35488111665E+03 -0.38771762587E+03  0.54733383536E+03  0.00000000000E+00 0.  1.
          2    1    6    6  503    0  0.10094615497E+02  0.57916406721E+02 -0.12229086819E+03  0.13568812724E+03  0.00000000000E+00 0. -1.
         -2    1    6    6    0  503  0.16852515974E+03  0.22017981052E+03 -0.30508595462E+03  0.41225879994E+03  0.00000000000E+00 0.  1.
<mgrwt>
<rscale>  0 0.19947082E+04</rscale>
<asrwt>0</asrwt>
<pdfrwt beam="1">  1        2 0.11773776E+00 0.19947082E+04</pdfrwt>
<pdfrwt beam="2">  1       -2 0.19996605E+00 0.19947082E+04</pdfrwt>
<totfact> 0.45149383E+00</totfact>
</mgrwt>
</event>
<event>
12    2  0.3552864E-008  0.1244432E+04  0.7818608E-02  0.9074830E-01
         -2   -1    0    0    0  501 -0.00000000000E+00  0.00000000000E+00  0.42551463303E+03  0.42551463303E+03  0.00000000000E+00 0.  1.
          2   -1    0    0  501    0  0.00000000000E+00 -0.00000000000E+00 -0.90984652404E+03  0.90984652404E+03  0.00000000000E+00 0. -1.
         23    2    1    2    0    0 -0.63303943045E+02 -0.77264319443E+02  0.17901031922E+03  0.22435696561E+03  0.91182176801E+02 0.  0.
        254    2    1    2    0    0  0.63303943045E+02  0.77264319443E+02 -0.66334221023E+03  0.11110041915E+04  0.88562422128E+03 0.  0.
         23    2    4    4    0    0  0.32817301781E+03 -0.26073622712E+03 -0.45165905544E+03  0.62335239402E+03  0.94294193969E+02 0.  0.
         23    2    4    4    0    0 -0.26486907477E+03  0.33800054656E+03 -0.21168315479E+03  0.48765179745E+03  0.92706640987E+02 0.  0.
          3    1    3    3  502    0 -0.55912441149E+02 -0.69338945729E+02  0.66081203402E+02  0.11090904342E+03  0.00000000000E+00 0. -1.
         -3    1    3    3    0  502 -0.73915018960E+01 -0.79253737134E+01  0.11292911582E+03  0.11344792219E+03  0.00000000000E+00 0.  1.
         11    1    5    5    0    0  0.11458962596E+02 -0.44804017788E+02 -0.51681374556E+02  0.69351801056E+02  0.00000000000E+00 0. -1.
        -11    1    5    5    0    0  0.31671405522E+03 -0.21593220933E+03 -0.39997768088E+03  0.55400059296E+03  0.00000000000E+00 0.  1.
          1    1    6    6  503    0 -0.33420891099E+02  0.39310854293E+02  0.53786553667E+01  0.51877058134E+02  0.00000000000E+00 0. -1.
         -1    1    6    6    0  503 -0.23144818367E+03  0.29868969227E+03 -0.21706181016E+03  0.43577473931E+03  0.00000000000E+00 0.  1.
<mgrwt>
<rscale>  0 0.12444324E+04</rscale>
<asrwt>0</asrwt>
<pdfrwt beam="1">  1        2 0.13997639E+00 0.12444324E+04</pdfrwt>
<pdfrwt beam="2">  1       -2 0.65463790E-01 0.12444324E+04</pdfrwt>
<totfact> 0.61097932E+01</totfact>
</mgrwt>
</event>
<event>
12    2  0.3552864E-008  0.1958995E+04  0.7818608E-02  0.8626035E-01
         -2   -1    0    0    0  501 -0.00000000000E+00  0.00000000000E+00  0.33543359266E+03  0.33543359266E+03  0.00000000000E+00 0. -1.
          2   -1    0    0  501    0  0.00000000000E+00 -0.00000000000E+00 -0.28602242023E+04  0.28602242023E+04  0.00000000000E+00 0.  1.
         23    2    1    2    0    0  0.30712258768E+03 -0.43050924696E+03 -0.19135088451E+04  0.19873297183E+04  0.91108798835E+02 0.  0.
        254    2    1    2    0    0 -0.30712258768E+03  0.43050924696E+03 -0.61128176452E+03  0.12083280767E+04  0.89818085577E+03 0.  0.
         23    2    4    4    0    0 -0.19924524897E+03  0.27818097735E+01  0.18929028979E+03  0.28956283764E+03  0.91155995013E+02 0.  0.
         23    2    4    4    0    0 -0.10787733870E+03  0.42772743719E+03 -0.80057205431E+03  0.91876523904E+03  0.92874482999E+02 0.  0.
          3    1    3    3  502    0  0.11326756808E+03 -0.17743094622E+03 -0.60603673690E+03  0.64155421371E+03  0.00000000000E+00 0. -1.
         -3    1    3    3    0  502  0.19385501960E+03 -0.25307830074E+03 -0.13074721082E+04  0.13457755046E+04  0.00000000000E+00 0.  1.
         11    1    5    5    0    0 -0.50888359866E+02  0.37144718495E+02  0.32120492357E+02  0.70718323730E+02  0.00000000000E+00 0. -1.
        -11    1    5    5    0    0 -0.14835688911E+03 -0.34362908722E+02  0.15716979743E+03  0.21884451391E+03  0.00000000000E+00 0.  1.
          1    1    6    6  503    0  0.47148736566E+01 -0.27652041877E+01 -0.14373024453E+02  0.15377263077E+02  0.00000000000E+00 0. -1.
         -1    1    6    6    0  503 -0.11259221236E+03  0.43049264137E+03 -0.78619902986E+03  0.90338797596E+03  0.00000000000E+00 0.  1.
<mgrwt>
<rscale>  0 0.19589949E+04</rscale>
<asrwt>0</asrwt>
<pdfrwt beam="1">  1        2 0.44003448E+00 0.19589949E+04</pdfrwt>
<pdfrwt beam="2">  1       -2 0.51605169E-01 0.19589949E+04</pdfrwt>
<totfact> 0.70404646E+00</totfact>
</mgrwt>
</event>
<event>
12    2  0.3552864E-008  0.1406922E+04  0.7818608E-02  0.8948823E-01
         -2   -1    0    0    0  501 -0.00000000000E+00  0.00000000000E+00  0.25186909097E+03  0.25186909097E+03  0.00000000000E+00 0.  1.
          2   -1    0    0  501    0  0.00000000000E+00 -0.00000000000E+00 -0.19647409817E+04  0.19647409817E+04  0.00000000000E+00 0. -1.
         23    2    1    2    0    0  0.40031163265E+03  0.24214948348E+02 -0.37056870421E+03  0.55443184591E+03  0.96113163827E+02 0.  0.
        254    2    1    2    0    0 -0.40031163265E+03 -0.24214948348E+02 -0.13423031865E+04  0.16621782267E+04  0.89455175703E+03 0.  0.
         23    2    4    4    0    0 -0.64487984550E+03  0.45831874644E+02 -0.11746554348E+04  0.13440210308E+04  0.92771572636E+02 0.  0.
         23    2    4    4    0    0  0.24456821285E+03 -0.70046822991E+02 -0.16764775166E+03  0.31815719597E+03  0.91640954619E+02 0.  0.
          4    1    3    3  502    0  0.21482225839E+03  0.79091475172E+00 -0.25982399030E+03  0.33713162739E+03  0.00000000000E+00 0. -1.
         -4    1    3    3    0  502  0.18548937425E+03  0.23424033596E+02 -0.11074471391E+03  0.21730021852E+03  0.00000000000E+00 0.  1.
         11    1    5    5    0    0 -0.47042090169E+03  0.46900040793E+02 -0.77287215229E+03  0.90599492403E+03  0.00000000000E+00 0. -1.
        -11    1    5    5    0    0 -0.17445894381E+03 -0.10681661490E+01 -0.40178328256E+03  0.43802610675E+03  0.00000000000E+00 0.  1.
          4    1    6    6  503    0  0.25130489498E+03 -0.74578456556E+02 -0.16432499460E+03  0.30938455080E+03  0.00000000000E+00 0. -1.
         -4    1    6    6    0  503 -0.67366821279E+01  0.45316335652E+01 -0.33227570658E+01  0.87726451758E+01  0.00000000000E+00 0.  1.
<mgrwt>
<rscale>  0 0.14069222E+04</rscale>
<asrwt>0</asrwt>
<pdfrwt beam="1">  1        2 0.30226784E+00 0.14069222E+04</pdfrwt>
<pdfrwt beam="2">  1       -2 0.38749091E-01 0.14069222E+04</pdfrwt>
<totfact> 0.42813707E+01</totfact>
</mgrwt>
</event>
<event>
12    2  0.3552864E-008  0.1621203E+04  0.7818608E-02  0.8807627E-01
         -1   -1    0    0    0  501 -0.00000000000E+00  0.00000000000E+00  0.61799468640E+03  0.61799468640E+03  0.00000000000E+00 0.  1.
          1   -1    0    0  501    0  0.00000000000E+00 -0.00000000000E+00 -0.10632370611E+04  0.10632370611E+04  0.00000000000E+00 0. -1.
         23    2    1    2    0    0 -0.22655860964E+03  0.22854808869E+03  0.30236186288E+03  0.45076926051E+03  0.90593585027E+02 0.  0.
        254    2    1    2    0    0  0.22655860964E+03 -0.22854808869E+03 -0.74760423762E+03  0.12304624870E+04  0.92280160568E+03 0.  0.
         23    2    4    4    0    0  0.48286724326E+03 -0.41850310504E+03 -0.49215698370E+03  0.81186980455E+03  0.92781783742E+02 0.  0.
         23    2    4    4    0    0 -0.25630863363E+03  0.18995501634E+03 -0.25544725392E+03  0.41859268248E+03  0.90495913643E+02 0.  0.
          4    1    3    3  502    0 -0.68168272622E+00 -0.73535207838E+01  0.39891124868E+01  0.83935676378E+01  0.00000000000E+00 0. -1.
         -4    1    3    3    0  502 -0.22587692691E+03  0.23590160948E+03  0.29837275039E+03  0.44237569287E+03  0.00000000000E+00 0.  1.
         11    1    5    5    0    0  0.96152454700E+02 -0.46942735838E+02 -0.56957237951E+02  0.12121485861E+03  0.00000000000E+00 0. -1.
        -11    1    5    5    0    0  0.38671478856E+03 -0.37156036920E+03 -0.43519974575E+03  0.69065494594E+03  0.00000000000E+00 0.  1.
          3    1    6    6  503    0 -0.82135792539E+02  0.18816666248E+02 -0.91997943093E+02  0.12475566872E+03  0.00000000000E+00 0. -1.
         -3    1    6    6    0  503 -0.17417284109E+03  0.17113835009E+03 -0.16344931083E+03  0.29383701376E+03  0.00000000000E+00 0.  1.
<mgrwt>
<rscale>  0 0.16212031E+04</rscale>
<asrwt>0</asrwt>
<pdfrwt beam="1">  1        1 0.16357493E+00 0.16212031E+04</pdfrwt>
<pdfrwt beam="2">  1       -1 0.95076107E-01 0.16212031E+04</pdfrwt>
<totfact> 0.13844354E+01</totfact>
</mgrwt>
</event>
<event>
12    2  0.3552864E-008  0.1943542E+04  0.7818608E-02  0.8633481E-01
         -2   -1    0    0    0  501 -0.00000000000E+00  0.00000000000E+00  0.55768969599E+03  0.55768969599E+03  0.00000000000E+00 0.  1.
          2   -1    0    0  501    0  0.00000000000E+00 -0.00000000000E+00 -0.16933059762E+04  0.16933059762E+04  0.00000000000E+00 0. -1.
         23    2    1    2    0    0 -0.18440406662E+02  0.65722046407E+03 -0.87922100466E+03  0.11017371731E+04  0.92284541585E+02 0.  0.
        254    2    1    2    0    0  0.18440406662E+02 -0.65722046407E+03 -0.25639527555E+03  0.11492584991E+04  0.90707098584E+03 0.  0.
         23    2    4    4    0    0 -0.40453428307E+03 -0.17946820834E+03  0.10318089250E+02  0.45179061816E+03  0.90285523269E+02 0.  0.
         23    2    4    4    0    0  0.42297468973E+03 -0.47775225573E+03 -0.26671336480E+03  0.69746788090E+03  0.90391481450E+02 0.  0.
          1    1    3    3  502    0 -0.15245319568E+02  0.97423440496E+02 -0.18770887343E+03  0.21203388335E+03  0.00000000000E+00 0. -1.
         -1    1    3    3    0  502 -0.31950870936E+01  0.55979702357E+03 -0.69151213123E+03  0.88970328977E+03  0.00000000000E+00 0.  1.
         11    1    5    5    0    0 -0.55613940535E+02 -0.56363147218E+02 -0.16271403114E+02  0.80836089127E+02  0.00000000000E+00 0. -1.
        -11    1    5    5    0    0 -0.34892034253E+03 -0.12310506112E+03  0.26589492364E+02  0.37095452903E+03  0.00000000000E+00 0.  1.
          4    1    6    6  503    0  0.78730727447E+02 -0.61123233650E+02 -0.13294091658E+02  0.10055500987E+03  0.00000000000E+00 0. -1.
         -4    1    6    6    0  503  0.34424396228E+03 -0.41662902208E+03 -0.25341927314E+03  0.59691287103E+03  0.00000000000E+00 0.  1.
<mgrwt>
<rscale>  0 0.19435424E+04</rscale>
<asrwt>0</asrwt>
<pdfrwt beam="1">  1        2 0.26050861E+00 0.19435424E+04</pdfrwt>
<pdfrwt beam="2">  1       -2 0.85798416E-01 0.19435424E+04</pdfrwt>
<totfact> 0.10888192E+01</totfact>
</mgrwt>
</event>
<event>
12    2  0.3552864E-008  0.1294689E+04  0.7818608E-02  0.9033788E-01
          1   -1    0    0  501    0  0.00000000000E+00  0.00000000000E+00  0.16437622430E+04  0.16437622430E+04  0.00000000000E+00 0. -1.
         -1   -1    0    0    0  501 -0.00000000000E+00 -0.00000000000E+00 -0.25493635294E+03  0.25493635294E+03  0.00000000000E+00 0.  1.
         23    2    1    2    0    0  0.21721761052E+03 -0.25485300490E+03  0.24216033488E+03  0.42321946751E+03  0.91321111824E+02 0.  0.
        254    2    1    2    0    0 -0.21721761052E+03  0.25485300490E+03  0.11466655552E+04  0.14754791285E+04  0.86606190228E+03 0.  0.
         23    2    4    4    0    0  0.14089192473E+03 -0.22155007681E+03  0.16455593237E+03  0.32376109075E+03  0.93848910579E+02 0.  0.
         23    2    4    4    0    0 -0.35810953524E+03  0.47640308171E+03  0.98210962287E+03  0.11517180377E+04  0.81931627675E+02 0.  0.
          4    1    3    3  502    0  0.29166110493E+02 -0.97181200704E+01  0.52068997965E+02  0.60467217631E+02  0.00000000000E+00 0. -1.
         -4    1    3    3    0  502  0.18805150002E+03 -0.24513488483E+03  0.19009133691E+03  0.36275224988E+03  0.00000000000E+00 0.  1.
         11    1    5    5    0    0  0.10259505668E+02 -0.29986058051E+02  0.63218723985E+02  0.70717948190E+02  0.00000000000E+00 0. -1.
        -11    1    5    5    0    0  0.13063241906E+03 -0.19156401876E+03  0.10133720838E+03  0.25304314256E+03  0.00000000000E+00 0.  1.
          1    1    6    6  503    0 -0.71384491052E+02  0.12222087389E+03  0.17746348723E+03  0.22699554374E+03  0.00000000000E+00 0. -1.
         -1    1    6    6    0  503 -0.28672504419E+03  0.35418220782E+03  0.80464613564E+03  0.92472249399E+03  0.00000000000E+00 0.  1.
<mgrwt>
<rscale>  0 0.12946888E+04</rscale>
<asrwt>0</asrwt>
<pdfrwt beam="1">  1        1 0.25288649E+00 0.12946888E+04</pdfrwt>
<pdfrwt beam="2">  1       -1 0.39220978E-01 0.12946888E+04</pdfrwt>
<totfact> 0.32320500E+01</totfact>
</mgrwt>
</event>
<event>
12    2  0.3552864E-008  0.1373858E+04  0.7818608E-02  0.8972962E-01
         -1   -1    0    0    0  501 -0.00000000000E+00  0.00000000000E+00  0.51809963982E+03  0.51809963982E+03  0.00000000000E+00 0.  1.
          1   -1    0    0  501    0  0.00000000000E+00 -0.00000000000E+00 -0.91077315644E+03  0.91077315644E+03  0.00000000000E+00 0. -1.
         23    2    1    2    0    0 -0.73596451554E+02  0.56841430110E+02  0.27036349053E+03  0.30014197622E+03  0.91331281700E+02 0.  0.
        254    2    1    2    0    0  0.73596451554E+02 -0.56841430110E+02 -0.66303700715E+03  0.11287308200E+04  0.90871767089E+03 0.  0.
         23    2    4    4    0    0 -0.40261683304E+02 -0.18178680156E+03  0.17385194697E+03  0.27023456279E+03  0.90192988061E+02 0.  0.
         23    2    4    4    0    0  0.11385813486E+03  0.12494537145E+03 -0.83688895412E+03  0.85849625724E+03  0.89764589070E+02 0.  0.
          2    1    3    3  502    0  0.10907736555E+02 -0.15022821720E+02  0.27963375350E+02  0.33565074857E+02  0.00000000000E+00 0. -1.
         -2    1    3    3    0  502 -0.84504188109E+02  0.71864251830E+02  0.24240011518E+03  0.26657690136E+03  0.00000000000E+00 0.  1.
         11    1    5    5    0    0 -0.23333070866E+02 -0.50025879286E+02  0.10949580285E+03  0.12262280226E+03  0.00000000000E+00 0. -1.
        -11    1    5    5    0    0 -0.16928612437E+02 -0.13176092228E+03  0.64356144123E+02  0.14761176052E+03  0.00000000000E+00 0.  1.
          1    1    6    6  503    0  0.62384511190E+02  0.76215211891E+02 -0.27404247360E+03  0.29120416050E+03  0.00000000000E+00 0.  1.
         -1    1    6    6    0  503  0.51473623668E+02  0.48730159562E+02 -0.56284648053E+03  0.56729209674E+03  0.00000000000E+00 0. -1.
<mgrwt>
<rscale>  0 0.13738577E+04</rscale>
<asrwt>0</asrwt>
<pdfrwt beam="1">  1        1 0.14011895E+00 0.13738577E+04</pdfrwt>
<pdfrwt beam="2">  1       -1 0.79707638E-01 0.13738577E+04</pdfrwt>
<totfact> 0.27396642E+01</totfact>
</mgrwt>
</event>
<event>
12    2  0.3552864E-008  0.1264635E+04  0.7818608E-02  0.9058089E-01
         -2   -1    0    0    0  501 -0.00000000000E+00  0.00000000000E+00  0.39666003977E+03  0.39666003977E+03  0.00000000000E+00 0.  1.
          2   -1    0    0  501    0  0.00000000000E+00 -0.00000000000E+00 -0.10079807733E+04  0.10079807733E+04  0.00000000000E+00 0. -1.
         23    2    1    2    0    0  0.30653825366E+02 -0.65603829612E+01 -0.48238822921E+03  0.49261419255E+03  0.94803182357E+02 0.  0.
        254    2    1    2    0    0 -0.30653825366E+02  0.65603829612E+01 -0.12893250430E+03  0.91202662049E+03  0.90232270845E+03 0.  0.
         23    2    4    4    0    0 -0.17382420592E+03 -0.29943169450E+03 -0.34846945846E+03  0.49903484465E+03  0.87923935647E+02 0.  0.
         23    2    4    4    0    0  0.14317038056E+03  0.30599207746E+03  0.21953695416E+03  0.41299177584E+03  0.90756946465E+02 0.  0.
          1    1    3    3  502    0  0.36668119838E+02 -0.45969546557E+02 -0.32351910020E+03  0.32881964421E+03  0.00000000000E+00 0. -1.
         -1    1    3    3    0  502 -0.60142944718E+01  0.39409163596E+02 -0.15886912901E+03  0.16379454834E+03  0.00000000000E+00 0.  1.
         11    1    5    5    0    0 -0.11360902725E+03 -0.22173499994E+03 -0.19325097254E+03  0.31530835647E+03  0.00000000000E+00 0. -1.
        -11    1    5    5    0    0 -0.60215178670E+02 -0.77696694561E+02 -0.15521848592E+03  0.18372648818E+03  0.00000000000E+00 0.  1.
          2    1    6    6  503    0  0.96855987497E+02  0.25978932363E+03  0.20789880931E+03  0.34654507629E+03  0.00000000000E+00 0. -1.
         -2    1    6    6    0  503  0.46314393058E+02  0.46202753828E+02  0.11638144853E+02  0.66446699552E+02  0.00000000000E+00 0.  1.
<mgrwt>
<rscale>  0 0.12646354E+04</rscale>
<asrwt>0</asrwt>
<pdfrwt beam="1">  1        2 0.15507397E+00 0.12646354E+04</pdfrwt>
<pdfrwt beam="2">  1       -2 0.61024621E-01 0.12646354E+04</pdfrwt>
<totfact> 0.61118484E+01</totfact>
</mgrwt>
</event>
<event>
12    2  0.3552864E-008  0.2162480E+04  0.7818608E-02  0.8534209E-01
          1   -1    0    0  501    0  0.00000000000E+00  0.00000000000E+00  0.15253726257E+04  0.15253726257E+04  0.00000000000E+00 0. -1.
         -1   -1    0    0    0  501 -0.00000000000E+00 -0.00000000000E+00 -0.76642223907E+03  0.76642223907E+03  0.00000000000E+00 0.  1.
         23    2    1    2    0    0 -0.14544155655E+03  0.87207955960E+03  0.17914752797E+03  0.90658363575E+03  0.90133496407E+02 0.  0.
        254    2    1    2    0    0  0.14544155655E+03 -0.87207955960E+03  0.57980285863E+03  0.13852112290E+04  0.89496524482E+03 0.  0.
         23    2    4    4    0    0  0.10570292917E+03 -0.67912237222E+03 -0.72992583494E+02  0.69706512140E+03  0.90507240284E+02 0.  0.
         23    2    4    4    0    0  0.39738627387E+02 -0.19295718738E+03  0.65279544212E+03  0.68814610760E+03  0.92690568455E+02 0.  0.
          3    1    3    3  502    0 -0.66058510769E+02  0.18964999876E+03  0.57210755466E+02  0.20881551527E+03  0.00000000000E+00 0. -1.
         -3    1    3    3    0  502 -0.79383045783E+02  0.68242956084E+03  0.12193677251E+03  0.69776812048E+03  0.00000000000E+00 0.  1.
         11    1    5    5    0    0  0.60933377604E+02 -0.26375221834E+03  0.11029270262E+02  0.27092388966E+03  0.00000000000E+00 0.  1.
        -11    1    5    5    0    0  0.44769551561E+02 -0.41537015389E+03 -0.84021853756E+02  0.42614123175E+03  0.00000000000E+00 0. -1.
          1    1    6    6  503    0 -0.13979748501E+02 -0.68588670643E+02  0.34228137440E+03  0.34936568001E+03  0.00000000000E+00 0. -1.
         -1    1    6    6    0  503  0.53718375887E+02 -0.12436851674E+03  0.31051406773E+03  0.33878042759E+03  0.00000000000E+00 0.  1.
<mgrwt>
<rscale>  0 0.21624796E+04</rscale>
<asrwt>0</asrwt>
<pdfrwt beam="1">  1        1 0.23467271E+00 0.21624796E+04</pdfrwt>
<pdfrwt beam="2">  1       -1 0.11791111E+00 0.21624796E+04</pdfrwt>
<totfact> 0.37132918E+00</totfact>
</mgrwt>
</event>
<event>
12    2  0.3552864E-008  0.1671574E+04  0.7818608E-02  0.8777745E-01
         -2   -1    0    0    0  501 -0.00000000000E+00  0.00000000000E+00  0.15249482886E+04  0.15249482886E+04  0.00000000000E+00 0.  1.
          2   -1    0    0  501    0  0.00000000000E+00 -0.00000000000E+00 -0.45807468817E+03  0.45807468817E+03  0.00000000000E+00 0. -1.
         23    2    1    2    0    0 -0.47441678767E+02  0.68900913588E+02 -0.31055412905E+03  0.33521442997E+03  0.94481734813E+02 0.  0.
        254    2    1    2    0    0  0.47441678767E+02 -0.68900913588E+02  0.13774277295E+04  0.16478085468E+04  0.90053751074E+03 0.  0.
         23    2    4    4    0    0 -0.26082948424E+03  0.19379531479E+03  0.10942739576E+04  0.11452388340E+04  0.92454576761E+02 0.  0.
         23    2    4    4    0    0  0.30827116301E+03 -0.26269622837E+03  0.28315377194E+03  0.50256971286E+03  0.91432157210E+02 0.  0.
          1    1    3    3  502    0 -0.72366888076E+02  0.69759039944E+02 -0.26222645152E+03  0.28083091358E+03  0.00000000000E+00 0. -1.
         -1    1    3    3    0  502  0.24925209309E+02 -0.85812635652E+00 -0.48327677526E+02  0.54383516390E+02  0.00000000000E+00 0.  1.
         11    1    5    5    0    0 -0.18885508394E+02  0.30360047491E+01  0.16761049954E+03  0.16869842710E+03  0.00000000000E+00 0.  1.
        -11    1    5    5    0    0 -0.24194397585E+03  0.19075931004E+03  0.92666345804E+03  0.97654040689E+03  0.00000000000E+00 0. -1.
          1    1    6    6  503    0  0.52000902774E+02 -0.94351322175E+02  0.59704818820E+02  0.12317033440E+03  0.00000000000E+00 0. -1.
         -1    1    6    6    0  503  0.25627026024E+03 -0.16834490620E+03  0.22344895312E+03  0.37939937846E+03  0.00000000000E+00 0.  1.
<mgrwt>
<rscale>  0 0.16715744E+04</rscale>
<asrwt>0</asrwt>
<pdfrwt beam="1">  1        2 0.70473030E-01 0.16715744E+04</pdfrwt>
<pdfrwt beam="2">  1       -2 0.23460743E+00 0.16715744E+04</pdfrwt>
<totfact> 0.51980250E+00</totfact>
</mgrwt>
</event>
<event>
12    2  0.3552864E-008  0.2147783E+04  0.7818608E-02  0.8540482E-01
         -1   -1    0    0    0  501 -0.00000000000E+00  0.00000000000E+00  0.64705623522E+03  0.64705623522E+03  0.00000000000E+00 0.  1.
          1   -1    0    0  501    0  0.00000000000E+00 -0.00000000000E+00 -0.17822918520E+04  0.17822918520E+04  0.00000000000E+00 0. -1.
         23    2    1    2    0    0 -0.71465742263E+03  0.19782119608E+03 -0.96852615703E+03  0.12231189707E+04  0.90047999251E+02 0.  0.
        254    2    1    2    0    0  0.71465742263E+03 -0.19782119608E+03 -0.16670945975E+03  0.12062291166E+04  0.93665798474E+03 0.  0.
         23    2    4    4    0    0  0.35758504281E+03 -0.26309329821E+03 -0.52134635206E+03  0.69054019157E+03  0.89210935224E+02 0.  0.
         23    2    4    4    0    0  0.35707237982E+03  0.65272102128E+02  0.35463689231E+03  0.51568892501E+03  0.91687568623E+02 0.  0.
          1    1    3    3  502    0 -0.32241791568E+03  0.13478666218E+03 -0.46902188876E+03  0.58489510922E+03  0.00000000000E+00 0. -1.
         -1    1    3    3    0  502 -0.39223950695E+03  0.63034533898E+02 -0.49950426827E+03  0.63822386143E+03  0.00000000000E+00 0.  1.
         11    1    5    5    0    0 -0.72698870175E+00  0.50675208871E+01 -0.79709918561E+01  0.94733833282E+01  0.00000000000E+00 0. -1.
        -11    1    5    5    0    0  0.35831203151E+03 -0.26816081910E+03 -0.51337536020E+03  0.68106680824E+03  0.00000000000E+00 0.  1.
          4    1    6    6  503    0  0.77989555300E+02  0.12321104772E+02  0.30367380711E+02  0.84595260919E+02  0.00000000000E+00 0. -1.
         -4    1    6    6    0  503  0.27908282452E+03  0.52950997356E+02  0.32426951160E+03  0.43109366409E+03  0.00000000000E+00 0.  1.
<mgrwt>
<rscale>  0 0.21477831E+04</rscale>
<asrwt>0</asrwt>
<pdfrwt beam="1">  1        1 0.27419875E+00 0.21477831E+04</pdfrwt>
<pdfrwt beam="2">  1       -1 0.99547112E-01 0.21477831E+04</pdfrwt>
<totfact> 0.36941263E+00</totfact>
</mgrwt>
</event>
<event>
12    2  0.3552864E-008  0.1674312E+04  0.7818608E-02  0.8776152E-01
          1   -1    0    0  501    0  0.00000000000E+00  0.00000000000E+00  0.28473706638E+04  0.28473706638E+04  0.00000000000E+00 0. -1.
         -1   -1    0    0    0  501 -0.00000000000E+00 -0.00000000000E+00 -0.24613235108E+03  0.24613235108E+03  0.00000000000E+00 0.  1.
         23    2    1    2    0    0 -0.37960596634E+03 -0.45718686045E+03  0.96386165602E+03  0.11362137433E+04  0.93977994774E+02 0.  0.
        254    2    1    2    0    0  0.37960596634E+03  0.45718686045E+03  0.16373766567E+04  0.19572892715E+04  0.89266929017E+03 0.  0.
         23    2    4    4    0    0  0.19341551934E+03 -0.16062761122E+03  0.96547829594E+02  0.28422324688E+03  0.90832692685E+02 0.  0.
         23    2    4    4    0    0  0.18619044700E+03  0.61781447167E+03  0.15408288271E+04  0.16730660246E+04  0.92923864263E+02 0.  0.
          2    1    3    3  502    0 -0.23012788838E+03 -0.32053195302E+03  0.56884768517E+03  0.69230576109E+03  0.00000000000E+00 0.  1.
         -2    1    3    3    0  502 -0.14947807796E+03 -0.13665490744E+03  0.39501397085E+03  0.44390798222E+03  0.00000000000E+00 0. -1.
         11    1    5    5    0    0  0.72633840656E+02 -0.30619356209E+02 -0.63738592460E+01  0.79081261148E+02  0.00000000000E+00 0. -1.
        -11    1    5    5    0    0  0.12078167868E+03 -0.13000825501E+03  0.10292168884E+03  0.20514198573E+03  0.00000000000E+00 0.  1.
          4    1    6    6  503    0  0.48915562085E+02  0.99665706160E+02  0.19452067390E+03  0.22397383278E+03  0.00000000000E+00 0. -1.
         -4    1    6    6    0  503  0.13727488492E+03  0.51814876551E+03  0.13463081532E+04  0.14490921919E+04  0.00000000000E+00 0.  1.
<mgrwt>
<rscale>  0 0.16743118E+04</rscale>
<asrwt>0</asrwt>
<pdfrwt beam="1">  1        1 0.43805700E+00 0.16743118E+04</pdfrwt>
<pdfrwt beam="2">  1       -1 0.37866518E-01 0.16743118E+04</pdfrwt>
<totfact> 0.49648579E+00</totfact>
</mgrwt>
</event>
<event>
12    2  0.3552864E-008  0.1573731E+04  0.7818608E-02  0.8836850E-01
          2   -1    0    0  501    0  0.00000000000E+00  0.00000000000E+00  0.13475476820E+04  0.13475476820E+04  0.00000000000E+00 0.  1.
         -2   -1    0    0    0  501 -0.00000000000E+00 -0.00000000000E+00 -0.45946990047E+03  0.45946990047E+03  0.00000000000E+00 0. -1.
         23    2    1    2    0    0  0.17608110174E+03  0.41707418105E+03  0.60376320860E+03  0.76017904616E+03  0.91579163947E+02 0.  0.
        254    2    1    2    0    0 -0.17608110174E+03 -0.41707418105E+03  0.28431457295E+03  0.10468385363E+04  0.90004484215E+03 0.  0.
         23    2    4    4    0    0 -0.36737493001E+03 -0.19010088262E+03  0.50992720862E+03  0.66302726109E+03  0.92069028948E+02 0.  0.
         23    2    4    4    0    0  0.19129382827E+03 -0.22697329843E+03 -0.22561263567E+03  0.38381127524E+03  0.91103384643E+02 0.  0.
          4    1    3    3  502    0  0.22710991449E+01 -0.15122135758E+01  0.24600393999E+02  0.24751243729E+02  0.00000000000E+00 0. -1.
         -4    1    3    3    0  502  0.17381000260E+03  0.41858639463E+03  0.57916281460E+03  0.73542780243E+03  0.00000000000E+00 0.  1.
         11    1    5    5    0    0 -0.32693241238E+03 -0.19728111102E+03  0.44710822606E+03  0.58797143199E+03  0.00000000000E+00 0. -1.
        -11    1    5    5    0    0 -0.40442517629E+02  0.71802284016E+01  0.62818982562E+02  0.75055829102E+02  0.00000000000E+00 0.  1.
          2    1    6    6  503    0  0.17358687442E+03 -0.17379581309E+03 -0.21568561845E+03  0.32689092008E+03  0.00000000000E+00 0. -1.
         -2    1    6    6    0  503  0.17706953844E+02 -0.53177485339E+02 -0.99270172205E+01  0.56920355166E+02  0.00000000000E+00 0.  1.
<mgrwt>
<rscale>  0 0.15737314E+04</rscale>
<asrwt>0</asrwt>
<pdfrwt beam="1">  1        2 0.20731503E+00 0.15737314E+04</pdfrwt>
<pdfrwt beam="2">  1       -2 0.70687678E-01 0.15737314E+04</pdfrwt>
<totfact> 0.27120936E+01</totfact>
</mgrwt>
</event>
<event>
12    2  0.3552864E-008  0.1375721E+04  0.7818608E-02  0.8971582E-01
          2   -1    0    0  501    0  0.00000000000E+00  0.00000000000E+00  0.12766190874E+04  0.12766190874E+04  0.00000000000E+00 0.  1.
         -2   -1    0    0    0  501 -0.00000000000E+00 -0.00000000000E+00 -0.37062926229E+03  0.37062926229E+03  0.00000000000E+00 0. -1.
         23    2    1    2    0    0  0.44116691582E+02 -0.69682162740E+02 -0.18873774148E+03  0.22445713103E+03  0.89203039917E+02 0.  0.
        254    2    1    2    0    0 -0.44116691582E+02  0.69682162740E+02  0.10947275666E+04  0.14227912187E+04  0.90504393297E+03 0.  0.
         23    2    4    4    0    0  0.15147977300E+02  0.31114816413E+02 -0.14677583381E+03  0.17612913390E+03  0.90998535170E+02 0.  0.
         23    2    4    4    0    0 -0.59264668882E+02  0.38567346327E+02  0.12415034004E+04  0.12466620848E+04  0.88520727513E+02 0.  0.
          4    1    3    3  502    0  0.48720237118E+02 -0.86984265794E+02 -0.13506113232E+03  0.16787326608E+03  0.00000000000E+00 0. -1.
         -4    1    3    3    0  502 -0.46035455361E+01  0.17302103054E+02 -0.53676609166E+02  0.56583864954E+02  0.00000000000E+00 0.  1.
         11    1    5    5    0    0  0.35918848933E+02  0.15201140080E+02 -0.14471835366E+03  0.14988208783E+03  0.00000000000E+00 0.  1.
        -11    1    5    5    0    0 -0.20770871633E+02  0.15913676334E+02 -0.20574801513E+01  0.26247046070E+02  0.00000000000E+00 0. -1.
          2    1    6    6  503    0 -0.78754376740E+01 -0.41310549441E-01  0.84074098986E+03  0.84077787569E+03  0.00000000000E+00 0. -1.
         -2    1    6    6    0  503 -0.51389231208E+02  0.38608656876E+02  0.40076241058E+03  0.40588420911E+03  0.00000000000E+00 0.  1.
<mgrwt>
<rscale>  0 0.13757215E+04</rscale>
<asrwt>0</asrwt>
<pdfrwt beam="1">  1        2 0.19640293E+00 0.13757215E+04</pdfrwt>
<pdfrwt beam="2">  1       -2 0.57019887E-01 0.13757215E+04</pdfrwt>
<totfact> 0.47957075E+01</totfact>
</mgrwt>
</event>
<event>
12    2  0.3552864E-008  0.1877196E+04  0.7818608E-02  0.8666291E-01
          1   -1    0    0  501    0  0.00000000000E+00  0.00000000000E+00  0.16228628613E+04  0.16228628613E+04  0.00000000000E+00 0. -1.
         -1   -1    0    0    0  501 -0.00000000000E+00 -0.00000000000E+00 -0.54284692361E+03  0.54284692361E+03  0.00000000000E+00 0.  1.
         23    2    1    2    0    0 -0.40940548509E+03 -0.37947477678E+03 -0.12735789410E+03  0.57999809604E+03  0.92540806028E+02 0.  0.
        254    2    1    2    0    0  0.40940548509E+03  0.37947477678E+03  0.12073738318E+04  0.15857116889E+04  0.86320103864E+03 0.  0.
         23    2    4    4    0    0  0.87178596001E+02  0.47425879756E+03  0.21879364908E+03  0.53750612385E+03  0.92307408362E+02 0.  0.
         23    2    4    4    0    0  0.32222688909E+03 -0.94784020775E+02  0.98858018275E+03  0.10482055651E+04  0.92897525481E+02 0.  0.
          2    1    3    3  502    0 -0.39535811903E+02 -0.56213724880E+01 -0.98687723139E+01  0.41134813947E+02  0.00000000000E+00 0. -1.
         -2    1    3    3    0  502 -0.36986967319E+03 -0.37385340429E+03 -0.11748912178E+03  0.53886328209E+03  0.00000000000E+00 0.  1.
         11    1    5    5    0    0  0.81158536760E+02  0.47169241108E+03  0.22465094519E+03  0.52872344939E+03  0.00000000000E+00 0.  1.
        -11    1    5    5    0    0  0.60200592410E+01  0.25663864724E+01 -0.58572961158E+01  0.87826744548E+01  0.00000000000E+00 0. -1.
          3    1    6    6  503    0  0.55570964617E+02  0.86803361067E+01  0.24829583047E+03  0.25458652709E+03  0.00000000000E+00 0. -1.
         -3    1    6    6    0  503  0.26665592448E+03 -0.10346435688E+03  0.74028435228E+03  0.79361903797E+03  0.00000000000E+00 0.  1.
<mgrwt>
<rscale>  0 0.18771959E+04</rscale>
<asrwt>0</asrwt>
<pdfrwt beam="1">  1        1 0.24967121E+00 0.18771959E+04</pdfrwt>
<pdfrwt beam="2">  1       -1 0.83514912E-01 0.18771959E+04</pdfrwt>
<totfact> 0.71756496E+00</totfact>
</mgrwt>
</event>
<event>
12    2  0.3552864E-008  0.1349658E+04  0.7818608E-02  0.8991087E-01
         -1   -1    0    0    0  501 -0.00000000000E+00  0.00000000000E+00  0.26937303599E+03  0.26937303599E+03  0.00000000000E+00 0.  1.
          1   -1    0    0  501    0  0.00000000000E+00 -0.00000000000E+00 -0.16905709278E+04  0.16905709278E+04  0.00000000000E+00 0. -1.
         23    2    1    2    0    0  0.24839547842E+03  0.73083481131E+02  0.12359565419E+02  0.27358582833E+03  0.87492500792E+02 0.  0.
        254    2    1    2    0    0 -0.24839547842E+03 -0.73083481131E+02 -0.14335574572E+04  0.16863581354E+04  0.84951472553E+03 0.  0.
         23    2    4    4    0    0 -0.21006117039E+03 -0.27648711449E+03 -0.14187619596E+04  0.14635932899E+04  0.93000002064E+02 0.  0.
         23    2    4    4    0    0 -0.38334308027E+02  0.20340363336E+03 -0.14795497635E+02  0.22276484558E+03  0.81010569927E+02 0.  0.
          1    1    3    3  502    0 -0.54749324783E+01  0.10369983874E+02 -0.79477240743E+00  0.11753429898E+02  0.00000000000E+00 0. -1.
         -1    1    3    3    0  502  0.25387041089E+03  0.62713497257E+02  0.13154337826E+02  0.26183239843E+03  0.00000000000E+00 0.  1.
         11    1    5    5    0    0 -0.73059518294E+02 -0.12009894016E+03 -0.40420747793E+03  0.42795459322E+03  0.00000000000E+00 0.  1.
        -11    1    5    5    0    0 -0.13700165209E+03 -0.15638817433E+03 -0.10145544816E+04  0.10356386966E+04  0.00000000000E+00 0. -1.
          1    1    6    6  503    0 -0.24737133252E+02  0.65555561953E+02  0.31353248090E+02  0.76762514487E+02  0.00000000000E+00 0. -1.
         -1    1    6    6    0  503 -0.13597174774E+02  0.13784807140E+03 -0.46148745726E+02  0.14600233109E+03  0.00000000000E+00 0.  1.
<mgrwt>
<rscale>  0 0.13496581E+04</rscale>
<asrwt>0</asrwt>
<pdfrwt beam="1">  1        1 0.26008783E+00 0.13496581E+04</pdfrwt>
<pdfrwt beam="2">  1       -1 0.41442006E-01 0.13496581E+04</pdfrwt>
<totfact> 0.27025602E+01</totfact>
</mgrwt>
</event>
<event>
12    2  0.3552864E-008  0.1294224E+04  0.7818608E-02  0.9034158E-01
          1   -1    0    0  501    0  0.00000000000E+00  0.00000000000E+00  0.37058360101E+03  0.37058360101E+03  0.00000000000E+00 0. -1.
         -1   -1    0    0    0  501 -0.00000000000E+00 -0.00000000000E+00 -0.11299858618E+04  0.11299858618E+04  0.00000000000E+00 0.  1.
         23    2    1    2    0    0  0.32024421864E+01  0.20600399927E+03 -0.63694310595E+03  0.67581388070E+03  0.92628169443E+02 0.  0.
        254    2    1    2    0    0 -0.32024421864E+01 -0.20600399927E+03 -0.12245915488E+03  0.82475558216E+03  0.78916260830E+03 0.  0.
         23    2    4    4    0    0 -0.22793233639E+03  0.71455615535E+02  0.20668174485E+03  0.33068159950E+03  0.97846418585E+02 0.  0.
         23    2    4    4    0    0  0.22472989420E+03 -0.27745961480E+03 -0.32914089973E+03  0.49407398267E+03  0.91038482394E+02 0.  0.
          1    1    3    3  502    0 -0.24617316389E+02  0.13074505628E+02 -0.12370612162E+03  0.12680756874E+03  0.00000000000E+00 0. -1.
         -1    1    3    3    0  502  0.27819758575E+02  0.19292949364E+03 -0.51323698433E+03  0.54900631195E+03  0.00000000000E+00 0.  1.
         11    1    5    5    0    0 -0.76213952698E+02  0.42198500857E+02  0.13423755879E+03  0.16002812956E+03  0.00000000000E+00 0. -1.
        -11    1    5    5    0    0 -0.15171838369E+03  0.29257114678E+02  0.72444186062E+02  0.17065346994E+03  0.00000000000E+00 0.  1.
          1    1    6    6  503    0  0.32735382185E+02 -0.54935782261E+02 -0.11084874163E+03  0.12797261011E+03  0.00000000000E+00 0. -1.
         -1    1    6    6    0  503  0.19199451202E+03 -0.22252383254E+03 -0.21829215811E+03  0.36610137255E+03  0.00000000000E+00 0.  1.
<mgrwt>
<rscale>  0 0.12942244E+04</rscale>
<asrwt>0</asrwt>
<pdfrwt beam="1">  1        1 0.57012862E-01 0.12942244E+04</pdfrwt>
<pdfrwt beam="2">  1       -1 0.17384398E+00 0.12942244E+04</pdfrwt>
<totfact> 0.15053114E+01</totfact>
</mgrwt>
</event>
<event>
12    2  0.3552864E-008  0.2361157E+04  0.7818608E-02  0.8454191E-01
         -2   -1    0    0    0  501 -0.00000000000E+00  0.00000000000E+00  0.75063358638E+03  0.75063358638E+03  0.00000000000E+00 0.  1.
          2   -1    0    0  501    0  0.00000000000E+00 -0.00000000000E+00 -0.18567857871E+04  0.18567857871E+04  0.00000000000E+00 0. -1.
         23    2    1    2    0    0 -0.20555593095E+03  0.65868987390E+03 -0.12928334879E+04  0.14681233360E+04  0.88555697668E+02 0.  0.
        254    2    1    2    0    0  0.20555593095E+03 -0.65868987390E+03  0.18668128717E+03  0.11392960375E+04  0.88714145845E+03 0.  0.
         23    2    4    4    0    0  0.42170365667E+03 -0.13223670793E+03 -0.14553056686E+03  0.47386904946E+03  0.89734102620E+02 0.  0.
         23    2    4    4    0    0 -0.21614772571E+03 -0.52645316597E+03  0.33221185403E+03  0.66542698802E+03  0.92496406058E+02 0.  0.
          3    1    3    3  502    0 -0.14522702338E+03  0.54800910572E+03 -0.11044359838E+04  0.12414442036E+04  0.00000000000E+00 0. -1.
         -3    1    3    3    0  502 -0.60328907570E+02  0.11068076818E+03 -0.18839750409E+03  0.22667913244E+03  0.00000000000E+00 0.  1.
         11    1    5    5    0    0  0.96820198054E+02 -0.69792802976E+02 -0.51047790775E+02  0.12981164448E+03  0.00000000000E+00 0.  1.
        -11    1    5    5    0    0  0.32488345861E+03 -0.62443904951E+02 -0.94482776089E+02  0.34405740498E+03  0.00000000000E+00 0. -1.
          1    1    6    6  503    0 -0.97253292928E+01 -0.10941925800E+03  0.45762039162E+02  0.11900134570E+03  0.00000000000E+00 0. -1.
         -1    1    6    6    0  503 -0.20642239642E+03 -0.41703390798E+03  0.28644981487E+03  0.54642564232E+03  0.00000000000E+00 0.  1.
<mgrwt>
<rscale>  0 0.23611572E+04</rscale>
<asrwt>0</asrwt>
<pdfrwt beam="1">  1        2 0.28565935E+00 0.23611572E+04</pdfrwt>
<pdfrwt beam="2">  1       -2 0.11548209E+00 0.23611572E+04</pdfrwt>
<totfact> 0.42252375E+00</totfact>
</mgrwt>
</event>
<event>
12    2  0.3552864E-008  0.3930630E+04  0.7818608E-02  0.8018689E-01
          2   -1    0    0  501    0  0.00000000000E+00  0.00000000000E+00  0.34324572556E+04  0.34324572556E+04  0.00000000000E+00 0. -1.
         -2   -1    0    0    0  501 -0.00000000000E+00 -0.00000000000E+00 -0.11252762263E+04  0.11252762263E+04  0.00000000000E+00 0.  1.
         23    2    1    2    0    0 -0.14015096681E+04  0.96323872329E+03  0.19553281710E+04  0.25929884764E+04  0.90679625008E+02 0.  0.
        254    2    1    2    0    0  0.14015096681E+04 -0.96323872329E+03  0.35185285823E+03  0.19647450055E+04  0.91889298336E+03 0.  0.
         23    2    4    4    0    0  0.60505279523E+03 -0.66104034970E+02 -0.19203803873E+03  0.64438829074E+03  0.88876501259E+02 0.  0.
         23    2    4    4    0    0  0.79645687289E+03 -0.89713468832E+03  0.54389089695E+03  0.13203567147E+04  0.91270734782E+02 0.  0.
          4    1    3    3  502    0 -0.97269484251E+03  0.66209544580E+03  0.12885646832E+04  0.17449654950E+04  0.00000000000E+00 0. -1.
         -4    1    3    3    0  502 -0.42881482561E+03  0.30114327749E+03  0.66676348784E+03  0.84802298138E+03  0.00000000000E+00 0.  1.
         11    1    5    5    0    0 -0.47793145876E+00 -0.57724209541E+01 -0.53024210865E+01  0.78527021801E+01  0.00000000000E+00 0.  1.
        -11    1    5    5    0    0  0.60553072669E+03 -0.60331614016E+02 -0.18673561764E+03  0.63653558856E+03  0.00000000000E+00 0. -1.
          2    1    6    6  503    0  0.78337823855E+03 -0.86531135159E+03  0.53873591625E+03  0.12855666405E+04  0.00000000000E+00 0. -1.
         -2    1    6    6    0  503  0.13078634337E+02 -0.31823336733E+02  0.51549807038E+01  0.34790074202E+02  0.00000000000E+00 0.  1.
<mgrwt>
<rscale>  0 0.39306297E+04</rscale>
<asrwt>0</asrwt>
<pdfrwt beam="1">  1        2 0.52807034E+00 0.39306297E+04</pdfrwt>
<pdfrwt beam="2">  1       -2 0.17311942E+00 0.39306297E+04</pdfrwt>
<totfact> 0.14531194E-01</totfact>
</mgrwt>
</event>
<event>
12    2  0.3552864E-008  0.2730191E+04  0.7818608E-02  0.8325275E-01
         -2   -1    0    0    0  501 -0.00000000000E+00  0.00000000000E+00  0.80217703273E+03  0.80217703273E+03  0.00000000000E+00 0. -1.
          2   -1    0    0  501    0  0.00000000000E+00 -0.00000000000E+00 -0.23230351707E+04  0.23230351707E+04  0.00000000000E+00 0.  1.
         23    2    1    2    0    0  0.60736386601E+03  0.60934058618E+03  0.25483611076E+03  0.90197399341E+03  0.91808636553E+02 0.  0.
        254    2    1    2    0    0 -0.60736386601E+03 -0.60934058618E+03 -0.17756942487E+04  0.22232382100E+04  0.10244565671E+04 0.  0.
         23    2    4    4    0    0 -0.77637547232E+03 -0.14618804890E+03 -0.81299844551E+03  0.11373810342E+04  0.92408467085E+02 0.  0.
         23    2    4    4    0    0  0.16901160631E+03 -0.46315253728E+03 -0.96269580321E+03  0.10858571758E+04  0.96059361700E+02 0.  0.
          4    1    3    3  502    0  0.60774014853E+03  0.60487621280E+03  0.24595985373E+03  0.89203114889E+03  0.00000000000E+00 0. -1.
         -4    1    3    3    0  502 -0.37628252532E+00  0.44643733863E+01  0.88762570345E+01  0.99428445233E+01  0.00000000000E+00 0.  1.
         11    1    5    5    0    0 -0.74647440536E+03 -0.12332131609E+03 -0.76019452782E+03  0.10725334051E+04  0.00000000000E+00 0.  1.
        -11    1    5    5    0    0 -0.29901066963E+02 -0.22866732809E+02 -0.52803917684E+02  0.64847629083E+02  0.00000000000E+00 0. -1.
          1    1    6    6  503    0  0.29257801565E+02 -0.21211922406E+03 -0.37997692947E+03  0.43615714037E+03  0.00000000000E+00 0. -1.
         -1    1    6    6    0  503  0.13975380475E+03 -0.25103331322E+03 -0.58271887374E+03  0.64970003547E+03  0.00000000000E+00 0.  1.
<mgrwt>
<rscale>  0 0.27301908E+04</rscale>
<asrwt>0</asrwt>
<pdfrwt beam="1">  1        2 0.35739003E+00 0.27301908E+04</pdfrwt>
<pdfrwt beam="2">  1       -2 0.12341185E+00 0.27301908E+04</pdfrwt>
<totfact> 0.19057526E+00</totfact>
</mgrwt>
</event>
<event>
12    2  0.3552864E-008  0.2371139E+04  0.7818608E-02  0.8450388E-01
         -2   -1    0    0    0  501 -0.00000000000E+00  0.00000000000E+00  0.82788955190E+03  0.82788955190E+03  0.00000000000E+00 0.  1.
          2   -1    0    0  501    0  0.00000000000E+00 -0.00000000000E+00 -0.16977805019E+04  0.16977805019E+04  0.00000000000E+00 0. -1.
         23    2    1    2    0    0  0.54297833524E+03 -0.27036853063E+03 -0.12364657028E+04  0.13805269574E+04  0.95302837878E+02 0.  0.
        254    2    1    2    0    0 -0.54297833524E+03  0.27036853063E+03  0.36657475285E+03  0.11451430964E+04  0.89947264931E+03 0.  0.
         23    2    4    4    0    0 -0.63308006159E+03  0.40701517356E+02  0.53292156663E+03  0.83319706569E+03  0.88119102396E+02 0.  0.
         23    2    4    4    0    0  0.90101726342E+02  0.22966701327E+03 -0.16634681377E+03  0.31194603069E+03  0.93668594170E+02 0.  0.
          4    1    3    3  502    0  0.32050417195E+03 -0.16975277077E+03 -0.63305840230E+03  0.72959020562E+03  0.00000000000E+00 0. -1.
         -4    1    3    3    0  502  0.22247416329E+03 -0.10061575985E+03 -0.60340730052E+03  0.65093675175E+03  0.00000000000E+00 0.  1.
         11    1    5    5    0    0 -0.57643832545E+03  0.49271399696E+02  0.45262427368E+03  0.73455942374E+03  0.00000000000E+00 0. -1.
        -11    1    5    5    0    0 -0.56641736135E+02 -0.85698823401E+01  0.80297292944E+02  0.98637641952E+02  0.00000000000E+00 0.  1.
          2    1    6    6  503    0  0.83202815767E+02  0.86320965754E+02 -0.85190341769E+02  0.14707621157E+03  0.00000000000E+00 0. -1.
         -2    1    6    6    0  503  0.68989105749E+01  0.14334604752E+03 -0.81156472005E+02  0.16486981911E+03  0.00000000000E+00 0.  1.
<mgrwt>
<rscale>  0 0.23711387E+04</rscale>
<asrwt>0</asrwt>
<pdfrwt beam="1">  1        2 0.26119700E+00 0.23711387E+04</pdfrwt>
<pdfrwt beam="2">  1       -2 0.12736762E+00 0.23711387E+04</pdfrwt>
<totfact> 0.40548923E+00</totfact>
</mgrwt>
</event>
<event>
12    2  0.3552864E-008  0.1814713E+04  0.7818608E-02  0.8698514E-01
          1   -1    0    0  501    0  0.00000000000E+00  0.00000000000E+00  0.45393176917E+03  0.45393176917E+03  0.00000000000E+00 0. -1.
         -1   -1    0    0    0  501 -0.00000000000E+00 -0.00000000000E+00 -0.18136994472E+04  0.18136994472E+04  0.00000000000E+00 0.  1.
         23    2    1    2    0    0  0.17868009844E+03  0.13812130438E+03 -0.13394944218E+04  0.13614415668E+04  0.90960219319E+02 0.  0.
        254    2    1    2    0    0 -0.17868009844E+03 -0.13812130438E+03 -0.20273256184E+02  0.90618964952E+03  0.87736229899E+03 0.  0.
         23    2    4    4    0    0 -0.90804691911E+02  0.32002693618E+03  0.18183178560E+03  0.38995262979E+03  0.91310039275E+02 0.  0.
         23    2    4    4    0    0 -0.87875406530E+02 -0.45814824057E+03 -0.20210504178E+03  0.51623701973E+03  0.89623184599E+02 0.  0.
          1    1    3    3  502    0  0.14814001636E+02  0.10596548227E+02 -0.26657540444E+02  0.32285692517E+02  0.00000000000E+00 0. -1.
         -1    1    3    3    0  502  0.16386609680E+03  0.12752475616E+03 -0.13128368814E+04  0.13291558743E+04  0.00000000000E+00 0.  1.
         11    1    5    5    0    0 -0.71452366558E+02  0.26720735807E+03  0.18635684046E+03  0.33351774298E+03  0.00000000000E+00 0. -1.
        -11    1    5    5    0    0 -0.19352325353E+02  0.52819578112E+02 -0.45250548607E+01  0.56434886817E+02  0.00000000000E+00 0.  1.
          3    1    6    6  503    0 -0.24125356615E+01 -0.24993130606E+03 -0.10832502435E+03  0.27240739523E+03  0.00000000000E+00 0. -1.
         -3    1    6    6    0  503 -0.85462870868E+02 -0.20821693451E+03 -0.93780017434E+02  0.24382962450E+03  0.00000000000E+00 0.  1.
<mgrwt>
<rscale>  0 0.18147130E+04</rscale>
<asrwt>0</asrwt>
<pdfrwt beam="1">  1        1 0.69835657E-01 0.18147130E+04</pdfrwt>
<pdfrwt beam="2">  1       -1 0.27903068E+00 0.18147130E+04</pdfrwt>
<totfact> 0.21547048E+00</totfact>
</mgrwt>
</event>
<event>
12    2  0.3552864E-008  0.1643551E+04  0.7818608E-02  0.8794231E-01
         -1   -1    0    0    0  501 -0.00000000000E+00  0.00000000000E+00  0.29053674252E+03  0.29053674252E+03  0.00000000000E+00 0.  1.
          1   -1    0    0  501    0  0.00000000000E+00 -0.00000000000E+00 -0.23243697638E+04  0.23243697638E+04  0.00000000000E+00 0. -1.
         23    2    1    2    0    0 -0.29265680209E+03 -0.17151785217E+03 -0.14511899792E+04  0.14930390406E+04  0.90259866227E+02 0.  0.
        254    2    1    2    0    0  0.29265680209E+03  0.17151785217E+03 -0.58264304206E+03  0.11218674658E+04  0.89668685662E+03 0.  0.
         23    2    4    4    0    0  0.35725795360E+03  0.48545651033E+03 -0.27736668828E+03  0.66993022747E+03  0.92590286064E+02 0.  0.
         23    2    4    4    0    0 -0.64601151508E+02 -0.31393865817E+03 -0.30527635377E+03  0.45193723828E+03  0.91229519916E+02 0.  0.
          1    1    3    3  502    0 -0.26280566811E+03 -0.11451647931E+03 -0.11840628794E+04  0.12182716223E+04  0.00000000000E+00 0. -1.
         -1    1    3    3    0  502 -0.29851133986E+02 -0.57001372857E+02 -0.26712709984E+03  0.27476741833E+03  0.00000000000E+00 0.  1.
         11    1    5    5    0    0  0.34286764131E+03  0.41921886464E+03 -0.25452199096E+03  0.59840130332E+03  0.00000000000E+00 0. -1.
        -11    1    5    5    0    0  0.14390312290E+02  0.66237645695E+02 -0.22844697322E+02  0.71528924155E+02  0.00000000000E+00 0.  1.
          3    1    6    6  503    0 -0.72171824245E+02 -0.17996113566E+03 -0.21853837292E+03  0.29215373179E+03  0.00000000000E+00 0. -1.
         -3    1    6    6    0  503  0.75706727366E+01 -0.13397752251E+03 -0.86737980854E+02  0.15978350649E+03  0.00000000000E+00 0.  1.
<mgrwt>
<rscale>  0 0.16435508E+04</rscale>
<asrwt>0</asrwt>
<pdfrwt beam="1">  1        1 0.35759537E+00 0.16435508E+04</pdfrwt>
<pdfrwt beam="2">  1       -1 0.44697958E-01 0.16435508E+04</pdfrwt>
<totfact> 0.85017498E+00</totfact>
</mgrwt>
</event>
<event>
12    2  0.3552864E-008  0.1921002E+04  0.7818608E-02  0.8644472E-01
         -2   -1    0    0    0  501 -0.00000000000E+00  0.00000000000E+00  0.46581769842E+03  0.46581769842E+03  0.00000000000E+00 0.  1.
          2   -1    0    0  501    0  0.00000000000E+00 -0.00000000000E+00 -0.19805215861E+04  0.19805215861E+04  0.00000000000E+00 0. -1.
         23    2    1    2    0    0 -0.31993143388E+02 -0.50859755648E+03 -0.12847609558E+04  0.13844354228E+04  0.79722584651E+02 0.  0.
        254    2    1    2    0    0  0.31993143388E+02  0.50859755648E+03 -0.22994293187E+03  0.10619038618E+04  0.90281283998E+03 0.  0.
         23    2    4    4    0    0 -0.37952542871E+03  0.12801534311E+03 -0.27281320185E+03  0.49244440674E+03  0.87446964027E+02 0.  0.
         23    2    4    4    0    0  0.41151857210E+03  0.38058221337E+03  0.42870269980E+02  0.56945945503E+03  0.90861733168E+02 0.  0.
          2    1    3    3  502    0 -0.20455454750E+02 -0.17056881653E+03 -0.53527498745E+03  0.56216675373E+03  0.00000000000E+00 0. -1.
         -2    1    3    3    0  502 -0.11537688638E+02 -0.33802873995E+03 -0.74948596836E+03  0.82226866903E+03  0.00000000000E+00 0.  1.
         11    1    5    5    0    0 -0.73674386598E+02  0.49053466673E+02 -0.28100333916E+02  0.92864345146E+02  0.00000000000E+00 0. -1.
        -11    1    5    5    0    0 -0.30585104211E+03  0.78961876435E+02 -0.24471286793E+03  0.39958006159E+03  0.00000000000E+00 0.  1.
          1    1    6    6  503    0  0.38819693026E+03  0.32054498004E+03  0.37592805994E+02  0.50483577523E+03  0.00000000000E+00 0.  1.
         -1    1    6    6    0  503  0.23321641843E+02  0.60037233333E+02  0.52774639857E+01  0.64623679798E+02  0.00000000000E+00 0. -1.
<mgrwt>
<rscale>  0 0.19210018E+04</rscale>
<asrwt>0</asrwt>
<pdfrwt beam="1">  1        2 0.30469563E+00 0.19210018E+04</pdfrwt>
<pdfrwt beam="2">  1       -2 0.71664260E-01 0.19210018E+04</pdfrwt>
<totfact> 0.11307301E+01</totfact>
</mgrwt>
</event>
<event>
12    2  0.3552864E-008  0.2032585E+04  0.7818608E-02  0.8591536E-01
         -2   -1    0    0    0  501 -0.00000000000E+00  0.00000000000E+00  0.60216375439E+03  0.60216375439E+03  0.00000000000E+00 0.  1.
          2   -1    0    0  501    0  0.00000000000E+00 -0.00000000000E+00 -0.17152317239E+04  0.17152317239E+04  0.00000000000E+00 0. -1.
         23    2    1    2    0    0 -0.72101511652E+03 -0.35361628579E+03 -0.57732232755E+03  0.99351514055E+03  0.94148758910E+02 0.  0.
        254    2    1    2    0    0  0.72101511652E+03  0.35361628579E+03 -0.53574564200E+03  0.13238803378E+04  0.90594066031E+03 0.  0.
         23    2    4    4    0    0  0.18866105467E+03  0.23103873897E+03 -0.68354351965E+03  0.75065248624E+03  0.85296655217E+02 0.  0.
         23    2    4    4    0    0  0.53235406185E+03  0.12257754682E+03  0.14779787765E+03  0.57322785153E+03  0.91213239100E+02 0.  0.
          4    1    3    3  502    0 -0.61981759759E+03 -0.27269872690E+03 -0.45909260157E+03  0.81811030231E+03  0.00000000000E+00 0. -1.
         -4    1    3    3    0  502 -0.10119751893E+03 -0.80917558884E+02 -0.11822972598E+03  0.17540483824E+03  0.00000000000E+00 0.  1.
         11    1    5    5    0    0  0.90629274879E+01  0.46895309930E+02 -0.64203861135E+02  0.80021512937E+02  0.00000000000E+00 0.  1.
        -11    1    5    5    0    0  0.17959812718E+03  0.18414342904E+03 -0.61933965852E+03  0.67063097330E+03  0.00000000000E+00 0. -1.
          3    1    6    6  503    0  0.51154399618E+03  0.13076131015E+03  0.15405423010E+03  0.55000771455E+03  0.00000000000E+00 0. -1.
         -3    1    6    6    0  503  0.20810065668E+02 -0.81837633328E+01 -0.62563524459E+01  0.23220136979E+02  0.00000000000E+00 0.  1.
<mgrwt>
<rscale>  0 0.20325849E+04</rscale>
<asrwt>0</asrwt>
<pdfrwt beam="1">  1        2 0.26388180E+00 0.20325849E+04</pdfrwt>
<pdfrwt beam="2">  1       -2 0.92640579E-01 0.20325849E+04</pdfrwt>
<totfact> 0.88073909E+00</totfact>
</mgrwt>
</event>
<event>
12    2  0.3552864E-008  0.1936874E+04  0.7818608E-02  0.8636717E-01
         -2   -1    0    0    0  501 -0.00000000000E+00  0.00000000000E+00  0.60022774810E+03  0.60022774810E+03  0.00000000000E+00 0. -1.
          2   -1    0    0  501    0  0.00000000000E+00 -0.00000000000E+00 -0.15625232935E+04  0.15625232935E+04  0.00000000000E+00 0.  1.
         23    2    1    2    0    0 -0.43652152655E+03 -0.10985772525E+03 -0.10588054986E+04  0.11541310636E+04  0.91266999283E+02 0.  0.
        254    2    1    2    0    0  0.43652152655E+03  0.10985772525E+03  0.96509953169E+02  0.10086199780E+04  0.89742984465E+03 0.  0.
         23    2    4    4    0    0  0.14575705576E+03 -0.38454667692E+03  0.74654761850E+02  0.42795125821E+03  0.91911261030E+02 0.  0.
         23    2    4    4    0    0  0.29076447079E+03  0.49440440217E+03  0.21855191319E+02  0.58066871982E+03  0.87856829158E+02 0.  0.
          3    1    3    3  502    0 -0.14110003451E+03 -0.37116655095E+02 -0.24295336068E+03  0.28339583852E+03  0.00000000000E+00 0. -1.
         -3    1    3    3    0  502 -0.29542149204E+03 -0.72741070156E+02 -0.81585213789E+03  0.87073522505E+03  0.00000000000E+00 0.  1.
         11    1    5    5    0    0  0.14955009774E+03 -0.37371489139E+03  0.56499823847E+02  0.40647297804E+03  0.00000000000E+00 0.  1.
        -11    1    5    5    0    0 -0.37930419790E+01 -0.10831785524E+02  0.18154938003E+02  0.21478280168E+02  0.00000000000E+00 0. -1.
          1    1    6    6  503    0  0.53358381452E+02  0.38194627410E+02  0.89009784553E+01  0.66220645207E+02  0.00000000000E+00 0. -1.
         -1    1    6    6    0  503  0.23740608934E+03  0.45620977476E+03  0.12954212864E+02  0.51444807461E+03  0.00000000000E+00 0.  1.
<mgrwt>
<rscale>  0 0.19368736E+04</rscale>
<asrwt>0</asrwt>
<pdfrwt beam="1">  1        2 0.24038819E+00 0.19368736E+04</pdfrwt>
<pdfrwt beam="2">  1       -2 0.92342732E-01 0.19368736E+04</pdfrwt>
<totfact> 0.10883887E+01</totfact>
</mgrwt>
</event>
<event>
12    2  0.3552864E-008  0.1609474E+04  0.7818608E-02  0.8814749E-01
          1   -1    0    0  501    0  0.00000000000E+00  0.00000000000E+00  0.15881103466E+04  0.15881103466E+04  0.00000000000E+00 0. -1.
         -1   -1    0    0    0  501 -0.00000000000E+00 -0.00000000000E+00 -0.40778114918E+03  0.40778114918E+03  0.00000000000E+00 0.  1.
         23    2    1    2    0    0  0.19249823765E+03 -0.46580731411E+03  0.65595845488E+03  0.83271836105E+03  0.95427191776E+02 0.  0.
        254    2    1    2    0    0 -0.19249823765E+03  0.46580731411E+03  0.52437074258E+03  0.11631731348E+04  0.90773070918E+03 0.  0.
         23    2    4    4    0    0 -0.35567585696E+03 -0.91663612584E+02  0.52311484865E+01  0.37879142574E+03  0.92455644501E+02 0.  0.
         23    2    4    4    0    0  0.16317761931E+03  0.55747092669E+03  0.51913959409E+03  0.78438170903E+03  0.91367268502E+02 0.  0.
          1    1    3    3  502    0  0.18375772182E+03 -0.41940070882E+03  0.63002823978E+03  0.77884493823E+03  0.00000000000E+00 0. -1.
         -1    1    3    3    0  502  0.87405158293E+01 -0.46406605290E+02  0.25930215101E+02  0.53873422823E+02  0.00000000000E+00 0.  1.
         11    1    5    5    0    0 -0.20612402515E+03 -0.93621234974E+01 -0.15070165787E+02  0.20688613534E+03  0.00000000000E+00 0. -1.
        -11    1    5    5    0    0 -0.14955183181E+03 -0.82301489087E+02  0.20301314273E+02  0.17190529039E+03  0.00000000000E+00 0.  1.
          2    1    6    6  503    0  0.14680766791E+03  0.46675256426E+03  0.47589528478E+03  0.68255898622E+03  0.00000000000E+00 0. -1.
         -2    1    6    6    0  503  0.16369951407E+02  0.90718362434E+02  0.43244309311E+02  0.10182272281E+03  0.00000000000E+00 0.  1.
<mgrwt>
<rscale>  0 0.16094738E+04</rscale>
<asrwt>0</asrwt>
<pdfrwt beam="1">  1        1 0.24432467E+00 0.16094738E+04</pdfrwt>
<pdfrwt beam="2">  1       -1 0.62735562E-01 0.16094738E+04</pdfrwt>
<totfact> 0.14049296E+01</totfact>
</mgrwt>
</event>
<event>
12    2  0.3552864E-008  0.2489353E+04  0.7818608E-02  0.8406788E-01
          1   -1    0    0  501    0  0.00000000000E+00  0.00000000000E+00  0.94861047953E+03  0.94861047953E+03  0.00000000000E+00 0. -1.
         -1   -1    0    0    0  501 -0.00000000000E+00 -0.00000000000E+00 -0.16331462445E+04  0.16331462445E+04  0.00000000000E+00 0.  1.
         23    2    1    2    0    0 -0.31997949845E+03  0.10270032351E+04 -0.21747532183E+03  0.11010745791E+04  0.89147006527E+02 0.  0.
        254    2    1    2    0    0  0.31997949845E+03 -0.10270032351E+04 -0.46706044309E+03  0.14806821449E+04  0.90396439784E+03 0.  0.
         23    2    4    4    0    0  0.35848761783E+03 -0.10508844941E+04 -0.63569861110E+03  0.12826537376E+04  0.90643776610E+02 0.  0.
         23    2    4    4    0    0 -0.38508119381E+02  0.23881259087E+02  0.16863816801E+03  0.19802840734E+03  0.93398225946E+02 0.  0.
          1    1    3    3  502    0 -0.15376533821E+03  0.53103052674E+03 -0.67722266545E+02  0.55697711349E+03  0.00000000000E+00 0. -1.
         -1    1    3    3    0  502 -0.16621416024E+03  0.49597270832E+03 -0.14975305528E+03  0.54409746556E+03  0.00000000000E+00 0.  1.
         11    1    5    5    0    0  0.21231450708E+01 -0.12703056228E+02 -0.20935292859E+02  0.24579704425E+02  0.00000000000E+00 0. -1.
        -11    1    5    5    0    0  0.35636447276E+03 -0.10381814379E+04 -0.61476331824E+03  0.12580740332E+04  0.00000000000E+00 0.  1.
          2    1    6    6  503    0  0.18650000419E+02 -0.11518458028E+02  0.70736693089E+01  0.23033327776E+02  0.00000000000E+00 0. -1.
         -2    1    6    6    0  503 -0.57158119799E+02  0.35399717115E+02  0.16156449870E+03  0.17499507956E+03  0.00000000000E+00 0.  1.
<mgrwt>
<rscale>  0 0.24893530E+04</rscale>
<asrwt>0</asrwt>
<pdfrwt beam="1">  1        1 0.14594008E+00 0.24893530E+04</pdfrwt>
<pdfrwt beam="2">  1       -1 0.25125327E+00 0.24893530E+04</pdfrwt>
<totfact> 0.10109072E+00</totfact>
</mgrwt>
</event>
<event>
12    2  0.3552864E-008  0.1630772E+04  0.7818608E-02  0.8801864E-01
         -2   -1    0    0    0  501 -0.00000000000E+00  0.00000000000E+00  0.57573611074E+03  0.57573611074E+03  0.00000000000E+00 0. -1.
          2   -1    0    0  501    0  0.00000000000E+00 -0.00000000000E+00 -0.11547894192E+04  0.11547894192E+04  0.00000000000E+00 0.  1.
         23    2    1    2    0    0  0.44291687997E+03  0.16436200723E+03  0.12420180159E+03  0.49696333889E+03  0.91412475613E+02 0.  0.
        254    2    1    2    0    0 -0.44291687997E+03 -0.16436200723E+03 -0.70325511009E+03  0.12335621911E+04  0.89661457575E+03 0.  0.
         23    2    4    4    0    0 -0.45281374836E+02 -0.31930651041E+03 -0.72270273945E+03  0.79666483966E+03  0.91479870121E+02 0.  0.
         23    2    4    4    0    0 -0.39763550514E+03  0.15494450318E+03  0.19447629356E+02  0.43689735144E+03  0.91538469473E+02 0.  0.
          2    1    3    3  502    0  0.41439458608E+03  0.12569633943E+03  0.10863614104E+03  0.44645744910E+03  0.00000000000E+00 0. -1.
         -2    1    3    3    0  502  0.28522293899E+02  0.38665667798E+02  0.15565660548E+02  0.50505889793E+02  0.00000000000E+00 0.  1.
         11    1    5    5    0    0 -0.54070406955E+01  0.20051644847E+01 -0.12657538707E+01  0.59041431685E+01  0.00000000000E+00 0.  1.
        -11    1    5    5    0    0 -0.39874334140E+02 -0.32131167490E+03 -0.72143698558E+03  0.79076069649E+03  0.00000000000E+00 0. -1.
          1    1    6    6  503    0 -0.37407359409E+03  0.13125079849E+03  0.38728745171E+02  0.39831864331E+03  0.00000000000E+00 0. -1.
         -1    1    6    6    0  503 -0.23561911045E+02  0.23693704694E+02 -0.19281115814E+02  0.38578708133E+02  0.00000000000E+00 0.  1.
<mgrwt>
<rscale>  0 0.16307716E+04</rscale>
<asrwt>0</asrwt>
<pdfrwt beam="1">  1        2 0.17765991E+00 0.16307716E+04</pdfrwt>
<pdfrwt beam="2">  1       -2 0.88574787E-01 0.16307716E+04</pdfrwt>
<totfact> 0.21157154E+01</totfact>
</mgrwt>
</event>
<event>
12    2  0.3552864E-008  0.1705064E+04  0.7818608E-02  0.8758481E-01
         -1   -1    0    0    0  501 -0.00000000000E+00  0.00000000000E+00  0.68170791143E+03  0.68170791143E+03  0.00000000000E+00 0.  1.
          1   -1    0    0  501    0  0.00000000000E+00 -0.00000000000E+00 -0.10661620553E+04  0.10661620553E+04  0.00000000000E+00 0. -1.
         23    2    1    2    0    0 -0.47545351206E+03 -0.18492538819E+03 -0.51019682953E+03  0.72712887899E+03  0.90344675971E+02 0.  0.
        254    2    1    2    0    0  0.47545351206E+03  0.18492538819E+03  0.12574268570E+03  0.10207410877E+04  0.87512725005E+03 0.  0.
         23    2    4    4    0    0  0.12876974567E+02  0.17088100203E+03  0.42076947123E+03  0.46421136691E+03  0.95284373974E+02 0.  0.
         23    2    4    4    0    0  0.46257653749E+03  0.14044386165E+02 -0.29502678552E+03  0.55652972079E+03  0.92250897694E+02 0.  0.
          4    1    3    3  502    0 -0.35734712029E+03 -0.10665971191E+03 -0.40582846103E+03  0.55115333466E+03  0.00000000000E+00 0. -1.
         -4    1    3    3    0  502 -0.11810639176E+03 -0.78265676279E+02 -0.10436836850E+03  0.17597554433E+03  0.00000000000E+00 0.  1.
         11    1    5    5    0    0  0.27745915440E+02  0.17759586944E+03  0.38447454970E+03  0.42441819946E+03  0.00000000000E+00 0. -1.
        -11    1    5    5    0    0 -0.14868940873E+02 -0.67148674125E+01  0.36294921528E+02  0.39793167451E+02  0.00000000000E+00 0.  1.
          1    1    6    6  503    0  0.18887881253E+03 -0.26788052542E+02 -0.15816508828E+03  0.24780839520E+03  0.00000000000E+00 0. -1.
         -1    1    6    6    0  503  0.27369772496E+03  0.40832438706E+02 -0.13686169724E+03  0.30872132559E+03  0.00000000000E+00 0.  1.
<mgrwt>
<rscale>  0 0.17050643E+04</rscale>
<asrwt>0</asrwt>
<pdfrwt beam="1">  1        1 0.16402493E+00 0.17050643E+04</pdfrwt>
<pdfrwt beam="2">  1       -1 0.10487814E+00 0.17050643E+04</pdfrwt>
<totfact> 0.10924150E+01</totfact>
</mgrwt>
</event>
<event>
12    2  0.3552864E-008  0.1113391E+04  0.7818608E-02  0.9192238E-01
          1   -1    0    0  501    0  0.00000000000E+00  0.00000000000E+00  0.35459524810E+03  0.35459524810E+03  0.00000000000E+00 0. -1.
         -1   -1    0    0    0  501 -0.00000000000E+00 -0.00000000000E+00 -0.87398159947E+03  0.87398159947E+03  0.00000000000E+00 0.  1.
         23    2    1    2    0    0  0.44789564670E+02  0.74380785799E+02  0.70804666358E+02  0.14385372706E+03  0.90232962995E+02 0.  0.
        254    2    1    2    0    0 -0.44789564670E+02 -0.74380785799E+02 -0.59019101773E+03  0.10847231205E+04  0.90595816921E+03 0.  0.
         23    2    4    4    0    0  0.21379832492E+03 -0.19184929495E+03  0.11266537422E+03  0.32114118526E+03  0.89007295268E+02 0.  0.
         23    2    4    4    0    0 -0.25858788959E+03  0.11746850915E+03 -0.70285639195E+03  0.76358193525E+03  0.91562639005E+02 0.  0.
          4    1    3    3  502    0  0.60643206998E+02  0.82779200057E+02  0.72779182419E+02  0.12580462595E+03  0.00000000000E+00 0. -1.
         -4    1    3    3    0  502 -0.15853642327E+02 -0.83984142578E+01 -0.19745160606E+01  0.18049101107E+02  0.00000000000E+00 0.  1.
         11    1    5    5    0    0  0.20957541999E+03 -0.14784420906E+03  0.94088694921E+02  0.27318940193E+03  0.00000000000E+00 0.  1.
        -11    1    5    5    0    0  0.42229049250E+01 -0.44005085889E+02  0.18576679297E+02  0.47951783322E+02  0.00000000000E+00 0. -1.
          4    1    6    6  503    0 -0.90785666221E+02  0.38822720613E+02 -0.14240855843E+03  0.17329004109E+03  0.00000000000E+00 0. -1.
         -4    1    6    6    0  503 -0.16780222337E+03  0.78645788534E+02 -0.56044783351E+03  0.59029189416E+03  0.00000000000E+00 0.  1.
<mgrwt>
<rscale>  0 0.11133907E+04</rscale>
<asrwt>0</asrwt>
<pdfrwt beam="1">  1        1 0.54553116E-01 0.11133907E+04</pdfrwt>
<pdfrwt beam="2">  1       -1 0.13445871E+00 0.11133907E+04</pdfrwt>
<totfact> 0.32627126E+01</totfact>
</mgrwt>
</event>
<event>
12    2  0.3552864E-008  0.1915293E+04  0.7818608E-02  0.8647281E-01
          2   -1    0    0  501    0  0.00000000000E+00  0.00000000000E+00  0.25300005127E+04  0.25300005127E+04  0.00000000000E+00 0. -1.
         -2   -1    0    0    0  501 -0.00000000000E+00 -0.00000000000E+00 -0.36248473108E+03  0.36248473108E+03  0.00000000000E+00 0.  1.
         23    2    1    2    0    0  0.62967010833E+03  0.12069841340E+03  0.13594105384E+04  0.15057916918E+04  0.91427867410E+02 0.  0.
        254    2    1    2    0    0 -0.62967010833E+03 -0.12069841340E+03  0.80810524326E+03  0.13866935520E+04  0.92673209217E+03 0.  0.
         23    2    4    4    0    0 -0.78088702863E+02  0.12711418294E+03 -0.16338911798E+03  0.23885944583E+03  0.90010943607E+02 0.  0.
         23    2    4    4    0    0 -0.55158140547E+03 -0.24781259633E+03  0.97149436124E+03  0.11478341062E+04  0.89826007426E+02 0.  0.
          3    1    3    3  502    0  0.56633957543E+03  0.10987237985E+03  0.11474996094E+04  0.12843550164E+04  0.00000000000E+00 0. -1.
         -3    1    3    3    0  502  0.63330532897E+02  0.10826033544E+02  0.21191092896E+03  0.22143667540E+03  0.00000000000E+00 0.  1.
         11    1    5    5    0    0 -0.92323705757E+01  0.71133304366E+02 -0.12064976850E+03  0.14036221107E+03  0.00000000000E+00 0.  1.
        -11    1    5    5    0    0 -0.68856332287E+02  0.55980878571E+02 -0.42739349477E+02  0.98497234760E+02  0.00000000000E+00 0. -1.
          4    1    6    6  503    0 -0.35523969214E+03 -0.20074982751E+03  0.68552462484E+03  0.79777173639E+03  0.00000000000E+00 0. -1.
         -4    1    6    6    0  503 -0.19634171333E+03 -0.47062768827E+02  0.28596973640E+03  0.35006236979E+03  0.00000000000E+00 0.  1.
<mgrwt>
<rscale>  0 0.19152927E+04</rscale>
<asrwt>0</asrwt>
<pdfrwt beam="1">  1        2 0.38923084E+00 0.19152927E+04</pdfrwt>
<pdfrwt beam="2">  1       -2 0.55766883E-01 0.19152927E+04</pdfrwt>
<totfact> 0.94569461E+00</totfact>
</mgrwt>
</event>
<event>
12    2  0.3552864E-008  0.1181630E+04  0.7818608E-02  0.9129089E-01
         -2   -1    0    0    0  501 -0.00000000000E+00  0.00000000000E+00  0.21089709044E+03  0.21089709044E+03  0.00000000000E+00 0.  1.
          2   -1    0    0  501    0  0.00000000000E+00 -0.00000000000E+00 -0.16551312254E+04  0.16551312254E+04  0.00000000000E+00 0. -1.
         23    2    1    2    0    0 -0.19389570502E+02 -0.10688543988E+03 -0.62536397964E+03  0.64247270165E+03  0.99451559229E+02 0.  0.
        254    2    1    2    0    0  0.19389570502E+02  0.10688543988E+03 -0.81887015528E+03  0.12235556141E+04  0.90262924669E+03 0.  0.
         23    2    4    4    0    0 -0.30672089155E+03 -0.15312653321E+03 -0.69268203300E+03  0.77835034361E+03  0.92170592242E+02 0.  0.
         23    2    4    4    0    0  0.32611046205E+03  0.26001197309E+03 -0.12618812228E+03  0.44520527053E+03  0.91269003990E+02 0.  0.
          1    1    3    3  502    0 -0.67574909940E+01 -0.41945540318E+02 -0.48967703666E+03  0.49151672633E+03  0.00000000000E+00 0. -1.
         -1    1    3    3    0  502 -0.12632079508E+02 -0.64939899563E+02 -0.13568694299E+03  0.15095597532E+03  0.00000000000E+00 0.  1.
         11    1    5    5    0    0 -0.30853343099E+03 -0.15931336580E+03 -0.68695198556E+03  0.76972505287E+03  0.00000000000E+00 0.  1.
        -11    1    5    5    0    0  0.18125394371E+01  0.61868325862E+01 -0.57300474438E+01  0.86252907411E+01  0.00000000000E+00 0. -1.
          1    1    6    6  503    0  0.91742857984E+01  0.14221337011E+02  0.12269419915E+02  0.20903411476E+02  0.00000000000E+00 0. -1.
         -1    1    6    6    0  503  0.31693617626E+03  0.24579063608E+03 -0.13845754219E+03  0.42430185905E+03  0.00000000000E+00 0.  1.
<mgrwt>
<rscale>  0 0.11816300E+04</rscale>
<asrwt>0</asrwt>
<pdfrwt beam="1">  1        2 0.25463557E+00 0.11816300E+04</pdfrwt>
<pdfrwt beam="2">  1       -2 0.32445707E-01 0.11816300E+04</pdfrwt>
<totfact> 0.90793722E+01</totfact>
</mgrwt>
</event>
<event>
12    2  0.3552864E-008  0.1568022E+04  0.7818608E-02  0.8840438E-01
          2   -1    0    0  501    0  0.00000000000E+00  0.00000000000E+00  0.32941942419E+04  0.32941942419E+04  0.00000000000E+00 0. -1.
         -2   -1    0    0    0  501 -0.00000000000E+00 -0.00000000000E+00 -0.18659295124E+03  0.18659295124E+03  0.00000000000E+00 0.  1.
         23    2    1    2    0    0 -0.14093031825E+02 -0.30774642754E+02 -0.11019218241E+03  0.14724727998E+03  0.91617423095E+02 0.  0.
        254    2    1    2    0    0  0.14093031825E+02  0.30774642754E+02  0.32177934731E+04  0.33335399132E+04  0.87014241659E+03 0.  0.
         23    2    4    4    0    0  0.39693374084E+03  0.16347227755E+03  0.19688642812E+04  0.20173568741E+04  0.94987470966E+02 0.  0.
         23    2    4    4    0    0 -0.38284070902E+03 -0.13269763480E+03  0.12489291920E+04  0.13161830391E+04  0.91312623432E+02 0.  0.
          3    1    3    3  502    0 -0.10754428875E+01 -0.10897101242E+02  0.15695019228E+02  0.19137320122E+02  0.00000000000E+00 0. -1.
         -3    1    3    3    0  502 -0.13017588938E+02 -0.19877541512E+02 -0.12588720164E+03  0.12810995986E+03  0.00000000000E+00 0.  1.
         11    1    5    5    0    0  0.26883034508E+03  0.15636309558E+03  0.14304837716E+04  0.14638999258E+04  0.00000000000E+00 0.  1.
        -11    1    5    5    0    0  0.12810339576E+03  0.71091819755E+01  0.53838050957E+03  0.55345694824E+03  0.00000000000E+00 0. -1.
          3    1    6    6  503    0 -0.13603892308E+03 -0.20804917850E+01  0.41957040923E+03  0.44107850247E+03  0.00000000000E+00 0. -1.
         -3    1    6    6    0  503 -0.24680178593E+03 -0.13061714301E+03  0.82935878273E+03  0.87510453665E+03  0.00000000000E+00 0.  1.
<mgrwt>
<rscale>  0 0.15680222E+04</rscale>
<asrwt>0</asrwt>
<pdfrwt beam="1">  1        2 0.50679907E+00 0.15680222E+04</pdfrwt>
<pdfrwt beam="2">  1       -2 0.28706610E-01 0.15680222E+04</pdfrwt>
<totfact> 0.12142833E+01</totfact>
</mgrwt>
</event>
<event>
12    2  0.3552864E-008  0.1593485E+04  0.7818608E-02  0.8824560E-01
          1   -1    0    0  501    0  0.00000000000E+00  0.00000000000E+00  0.84425505025E+03  0.84425505025E+03  0.00000000000E+00 0. -1.
         -1   -1    0    0    0  501 -0.00000000000E+00 -0.00000000000E+00 -0.75190412753E+03  0.75190412753E+03  0.00000000000E+00 0.  1.
         23    2    1    2    0    0  0.17720809224E+03  0.31089843181E+02  0.53284357699E+03  0.57009945385E+03  0.93390703141E+02 0.  0.
        254    2    1    2    0    0 -0.17720809224E+03 -0.31089843181E+02 -0.44049265427E+03  0.10260597239E+04  0.90906297487E+03 0.  0.
         23    2    4    4    0    0 -0.12360617308E+03 -0.45972844500E+03 -0.21819124491E+03  0.53165694445E+03  0.91776674919E+02 0.  0.
         23    2    4    4    0    0 -0.53601919165E+02  0.42863860182E+03 -0.22230140936E+03  0.49440277947E+03  0.91716819810E+02 0.  0.
          1    1    3    3  502    0  0.13439704247E+03  0.10381848505E+02  0.48194527952E+03  0.50044140542E+03  0.00000000000E+00 0. -1.
         -1    1    3    3    0  502  0.42811049768E+02  0.20707994676E+02  0.50898297467E+02  0.69658048428E+02  0.00000000000E+00 0.  1.
         11    1    5    5    0    0 -0.42887849637E+01 -0.26733111607E+02 -0.40356055151E+02  0.48596955872E+02  0.00000000000E+00 0.  1.
        -11    1    5    5    0    0 -0.11931738811E+03 -0.43299533340E+03 -0.17783518976E+03  0.48305998858E+03  0.00000000000E+00 0. -1.
          4    1    6    6  503    0 -0.75816909456E+02  0.31047302480E+03 -0.18088204924E+03  0.36723292149E+03  0.00000000000E+00 0. -1.
         -4    1    6    6    0  503  0.22214990292E+02  0.11816557702E+03 -0.41419360120E+02  0.12716985798E+03  0.00000000000E+00 0.  1.
<mgrwt>
<rscale>  0 0.15934853E+04</rscale>
<asrwt>0</asrwt>
<pdfrwt beam="1">  1        1 0.12988539E+00 0.15934853E+04</pdfrwt>
<pdfrwt beam="2">  1       -1 0.11567756E+00 0.15934853E+04</pdfrwt>
<totfact> 0.13162878E+01</totfact>
</mgrwt>
</event>
<event>
12    2  0.3552864E-008  0.1957707E+04  0.7818608E-02  0.8626653E-01
          1   -1    0    0  501    0  0.00000000000E+00  0.00000000000E+00  0.11549412470E+04  0.11549412470E+04  0.00000000000E+00 0. -1.
         -1   -1    0    0    0  501 -0.00000000000E+00 -0.00000000000E+00 -0.82961282070E+03  0.82961282070E+03  0.00000000000E+00 0.  1.
         23    2    1    2    0    0 -0.14783625487E+03 -0.22727425164E+03 -0.61208978093E+03  0.67552496463E+03  0.90393219924E+02 0.  0.
        254    2    1    2    0    0  0.14783625487E+03  0.22727425164E+03  0.93741820722E+03  0.13090291030E+04  0.87252229409E+03 0.  0.
         23    2    4    4    0    0  0.33960970914E+03  0.35574323705E+03  0.21359782646E+03  0.54383242511E+03  0.90783643275E+02 0.  0.
         23    2    4    4    0    0 -0.19177345427E+03 -0.12846898541E+03  0.72382038076E+03  0.76519667794E+03  0.91261571030E+02 0.  0.
          2    1    3    3  502    0 -0.81967173421E+02 -0.83367950016E+02 -0.35366338016E+03  0.37248707235E+03  0.00000000000E+00 0. -1.
         -2    1    3    3    0  502 -0.65869081447E+02 -0.14390630162E+03 -0.25842640078E+03  0.30303789228E+03  0.00000000000E+00 0.  1.
         11    1    5    5    0    0  0.31240159913E+03  0.35500981651E+03  0.20086788449E+03  0.51378462022E+03  0.00000000000E+00 0. -1.
        -11    1    5    5    0    0  0.27208110010E+02  0.73342053584E+00  0.12729941966E+02  0.30047804886E+02  0.00000000000E+00 0.  1.
          1    1    6    6  503    0 -0.14814055287E+03 -0.13841405980E+03  0.61406436838E+03  0.64666770746E+03  0.00000000000E+00 0. -1.
         -1    1    6    6    0  503 -0.43632901399E+02  0.99450743898E+01  0.10975601238E+03  0.11852897048E+03  0.00000000000E+00 0.  1.
<mgrwt>
<rscale>  0 0.19577069E+04</rscale>
<asrwt>0</asrwt>
<pdfrwt beam="1">  1        1 0.17768327E+00 0.19577069E+04</pdfrwt>
<pdfrwt beam="2">  1       -1 0.12763274E+00 0.19577069E+04</pdfrwt>
<totfact> 0.57050024E+00</totfact>
</mgrwt>
</event>
<event>
12    2  0.3552864E-008  0.1333886E+04  0.7818608E-02  0.9003117E-01
          1   -1    0    0  501    0  0.00000000000E+00  0.00000000000E+00  0.14141448925E+04  0.14141448925E+04  0.00000000000E+00 0. -1.
         -1   -1    0    0    0  501 -0.00000000000E+00 -0.00000000000E+00 -0.31454547170E+03  0.31454547170E+03  0.00000000000E+00 0.  1.
         23    2    1    2    0    0 -0.15877249363E+02 -0.19842395823E+03 -0.79035379745E+02  0.23244819280E+03  0.90340560320E+02 0.  0.
        254    2    1    2    0    0  0.15877249363E+02  0.19842395823E+03  0.11786348006E+04  0.14962421714E+04  0.89996471498E+03 0.  0.
         23    2    4    4    0    0 -0.11125420563E+03  0.31487523587E+03  0.12433406255E+04  0.12905584233E+04  0.90117814812E+02 0.  0.
         23    2    4    4    0    0  0.12713145499E+03 -0.11645127764E+03 -0.64705824908E+02  0.20568374813E+03  0.91627799048E+02 0.  0.
          4    1    3    3  502    0 -0.13781110821E+02 -0.13228884735E+01 -0.24150658141E+02  0.27837444890E+02  0.00000000000E+00 0. -1.
         -4    1    3    3    0  502 -0.20961385418E+01 -0.19710106975E+03 -0.54884721604E+02  0.20461074791E+03  0.00000000000E+00 0.  1.
         11    1    5    5    0    0 -0.74808528233E+02  0.10943702759E+03  0.38348292838E+03  0.40574861092E+03  0.00000000000E+00 0.  1.
        -11    1    5    5    0    0 -0.36445677393E+02  0.20543820828E+03  0.85985769710E+03  0.88480981238E+03  0.00000000000E+00 0. -1.
          1    1    6    6  503    0  0.43421591443E+02 -0.70066918774E+02 -0.72348323518E+02  0.10967719738E+03  0.00000000000E+00 0. -1.
         -1    1    6    6    0  503  0.83709863546E+02 -0.46384358864E+02  0.76424986098E+01  0.96006550751E+02  0.00000000000E+00 0.  1.
<mgrwt>
<rscale>  0 0.13338859E+04</rscale>
<asrwt>0</asrwt>
<pdfrwt beam="1">  1        1 0.21756075E+00 0.13338859E+04</pdfrwt>
<pdfrwt beam="2">  1       -1 0.48391612E-01 0.13338859E+04</pdfrwt>
<totfact> 0.31427674E+01</totfact>
</mgrwt>
</event>
<event>
12    2  0.3552864E-008  0.1207174E+04  0.7818608E-02  0.9106600E-01
          1   -1    0    0  501    0  0.00000000000E+00  0.00000000000E+00  0.48313522441E+03  0.48313522441E+03  0.00000000000E+00 0. -1.
         -1   -1    0    0    0  501 -0.00000000000E+00 -0.00000000000E+00 -0.75406942232E+03  0.75406942232E+03  0.00000000000E+00 0.  1.
         23    2    1    2    0    0 -0.98921869642E+02  0.54471867171E+02 -0.30083543287E+03  0.33439235346E+03  0.92539547071E+02 0.  0.
        254    2    1    2    0    0  0.98921869642E+02 -0.54471867171E+02  0.29901234958E+02  0.90281229328E+03  0.89522244858E+03 0.  0.
         23    2    4    4    0    0  0.34489478008E+03  0.29646111821E+03  0.26209085012E+02  0.46462727823E+03  0.91378266572E+02 0.  0.
         23    2    4    4    0    0 -0.24597291044E+03 -0.35093298538E+03  0.36921499464E+01  0.43818501505E+03  0.91300835415E+02 0.  0.
          4    1    3    3  502    0 -0.68816472655E+02  0.26178810472E+02 -0.76088110005E+02  0.10587935356E+03  0.00000000000E+00 0. -1.
         -4    1    3    3    0  502 -0.30105396987E+02  0.28293056699E+02 -0.22474732287E+03  0.22851299989E+03  0.00000000000E+00 0.  1.
         11    1    5    5    0    0  0.33169553494E+03  0.30197007604E+03  0.19923294526E+02  0.44900422313E+03  0.00000000000E+00 0. -1.
        -11    1    5    5    0    0  0.13199245137E+02 -0.55089578315E+01  0.62857904855E+01  0.15623055099E+02  0.00000000000E+00 0.  1.
          3    1    6    6  503    0 -0.16525193113E+03 -0.26914231870E+03  0.38377948364E+02  0.31814879440E+03  0.00000000000E+00 0. -1.
         -3    1    6    6    0  503 -0.80720979309E+02 -0.81790666678E+02 -0.34685798418E+02  0.12003622065E+03  0.00000000000E+00 0.  1.
<mgrwt>
<rscale>  0 0.12071744E+04</rscale>
<asrwt>0</asrwt>
<pdfrwt beam="1">  1        1 0.74328496E-01 0.12071744E+04</pdfrwt>
<pdfrwt beam="2">  1       -1 0.11601068E+00 0.12071744E+04</pdfrwt>
<totfact> 0.30909032E+01</totfact>
</mgrwt>
</event>
<event>
12    2  0.3552864E-008  0.1719342E+04  0.7818608E-02  0.8750409E-01
          1   -1    0    0  501    0  0.00000000000E+00  0.00000000000E+00  0.15323674385E+04  0.15323674385E+04  0.00000000000E+00 0. -1.
         -1   -1    0    0    0  501 -0.00000000000E+00 -0.00000000000E+00 -0.48228292605E+03  0.48228292605E+03  0.00000000000E+00 0.  1.
         23    2    1    2    0    0  0.11838400464E+03 -0.59481829291E+03  0.21810635972E+03  0.65135582213E+03  0.94183059744E+02 0.  0.
        254    2    1    2    0    0 -0.11838400464E+03  0.59481829291E+03  0.83197815277E+03  0.13632945425E+04  0.89362228523E+03 0.  0.
         23    2    4    4    0    0 -0.42899220747E+03  0.94910060322E+02  0.18738295358E+03  0.48589470619E+03  0.89101406220E+02 0.  0.
         23    2    4    4    0    0  0.31060820283E+03  0.49990823259E+03  0.64459519919E+03  0.87739983626E+03  0.89116806392E+02 0.  0.
          3    1    3    3  502    0  0.35404144731E+02 -0.17016808530E+03  0.10888605872E+03  0.20510193685E+03  0.00000000000E+00 0. -1.
         -3    1    3    3    0  502  0.82979859912E+02 -0.42465020761E+03  0.10922030100E+03  0.44625388528E+03  0.00000000000E+00 0.  1.
         11    1    5    5    0    0 -0.26190393218E+03  0.28223772725E+02  0.14644744416E+03  0.30139194571E+03  0.00000000000E+00 0. -1.
        -11    1    5    5    0    0 -0.16708827529E+03  0.66686287596E+02  0.40935509419E+02  0.18450276048E+03  0.00000000000E+00 0.  1.
          1    1    6    6  503    0  0.86475929402E+02  0.16814499109E+03  0.15190255513E+03  0.24253909097E+03  0.00000000000E+00 0. -1.
         -1    1    6    6    0  503  0.22413227343E+03  0.33176324150E+03  0.49269264405E+03  0.63486074529E+03  0.00000000000E+00 0.  1.
<mgrwt>
<rscale>  0 0.17193425E+04</rscale>
<asrwt>0</asrwt>
<pdfrwt beam="1">  1        1 0.23574883E+00 0.17193425E+04</pdfrwt>
<pdfrwt beam="2">  1       -1 0.74197374E-01 0.17193425E+04</pdfrwt>
<totfact> 0.10792471E+01</totfact>
</mgrwt>
</event>
<event>
12    2  0.3552864E-008  0.1769859E+04  0.7818608E-02  0.8722494E-01
          2   -1    0    0  501    0  0.00000000000E+00  0.00000000000E+00  0.46904671206E+03  0.46904671206E+03  0.00000000000E+00 0. -1.
         -2   -1    0    0    0  501 -0.00000000000E+00 -0.00000000000E+00 -0.16695568381E+04  0.16695568381E+04  0.00000000000E+00 0.  1.
         23    2    1    2    0    0  0.53270523611E+03 -0.20139819136E+03 -0.77854477495E+03  0.96892387536E+03  0.91353213232E+02 0.  0.
        254    2    1    2    0    0 -0.53270523611E+03  0.20139819136E+03 -0.42196535108E+03  0.11696796748E+04  0.93046208093E+03 0.  0.
         23    2    4    4    0    0 -0.54333019576E+03  0.48905940873E+03 -0.12722870128E+03  0.74743157419E+03  0.89888869023E+02 0.  0.
         23    2    4    4    0    0  0.10624959653E+02 -0.28766121737E+03 -0.29473664979E+03  0.42224810060E+03  0.92530535382E+02 0.  0.
          2    1    3    3  502    0  0.25675464863E+03 -0.13786400391E+03 -0.35266200897E+03  0.45749308818E+03  0.00000000000E+00 0. -1.
         -2    1    3    3    0  502  0.27595058748E+03 -0.63534187455E+02 -0.42588276599E+03  0.51143078717E+03  0.00000000000E+00 0.  1.
         11    1    5    5    0    0 -0.30686393588E+03  0.33145926962E+03 -0.93394377638E+02  0.46125181012E+03  0.00000000000E+00 0. -1.
        -11    1    5    5    0    0 -0.23646625988E+03  0.15760013911E+03 -0.33834323645E+02  0.28617976407E+03  0.00000000000E+00 0.  1.
          4    1    6    6  503    0 -0.39096256109E+02 -0.16446066799E+03 -0.15336753981E+03  0.22824861626E+03  0.00000000000E+00 0. -1.
         -4    1    6    6    0  503  0.49721215762E+02 -0.12320054938E+03 -0.14136910999E+03  0.19399948433E+03  0.00000000000E+00 0.  1.
<mgrwt>
<rscale>  0 0.17698589E+04</rscale>
<asrwt>0</asrwt>
<pdfrwt beam="1">  1        2 0.72161033E-01 0.17698589E+04</pdfrwt>
<pdfrwt beam="2">  1       -2 0.25685490E+00 0.17698589E+04</pdfrwt>
<totfact> 0.36606768E+00</totfact>
</mgrwt>
</event>
<event>
12    2  0.3552864E-008  0.3040934E+04  0.7818608E-02  0.8232138E-01
         -2   -1    0    0    0  501 -0.00000000000E+00  0.00000000000E+00  0.16436168904E+04  0.16436168904E+04  0.00000000000E+00 0. -1.
          2   -1    0    0  501    0  0.00000000000E+00 -0.00000000000E+00 -0.14065439285E+04  0.14065439285E+04  0.00000000000E+00 0.  1.
         23    2    1    2    0    0 -0.88066354473E+03  0.77981625618E+03  0.84217407108E+03  0.14515797760E+04  0.11893278601E+03 0.  0.
        254    2    1    2    0    0  0.88066354473E+03 -0.77981625618E+03 -0.60510110921E+03  0.15985810430E+04  0.89757023470E+03 0.  0.
         23    2    4    4    0    0  0.18526394795E+03 -0.72038421073E+03 -0.16092257044E+03  0.76647105491E+03  0.91135409484E+02 0.  0.
         23    2    4    4    0    0  0.69539959678E+03 -0.59432045457E+02 -0.44417853877E+03  0.83210998808E+03  0.89440990263E+02 0.  0.
          4    1    3    3  502    0 -0.51626894341E+03  0.37936229920E+03  0.44300076934E+03  0.77890888917E+03  0.00000000000E+00 0. -1.
         -4    1    3    3    0  502 -0.36439460131E+03  0.40045395699E+03  0.39917330174E+03  0.67267088681E+03  0.00000000000E+00 0.  1.
         11    1    5    5    0    0  0.16400654988E+03 -0.58753579197E+03 -0.16483493535E+03  0.63187578776E+03  0.00000000000E+00 0.  1.
        -11    1    5    5    0    0  0.21257398070E+02 -0.13284841876E+03  0.39123649099E+01  0.13459526715E+03  0.00000000000E+00 0. -1.
          1    1    6    6  503    0  0.17920020738E+03 -0.48356992861E+02 -0.14357968432E+03  0.23466196716E+03  0.00000000000E+00 0. -1.
         -1    1    6    6    0  503  0.51619938940E+03 -0.11075052597E+02 -0.30059885445E+03  0.59744802092E+03  0.00000000000E+00 0.  1.
<mgrwt>
<rscale>  0 0.30409336E+04</rscale>
<asrwt>0</asrwt>
<pdfrwt beam="1">  1        2 0.21639137E+00 0.30409336E+04</pdfrwt>
<pdfrwt beam="2">  1       -2 0.25286414E+00 0.30409336E+04</pdfrwt>
<totfact> 0.75527637E-01</totfact>
</mgrwt>
</event>
<event>
12    2  0.3552864E-008  0.1834867E+04  0.7818608E-02  0.8687974E-01
         -1   -1    0    0    0  501 -0.00000000000E+00  0.00000000000E+00  0.80558254211E+03  0.80558254211E+03  0.00000000000E+00 0.  1.
          1   -1    0    0  501    0  0.00000000000E+00 -0.00000000000E+00 -0.10448140006E+04  0.10448140006E+04  0.00000000000E+00 0. -1.
         23    2    1    2    0    0 -0.63612290225E+03  0.26747224322E+03 -0.69085627776E+02  0.69951735366E+03  0.91421859798E+02 0.  0.
        254    2    1    2    0    0  0.63612290225E+03 -0.26747224322E+03 -0.17014583072E+03  0.11508791891E+04  0.90519586635E+03 0.  0.
         23    2    4    4    0    0  0.16060846097E+03 -0.54781647923E+03 -0.56835638258E+02  0.58073114815E+03  0.90113284278E+02 0.  0.
         23    2    4    4    0    0  0.47551444127E+03  0.28034423601E+03 -0.11331019246E+03  0.57014804091E+03  0.86733582365E+02 0.  0.
          1    1    3    3  502    0 -0.71539325818E+02  0.45789988570E+02 -0.35450361774E+02  0.92039808461E+02  0.00000000000E+00 0. -1.
         -1    1    3    3    0  502 -0.56458357643E+03  0.22168225465E+03 -0.33635266002E+02  0.60747754520E+03  0.00000000000E+00 0.  1.
         11    1    5    5    0    0  0.10350076679E+03 -0.35133662530E+03  0.71950487587E+01  0.36633536784E+03  0.00000000000E+00 0. -1.
        -11    1    5    5    0    0  0.57107694187E+02 -0.19647985393E+03 -0.64030687016E+02  0.21439578031E+03  0.00000000000E+00 0.  1.
          2    1    6    6  503    0  0.43937664199E+03  0.26384207108E+03 -0.12720952167E+03  0.52805940424E+03  0.00000000000E+00 0. -1.
         -2    1    6    6    0  503  0.36137799285E+02  0.16502164935E+02  0.13899329207E+02  0.42088636674E+02  0.00000000000E+00 0.  1.
<mgrwt>
<rscale>  0 0.18348667E+04</rscale>
<asrwt>0</asrwt>
<pdfrwt beam="1">  1        1 0.16074062E+00 0.18348667E+04</pdfrwt>
<pdfrwt beam="2">  1       -1 0.12393578E+00 0.18348667E+04</pdfrwt>
<totfact> 0.75127952E+00</totfact>
</mgrwt>
</event>
<event>
12    2  0.3552864E-008  0.1246018E+04  0.7818608E-02  0.9073504E-01
         -2   -1    0    0    0  501 -0.00000000000E+00  0.00000000000E+00  0.27570370751E+03  0.27570370751E+03  0.00000000000E+00 0.  1.
          2   -1    0    0  501    0  0.00000000000E+00 -0.00000000000E+00 -0.14078168406E+04  0.14078168406E+04  0.00000000000E+00 0. -1.
         23    2    1    2    0    0  0.85186554865E+02  0.91180679302E+02  0.70414349676E+02  0.17181640431E+03  0.94826318834E+02 0.  0.
        254    2    1    2    0    0 -0.85186554865E+02 -0.91180679302E+02 -0.12025274828E+04  0.15117041438E+04  0.90752763383E+03 0.  0.
         23    2    4    4    0    0 -0.33777170286E+03  0.19254824204E+03 -0.98865563659E+03  0.10661208164E+04  0.89493456422E+02 0.  0.
         23    2    4    4    0    0  0.25258514799E+03 -0.28372892134E+03 -0.21387184618E+03  0.44558332735E+03  0.92206166996E+02 0.  0.
          2    1    3    3  502    0  0.10711024785E+02 -0.16199704493E+02  0.28675631771E+02  0.34633052639E+02  0.00000000000E+00 0. -1.
         -2    1    3    3    0  502  0.74475530080E+02  0.10738038380E+03  0.41738717905E+02  0.13718335168E+03  0.00000000000E+00 0.  1.
         11    1    5    5    0    0 -0.10046661032E+03  0.92214747437E+02 -0.42568353718E+03  0.44699392978E+03  0.00000000000E+00 0. -1.
        -11    1    5    5    0    0 -0.23730509254E+03  0.10033349461E+03 -0.56297209941E+03  0.61912688667E+03  0.00000000000E+00 0.  1.
          2    1    6    6  503    0  0.82893859143E+02 -0.16227047569E+03 -0.98739214379E+02  0.20724992550E+03  0.00000000000E+00 0. -1.
         -2    1    6    6    0  503  0.16969128885E+03 -0.12145844565E+03 -0.11513263180E+03  0.23833340185E+03  0.00000000000E+00 0.  1.
<mgrwt>
<rscale>  0 0.12460182E+04</rscale>
<asrwt>0</asrwt>
<pdfrwt beam="1">  1        2 0.21658721E+00 0.12460182E+04</pdfrwt>
<pdfrwt beam="2">  1       -2 0.42415955E-01 0.12460182E+04</pdfrwt>
<totfact> 0.74197962E+01</totfact>
</mgrwt>
</event>
<event>
12    2  0.3552864E-008  0.1361132E+04  0.7818608E-02  0.8982444E-01
          1   -1    0    0  501    0  0.00000000000E+00  0.00000000000E+00  0.93693430864E+03  0.93693430864E+03  0.00000000000E+00 0. -1.
         -1   -1    0    0    0  501 -0.00000000000E+00 -0.00000000000E+00 -0.49434643765E+03  0.49434643765E+03  0.00000000000E+00 0.  1.
         23    2    1    2    0    0 -0.99046752951E+02 -0.13082561706E+03  0.48268792609E+03  0.52021985736E+03  0.10351552853E+03 0.  0.
        254    2    1    2    0    0  0.99046752951E+02  0.13082561706E+03 -0.40100055100E+02  0.91106088893E+03  0.89526438976E+03 0.  0.
         23    2    4    4    0    0  0.86803866003E+01 -0.16287326851E+03  0.35593086362E+03  0.40175406778E+03  0.90091623312E+02 0.  0.
         23    2    4    4    0    0  0.90366366351E+02  0.29369888557E+03 -0.39603091872E+03  0.50930682115E+03  0.90154500318E+02 0.  0.
          1    1    3    3  502    0 -0.69816775803E+02 -0.12241066353E+03  0.46303920070E+03  0.48400832029E+03  0.00000000000E+00 0. -1.
         -1    1    3    3    0  502 -0.29229977149E+02 -0.84149535297E+01  0.19648725390E+02  0.36211537063E+02  0.00000000000E+00 0.  1.
         11    1    5    5    0    0 -0.33232232089E+02 -0.44796312370E+02  0.69474061032E+02  0.89093972904E+02  0.00000000000E+00 0.  1.
        -11    1    5    5    0    0  0.41912618689E+02 -0.11807695614E+03  0.28645680259E+03  0.31266009488E+03  0.00000000000E+00 0. -1.
          3    1    6    6  503    0  0.10527786082E+03  0.23658691430E+03 -0.34435281387E+03  0.43085456528E+03  0.00000000000E+00 0. -1.
         -3    1    6    6    0  503 -0.14911494473E+02  0.57111971276E+02 -0.51678104851E+02  0.78452255872E+02  0.00000000000E+00 0.  1.
<mgrwt>
<rscale>  0 0.13611321E+04</rscale>
<asrwt>0</asrwt>
<pdfrwt beam="1">  1        1 0.14414374E+00 0.13611321E+04</pdfrwt>
<pdfrwt beam="2">  1       -1 0.76053298E-01 0.13611321E+04</pdfrwt>
<totfact> 0.28842029E+01</totfact>
</mgrwt>
</event>
<event>
12    2  0.3552864E-008  0.1360850E+04  0.7818608E-02  0.8982656E-01
          2   -1    0    0  501    0  0.00000000000E+00  0.00000000000E+00  0.27569668760E+04  0.27569668760E+04  0.00000000000E+00 0. -1.
         -2   -1    0    0    0  501 -0.00000000000E+00 -0.00000000000E+00 -0.16793015165E+03  0.16793015165E+03  0.00000000000E+00 0.  1.
         23    2    1    2    0    0 -0.91176989050E+02 -0.11370678433E+03  0.15157773653E+04  0.15254762597E+04  0.90853297116E+02 0.  0.
        254    2    1    2    0    0  0.91176989050E+02  0.11370678433E+03  0.10732593590E+04  0.13994207679E+04  0.88614353117E+03 0.  0.
         23    2    4    4    0    0  0.47958618311E+03  0.94252030197E+02  0.64063664952E+03  0.81064718271E+03  0.88584343451E+02 0.  0.
         23    2    4    4    0    0 -0.38840919406E+03  0.19454754136E+02  0.43262270950E+03  0.58877358521E+03  0.90839068584E+02 0.  0.
          1    1    3    3  502    0 -0.25408295903E+02 -0.59870112397E+02  0.10496754569E+04  0.10516884409E+04  0.00000000000E+00 0. -1.
         -1    1    3    3    0  502 -0.65768693147E+02 -0.53836671935E+02  0.46610190840E+03  0.47378781882E+03  0.00000000000E+00 0.  1.
         11    1    5    5    0    0  0.92499939595E+00 -0.10246382082E+01 -0.27606291433E+01  0.30865159334E+01  0.00000000000E+00 0. -1.
        -11    1    5    5    0    0  0.47866118371E+03  0.95276668405E+02  0.64339727866E+03  0.80756066677E+03  0.00000000000E+00 0.  1.
          2    1    6    6  503    0 -0.15520115836E+03 -0.36452200818E+02  0.17997345535E+03  0.24043004623E+03  0.00000000000E+00 0. -1.
         -2    1    6    6    0  503 -0.23320803569E+03  0.55906954954E+02  0.25264925415E+03  0.34834353897E+03  0.00000000000E+00 0.  1.
<mgrwt>
<rscale>  0 0.13608495E+04</rscale>
<asrwt>0</asrwt>
<pdfrwt beam="1">  1        2 0.42414872E+00 0.13608495E+04</pdfrwt>
<pdfrwt beam="2">  1       -2 0.25835410E-01 0.13608495E+04</pdfrwt>
<totfact> 0.32598471E+01</totfact>
</mgrwt>
</event>
<event>
12    2  0.3552864E-008  0.2713509E+04  0.7818608E-02  0.8330635E-01
          1   -1    0    0  501    0  0.00000000000E+00  0.00000000000E+00  0.19834822968E+04  0.19834822968E+04  0.00000000000E+00 0. -1.
         -1   -1    0    0    0  501 -0.00000000000E+00 -0.00000000000E+00 -0.92805628195E+03  0.92805628195E+03  0.00000000000E+00 0.  1.
         23    2    1    2    0    0 -0.19469487268E+03  0.11097449140E+04  0.91169395932E+01  0.11304295509E+04  0.91367298942E+02 0.  0.
        254    2    1    2    0    0  0.19469487268E+03 -0.11097449140E+04  0.10463090752E+04  0.17811090278E+04  0.89896986620E+03 0.  0.
         23    2    4    4    0    0  0.12961463911E+03 -0.12217990774E+04  0.10563386610E+04  0.16228610752E+04  0.90740081977E+02 0.  0.
         23    2    4    4    0    0  0.65080233569E+02  0.11205416332E+03 -0.10029585781E+02  0.15824795263E+03  0.90278732824E+02 0.  0.
          1    1    3    3  502    0 -0.18122856093E+03  0.94395994208E+03  0.36337330428E+02  0.96188594186E+03  0.00000000000E+00 0.  1.
         -1    1    3    3    0  502 -0.13466311745E+02  0.16578497195E+03 -0.27220390835E+02  0.16854360906E+03  0.00000000000E+00 0. -1.
         11    1    5    5    0    0  0.13618577793E+03 -0.10125691177E+04  0.90050341795E+03  0.13618917688E+04  0.00000000000E+00 0.  1.
        -11    1    5    5    0    0 -0.65711388214E+01 -0.20922995962E+03  0.15583524305E+03  0.26096930633E+03  0.00000000000E+00 0. -1.
          3    1    6    6  503    0 -0.51642770650E+01  0.42018865302E+02  0.29360885397E+02  0.51520058135E+02  0.00000000000E+00 0. -1.
         -3    1    6    6    0  503  0.70244510634E+02  0.70035298020E+02 -0.39390471178E+02  0.10672789449E+03  0.00000000000E+00 0.  1.
<mgrwt>
<rscale>  0 0.27135093E+04</rscale>
<asrwt>0</asrwt>
<pdfrwt beam="1">  1        1 0.30515112E+00 0.27135093E+04</pdfrwt>
<pdfrwt beam="2">  1       -1 0.14277789E+00 0.27135093E+04</pdfrwt>
<totfact> 0.10614543E+00</totfact>
</mgrwt>
</event>
<event>
12    2  0.3552864E-008  0.1201043E+04  0.7818608E-02  0.9111944E-01
          2   -1    0    0  501    0  0.00000000000E+00  0.00000000000E+00  0.10110919556E+04  0.10110919556E+04  0.00000000000E+00 0.  1.
         -2   -1    0    0    0  501 -0.00000000000E+00 -0.00000000000E+00 -0.35666973950E+03  0.35666973950E+03  0.00000000000E+00 0. -1.
         23    2    1    2    0    0  0.17771916372E+03  0.12907445473E+03  0.22890256026E+03  0.33008037353E+03  0.91172116792E+02 0.  0.
        254    2    1    2    0    0 -0.17771916372E+03 -0.12907445473E+03  0.42551965588E+03  0.10376813216E+04  0.92058200702E+03 0.  0.
         23    2    4    4    0    0  0.37813258955E+02 -0.62196410036E+02 -0.27349380348E+03  0.29730214443E+03  0.91057501432E+02 0.  0.
         23    2    4    4    0    0 -0.21553242267E+03 -0.66878044696E+02  0.69901345936E+03  0.74037917717E+03  0.92814931632E+02 0.  0.
          2    1    3    3  502    0  0.14936733652E+03  0.13470933539E+03  0.16577831811E+03  0.26065236814E+03  0.00000000000E+00 0. -1.
         -2    1    3    3    0  502  0.28351827191E+02 -0.56348806628E+01  0.63124242149E+02  0.69428005387E+02  0.00000000000E+00 0.  1.
         11    1    5    5    0    0 -0.30386228026E+02 -0.19631387926E+02 -0.86306515258E+02  0.93581669261E+02  0.00000000000E+00 0. -1.
        -11    1    5    5    0    0  0.68199486981E+02 -0.42565022110E+02 -0.18718728823E+03  0.20372047517E+03  0.00000000000E+00 0.  1.
          3    1    6    6  503    0 -0.20465307506E+03 -0.32040011563E+02  0.57903599701E+03  0.61497327528E+03  0.00000000000E+00 0. -1.
         -3    1    6    6    0  503 -0.10879347608E+02 -0.34838033132E+02  0.11997746235E+03  0.12540590189E+03  0.00000000000E+00 0.  1.
<mgrwt>
<rscale>  0 0.12010427E+04</rscale>
<asrwt>0</asrwt>
<pdfrwt beam="1">  1        2 0.15555261E+00 0.12010427E+04</pdfrwt>
<pdfrwt beam="2">  1       -2 0.54872268E-01 0.12010427E+04</pdfrwt>
<totfact> 0.76377712E+01</totfact>
</mgrwt>
</event>
<event>
12    2  0.3552864E-008  0.2774118E+04  0.7818608E-02  0.8311349E-01
          1   -1    0    0  501    0  0.00000000000E+00  0.00000000000E+00  0.15577067611E+04  0.15577067611E+04  0.00000000000E+00 0. -1.
         -1   -1    0    0    0  501 -0.00000000000E+00 -0.00000000000E+00 -0.12351058898E+04  0.12351058898E+04  0.00000000000E+00 0.  1.
         23    2    1    2    0    0  0.99044148356E+03 -0.79198872381E+02  0.89139388914E+03  0.13381833778E+04  0.94365741778E+02 0.  0.
        254    2    1    2    0    0 -0.99044148356E+03  0.79198872381E+02 -0.56879301784E+03  0.14546292731E+04  0.89731490091E+03 0.  0.
         23    2    4    4    0    0 -0.21943660095E+02 -0.25794824018E+03  0.78613860701E+01  0.27435387819E+03  0.90495470931E+02 0.  0.
         23    2    4    4    0    0 -0.96849782346E+03  0.33714711256E+03 -0.57665440391E+03  0.11802753949E+04  0.94146146023E+02 0.  0.
          1    1    3    3  502    0  0.85541030046E+03 -0.84874005418E+02  0.73066794325E+03  0.11281870511E+04  0.00000000000E+00 0. -1.
         -1    1    3    3    0  502  0.13503118310E+03  0.56751330375E+01  0.16072594590E+03  0.20999632670E+03  0.00000000000E+00 0.  1.
         11    1    5    5    0    0 -0.20627751323E+02 -0.25851237998E+03 -0.69952751329E+01  0.25942838819E+03  0.00000000000E+00 0.  1.
        -11    1    5    5    0    0 -0.13159087726E+01  0.56413979997E+00  0.14856661203E+02  0.14925489999E+02  0.00000000000E+00 0. -1.
          2    1    6    6  503    0 -0.64399474518E+02  0.25697186551E+02 -0.13851949443E+02  0.70707243040E+02  0.00000000000E+00 0. -1.
         -2    1    6    6    0  503 -0.90409834894E+03  0.31144992601E+03 -0.56280245446E+03  0.11095681519E+04  0.00000000000E+00 0.  1.
<mgrwt>
<rscale>  0 0.27741181E+04</rscale>
<asrwt>0</asrwt>
<pdfrwt beam="1">  1        1 0.23964719E+00 0.27741181E+04</pdfrwt>
<pdfrwt beam="2">  1       -1 0.19001629E+00 0.27741181E+04</pdfrwt>
<totfact> 0.91463681E-01</totfact>
</mgrwt>
</event>
<event>
12    2  0.3552864E-008  0.3129032E+04  0.7818608E-02  0.8207815E-01
         -2   -1    0    0    0  501 -0.00000000000E+00  0.00000000000E+00  0.89378767401E+03  0.89378767401E+03  0.00000000000E+00 0.  1.
          2   -1    0    0  501    0  0.00000000000E+00 -0.00000000000E+00 -0.27385821016E+04  0.27385821016E+04  0.00000000000E+00 0. -1.
         23    2    1    2    0    0  0.48026788195E+03 -0.10352048125E+04 -0.18663722246E+04  0.21894995347E+04  0.90866328487E+02 0.  0.
        254    2    1    2    0    0 -0.48026788195E+03  0.10352048125E+04  0.21577796985E+02  0.14428702409E+04  0.88266793791E+03 0.  0.
         23    2    4    4    0    0 -0.19751058639E+03  0.45234107494E+03 -0.41844225575E+03  0.65478520767E+03  0.10013424472E+03 0.  0.
         23    2    4    4    0    0 -0.28275729556E+03  0.58286373751E+03  0.44002005274E+03  0.78808503324E+03  0.88196077599E+02 0.  0.
          2    1    3    3  502    0  0.31602146639E+03 -0.77269225105E+03 -0.13840951588E+04  0.16163670037E+04  0.00000000000E+00 0. -1.
         -2    1    3    3    0  502  0.16424641557E+03 -0.26251256140E+03 -0.48227706580E+03  0.57313253102E+03  0.00000000000E+00 0.  1.
         11    1    5    5    0    0 -0.48629547364E+01  0.67825939668E+02 -0.94192027519E+02  0.11617290764E+03  0.00000000000E+00 0.  1.
        -11    1    5    5    0    0 -0.19264763165E+03  0.38451513527E+03 -0.32425022824E+03  0.53861230003E+03  0.00000000000E+00 0. -1.
          4    1    6    6  503    0 -0.27216230426E+03  0.58054889570E+03  0.43926279549E+03  0.77721370527E+03  0.00000000000E+00 0. -1.
         -4    1    6    6    0  503 -0.10594991303E+02  0.23148418107E+01  0.75725725446E+00  0.10871327972E+02  0.00000000000E+00 0.  1.
<mgrwt>
<rscale>  0 0.31290324E+04</rscale>
<asrwt>0</asrwt>
<pdfrwt beam="1">  1        2 0.42132033E+00 0.31290324E+04</pdfrwt>
<pdfrwt beam="2">  1       -2 0.13750580E+00 0.31290324E+04</pdfrwt>
<totfact> 0.80227202E-01</totfact>
</mgrwt>
</event>
<event>
12    2  0.3552864E-008  0.2369719E+04  0.7818608E-02  0.8450928E-01
          2   -1    0    0  501    0  0.00000000000E+00  0.00000000000E+00  0.29132603777E+04  0.29132603777E+04  0.00000000000E+00 0. -1.
         -2   -1    0    0    0  501 -0.00000000000E+00 -0.00000000000E+00 -0.48189704794E+03  0.48189704794E+03  0.00000000000E+00 0.  1.
         23    2    1    2    0    0  0.19785641743E+03 -0.13857675964E+03  0.24444691513E+04  0.24581183090E+04  0.92550034676E+02 0.  0.
        254    2    1    2    0    0 -0.19785641743E+03  0.13857675964E+03 -0.13105821562E+02  0.93703911666E+03  0.90527336389E+03 0.  0.
         23    2    4    4    0    0 -0.39725372320E+03  0.36245272193E+03  0.17381897009E+03  0.57235288292E+03  0.90511281026E+02 0.  0.
         23    2    4    4    0    0  0.19939730577E+03 -0.22387596228E+03 -0.18692479165E+03  0.36468623375E+03  0.90418135994E+02 0.  0.
          4    1    3    3  502    0  0.20778444412E+03 -0.13008631875E+03  0.22840294238E+04  0.22971476301E+04  0.00000000000E+00 0. -1.
         -4    1    3    3    0  502 -0.99280266826E+01 -0.84904408919E+01  0.16043972750E+03  0.16097067888E+03  0.00000000000E+00 0.  1.
         11    1    5    5    0    0 -0.44719547536E+02  0.83486058326E+02  0.43966621856E+02  0.10441658730E+03  0.00000000000E+00 0. -1.
        -11    1    5    5    0    0 -0.35253417566E+03  0.27896666360E+03  0.12985234823E+03  0.46793629561E+03  0.00000000000E+00 0.  1.
          2    1    6    6  503    0  0.20413313251E+03 -0.22855670103E+03 -0.18370691850E+03  0.35729082451E+03  0.00000000000E+00 0.  1.
         -2    1    6    6    0  503 -0.47358267423E+01  0.46807387494E+01 -0.32178731487E+01  0.73954092364E+01  0.00000000000E+00 0. -1.
<mgrwt>
<rscale>  0 0.23697186E+04</rscale>
<asrwt>0</asrwt>
<pdfrwt beam="1">  1        2 0.44819389E+00 0.23697186E+04</pdfrwt>
<pdfrwt beam="2">  1       -2 0.74138009E-01 0.23697186E+04</pdfrwt>
<totfact> 0.29128236E+00</totfact>
</mgrwt>
</event>
<event>
12    2  0.3552864E-008  0.2075111E+04  0.7818608E-02  0.8572287E-01
          2   -1    0    0  501    0  0.00000000000E+00  0.00000000000E+00  0.25433376970E+04  0.25433376970E+04  0.00000000000E+00 0. -1.
         -2   -1    0    0    0  501 -0.00000000000E+00 -0.00000000000E+00 -0.42327115870E+03  0.42327115870E+03  0.00000000000E+00 0.  1.
         23    2    1    2    0    0  0.49966279582E+03 -0.48064733947E+02  0.18406114698E+04  0.19101391223E+04  0.93849643845E+02 0.  0.
        254    2    1    2    0    0 -0.49966279582E+03  0.48064733947E+02  0.27945506858E+03  0.10564697335E+04  0.88660026743E+03 0.  0.
         23    2    4    4    0    0 -0.38421531152E+03  0.18200024357E+03  0.56215055363E+03  0.71072629874E+03  0.91504822289E+02 0.  0.
         23    2    4    4    0    0 -0.11544748430E+03 -0.13393550962E+03 -0.28269548505E+03  0.34574343473E+03  0.91405377457E+02 0.  0.
          1    1    3    3  502    0  0.39946086829E+03 -0.42601023964E+01  0.13749007534E+04  0.14317608793E+04  0.00000000000E+00 0. -1.
         -1    1    3    3    0  502  0.10020192753E+03 -0.43804631551E+02  0.46571071637E+03  0.47837824299E+03  0.00000000000E+00 0.  1.
         11    1    5    5    0    0 -0.81254773647E+02  0.81393676455E+01  0.14713640233E+03  0.16827866305E+03  0.00000000000E+00 0. -1.
        -11    1    5    5    0    0 -0.30296053788E+03  0.17386087592E+03  0.41501415130E+03  0.54244763569E+03  0.00000000000E+00 0.  1.
          3    1    6    6  503    0 -0.13876298055E+02  0.57023633282E+01 -0.70951160387E+02  0.72519899031E+02  0.00000000000E+00 0. -1.
         -3    1    6    6    0  503 -0.10157118624E+03 -0.13963787295E+03 -0.21174432466E+03  0.27322353570E+03  0.00000000000E+00 0.  1.
<mgrwt>
<rscale>  0 0.20751111E+04</rscale>
<asrwt>0</asrwt>
<pdfrwt beam="1">  1        2 0.39128271E+00 0.20751111E+04</pdfrwt>
<pdfrwt beam="2">  1       -2 0.65118641E-01 0.20751111E+04</pdfrwt>
<totfact> 0.65990812E+00</totfact>
</mgrwt>
</event>
<event>
12    2  0.3552864E-008  0.2405529E+04  0.7818608E-02  0.8437436E-01
         -2   -1    0    0    0  501 -0.00000000000E+00  0.00000000000E+00  0.48432026154E+03  0.48432026154E+03  0.00000000000E+00 0.  1.
          2   -1    0    0  501    0  0.00000000000E+00 -0.00000000000E+00 -0.29869548792E+04  0.29869548792E+04  0.00000000000E+00 0. -1.
         23    2    1    2    0    0 -0.17018028792E+03  0.67725125385E+03  0.15969960242E+02  0.70467794921E+03  0.93195392753E+02 0.  0.
        254    2    1    2    0    0  0.17018028792E+03 -0.67725125385E+03 -0.25186045779E+04  0.27665971915E+04  0.90722676829E+03 0.  0.
         23    2    4    4    0    0  0.58799334206E+02 -0.43085225542E+03 -0.24272009923E+04  0.24678801796E+04  0.10018431167E+03 0.  0.
         23    2    4    4    0    0  0.11138095371E+03 -0.24639899843E+03 -0.91403585587E+02  0.29871701188E+03  0.88085495117E+02 0.  0.
          4    1    3    3  502    0 -0.16049548583E+02  0.15821072312E+02 -0.10818671276E+02  0.24998759709E+02  0.00000000000E+00 0. -1.
         -4    1    3    3    0  502 -0.15413073934E+03  0.66143018154E+03  0.26788631517E+02  0.67967918950E+03  0.00000000000E+00 0.  1.
         11    1    5    5    0    0  0.21805186993E+02 -0.25573462783E+03 -0.16830242673E+04  0.17024824082E+04  0.00000000000E+00 0.  1.
        -11    1    5    5    0    0  0.36994147213E+02 -0.17511762759E+03 -0.74417672501E+03  0.76539777140E+03  0.00000000000E+00 0. -1.
          3    1    6    6  503    0  0.83078756472E+02 -0.10394215884E+03 -0.13085815577E+02  0.13370598614E+03  0.00000000000E+00 0. -1.
         -3    1    6    6    0  503  0.28302197240E+02 -0.14245683959E+03 -0.78317770011E+02  0.16501102573E+03  0.00000000000E+00 0.  1.
<mgrwt>
<rscale>  0 0.24055293E+04</rscale>
<asrwt>0</asrwt>
<pdfrwt beam="1">  1        2 0.45953152E+00 0.24055293E+04</pdfrwt>
<pdfrwt beam="2">  1       -2 0.74510810E-01 0.24055293E+04</pdfrwt>
<totfact> 0.25847803E+00</totfact>
</mgrwt>
</event>
<event>
12    2  0.3552864E-008  0.2646457E+04  0.7818608E-02  0.8352590E-01
         -2   -1    0    0    0  501 -0.00000000000E+00  0.00000000000E+00  0.11176344281E+04  0.11176344281E+04  0.00000000000E+00 0.  1.
          2   -1    0    0  501    0  0.00000000000E+00 -0.00000000000E+00 -0.15666430888E+04  0.15666430888E+04  0.00000000000E+00 0. -1.
         23    2    1    2    0    0 -0.66671192370E+03 -0.48258057355E+03 -0.10386379919E+04  0.13283332174E+04  0.91167204152E+02 0.  0.
        254    2    1    2    0    0  0.66671192370E+03  0.48258057355E+03  0.58962933121E+03  0.13559442995E+04  0.90196086167E+03 0.  0.
         23    2    4    4    0    0 -0.18906201200E+03  0.95287409393E+02 -0.23652155780E+02  0.23050787910E+03  0.88035919288E+02 0.  0.
         23    2    4    4    0    0  0.85577393570E+03  0.38729316416E+03  0.61328148699E+03  0.11254364204E+04  0.90265885430E+02 0.  0.
          3    1    3    3  502    0 -0.83532670135E+02 -0.47742361468E+02 -0.16984340764E+03  0.19520200608E+03  0.00000000000E+00 0. -1.
         -3    1    3    3    0  502 -0.58317925356E+03 -0.43483821208E+03 -0.86879458423E+03  0.11331312113E+04  0.00000000000E+00 0.  1.
         11    1    5    5    0    0 -0.63395379750E+02  0.79715365164E+02 -0.91249964542E+00  0.10185453486E+03  0.00000000000E+00 0. -1.
        -11    1    5    5    0    0 -0.12566663225E+03  0.15572044230E+02 -0.22739656135E+02  0.12865334424E+03  0.00000000000E+00 0.  1.
          3    1    6    6  503    0  0.28834298098E+03  0.17301051034E+03  0.19600620539E+03  0.38922068794E+03  0.00000000000E+00 0. -1.
         -3    1    6    6    0  503  0.56743095472E+03  0.21428265382E+03  0.41727528160E+03  0.73621573247E+03  0.00000000000E+00 0.  1.
<mgrwt>
<rscale>  0 0.26464574E+04</rscale>
<asrwt>0</asrwt>
<pdfrwt beam="1">  1        2 0.24102201E+00 0.26464574E+04</pdfrwt>
<pdfrwt beam="2">  1       -2 0.17194376E+00 0.26464574E+04</pdfrwt>
<totfact> 0.21185668E+00</totfact>
</mgrwt>
</event>
<event>
12    2  0.3552864E-008  0.1699981E+04  0.7818608E-02  0.8761375E-01
         -2   -1    0    0    0  501 -0.00000000000E+00  0.00000000000E+00  0.29808872372E+03  0.29808872372E+03  0.00000000000E+00 0.  1.
          2   -1    0    0  501    0  0.00000000000E+00 -0.00000000000E+00 -0.24237211787E+04  0.24237211787E+04  0.00000000000E+00 0. -1.
         23    2    1    2    0    0  0.29613447913E+03 -0.85009819743E+02 -0.15471843027E+04  0.15799830310E+04  0.87434617607E+02 0.  0.
        254    2    1    2    0    0 -0.29613447913E+03  0.85009819743E+02 -0.57844815223E+03  0.11418268714E+04  0.93501018195E+03 0.  0.
         23    2    4    4    0    0 -0.57225959492E+03 -0.88807908316E+02 -0.54714386422E+03  0.80193365273E+03  0.91451006888E+02 0.  0.
         23    2    4    4    0    0  0.27612511579E+03  0.17381772806E+03 -0.31304288007E+02  0.33989321871E+03  0.89943090471E+02 0.  0.
          2    1    3    3  502    0  0.19838751911E+03 -0.18530429874E+02 -0.10684463208E+04  0.10868663786E+04  0.00000000000E+00 0. -1.
         -2    1    3    3    0  502  0.97746960017E+02 -0.66479389869E+02 -0.47873798195E+03  0.49311665236E+03  0.00000000000E+00 0.  1.
         11    1    5    5    0    0 -0.29423569608E+03 -0.66565236305E+00 -0.28935990868E+03  0.41267934851E+03  0.00000000000E+00 0. -1.
        -11    1    5    5    0    0 -0.27802389884E+03 -0.88142255953E+02 -0.25778395555E+03  0.38925430421E+03  0.00000000000E+00 0.  1.
          4    1    6    6  503    0  0.24605355227E+03  0.15362612444E+03  0.28784762770E+01  0.29008899035E+03  0.00000000000E+00 0. -1.
         -4    1    6    6    0  503  0.30071563520E+02  0.20191603620E+02 -0.34182764284E+02  0.49804228369E+02  0.00000000000E+00 0.  1.
<mgrwt>
<rscale>  0 0.16999811E+04</rscale>
<asrwt>0</asrwt>
<pdfrwt beam="1">  1        2 0.37288019E+00 0.16999811E+04</pdfrwt>
<pdfrwt beam="2">  1       -2 0.45859803E-01 0.16999811E+04</pdfrwt>
<totfact> 0.16550544E+01</totfact>
</mgrwt>
</event>
<event>
12    2  0.3552864E-008  0.1497598E+04  0.7818608E-02  0.8886052E-01
          2   -1    0    0  501    0  0.00000000000E+00  0.00000000000E+00  0.14549267138E+04  0.14549267138E+04  0.00000000000E+00 0. -1.
         -2   -1    0    0    0  501 -0.00000000000E+00 -0.00000000000E+00 -0.38538031081E+03  0.38538031081E+03  0.00000000000E+00 0.  1.
         23    2    1    2    0    0  0.23175197818E+03  0.39729410595E+03  0.21847368306E+03  0.51717357248E+03  0.90477443962E+02 0.  0.
        254    2    1    2    0    0 -0.23175197818E+03 -0.39729410595E+03  0.85107271990E+03  0.13231334521E+04  0.90266592462E+03 0.  0.
         23    2    4    4    0    0 -0.28380582953E+01  0.23936873096E+03  0.48494799516E+03  0.54885261289E+03  0.93590537565E+02 0.  0.
         23    2    4    4    0    0 -0.22891391989E+03 -0.63666283691E+03  0.36612472473E+03  0.77428083920E+03  0.87876921196E+02 0.  0.
          4    1    3    3  502    0  0.12364257443E+03  0.12524690814E+03  0.84659845634E+02  0.19529865251E+03  0.00000000000E+00 0. -1.
         -4    1    3    3    0  502  0.10810940375E+03  0.27204719781E+03  0.13381383742E+03  0.32187491996E+03  0.00000000000E+00 0.  1.
         11    1    5    5    0    0  0.53850520285E+01  0.17799003631E+03  0.25714727623E+03  0.31278454802E+03  0.00000000000E+00 0. -1.
        -11    1    5    5    0    0 -0.82231103238E+01  0.61378694654E+02  0.22780071894E+03  0.23606806486E+03  0.00000000000E+00 0.  1.
          3    1    6    6  503    0 -0.20679730014E+03 -0.47078197408E+03  0.26092643744E+03  0.57661373225E+03  0.00000000000E+00 0. -1.
         -3    1    6    6    0  503 -0.22116619744E+02 -0.16588086283E+03  0.10519828730E+03  0.19766710696E+03  0.00000000000E+00 0.  1.
<mgrwt>
<rscale>  0 0.14975982E+04</rscale>
<asrwt>0</asrwt>
<pdfrwt beam="1">  1        2 0.22383488E+00 0.14975982E+04</pdfrwt>
<pdfrwt beam="2">  1       -2 0.59289279E-01 0.14975982E+04</pdfrwt>
<totfact> 0.34550990E+01</totfact>
</mgrwt>
</event>
<event>
12    2  0.3552864E-008  0.2289154E+04  0.7818608E-02  0.8482210E-01
         -2   -1    0    0    0  501 -0.00000000000E+00  0.00000000000E+00  0.13706659110E+04  0.13706659110E+04  0.00000000000E+00 0.  1.
          2   -1    0    0  501    0  0.00000000000E+00 -0.00000000000E+00 -0.95578077894E+03  0.95578077894E+03  0.00000000000E+00 0. -1.
         23    2    1    2    0    0 -0.46619905363E+03 -0.53204223781E+03 -0.49528438624E+03  0.86836344188E+03  0.91312340441E+02 0.  0.
        254    2    1    2    0    0  0.46619905363E+03  0.53204223781E+03  0.91016951828E+03  0.14580832481E+04  0.89285368668E+03 0.  0.
         23    2    4    4    0    0 -0.76509102155E+02  0.13307682045E+03 -0.12708199183E+03  0.21834729199E+03  0.89233538644E+02 0.  0.
         23    2    4    4    0    0  0.54270815578E+03  0.39896541737E+03  0.10372515101E+04  0.12397359561E+04  0.85726302400E+02 0.  0.
          2    1    3    3  502    0 -0.47025843516E+03 -0.52737904052E+03 -0.48760542296E+03  0.85850491945E+03  0.00000000000E+00 0. -1.
         -2    1    3    3    0  502  0.40593815326E+01 -0.46631972897E+01 -0.76789632770E+01  0.98585224248E+01  0.00000000000E+00 0.  1.
         11    1    5    5    0    0 -0.70997609315E+02  0.12490348364E+03 -0.68904348907E+02  0.15934035914E+03  0.00000000000E+00 0.  1.
        -11    1    5    5    0    0 -0.55114928393E+01  0.81733368078E+01 -0.58177642922E+02  0.59006932846E+02  0.00000000000E+00 0. -1.
          1    1    6    6  503    0  0.95599170826E+02  0.67505098913E+02  0.24508792070E+03  0.27159570820E+03  0.00000000000E+00 0. -1.
         -1    1    6    6    0  503  0.44710898495E+03  0.33146031846E+03  0.79216358942E+03  0.96814024786E+03  0.00000000000E+00 0.  1.
<mgrwt>
<rscale>  0 0.22891537E+04</rscale>
<asrwt>0</asrwt>
<pdfrwt beam="1">  1        2 0.14704320E+00 0.22891537E+04</pdfrwt>
<pdfrwt beam="2">  1       -2 0.21087168E+00 0.22891537E+04</pdfrwt>
<totfact> 0.27598112E+00</totfact>
</mgrwt>
</event>
<event>
12    2  0.3552864E-008  0.1760175E+04  0.7818608E-02  0.8727769E-01
         -2   -1    0    0    0  501 -0.00000000000E+00  0.00000000000E+00  0.17051497429E+04  0.17051497429E+04  0.00000000000E+00 0. -1.
          2   -1    0    0  501    0  0.00000000000E+00 -0.00000000000E+00 -0.45424392466E+03  0.45424392466E+03  0.00000000000E+00 0.  1.
         23    2    1    2    0    0 -0.12260078608E+03 -0.63509527203E+03  0.47240262039E+03  0.80609765491E+03  0.90841819736E+02 0.  0.
        254    2    1    2    0    0  0.12260078608E+03  0.63509527203E+03  0.77850319782E+03  0.13532960126E+04  0.89831281380E+03 0.  0.
         23    2    4    4    0    0 -0.23362197816E+03 -0.55540752548E+02  0.42006743643E+03  0.49266389186E+03  0.92720306971E+02 0.  0.
         23    2    4    4    0    0  0.35622276423E+03  0.69063602457E+03  0.35843576138E+03  0.86063212074E+03  0.91316351328E+02 0.  0.
          3    1    3    3  502    0 -0.78873833565E+02 -0.32952683608E+03  0.29986504109E+03  0.45246884996E+03  0.00000000000E+00 0. -1.
         -3    1    3    3    0  502 -0.43726952511E+02 -0.30556843595E+03  0.17253757930E+03  0.35362880495E+03  0.00000000000E+00 0.  1.
         11    1    5    5    0    0 -0.44695876231E+02  0.38952704763E+00  0.16156246090E+03  0.16763144650E+03  0.00000000000E+00 0.  1.
        -11    1    5    5    0    0 -0.18892610193E+03 -0.55930279596E+02  0.25850497553E+03  0.32503244536E+03  0.00000000000E+00 0. -1.
          4    1    6    6  503    0  0.12564827112E+03  0.17223447813E+03  0.12485647925E+03  0.24706546482E+03  0.00000000000E+00 0. -1.
         -4    1    6    6    0  503  0.23057449311E+03  0.51840154644E+03  0.23357928213E+03  0.61356665593E+03  0.00000000000E+00 0.  1.
<mgrwt>
<rscale>  0 0.17601749E+04</rscale>
<asrwt>0</asrwt>
<pdfrwt beam="1">  1        2 0.69883682E-01 0.17601749E+04</pdfrwt>
<pdfrwt beam="2">  1       -2 0.26233073E+00 0.17601749E+04</pdfrwt>
<totfact> 0.35194318E+00</totfact>
</mgrwt>
</event>
<event>
12    2  0.3552864E-008  0.1968301E+04  0.7818608E-02  0.8621586E-01
         -2   -1    0    0    0  501 -0.00000000000E+00  0.00000000000E+00  0.14844033366E+04  0.14844033366E+04  0.00000000000E+00 0. -1.
          2   -1    0    0  501    0  0.00000000000E+00 -0.00000000000E+00 -0.65248561274E+03  0.65248561274E+03  0.00000000000E+00 0.  1.
         23    2    1    2    0    0 -0.40616490244E+03  0.66568227238E+02  0.10355145321E+04  0.11182387324E+04  0.93628305800E+02 0.  0.
        254    2    1    2    0    0  0.40616490244E+03 -0.66568227238E+02 -0.20359680820E+03  0.10186502169E+04  0.90928287531E+03 0.  0.
         23    2    4    4    0    0 -0.16098438106E+03  0.67406432174E+02  0.21804326223E+03  0.29366142728E+03  0.90744540485E+02 0.  0.
         23    2    4    4    0    0  0.56714928349E+03 -0.13397465941E+03 -0.42164007043E+03  0.72498878966E+03  0.90669052153E+02 0.  0.
          4    1    3    3  502    0 -0.37840314695E+03  0.63509250171E+02  0.10099322405E+04  0.10803635948E+04  0.00000000000E+00 0. -1.
         -4    1    3    3    0  502 -0.27761755486E+02  0.30589770661E+01  0.25582291547E+02  0.37875137612E+02  0.00000000000E+00 0.  1.
         11    1    5    5    0    0 -0.14621218012E+03  0.45775409396E+02  0.21920693928E+03  0.26744171692E+03  0.00000000000E+00 0. -1.
        -11    1    5    5    0    0 -0.14772200935E+02  0.21631022779E+02 -0.11636770571E+01  0.26219710357E+02  0.00000000000E+00 0.  1.
          4    1    6    6  503    0  0.52736161026E+03 -0.11083141002E+03 -0.36004142438E+03  0.64809235198E+03  0.00000000000E+00 0. -1.
         -4    1    6    6    0  503  0.39787673227E+02 -0.23143249392E+02 -0.61598646049E+02  0.76896437683E+02  0.00000000000E+00 0.  1.
<mgrwt>
<rscale>  0 0.19683006E+04</rscale>
<asrwt>0</asrwt>
<pdfrwt beam="1">  1        2 0.10038240E+00 0.19683006E+04</pdfrwt>
<pdfrwt beam="2">  1       -2 0.22836974E+00 0.19683006E+04</pdfrwt>
<totfact> 0.36468149E+00</totfact>
</mgrwt>
</event>
<event>
12    2  0.3552864E-008  0.2161965E+04  0.7818608E-02  0.8534428E-01
          1   -1    0    0  501    0  0.00000000000E+00  0.00000000000E+00  0.70016337125E+03  0.70016337125E+03  0.00000000000E+00 0. -1.
         -1   -1    0    0    0  501 -0.00000000000E+00 -0.00000000000E+00 -0.16689297335E+04  0.16689297335E+04  0.00000000000E+00 0.  1.
         23    2    1    2    0    0 -0.82916592078E+03  0.24463244249E+03 -0.16665166311E+03  0.88395845403E+03  0.79048184861E+02 0.  0.
        254    2    1    2    0    0  0.82916592078E+03 -0.24463244249E+03 -0.80211469914E+03  0.14851346507E+04  0.90270470482E+03 0.  0.
         23    2    4    4    0    0  0.47256240196E+03 -0.55784358433E+03 -0.63930774561E+03  0.97522919142E+03  0.88616555322E+02 0.  0.
         23    2    4    4    0    0  0.35660351882E+03  0.31321114184E+03 -0.16280695353E+03  0.50990545930E+03  0.90720363204E+02 0.  0.
          2    1    3    3  502    0 -0.10503931562E+03  0.12726116047E+02 -0.40060491822E+02  0.11313732744E+03  0.00000000000E+00 0. -1.
         -2    1    3    3    0  502 -0.72412660516E+03  0.23190632644E+03 -0.12659117129E+03  0.77082112659E+03  0.00000000000E+00 0.  1.
         11    1    5    5    0    0  0.72630365409E+01  0.27008862073E+01 -0.92283182057E+01  0.12050242446E+02  0.00000000000E+00 0.  1.
        -11    1    5    5    0    0  0.46529936542E+03 -0.56054447054E+03 -0.63007942741E+03  0.96317894898E+03  0.00000000000E+00 0. -1.
          2    1    6    6  503    0  0.16230310222E+03  0.10660259173E+03 -0.10391038655E+03  0.22023573277E+03  0.00000000000E+00 0.  1.
         -2    1    6    6    0  503  0.19430041660E+03  0.20660855011E+03 -0.58896566985E+02  0.28966972654E+03  0.00000000000E+00 0. -1.
<mgrwt>
<rscale>  0 0.21619653E+04</rscale>
<asrwt>0</asrwt>
<pdfrwt beam="1">  1        1 0.10771744E+00 0.21619653E+04</pdfrwt>
<pdfrwt beam="2">  1       -1 0.25675842E+00 0.21619653E+04</pdfrwt>
<totfact> 0.15691798E+00</totfact>
</mgrwt>
</event>
<event>
12    2  0.3552864E-008  0.2187911E+04  0.7818608E-02  0.8523477E-01
         -2   -1    0    0    0  501 -0.00000000000E+00  0.00000000000E+00  0.17247609507E+04  0.17247609507E+04  0.00000000000E+00 0.  1.
          2   -1    0    0  501    0  0.00000000000E+00 -0.00000000000E+00 -0.69385784182E+03  0.69385784182E+03  0.00000000000E+00 0. -1.
         23    2    1    2    0    0 -0.62626301859E+03  0.78176287822E+02 -0.25148623380E+03  0.68594243444E+03  0.94629789955E+02 0.  0.
        254    2    1    2    0    0  0.62626301859E+03 -0.78176287822E+02  0.12823893426E+04  0.17326763580E+04  0.97945292646E+03 0.  0.
         23    2    4    4    0    0  0.84575577954E+03 -0.11152036430E+03  0.71756057927E+03  0.11187065372E+04  0.94188647221E+02 0.  0.
         23    2    4    4    0    0 -0.21949276096E+03  0.33344076481E+02  0.56482876337E+03  0.61396982079E+03  0.92943581636E+02 0.  0.
          3    1    3    3  502    0 -0.35546235057E+03  0.59217359058E+02 -0.95279208246E+02  0.37274429011E+03  0.00000000000E+00 0. -1.
         -3    1    3    3    0  502 -0.27080066802E+03  0.18958928764E+02 -0.15620702556E+03  0.31319814433E+03  0.00000000000E+00 0.  1.
         11    1    5    5    0    0  0.32208859165E+03 -0.24143242133E+02  0.21766539521E+03  0.38948964208E+03  0.00000000000E+00 0. -1.
        -11    1    5    5    0    0  0.52366718790E+03 -0.87377122169E+02  0.49989518406E+03  0.72921689517E+03  0.00000000000E+00 0.  1.
          1    1    6    6  503    0 -0.12292806183E+03 -0.17909600645E+02  0.37341570291E+03  0.39353697331E+03  0.00000000000E+00 0. -1.
         -1    1    6    6    0  503 -0.96564699123E+02  0.51253677126E+02  0.19141306045E+03  0.22043284748E+03  0.00000000000E+00 0.  1.
<mgrwt>
<rscale>  0 0.21879113E+04</rscale>
<asrwt>0</asrwt>
<pdfrwt beam="1">  1        2 0.10674736E+00 0.21879113E+04</pdfrwt>
<pdfrwt beam="2">  1       -2 0.26534784E+00 0.21879113E+04</pdfrwt>
<totfact> 0.19616264E+00</totfact>
</mgrwt>
</event>
<event>
12    2  0.3552864E-008  0.1797514E+04  0.7818608E-02  0.8707623E-01
         -2   -1    0    0    0  501 -0.00000000000E+00  0.00000000000E+00  0.64070880800E+03  0.64070880800E+03  0.00000000000E+00 0.  1.
          2   -1    0    0  501    0  0.00000000000E+00 -0.00000000000E+00 -0.12607350358E+04  0.12607350358E+04  0.00000000000E+00 0. -1.
         23    2    1    2    0    0 -0.26226993499E+03  0.44490552315E+03 -0.68336377076E+03  0.86165505325E+03  0.93471622819E+02 0.  0.
        254    2    1    2    0    0  0.26226993499E+03 -0.44490552315E+03  0.63337543005E+02  0.10397887905E+04  0.90023477003E+03 0.  0.
         23    2    4    4    0    0 -0.29050931109E+03 -0.35399902846E+03  0.68215382949E+02  0.47233193197E+03  0.93451289443E+02 0.  0.
         23    2    4    4    0    0  0.55277924608E+03 -0.90906494688E+02 -0.48778399444E+01  0.56745685854E+03  0.90302864302E+02 0.  0.
          2    1    3    3  502    0 -0.23527585619E+03  0.41653598631E+03 -0.66283765973E+03  0.81744156950E+03  0.00000000000E+00 0. -1.
         -2    1    3    3    0  502 -0.26994078799E+02  0.28369536839E+02 -0.20526111028E+02  0.44213483742E+02  0.00000000000E+00 0.  1.
         11    1    5    5    0    0 -0.15516863133E+03 -0.25916973664E+03  0.40669134134E+02  0.30479539861E+03  0.00000000000E+00 0.  1.
        -11    1    5    5    0    0 -0.13534067977E+03 -0.94829291821E+02  0.27546248815E+02  0.16753653336E+03  0.00000000000E+00 0. -1.
          1    1    6    6  503    0  0.33546089191E+03 -0.90115226001E+02 -0.30212109913E+02  0.34866536327E+03  0.00000000000E+00 0. -1.
         -1    1    6    6    0  503  0.21731835417E+03 -0.79126868724E+00  0.25334269969E+02  0.21879149527E+03  0.00000000000E+00 0.  1.
<mgrwt>
<rscale>  0 0.17975139E+04</rscale>
<asrwt>0</asrwt>
<pdfrwt beam="1">  1        2 0.19395924E+00 0.17975139E+04</pdfrwt>
<pdfrwt beam="2">  1       -2 0.98570586E-01 0.17975139E+04</pdfrwt>
<totfact> 0.14069219E+01</totfact>
</mgrwt>
</event>
<event>
12    2  0.3552864E-008  0.3075828E+04  0.7818608E-02  0.8222403E-01
          2   -1    0    0  501    0  0.00000000000E+00  0.00000000000E+00  0.24406191415E+04  0.24406191415E+04  0.00000000000E+00 0. -1.
         -2   -1    0    0    0  501 -0.00000000000E+00 -0.00000000000E+00 -0.96908992550E+03  0.96908992550E+03  0.00000000000E+00 0.  1.
         23    2    1    2    0    0 -0.23852543209E+03  0.51374318521E+03 -0.75286565281E+03  0.94676120001E+03  0.93400409906E+02 0.  0.
        254    2    1    2    0    0  0.23852543209E+03 -0.51374318521E+03  0.22243948688E+04  0.24629478670E+04  0.89294637075E+03 0.  0.
         23    2    4    4    0    0 -0.23124265693E+03  0.23456888609E+02  0.11004248662E+04  0.11283773784E+04  0.90979282671E+02 0.  0.
         23    2    4    4    0    0  0.46976808902E+03 -0.53720007382E+03  0.11239700025E+04  0.13345704886E+04  0.92216297531E+02 0.  0.
          1    1    3    3  502    0 -0.12583193381E+02  0.42151958175E+02 -0.25224909143E+02  0.50709174465E+02  0.00000000000E+00 0. -1.
         -1    1    3    3    0  502 -0.22594223870E+03  0.47159122703E+03 -0.72764074366E+03  0.89605202555E+03  0.00000000000E+00 0.  1.
         11    1    5    5    0    0 -0.87599761536E+02  0.50361723175E+02  0.37475485512E+03  0.38813814914E+03  0.00000000000E+00 0.  1.
        -11    1    5    5    0    0 -0.14364289540E+03 -0.26904834566E+02  0.72567001109E+03  0.74023922925E+03  0.00000000000E+00 0. -1.
          4    1    6    6  503    0  0.36522226871E+03 -0.36189851095E+03  0.76757689446E+03  0.92386802450E+03  0.00000000000E+00 0. -1.
         -4    1    6    6    0  503  0.10454582031E+03 -0.17530156287E+03  0.35639310809E+03  0.41070246405E+03  0.00000000000E+00 0.  1.
<mgrwt>
<rscale>  0 0.30758280E+04</rscale>
<asrwt>0</asrwt>
<pdfrwt beam="1">  1        2 0.37547987E+00 0.30758280E+04</pdfrwt>
<pdfrwt beam="2">  1       -2 0.14909076E+00 0.30758280E+04</pdfrwt>
<totfact> 0.97571201E-01</totfact>
</mgrwt>
</event>
<event>
12    2  0.3552864E-008  0.2709396E+04  0.7818608E-02  0.8331963E-01
          2   -1    0    0  501    0  0.00000000000E+00  0.00000000000E+00  0.27229097184E+04  0.27229097184E+04  0.00000000000E+00 0. -1.
         -2   -1    0    0    0  501 -0.00000000000E+00 -0.00000000000E+00 -0.67398749568E+03  0.67398749568E+03  0.00000000000E+00 0.  1.
         23    2    1    2    0    0 -0.50227509627E+03 -0.14830040878E+03  0.22761959411E+04  0.23373755565E+04  0.89349013945E+02 0.  0.
        254    2    1    2    0    0  0.50227509627E+03  0.14830040878E+03 -0.22727371839E+03  0.10595216576E+04  0.89255785034E+03 0.  0.
         23    2    4    4    0    0 -0.41964182036E+02  0.19008630964E+03  0.24733284711E+03  0.33045852709E+03  0.10067523621E+03 0.  0.
         23    2    4    4    0    0  0.54423927830E+03 -0.41785900857E+02 -0.47460656549E+03  0.72906313047E+03  0.91319234787E+02 0.  0.
          2    1    3    3  502    0 -0.50442460455E+03 -0.14979655308E+03  0.22735678241E+04  0.23336653230E+04  0.00000000000E+00 0. -1.
         -2    1    3    3    0  502  0.21495082863E+01  0.14961442935E+01  0.26281169625E+01  0.37102334682E+01  0.00000000000E+00 0.  1.
         11    1    5    5    0    0  0.42903282488E+01  0.76006558079E+02  0.16681286965E+03  0.18336285684E+03  0.00000000000E+00 0.  1.
        -11    1    5    5    0    0 -0.46254510284E+02  0.11407975156E+03  0.80519977453E+02  0.14709567025E+03  0.00000000000E+00 0. -1.
          1    1    6    6  503    0  0.32140601412E+02 -0.25510228615E+02 -0.37395432692E+02  0.55517640524E+02  0.00000000000E+00 0. -1.
         -1    1    6    6    0  503  0.51209867689E+03 -0.16275672242E+02 -0.43721113280E+03  0.67354548995E+03  0.00000000000E+00 0.  1.
<mgrwt>
<rscale>  0 0.27093963E+04</rscale>
<asrwt>0</asrwt>
<pdfrwt beam="1">  1        2 0.41890918E+00 0.27093963E+04</pdfrwt>
<pdfrwt beam="2">  1       -2 0.10369038E+00 0.27093963E+04</pdfrwt>
<totfact> 0.17082832E+00</totfact>
</mgrwt>
</event>
<event>
12    2  0.3552864E-008  0.1843575E+04  0.7818608E-02  0.8683464E-01
          2   -1    0    0  501    0  0.00000000000E+00  0.00000000000E+00  0.18533892744E+04  0.18533892744E+04  0.00000000000E+00 0. -1.
         -2   -1    0    0    0  501 -0.00000000000E+00 -0.00000000000E+00 -0.45845320769E+03  0.45845320769E+03  0.00000000000E+00 0.  1.
         23    2    1    2    0    0  0.12057976986E+03 -0.11684865983E+03 -0.31743644083E+03  0.37080346951E+03  0.92391714089E+02 0.  0.
        254    2    1    2    0    0 -0.12057976986E+03  0.11684865983E+03  0.17123725076E+04  0.19410390126E+04  0.89845409096E+03 0.  0.
         23    2    4    4    0    0  0.31627269481E+03 -0.12547461461E+03  0.39438788089E+03  0.52874376396E+03  0.90861823353E+02 0.  0.
         23    2    4    4    0    0 -0.43685246467E+03  0.24232327444E+03  0.13179846267E+04  0.14122952486E+04  0.89071588942E+02 0.  0.
          4    1    3    3  502    0  0.31286916152E+01 -0.96760045540E+00 -0.88744599762E+02  0.88805005201E+02  0.00000000000E+00 0. -1.
         -4    1    3    3    0  502  0.11745107825E+03 -0.11588105938E+03 -0.22869184107E+03  0.28199846431E+03  0.00000000000E+00 0.  1.
         11    1    5    5    0    0  0.13068478260E+03 -0.68580816606E+02  0.23536111992E+03  0.27780694300E+03  0.00000000000E+00 0. -1.
        -11    1    5    5    0    0  0.18558791221E+03 -0.56893798000E+02  0.15902676097E+03  0.25093682096E+03  0.00000000000E+00 0.  1.
          3    1    6    6  503    0 -0.12667290347E+03  0.27761642586E+02  0.30796645870E+03  0.33415576152E+03  0.00000000000E+00 0. -1.
         -3    1    6    6    0  503 -0.31017956120E+03  0.21456163185E+03  0.10100181680E+04  0.10781394871E+04  0.00000000000E+00 0.  1.
<mgrwt>
<rscale>  0 0.18435751E+04</rscale>
<asrwt>0</asrwt>
<pdfrwt beam="1">  1        2 0.28513681E+00 0.18435751E+04</pdfrwt>
<pdfrwt beam="2">  1       -2 0.70531264E-01 0.18435751E+04</pdfrwt>
<totfact> 0.13862239E+01</totfact>
</mgrwt>
</event>
<event>
12    2  0.3552864E-008  0.2994536E+04  0.7818608E-02  0.8245293E-01
          2   -1    0    0  501    0  0.00000000000E+00  0.00000000000E+00  0.14208657089E+04  0.14208657089E+04  0.00000000000E+00 0. -1.
         -2   -1    0    0    0  501 -0.00000000000E+00 -0.00000000000E+00 -0.15777788064E+04  0.15777788064E+04  0.00000000000E+00 0.  1.
         23    2    1    2    0    0 -0.11526257737E+04 -0.47126894238E+02  0.64705335983E+03  0.13257815541E+04  0.90838099512E+02 0.  0.
        254    2    1    2    0    0  0.11526257737E+04  0.47126894238E+02 -0.80396645728E+03  0.16728629612E+04  0.90627882252E+03 0.  0.
         23    2    4    4    0    0  0.94735291648E+03 -0.34304066186E+03 -0.50109510499E+03  0.11290507075E+04  0.92221211518E+02 0.  0.
         23    2    4    4    0    0  0.20527285724E+03  0.39016755610E+03 -0.30287135229E+03  0.54381225369E+03  0.98148069125E+02 0.  0.
          1    1    3    3  502    0 -0.30052194508E+03 -0.75792025082E+01  0.21495777181E+03  0.36956423995E+03  0.00000000000E+00 0. -1.
         -1    1    3    3    0  502 -0.85210382864E+03 -0.39547691730E+02  0.43209558802E+03  0.95621731415E+03  0.00000000000E+00 0.  1.
         11    1    5    5    0    0  0.91223770882E+03 -0.34387472455E+03 -0.47062117564E+03  0.10825487308E+04  0.00000000000E+00 0.  1.
        -11    1    5    5    0    0  0.35115207655E+02  0.83406269330E+00 -0.30473929345E+02  0.46501976721E+02  0.00000000000E+00 0. -1.
          4    1    6    6  503    0  0.18481280365E+01 -0.55707047442E+01 -0.61745931529E+00  0.59016594778E+01  0.00000000000E+00 0. -1.
         -4    1    6    6    0  503  0.20342472920E+03  0.39573826084E+03 -0.30225389298E+03  0.53791059421E+03  0.00000000000E+00 0.  1.
<mgrwt>
<rscale>  0 0.29945362E+04</rscale>
<asrwt>0</asrwt>
<pdfrwt beam="1">  1        2 0.21859472E+00 0.29945362E+04</pdfrwt>
<pdfrwt beam="2">  1       -2 0.24273520E+00 0.29945362E+04</pdfrwt>
<totfact> 0.85899017E-01</totfact>
</mgrwt>
</event>
<event>
12    2  0.3552864E-008  0.1781432E+04  0.7818608E-02  0.8716236E-01
         -2   -1    0    0    0  501 -0.00000000000E+00  0.00000000000E+00  0.42819126577E+03  0.42819126577E+03  0.00000000000E+00 0.  1.
          2   -1    0    0  501    0  0.00000000000E+00 -0.00000000000E+00 -0.18528519486E+04  0.18528519486E+04  0.00000000000E+00 0. -1.
         23    2    1    2    0    0  0.42654387192E+03 -0.32410437906E+03 -0.10364568519E+04  0.11703013175E+04  0.91537122004E+02 0.  0.
        254    2    1    2    0    0 -0.42654387192E+03  0.32410437906E+03 -0.38820383093E+03  0.11107418969E+04  0.89222307968E+03 0.  0.
         23    2    4    4    0    0  0.23223122158E+02  0.76827143505E+02 -0.55095298442E+03  0.56421849137E+03  0.91387042702E+02 0.  0.
         23    2    4    4    0    0 -0.44976699408E+03  0.24727723555E+03  0.16274915349E+03  0.54652340551E+03  0.93617122478E+02 0.  0.
          2    1    3    3  502    0  0.25434495731E+02 -0.46279985086E+02 -0.14053204076E+03  0.15012663013E+03  0.00000000000E+00 0. -1.
         -2    1    3    3    0  502  0.40110937619E+03 -0.27782439397E+03 -0.89592481118E+03  0.10201746874E+04  0.00000000000E+00 0.  1.
         11    1    5    5    0    0  0.41975184369E+02  0.41055671246E+02 -0.14761975842E+03  0.15886811298E+03  0.00000000000E+00 0. -1.
        -11    1    5    5    0    0 -0.18752062211E+02  0.35771472260E+02 -0.40333322600E+03  0.40535037839E+03  0.00000000000E+00 0.  1.
          3    1    6    6  503    0 -0.89246105876E+02  0.13998908653E+02  0.10614184228E+02  0.90958769585E+02  0.00000000000E+00 0. -1.
         -3    1    6    6    0  503 -0.36052088820E+03  0.23327832690E+03  0.15213496926E+03  0.45556463592E+03  0.00000000000E+00 0.  1.
<mgrwt>
<rscale>  0 0.17814320E+04</rscale>
<asrwt>0</asrwt>
<pdfrwt beam="1">  1        2 0.28505415E+00 0.17814320E+04</pdfrwt>
<pdfrwt beam="2">  1       -2 0.65875579E-01 0.17814320E+04</pdfrwt>
<totfact> 0.16172428E+01</totfact>
</mgrwt>
</event>
<event>
12    2  0.3552864E-008  0.1411245E+04  0.7818608E-02  0.8945719E-01
         -1   -1    0    0    0  501 -0.00000000000E+00  0.00000000000E+00  0.22303359671E+03  0.22303359671E+03  0.00000000000E+00 0.  1.
          1   -1    0    0  501    0  0.00000000000E+00 -0.00000000000E+00 -0.22324133502E+04  0.22324133502E+04  0.00000000000E+00 0. -1.
         23    2    1    2    0    0  0.23764873626E+02 -0.38301770033E+03 -0.44693794685E+03  0.59674443715E+03  0.95305125519E+02 0.  0.
        254    2    1    2    0    0 -0.23764873626E+02  0.38301770033E+03 -0.15624418066E+04  0.18587025098E+04  0.93074340859E+03 0.  0.
         23    2    4    4    0    0 -0.62980317122E+02 -0.25970499974E+03 -0.84261844132E+03  0.88873446234E+03  0.91814485040E+02 0.  0.
         23    2    4    4    0    0  0.39215443496E+02  0.64272270007E+03 -0.71982336533E+03  0.96996804742E+03  0.89788727303E+02 0.  0.
          1    1    3    3  502    0 -0.18953335343E+02 -0.14237066231E+02 -0.34146406974E+02  0.41568017571E+02  0.00000000000E+00 0. -1.
         -1    1    3    3    0  502  0.42718208969E+02 -0.36878063410E+03 -0.41279153988E+03  0.55517641958E+03  0.00000000000E+00 0.  1.
         11    1    5    5    0    0 -0.31464696823E+02 -0.24597011920E+03 -0.75081919380E+03  0.79070904160E+03  0.00000000000E+00 0.  1.
        -11    1    5    5    0    0 -0.31515620299E+02 -0.13734880533E+02 -0.91799247519E+02  0.98025420739E+02  0.00000000000E+00 0. -1.
          4    1    6    6  503    0 -0.24232554325E+02  0.31022798052E+03 -0.32616892310E+03  0.45079350370E+03  0.00000000000E+00 0. -1.
         -4    1    6    6    0  503  0.63447997821E+02  0.33249471955E+03 -0.39365444223E+03  0.51917454372E+03  0.00000000000E+00 0.  1.
<mgrwt>
<rscale>  0 0.14112451E+04</rscale>
<asrwt>0</asrwt>
<pdfrwt beam="1">  1        1 0.34344821E+00 0.14112451E+04</pdfrwt>
<pdfrwt beam="2">  1       -1 0.34312861E-01 0.14112451E+04</pdfrwt>
<totfact> 0.16247182E+01</totfact>
</mgrwt>
</event>
<event>
12    2  0.3552864E-008  0.2034283E+04  0.7818608E-02  0.8590758E-01
         -2   -1    0    0    0  501 -0.00000000000E+00  0.00000000000E+00  0.40327433506E+03  0.40327433506E+03  0.00000000000E+00 0.  1.
          2   -1    0    0  501    0  0.00000000000E+00 -0.00000000000E+00 -0.25654411981E+04  0.25654411981E+04  0.00000000000E+00 0. -1.
         23    2    1    2    0    0  0.33195478136E+03  0.77993979600E+03 -0.59199518138E+03  0.10379070192E+04  0.91063843174E+02 0.  0.
        254    2    1    2    0    0 -0.33195478136E+03 -0.77993979600E+03 -0.15701716816E+04  0.19308085139E+04  0.73761937695E+03 0.  0.
         23    2    4    4    0    0  0.24373794088E+02  0.83469208788E+02 -0.46111113609E+03  0.47831121278E+03  0.92719716318E+02 0.  0.
         23    2    4    4    0    0 -0.35632857545E+03 -0.86340900479E+03 -0.11090605455E+04  0.14524973011E+04  0.85369507498E+02 0.  0.
          4    1    3    3  502    0  0.27227453655E+03  0.62385332178E+03 -0.51691156306E+03  0.85470694064E+03  0.00000000000E+00 0. -1.
         -4    1    3    3    0  502  0.59680244805E+02  0.15608647423E+03 -0.75083618319E+02  0.18320007859E+03  0.00000000000E+00 0.  1.
         11    1    5    5    0    0  0.35199017380E+02  0.84289263005E+02 -0.45799717963E+03  0.46701720228E+03  0.00000000000E+00 0.  1.
        -11    1    5    5    0    0 -0.10825223293E+02 -0.82005421746E+00 -0.31139564591E+01  0.11294010496E+02  0.00000000000E+00 0. -1.
          1    1    6    6  503    0 -0.12898975148E+03 -0.40870249850E+03 -0.47407212258E+03  0.63907782442E+03  0.00000000000E+00 0. -1.
         -1    1    6    6    0  503 -0.22733882397E+03 -0.45470650630E+03 -0.63498842296E+03  0.81341947668E+03  0.00000000000E+00 0.  1.
<mgrwt>
<rscale>  0 0.20342828E+04</rscale>
<asrwt>0</asrwt>
<pdfrwt beam="1">  1        2 0.39468326E+00 0.20342828E+04</pdfrwt>
<pdfrwt beam="2">  1       -2 0.62042206E-01 0.20342828E+04</pdfrwt>
<totfact> 0.71304141E+00</totfact>
</mgrwt>
</event>
<event>
12    2  0.3552864E-008  0.3456114E+04  0.7818608E-02  0.8124270E-01
          2   -1    0    0  501    0  0.00000000000E+00  0.00000000000E+00  0.30192471798E+04  0.30192471798E+04  0.00000000000E+00 0. -1.
         -2   -1    0    0    0  501 -0.00000000000E+00 -0.00000000000E+00 -0.98904806471E+03  0.98904806471E+03  0.00000000000E+00 0.  1.
         23    2    1    2    0    0  0.31939940916E+03  0.14707864096E+04  0.16012339097E+04  0.21994651533E+04  0.92023267619E+02 0.  0.
        254    2    1    2    0    0 -0.31939940916E+03 -0.14707864096E+04  0.42896520541E+03  0.18088300912E+04  0.90698759989E+03 0.  0.
         23    2    4    4    0    0 -0.48576211016E+03 -0.32492746359E+03  0.84214260959E+02  0.59738980926E+03  0.90773664663E+02 0.  0.
         23    2    4    4    0    0  0.16636270100E+03 -0.11458589460E+04  0.34475094445E+03  0.12114402820E+04  0.89805738757E+02 0.  0.
          2    1    3    3  502    0  0.22323534943E+03  0.11199074617E+04  0.12631223682E+04  0.17027932526E+04  0.00000000000E+00 0. -1.
         -2    1    3    3    0  502  0.96164059733E+02  0.35087894789E+03  0.33811154145E+03  0.49667190068E+03  0.00000000000E+00 0.  1.
         11    1    5    5    0    0 -0.73825222228E+02 -0.79208312908E+02 -0.93949603902E+01  0.10868479908E+03  0.00000000000E+00 0.  1.
        -11    1    5    5    0    0 -0.41193688793E+03 -0.24571915068E+03  0.93609221349E+02  0.48870501018E+03  0.00000000000E+00 0. -1.
          1    1    6    6  503    0  0.12770289540E+03 -0.66743071504E+03  0.16851141348E+03  0.70011990783E+03  0.00000000000E+00 0. -1.
         -1    1    6    6    0  503  0.38659805594E+02 -0.47842823095E+03  0.17623953097E+03  0.51132037415E+03  0.00000000000E+00 0.  1.
<mgrwt>
<rscale>  0 0.34561138E+04</rscale>
<asrwt>0</asrwt>
<pdfrwt beam="1">  1        2 0.46449956E+00 0.34561138E+04</pdfrwt>
<pdfrwt beam="2">  1       -2 0.15216124E+00 0.34561138E+04</pdfrwt>
<totfact> 0.40246959E-01</totfact>
</mgrwt>
</event>
<event>
12    2  0.3552864E-008  0.1942738E+04  0.7818608E-02  0.8633870E-01
         -2   -1    0    0    0  501 -0.00000000000E+00  0.00000000000E+00  0.37699692190E+03  0.37699692190E+03  0.00000000000E+00 0.  1.
          2   -1    0    0  501    0  0.00000000000E+00 -0.00000000000E+00 -0.25028268779E+04  0.25028268779E+04  0.00000000000E+00 0. -1.
         23    2    1    2    0    0  0.14840096436E+03  0.18986523663E+03  0.23071532221E+03  0.34584782345E+03  0.91156474146E+02 0.  0.
        254    2    1    2    0    0 -0.14840096436E+03 -0.18986523663E+03 -0.23565452782E+04  0.25339759763E+04  0.89980939431E+03 0.  0.
         23    2    4    4    0    0 -0.42101352995E+03 -0.15032086369E+03 -0.20927091187E+04  0.21418530933E+04  0.90854077712E+02 0.  0.
         23    2    4    4    0    0  0.27261256558E+03 -0.39544372945E+02 -0.26383615951E+03  0.39212288302E+03  0.90936615145E+02 0.  0.
          4    1    3    3  502    0  0.68915714239E+02  0.15497109917E+03  0.13624088549E+03  0.21754768702E+03  0.00000000000E+00 0. -1.
         -4    1    3    3    0  502  0.79485250125E+02  0.34894137468E+02  0.94474436717E+02  0.12830013644E+03  0.00000000000E+00 0.  1.
         11    1    5    5    0    0 -0.24449944208E+03 -0.45044362676E+02 -0.10439196994E+04  0.10731157024E+04  0.00000000000E+00 0. -1.
        -11    1    5    5    0    0 -0.17651408786E+03 -0.10527650101E+03 -0.10487894193E+04  0.10687373910E+04  0.00000000000E+00 0.  1.
          3    1    6    6  503    0  0.27078877059E+03 -0.52198246748E+02 -0.25936725351E+03  0.37857969760E+03  0.00000000000E+00 0. -1.
         -3    1    6    6    0  503  0.18237949903E+01  0.12653873803E+02 -0.44689060067E+01  0.13543185419E+02  0.00000000000E+00 0.  1.
<mgrwt>
<rscale>  0 0.19427383E+04</rscale>
<asrwt>0</asrwt>
<pdfrwt beam="1">  1        2 0.38505030E+00 0.19427383E+04</pdfrwt>
<pdfrwt beam="2">  1       -2 0.57999525E-01 0.19427383E+04</pdfrwt>
<totfact> 0.90115714E+00</totfact>
</mgrwt>
</event>
<event>
12    2  0.3552864E-008  0.1960946E+04  0.7818608E-02  0.8625101E-01
          2   -1    0    0  501    0  0.00000000000E+00  0.00000000000E+00  0.87240994651E+03  0.87240994651E+03  0.00000000000E+00 0. -1.
         -2   -1    0    0    0  501 -0.00000000000E+00 -0.00000000000E+00 -0.11019214452E+04  0.11019214452E+04  0.00000000000E+00 0.  1.
         23    2    1    2    0    0  0.62197657523E+02  0.33139075114E+01 -0.86614149069E+03  0.87326963661E+03  0.92299760205E+02 0.  0.
        254    2    1    2    0    0 -0.62197657523E+02 -0.33139075114E+01  0.63662999199E+03  0.11010617551E+04  0.89619178266E+03 0.  0.
         23    2    4    4    0    0 -0.45533572609E+03  0.50160427776E+02  0.20914720981E+03  0.51097008169E+03  0.86609335824E+02 0.  0.
         23    2    4    4    0    0  0.39313806856E+03 -0.53474335287E+02  0.42748278218E+03  0.59009167343E+03  0.89719610467E+02 0.  0.
          2    1    3    3  502    0 -0.36610902741E+01  0.36967012273E+02 -0.31743141820E+03  0.31959766714E+03  0.00000000000E+00 0. -1.
         -2    1    3    3    0  502  0.65858747797E+02 -0.33653104761E+02 -0.54871007250E+03  0.55367196947E+03  0.00000000000E+00 0.  1.
         11    1    5    5    0    0 -0.36701514113E+03  0.65255384194E+02  0.14159527328E+03  0.39875757097E+03  0.00000000000E+00 0. -1.
        -11    1    5    5    0    0 -0.88320584953E+02 -0.15094956418E+02  0.67551936524E+02  0.11221251073E+03  0.00000000000E+00 0.  1.
          3    1    6    6  503    0  0.24401870630E+03  0.84796371430E+01  0.27861353265E+03  0.37046259439E+03  0.00000000000E+00 0. -1.
         -3    1    6    6    0  503  0.14911936227E+03 -0.61953972430E+02  0.14886924953E+03  0.21962907904E+03  0.00000000000E+00 0.  1.
<mgrwt>
<rscale>  0 0.19609459E+04</rscale>
<asrwt>0</asrwt>
<pdfrwt beam="1">  1        2 0.13421692E+00 0.19609459E+04</pdfrwt>
<pdfrwt beam="2">  1       -2 0.16952638E+00 0.19609459E+04</pdfrwt>
<totfact> 0.61279733E+00</totfact>
</mgrwt>
</event>
<event>
12    2  0.3552864E-008  0.2805089E+04  0.7818608E-02  0.8301690E-01
         -2   -1    0    0    0  501 -0.00000000000E+00  0.00000000000E+00  0.16852642458E+04  0.16852642458E+04  0.00000000000E+00 0.  1.
          2   -1    0    0  501    0  0.00000000000E+00 -0.00000000000E+00 -0.11672536608E+04  0.11672536608E+04  0.00000000000E+00 0. -1.
         23    2    1    2    0    0 -0.98088227841E+03 -0.51392797299E+03  0.82983109086E+03  0.13868110618E+04  0.91505607795E+02 0.  0.
        254    2    1    2    0    0  0.98088227841E+03  0.51392797299E+03 -0.31182050587E+03  0.14657068448E+04  0.90819189678E+03 0.  0.
         23    2    4    4    0    0  0.47505164947E+03  0.27408269895E+03 -0.61027482552E+03  0.82491154053E+03  0.85136898627E+02 0.  0.
         23    2    4    4    0    0  0.50583062894E+03  0.23984527404E+03  0.29845431965E+03  0.64079530423E+03  0.90295406080E+02 0.  0.
          1    1    3    3  502    0 -0.81890349677E+02 -0.52888686324E+02  0.44469507928E+02  0.10714840011E+03  0.00000000000E+00 0. -1.
         -1    1    3    3    0  502 -0.89899192874E+03 -0.46103928666E+03  0.78536158293E+03  0.12796626617E+04  0.00000000000E+00 0.  1.
         11    1    5    5    0    0  0.12690095259E+03  0.33272785179E+02 -0.15968221668E+03  0.20666238246E+03  0.00000000000E+00 0.  1.
        -11    1    5    5    0    0  0.34815069689E+03  0.24080991377E+03 -0.45059260884E+03  0.61824915807E+03  0.00000000000E+00 0. -1.
          4    1    6    6  503    0  0.98350460790E+02  0.26686510482E+02  0.22084703625E+02  0.10427232190E+03  0.00000000000E+00 0.  1.
         -4    1    6    6    0  503  0.40748016815E+03  0.21315876356E+03  0.27636961602E+03  0.53652298234E+03  0.00000000000E+00 0. -1.
<mgrwt>
<rscale>  0 0.28050888E+04</rscale>
<asrwt>0</asrwt>
<pdfrwt beam="1">  1        2 0.17957749E+00 0.28050888E+04</pdfrwt>
<pdfrwt beam="2">  1       -2 0.25927142E+00 0.28050888E+04</pdfrwt>
<totfact> 0.97171080E-01</totfact>
</mgrwt>
</event>
<event>
12    2  0.3552864E-008  0.1582809E+04  0.7818608E-02  0.8831179E-01
          3   -1    0    0  501    0  0.00000000000E+00  0.00000000000E+00  0.38196672420E+03  0.38196672420E+03  0.00000000000E+00 0. -1.
         -3   -1    0    0    0  501 -0.00000000000E+00 -0.00000000000E+00 -0.16397262820E+04  0.16397262820E+04  0.00000000000E+00 0.  1.
         23    2    1    2    0    0 -0.20063737348E+03 -0.18235632566E+03 -0.10037594132E+04  0.10429770671E+04  0.82213246295E+02 0.  0.
        254    2    1    2    0    0  0.20063737348E+03  0.18235632566E+03 -0.25400014466E+03  0.97871593911E+03  0.90546100459E+03 0.  0.
         23    2    4    4    0    0 -0.11385822328E+02 -0.14148393799E+03  0.27105343631E+03  0.32002941401E+03  0.93816410264E+02 0.  0.
         23    2    4    4    0    0  0.21202319580E+03  0.32384026365E+03 -0.52505358097E+03  0.65868652510E+03  0.91434804840E+02 0.  0.
          3    1    3    3  502    0 -0.66096502016E+02 -0.46906975266E+02 -0.44977725374E+03  0.45702143264E+03  0.00000000000E+00 0. -1.
         -3    1    3    3    0  502 -0.13454087146E+03 -0.13544935039E+03 -0.55398215941E+03  0.58595563447E+03  0.00000000000E+00 0.  1.
         11    1    5    5    0    0  0.70031452548E+01 -0.65626218438E+02  0.21233179453E+03  0.22235250293E+03  0.00000000000E+00 0.  1.
        -11    1    5    5    0    0 -0.18388967583E+02 -0.75857719553E+02  0.58721641778E+02  0.97676911077E+02  0.00000000000E+00 0. -1.
          3    1    6    6  503    0 -0.67397633754E+01  0.24861160777E+02 -0.21592988219E+02  0.33611885781E+02  0.00000000000E+00 0. -1.
         -3    1    6    6    0  503  0.21876295918E+03  0.29897910287E+03 -0.50346059275E+03  0.62507463932E+03  0.00000000000E+00 0.  1.
<mgrwt>
<rscale>  0 0.15828087E+04</rscale>
<asrwt>0</asrwt>
<pdfrwt beam="1">  1        3 0.58764113E-01 0.15828087E+04</pdfrwt>
<pdfrwt beam="2">  1       -3 0.25226558E+00 0.15828087E+04</pdfrwt>
<totfact> 0.50687703E-01</totfact>
</mgrwt>
</event>
<event>
12    2  0.3552864E-008  0.1328096E+04  0.7818608E-02  0.9007577E-01
          2   -1    0    0  501    0  0.00000000000E+00  0.00000000000E+00  0.36264357719E+04  0.36264357719E+04  0.00000000000E+00 0. -1.
         -2   -1    0    0    0  501 -0.00000000000E+00 -0.00000000000E+00 -0.12159592119E+03  0.12159592119E+03  0.00000000000E+00 0.  1.
         23    2    1    2    0    0  0.10581831866E+03  0.19182030369E+03  0.17736816300E+04  0.17894851865E+04  0.91203960904E+02 0.  0.
        254    2    1    2    0    0 -0.10581831866E+03 -0.19182030369E+03  0.17311582207E+04  0.19585465066E+04  0.88938354382E+03 0.  0.
         23    2    4    4    0    0 -0.32237773343E+03  0.12711295024E+03  0.13906430584E+04  0.14360574467E+04  0.91037185731E+02 0.  0.
         23    2    4    4    0    0  0.21655941478E+03 -0.31893325393E+03  0.34051516230E+03  0.52248905993E+03  0.91803275547E+02 0.  0.
          3    1    3    3  502    0  0.11835317082E+03  0.14181960524E+03  0.14514161469E+04  0.14631230655E+04  0.00000000000E+00 0. -1.
         -3    1    3    3    0  502 -0.12534852160E+02  0.50000698451E+02  0.32226548315E+03  0.32636212095E+03  0.00000000000E+00 0.  1.
         11    1    5    5    0    0 -0.11917660036E+02  0.10213550881E+01  0.16501270901E+03  0.16544566456E+03  0.00000000000E+00 0. -1.
        -11    1    5    5    0    0 -0.31046007340E+03  0.12609159515E+03  0.12256303494E+04  0.12706117821E+04  0.00000000000E+00 0.  1.
          1    1    6    6  503    0  0.89169838773E+02 -0.59338413515E+02  0.90223832222E+02  0.14004516188E+03  0.00000000000E+00 0. -1.
         -1    1    6    6    0  503  0.12738957600E+03 -0.25959484041E+03  0.25029133008E+03  0.38244389805E+03  0.00000000000E+00 0.  1.
<mgrwt>
<rscale>  0 0.13280961E+04</rscale>
<asrwt>0</asrwt>
<pdfrwt beam="1">  1        2 0.55791311E+00 0.13280961E+04</pdfrwt>
<pdfrwt beam="2">  1       -2 0.18707068E-01 0.13280961E+04</pdfrwt>
<totfact> 0.15885822E+01</totfact>
</mgrwt>
</event>
<event>
12    2  0.3552864E-008  0.2690947E+04  0.7818608E-02  0.8337948E-01
          1   -1    0    0  501    0  0.00000000000E+00  0.00000000000E+00  0.12390061069E+04  0.12390061069E+04  0.00000000000E+00 0. -1.
         -1   -1    0    0    0  501 -0.00000000000E+00 -0.00000000000E+00 -0.14610894402E+04  0.14610894402E+04  0.00000000000E+00 0.  1.
         23    2    1    2    0    0  0.38756202851E+03  0.11108454245E+04 -0.31194505355E+03  0.12204317677E+04  0.89230600235E+02 0.  0.
        254    2    1    2    0    0 -0.38756202851E+03 -0.11108454245E+04  0.89861720218E+02  0.14796637794E+04  0.89283138836E+03 0.  0.
         23    2    4    4    0    0 -0.33232961901E+03 -0.11975838625E+04 -0.94801827873E+02  0.12497512786E+04  0.90778787787E+02 0.  0.
         23    2    4    4    0    0 -0.55232409494E+02  0.86738437959E+02  0.18466354809E+03  0.22991250080E+03  0.90470748610E+02 0.  0.
          1    1    3    3  502    0  0.92825164975E+02  0.20621847895E+03 -0.90412578678E+02  0.24355082980E+03  0.00000000000E+00 0. -1.
         -1    1    3    3    0  502  0.29473686353E+03  0.90462694558E+03 -0.22153247487E+03  0.97688093789E+03  0.00000000000E+00 0.  1.
         11    1    5    5    0    0 -0.48922983729E+02 -0.26751929054E+03 -0.49399536747E+02  0.27640612037E+03  0.00000000000E+00 0. -1.
        -11    1    5    5    0    0 -0.28340663529E+03 -0.93006457195E+03 -0.45402291125E+02  0.97334515818E+03  0.00000000000E+00 0.  1.
          2    1    6    6  503    0 -0.31436971251E+02  0.31258437976E+00  0.90045756813E+01  0.32702649031E+02  0.00000000000E+00 0. -1.
         -2    1    6    6    0  503 -0.23795438243E+02  0.86425853579E+02  0.17565897241E+03  0.19720985177E+03  0.00000000000E+00 0.  1.
<mgrwt>
<rscale>  0 0.26909469E+04</rscale>
<asrwt>0</asrwt>
<pdfrwt beam="1">  1        1 0.19061632E+00 0.26909469E+04</pdfrwt>
<pdfrwt beam="2">  1       -1 0.22478299E+00 0.26909469E+04</pdfrwt>
<totfact> 0.89417794E-01</totfact>
</mgrwt>
</event>
<event>
12    2  0.3552864E-008  0.1266428E+04  0.7818608E-02  0.9056620E-01
          1   -1    0    0  501    0  0.00000000000E+00  0.00000000000E+00  0.14049931251E+04  0.14049931251E+04  0.00000000000E+00 0. -1.
         -1   -1    0    0    0  501 -0.00000000000E+00 -0.00000000000E+00 -0.28538225549E+03  0.28538225549E+03  0.00000000000E+00 0.  1.
         23    2    1    2    0    0 -0.27654034751E+03  0.84354831884E+02  0.14593094737E+03  0.33685188779E+03  0.92644759403E+02 0.  0.
        254    2    1    2    0    0  0.27654034751E+03 -0.84354831884E+02  0.97367992220E+03  0.13535234928E+04  0.89464124267E+03 0.  0.
         23    2    4    4    0    0 -0.37080166399E+02 -0.25072182164E+02  0.10140467347E+04  0.10189771088E+04  0.89554537642E+02 0.  0.
         23    2    4    4    0    0  0.31362051391E+03 -0.59282649721E+02 -0.40366812463E+02  0.33454638391E+03  0.91758073940E+02 0.  0.
          1    1    3    3  502    0 -0.72971195171E+02  0.92568288625E+01 -0.31000467917E+01  0.73621291047E+02  0.00000000000E+00 0. -1.
         -1    1    3    3    0  502 -0.20356915234E+03  0.75098003022E+02  0.14903099416E+03  0.26323059675E+03  0.00000000000E+00 0.  1.
         11    1    5    5    0    0  0.29050139967E+02 -0.23682540813E+00  0.34004339798E+03  0.34128211091E+03  0.00000000000E+00 0. -1.
        -11    1    5    5    0    0 -0.66130306367E+02 -0.24835356756E+02  0.67400333668E+03  0.67769499793E+03  0.00000000000E+00 0.  1.
          1    1    6    6  503    0  0.19959913512E+02  0.16002794808E+02  0.95490586882E+01  0.27306997471E+02  0.00000000000E+00 0. -1.
         -1    1    6    6    0  503  0.29366060040E+03 -0.75285444529E+02 -0.49915871151E+02  0.30723938644E+03  0.00000000000E+00 0.  1.
<mgrwt>
<rscale>  0 0.12664282E+04</rscale>
<asrwt>0</asrwt>
<pdfrwt beam="1">  1        1 0.21615279E+00 0.12664282E+04</pdfrwt>
<pdfrwt beam="2">  1       -1 0.43904963E-01 0.12664282E+04</pdfrwt>
<totfact> 0.38481830E+01</totfact>
</mgrwt>
</event>
<event>
12    2  0.3552864E-008  0.1153811E+04  0.7818608E-02  0.9154275E-01
          1   -1    0    0  501    0  0.00000000000E+00  0.00000000000E+00  0.13375519229E+04  0.13375519229E+04  0.00000000000E+00 0. -1.
         -1   -1    0    0    0  501 -0.00000000000E+00 -0.00000000000E+00 -0.24882787218E+03  0.24882787218E+03  0.00000000000E+00 0.  1.
         23    2    1    2    0    0  0.11459623984E+03  0.39206214303E+01  0.46952806256E+03  0.49121424319E+03  0.87676460520E+02 0.  0.
        254    2    1    2    0    0 -0.11459623984E+03 -0.39206214303E+01  0.61919598815E+03  0.10951655519E+04  0.89601129725E+03 0.  0.
         23    2    4    4    0    0  0.38379334928E+03  0.24744002610E+02  0.25157301044E+03  0.46847946844E+03  0.90963905775E+02 0.  0.
         23    2    4    4    0    0 -0.49838958912E+03 -0.28664624040E+02  0.36762297771E+03  0.62668608342E+03  0.91514754052E+02 0.  0.
          1    1    3    3  502    0  0.69761013482E+02  0.87064109208E+01  0.41282763134E+03  0.41877088461E+03  0.00000000000E+00 0. -1.
         -1    1    3    3    0  502  0.44835226357E+02 -0.47857894906E+01  0.56700431214E+02  0.72443358587E+02  0.00000000000E+00 0.  1.
         11    1    5    5    0    0  0.64591299969E+02  0.60698570417E+01  0.87976478316E+02  0.10931029198E+03  0.00000000000E+00 0. -1.
        -11    1    5    5    0    0  0.31920204931E+03  0.18674145568E+02  0.16359653213E+03  0.35916917646E+03  0.00000000000E+00 0.  1.
          3    1    6    6  503    0 -0.63494342968E+02 -0.35097474454E+02  0.55335581980E+02  0.91243580240E+02  0.00000000000E+00 0. -1.
         -3    1    6    6    0  503 -0.43489524615E+03  0.64328504136E+01  0.31228739573E+03  0.53544250318E+03  0.00000000000E+00 0.  1.
<mgrwt>
<rscale>  0 0.11538114E+04</rscale>
<asrwt>0</asrwt>
<pdfrwt beam="1">  1        1 0.20577722E+00 0.11538114E+04</pdfrwt>
<pdfrwt beam="2">  1       -1 0.38281212E-01 0.11538114E+04</pdfrwt>
<totfact> 0.55701341E+01</totfact>
</mgrwt>
</event>
<event>
12    2  0.3552864E-008  0.1412747E+04  0.7818608E-02  0.8944643E-01
          1   -1    0    0  501    0  0.00000000000E+00  0.00000000000E+00  0.65508018522E+03  0.65508018522E+03  0.00000000000E+00 0. -1.
         -1   -1    0    0    0  501 -0.00000000000E+00 -0.00000000000E+00 -0.76168343427E+03  0.76168343427E+03  0.00000000000E+00 0.  1.
         23    2    1    2    0    0 -0.17491765446E+03 -0.76474196657E+02  0.32864390413E+03  0.39048384058E+03  0.89589761877E+02 0.  0.
        254    2    1    2    0    0  0.17491765446E+03  0.76474196657E+02 -0.43524715317E+03  0.10262797789E+04  0.90959640042E+03 0.  0.
         23    2    4    4    0    0  0.81182263037E+02 -0.39883333400E+03 -0.30635358323E+03  0.51692397544E+03  0.87745599808E+02 0.  0.
         23    2    4    4    0    0  0.93735391425E+02  0.47530753065E+03 -0.12889356995E+03  0.50935580347E+03  0.90145492718E+02 0.  0.
          2    1    3    3  502    0 -0.56902060521E+02 -0.92606900822E+01  0.36285048990E+02  0.68119084349E+02  0.00000000000E+00 0.  1.
         -2    1    3    3    0  502 -0.11801559394E+03 -0.67213506575E+02  0.29235885514E+03  0.32236475623E+03  0.00000000000E+00 0. -1.
         11    1    5    5    0    0  0.41951427117E+02 -0.35245675750E+03 -0.27163772176E+03  0.44695943890E+03  0.00000000000E+00 0.  1.
        -11    1    5    5    0    0  0.39230835920E+02 -0.46376576500E+02 -0.34715861471E+02  0.69964536535E+02  0.00000000000E+00 0. -1.
          1    1    6    6  503    0 -0.14131634863E+02  0.76057279605E+02 -0.45077498645E+01  0.77490210309E+02  0.00000000000E+00 0. -1.
         -1    1    6    6    0  503  0.10786702629E+03  0.39925025105E+03 -0.12438582008E+03  0.43186559317E+03  0.00000000000E+00 0.  1.
<mgrwt>
<rscale>  0 0.14127473E+04</rscale>
<asrwt>0</asrwt>
<pdfrwt beam="1">  1        1 0.10078157E+00 0.14127473E+04</pdfrwt>
<pdfrwt beam="2">  1       -1 0.11718207E+00 0.14127473E+04</pdfrwt>
<totfact> 0.19244771E+01</totfact>
</mgrwt>
</event>
<event>
12    2  0.3552864E-008  0.1379945E+04  0.7818608E-02  0.8968465E-01
          1   -1    0    0  501    0  0.00000000000E+00  0.00000000000E+00  0.82422935608E+03  0.82422935608E+03  0.00000000000E+00 0.  1.
         -1   -1    0    0    0  501 -0.00000000000E+00 -0.00000000000E+00 -0.57758457275E+03  0.57758457275E+03  0.00000000000E+00 0. -1.
         23    2    1    2    0    0  0.37076028511E+03 -0.88317230715E+02  0.33387022673E+01  0.39223189334E+03  0.92582876176E+02 0.  0.
        254    2    1    2    0    0 -0.37076028511E+03  0.88317230715E+02  0.24330608106E+03  0.10095820355E+04  0.90265991107E+03 0.  0.
         23    2    4    4    0    0  0.22288570857E+02  0.13352056979E+03  0.50177958709E+03  0.52744680948E+03  0.89960323826E+02 0.  0.
         23    2    4    4    0    0 -0.39304885597E+03 -0.45203339075E+02 -0.25847350603E+03  0.48213522601E+03  0.95472916584E+02 0.  0.
          4    1    3    3  502    0  0.17145986826E+03 -0.55697216992E+02 -0.42325536768E+02  0.18518130971E+03  0.00000000000E+00 0. -1.
         -4    1    3    3    0  502  0.19930041686E+03 -0.32620013723E+02  0.45664239035E+02  0.20705058363E+03  0.00000000000E+00 0.  1.
         11    1    5    5    0    0  0.31452691886E+02  0.13633664517E+03  0.49775997345E+03  0.51705120038E+03  0.00000000000E+00 0. -1.
        -11    1    5    5    0    0 -0.91641210283E+01 -0.28160753839E+01  0.40196136409E+01  0.10395609102E+02  0.00000000000E+00 0.  1.
          3    1    6    6  503    0 -0.38172936417E+03 -0.54363418858E+02 -0.22695657418E+03  0.44741700386E+03  0.00000000000E+00 0. -1.
         -3    1    6    6    0  503 -0.11319491803E+02  0.91600797833E+01 -0.31516931855E+02  0.34718222158E+02  0.00000000000E+00 0.  1.
<mgrwt>
<rscale>  0 0.13799452E+04</rscale>
<asrwt>0</asrwt>
<pdfrwt beam="1">  1        1 0.12680452E+00 0.13799452E+04</pdfrwt>
<pdfrwt beam="2">  1       -1 0.88859165E-01 0.13799452E+04</pdfrwt>
<totfact> 0.25570574E+01</totfact>
</mgrwt>
</event>
<event>
12    2  0.3552864E-008  0.2272193E+04  0.7818608E-02  0.8488966E-01
          1   -1    0    0  501    0  0.00000000000E+00  0.00000000000E+00  0.26806789550E+04  0.26806789550E+04  0.00000000000E+00 0. -1.
         -1   -1    0    0    0  501 -0.00000000000E+00 -0.00000000000E+00 -0.48148820056E+03  0.48148820056E+03  0.00000000000E+00 0.  1.
         23    2    1    2    0    0  0.11819371044E+03  0.91360328216E+03  0.12857440436E+04  0.15848029910E+04  0.99106328813E+02 0.  0.
        254    2    1    2    0    0 -0.11819371044E+03 -0.91360328216E+03  0.91344671092E+03  0.15773641646E+04  0.89724695800E+03 0.  0.
         23    2    4    4    0    0  0.10129954742E+03 -0.10041676548E+04  0.82256851268E+03  0.13051045695E+04  0.89803685384E+02 0.  0.
         23    2    4    4    0    0 -0.21949325786E+03  0.90564372645E+02  0.90878198243E+02  0.27225959512E+03  0.97402486518E+02 0.  0.
          1    1    3    3  502    0  0.12649612329E+03  0.76497414622E+03  0.11176785377E+04  0.13602911553E+04  0.00000000000E+00 0. -1.
         -1    1    3    3    0  502 -0.83024128493E+01  0.14862913594E+03  0.16806550589E+03  0.22451183573E+03  0.00000000000E+00 0.  1.
         11    1    5    5    0    0 -0.15721463830E+02 -0.15207489413E+03  0.11340463099E+03  0.19035374485E+03  0.00000000000E+00 0.  1.
        -11    1    5    5    0    0  0.11702101125E+03 -0.85209276068E+03  0.70916388168E+03  0.11147508246E+04  0.00000000000E+00 0. -1.
          1    1    6    6  503    0 -0.52060781311E+02  0.77884016455E+01  0.65088692030E+02  0.83710943019E+02  0.00000000000E+00 0. -1.
         -1    1    6    6    0  503 -0.16743247655E+03  0.82775971000E+02  0.25789506214E+02  0.18854865210E+03  0.00000000000E+00 0.  1.
<mgrwt>
<rscale>  0 0.22721930E+04</rscale>
<asrwt>0</asrwt>
<pdfrwt beam="1">  1        1 0.41241214E+00 0.22721930E+04</pdfrwt>
<pdfrwt beam="2">  1       -1 0.74075110E-01 0.22721930E+04</pdfrwt>
<totfact> 0.16837868E+00</totfact>
</mgrwt>
</event>
<event>
12    2  0.3552864E-008  0.1045101E+04  0.7818608E-02  0.9260416E-01
         -2   -1    0    0    0  501 -0.00000000000E+00  0.00000000000E+00  0.47736447706E+03  0.47736447706E+03  0.00000000000E+00 0.  1.
          2   -1    0    0  501    0  0.00000000000E+00 -0.00000000000E+00 -0.57201381106E+03  0.57201381106E+03  0.00000000000E+00 0. -1.
         23    2    1    2    0    0  0.17404892122E+03 -0.92192269186E+02 -0.83972077852E+02  0.23172343371E+03  0.88611502629E+02 0.  0.
        254    2    1    2    0    0 -0.17404892122E+03  0.92192269186E+02 -0.10677256146E+02  0.81765485441E+03  0.79350678363E+03 0.  0.
         23    2    4    4    0    0  0.42514118029E+02  0.40982842509E+03 -0.14928557424E+02  0.42215932162E+03  0.90712969067E+02 0.  0.
         23    2    4    4    0    0 -0.21656303925E+03 -0.31763615590E+03  0.42513012771E+01  0.39549553279E+03  0.92770498491E+02 0.  0.
          1    1    3    3  502    0  0.78845124945E+02 -0.87346679071E+02 -0.65338216392E+02  0.13459226796E+03  0.00000000000E+00 0. -1.
         -1    1    3    3    0  502  0.95203796274E+02 -0.48455901154E+01 -0.18633861460E+02  0.97131165758E+02  0.00000000000E+00 0.  1.
         11    1    5    5    0    0  0.20666791002E+02  0.27764720007E+03 -0.51823507840E+02  0.28319738686E+03  0.00000000000E+00 0.  1.
        -11    1    5    5    0    0  0.21847327027E+02  0.13218122502E+03  0.36894950417E+02  0.13896193476E+03  0.00000000000E+00 0. -1.
          3    1    6    6  503    0 -0.77966776271E+01 -0.39477588481E+02 -0.23506599416E+02  0.46602879636E+02  0.00000000000E+00 0. -1.
         -3    1    6    6    0  503 -0.20876636162E+03 -0.27815856742E+03  0.27757900693E+02  0.34889265316E+03  0.00000000000E+00 0.  1.
<mgrwt>
<rscale>  0 0.10451011E+04</rscale>
<asrwt>0</asrwt>
<pdfrwt beam="1">  1        2 0.88002124E-01 0.10451011E+04</pdfrwt>
<pdfrwt beam="2">  1       -2 0.73440689E-01 0.10451011E+04</pdfrwt>
<totfact> 0.87593432E+01</totfact>
</mgrwt>
</event>
<event>
12    2  0.3552864E-008  0.1652122E+04  0.7818608E-02  0.8789152E-01
          1   -1    0    0  501    0  0.00000000000E+00  0.00000000000E+00  0.49838116345E+03  0.49838116345E+03  0.00000000000E+00 0. -1.
         -1   -1    0    0    0  501 -0.00000000000E+00 -0.00000000000E+00 -0.13691862804E+04  0.13691862804E+04  0.00000000000E+00 0.  1.
         23    2    1    2    0    0  0.26757580684E+03 -0.89225068996E+02 -0.87962180316E+03  0.92804671894E+03  0.89321165425E+02 0.  0.
        254    2    1    2    0    0 -0.26757580684E+03  0.89225068996E+02  0.88166862591E+01  0.93952072487E+03  0.89613812170E+03 0.  0.
         23    2    4    4    0    0  0.30129862344E+03  0.21458349122E+02 -0.13276629303E+03  0.34234684922E+03  0.91286118171E+02 0.  0.
         23    2    4    4    0    0 -0.56887443028E+03  0.67766719875E+02  0.14158297929E+03  0.59717387565E+03  0.91435507273E+02 0.  0.
          3    1    3    3  502    0  0.26269331924E+02  0.30344407537E+01 -0.18611675440E+03  0.18798598857E+03  0.00000000000E+00 0. -1.
         -3    1    3    3    0  502  0.24130647492E+03 -0.92259509750E+02 -0.69350504876E+03  0.74006073037E+03  0.00000000000E+00 0.  1.
         11    1    5    5    0    0  0.11677864568E+03 -0.36114485191E+02 -0.53560100010E+02  0.13345483296E+03  0.00000000000E+00 0. -1.
        -11    1    5    5    0    0  0.18451997776E+03  0.57572834313E+02 -0.79206193018E+02  0.20889201626E+03  0.00000000000E+00 0.  1.
          4    1    6    6  503    0 -0.31378860662E+03  0.79383459954E+02  0.97551347429E+02  0.33805515636E+03  0.00000000000E+00 0. -1.
         -4    1    6    6    0  503 -0.25508582366E+03 -0.11616740079E+02  0.44031631858E+02  0.25911871929E+03  0.00000000000E+00 0.  1.
<mgrwt>
<rscale>  0 0.16521218E+04</rscale>
<asrwt>0</asrwt>
<pdfrwt beam="1">  1        1 0.76674027E-01 0.16521218E+04</pdfrwt>
<pdfrwt beam="2">  1       -1 0.21064404E+00 0.16521218E+04</pdfrwt>
<totfact> 0.54128066E+00</totfact>
</mgrwt>
</event>
<event>
12    2  0.3552864E-008  0.2677893E+04  0.7818608E-02  0.8342214E-01
          2   -1    0    0  501    0  0.00000000000E+00  0.00000000000E+00  0.24810584362E+04  0.24810584362E+04  0.00000000000E+00 0. -1.
         -2   -1    0    0    0  501 -0.00000000000E+00 -0.00000000000E+00 -0.72258561871E+03  0.72258561871E+03  0.00000000000E+00 0.  1.
         23    2    1    2    0    0  0.55399360836E+03 -0.24212075418E+03 -0.44020269797E+03  0.75342951876E+03  0.91357795065E+02 0.  0.
        254    2    1    2    0    0 -0.55399360836E+03  0.24212075418E+03  0.21986755154E+04  0.24502145361E+04  0.89657452181E+03 0.  0.
         23    2    4    4    0    0  0.20032547980E+03  0.23081814966E+03  0.58184074310E+03  0.66366970449E+03  0.92257846580E+02 0.  0.
         23    2    4    4    0    0 -0.75431908816E+03  0.11302604517E+02  0.16168347723E+04  0.17865448316E+04  0.91993036543E+02 0.  0.
          3    1    3    3  502    0  0.22251359435E+03 -0.98062316273E+02 -0.12279283186E+03  0.27240887853E+03  0.00000000000E+00 0. -1.
         -3    1    3    3    0  502  0.33148001401E+03 -0.14405843791E+03 -0.31740986611E+03  0.48102064023E+03  0.00000000000E+00 0.  1.
         11    1    5    5    0    0  0.31165591006E+02  0.67271981736E+01  0.26782352521E+02  0.41639448419E+02  0.00000000000E+00 0.  1.
        -11    1    5    5    0    0  0.16915988879E+03  0.22409095149E+03  0.55505839058E+03  0.62203025607E+03  0.00000000000E+00 0. -1.
          3    1    6    6  503    0 -0.67638514612E+03 -0.10860628265E+02  0.13947812004E+04  0.15501707700E+04  0.00000000000E+00 0. -1.
         -3    1    6    6    0  503 -0.77933942041E+02  0.22163232782E+02  0.22205357193E+03  0.23637406164E+03  0.00000000000E+00 0.  1.
<mgrwt>
<rscale>  0 0.26778926E+04</rscale>
<asrwt>0</asrwt>
<pdfrwt beam="1">  1        2 0.38170129E+00 0.26778926E+04</pdfrwt>
<pdfrwt beam="2">  1       -2 0.11116702E+00 0.26778926E+04</pdfrwt>
<totfact> 0.20090172E+00</totfact>
</mgrwt>
</event>
<event>
12    2  0.3552864E-008  0.1743346E+04  0.7818608E-02  0.8737021E-01
         -2   -1    0    0    0  501 -0.00000000000E+00  0.00000000000E+00  0.78355998417E+03  0.78355998417E+03  0.00000000000E+00 0.  1.
          2   -1    0    0  501    0  0.00000000000E+00 -0.00000000000E+00 -0.96969476988E+03  0.96969476988E+03  0.00000000000E+00 0. -1.
         23    2    1    2    0    0 -0.16322353309E+02  0.56951525941E+03 -0.35914318941E+03  0.68004007803E+03  0.94109655740E+02 0.  0.
        254    2    1    2    0    0  0.16322353309E+02 -0.56951525941E+03  0.17300840370E+03  0.10732146760E+04  0.89288508955E+03 0.  0.
         23    2    4    4    0    0  0.20608088075E+03 -0.50991869987E+03 -0.23913119236E+03  0.60670673668E+03  0.91776507246E+02 0.  0.
         23    2    4    4    0    0 -0.18975852744E+03 -0.59596559541E+02  0.41213959606E+03  0.46650793934E+03  0.90612152500E+02 0.  0.
          4    1    3    3  502    0  0.95508512959E+01  0.37879493427E+02 -0.21141256028E+01  0.39122171588E+02  0.00000000000E+00 0.  1.
         -4    1    3    3    0  502 -0.25873204605E+02  0.53163576599E+03 -0.35702906381E+03  0.64091790644E+03  0.00000000000E+00 0. -1.
         11    1    5    5    0    0  0.10937195404E+03 -0.37908099552E+03 -0.15948400461E+03  0.42555819017E+03  0.00000000000E+00 0.  1.
        -11    1    5    5    0    0  0.96708926713E+02 -0.13083770436E+03 -0.79647187753E+02  0.18114854651E+03  0.00000000000E+00 0. -1.
          3    1    6    6  503    0 -0.76416363103E+01 -0.13032003558E+02  0.18663608644E+01  0.15222057191E+02  0.00000000000E+00 0. -1.
         -3    1    6    6    0  503 -0.18211689113E+03 -0.46564555982E+02  0.41027323519E+03  0.45128588215E+03  0.00000000000E+00 0.  1.
<mgrwt>
<rscale>  0 0.17433462E+04</rscale>
<asrwt>0</asrwt>
<pdfrwt beam="1">  1        2 0.14918381E+00 0.17433462E+04</pdfrwt>
<pdfrwt beam="2">  1       -2 0.12054769E+00 0.17433462E+04</pdfrwt>
<totfact> 0.13121724E+01</totfact>
</mgrwt>
</event>
<event>
12    2  0.3552864E-008  0.2110658E+04  0.7818608E-02  0.8556563E-01
          1   -1    0    0  501    0  0.00000000000E+00  0.00000000000E+00  0.19467238848E+04  0.19467238848E+04  0.00000000000E+00 0. -1.
         -1   -1    0    0    0  501 -0.00000000000E+00 -0.00000000000E+00 -0.57209935162E+03  0.57209935162E+03  0.00000000000E+00 0.  1.
         23    2    1    2    0    0  0.55741318477E+03  0.52654610360E+03  0.10238489998E+04  0.12824634064E+04  0.92115995796E+02 0.  0.
        254    2    1    2    0    0 -0.55741318477E+03 -0.52654610360E+03  0.35077553344E+03  0.12363598300E+04  0.90420235383E+03 0.  0.
         23    2    4    4    0    0 -0.78537239613E+03 -0.33519565918E+03  0.16940708513E+03  0.87521009015E+03  0.90155481681E+02 0.  0.
         23    2    4    4    0    0  0.22795921135E+03 -0.19135044442E+03  0.18136844831E+03  0.36114973987E+03  0.94626771849E+02 0.  0.
          4    1    3    3  502    0  0.15038303088E+03  0.17211450259E+03  0.24691321518E+03  0.33645890359E+03  0.00000000000E+00 0. -1.
         -4    1    3    3    0  502  0.40703015390E+03  0.35443160101E+03  0.77693578458E+03  0.94600450281E+03  0.00000000000E+00 0.  1.
         11    1    5    5    0    0 -0.66954762636E+03 -0.31153468211E+03  0.12529089555E+03  0.74902983294E+03  0.00000000000E+00 0. -1.
        -11    1    5    5    0    0 -0.11582476977E+03 -0.23660977072E+02  0.44116189579E+02  0.12618025721E+03  0.00000000000E+00 0.  1.
          2    1    6    6  503    0  0.10547202638E+03 -0.13453338998E+03  0.64964206074E+02  0.18287681493E+03  0.00000000000E+00 0.  1.
         -2    1    6    6    0  503  0.12248718497E+03 -0.56817054432E+02  0.11640424224E+03  0.17827292494E+03  0.00000000000E+00 0. -1.
<mgrwt>
<rscale>  0 0.21106582E+04</rscale>
<asrwt>0</asrwt>
<pdfrwt beam="1">  1        1 0.29949598E+00 0.21106582E+04</pdfrwt>
<pdfrwt beam="2">  1       -1 0.88015286E-01 0.21106582E+04</pdfrwt>
<totfact> 0.37751165E+00</totfact>
</mgrwt>
</event>
<event>
12    2  0.3552864E-008  0.2317432E+04  0.7818608E-02  0.8471079E-01
          2   -1    0    0  501    0  0.00000000000E+00  0.00000000000E+00  0.96107576238E+03  0.96107576238E+03  0.00000000000E+00 0. -1.
         -2   -1    0    0    0  501 -0.00000000000E+00 -0.00000000000E+00 -0.13970004015E+04  0.13970004015E+04  0.00000000000E+00 0.  1.
         23    2    1    2    0    0  0.42861825018E+03  0.80080944992E+02 -0.10817938814E+04  0.11703564704E+04  0.96590391626E+02 0.  0.
        254    2    1    2    0    0 -0.42861825018E+03 -0.80080944992E+02  0.64586924233E+03  0.11877196935E+04  0.89632830475E+03 0.  0.
         23    2    4    4    0    0  0.20286694631E+03 -0.25145217770E+03  0.21052286658E+03  0.39638594181E+03  0.91753702553E+02 0.  0.
         23    2    4    4    0    0 -0.63148519650E+03  0.17137123271E+03  0.43534637575E+03  0.79133375165E+03  0.92417459531E+02 0.  0.
          2    1    3    3  502    0  0.28790992824E+03  0.80895963018E+02 -0.82510677921E+03  0.87763174550E+03  0.00000000000E+00 0. -1.
         -2    1    3    3    0  502  0.14070832194E+03 -0.81501802624E+00 -0.25668710220E+03  0.29272472487E+03  0.00000000000E+00 0.  1.
         11    1    5    5    0    0  0.64233072541E+02 -0.79437322538E+02  0.18808438654E+02  0.10387460317E+03  0.00000000000E+00 0.  1.
        -11    1    5    5    0    0  0.13863387377E+03 -0.17201485517E+03  0.19171442792E+03  0.29251133863E+03  0.00000000000E+00 0. -1.
          2    1    6    6  503    0 -0.32179667178E+03  0.43301370669E+02  0.19251349756E+03  0.37747788467E+03  0.00000000000E+00 0. -1.
         -2    1    6    6    0  503 -0.30968852471E+03  0.12806986204E+03  0.24283287820E+03  0.41385586698E+03  0.00000000000E+00 0.  1.
<mgrwt>
<rscale>  0 0.23174324E+04</rscale>
<asrwt>0</asrwt>
<pdfrwt beam="1">  1        2 0.14785781E+00 0.23174324E+04</pdfrwt>
<pdfrwt beam="2">  1       -2 0.21492314E+00 0.23174324E+04</pdfrwt>
<totfact> 0.25728359E+00</totfact>
</mgrwt>
</event>
<event>
12    2  0.3552864E-008  0.1392210E+04  0.7818608E-02  0.8959477E-01
         -1   -1    0    0    0  501 -0.00000000000E+00  0.00000000000E+00  0.19824500922E+03  0.19824500922E+03  0.00000000000E+00 0.  1.
          1   -1    0    0  501    0  0.00000000000E+00 -0.00000000000E+00 -0.24442583977E+04  0.24442583977E+04  0.00000000000E+00 0. -1.
         23    2    1    2    0    0 -0.26396933544E+03  0.11580642061E+03 -0.13635553035E+03  0.33310341114E+03  0.96302205339E+02 0.  0.
        254    2    1    2    0    0  0.26396933544E+03 -0.11580642061E+03 -0.21096578581E+04  0.23093999957E+04  0.89419300210E+03 0.  0.
         23    2    4    4    0    0  0.26700954133E+03 -0.48349961725E+03 -0.12202636987E+04  0.13426582583E+04  0.92853267157E+02 0.  0.
         23    2    4    4    0    0 -0.30402058890E+01  0.36769319665E+03 -0.88939415945E+03  0.96674173747E+03  0.91433508060E+02 0.  0.
          3    1    3    3  502    0 -0.12196733650E+01  0.65942387365E+01  0.10836713844E+02  0.12743859485E+02  0.00000000000E+00 0. -1.
         -3    1    3    3    0  502 -0.26274966207E+03  0.10921218187E+03 -0.14719224420E+03  0.32035955166E+03  0.00000000000E+00 0.  1.
         11    1    5    5    0    0  0.28486234025E+02 -0.60049358907E+02 -0.23235244340E+03  0.24167136567E+03  0.00000000000E+00 0. -1.
        -11    1    5    5    0    0  0.23852330730E+03 -0.42345025835E+03 -0.98791125526E+03  0.11009868926E+04  0.00000000000E+00 0.  1.
          3    1    6    6  503    0  0.25609033418E+02  0.48756163975E+02 -0.18401944356E+03  0.19208368418E+03  0.00000000000E+00 0. -1.
         -3    1    6    6    0  503 -0.28649239307E+02  0.31893703267E+03 -0.70537471589E+03  0.77465805329E+03  0.00000000000E+00 0.  1.
<mgrwt>
<rscale>  0 0.13922098E+04</rscale>
<asrwt>0</asrwt>
<pdfrwt beam="1">  1        1 0.37603976E+00 0.13922098E+04</pdfrwt>
<pdfrwt beam="2">  1       -1 0.30499232E-01 0.13922098E+04</pdfrwt>
<totfact> 0.14365549E+01</totfact>
</mgrwt>
</event>
<event>
12    2  0.3552864E-008  0.1786727E+04  0.7818608E-02  0.8713390E-01
          1   -1    0    0  501    0  0.00000000000E+00  0.00000000000E+00  0.12979999421E+04  0.12979999421E+04  0.00000000000E+00 0.  1.
         -1   -1    0    0    0  501 -0.00000000000E+00 -0.00000000000E+00 -0.61486748727E+03  0.61486748727E+03  0.00000000000E+00 0. -1.
         23    2    1    2    0    0  0.58590772800E+02  0.46427743941E+02 -0.44756503893E+03  0.46273122860E+03  0.90649389336E+02 0.  0.
        254    2    1    2    0    0 -0.58590772800E+02 -0.46427743941E+02  0.11306974937E+04  0.14501362007E+04  0.90489212853E+03 0.  0.
         23    2    4    4    0    0 -0.17739995780E+03  0.27076876448E+03  0.10324453551E+04  0.10858885441E+04  0.91782625097E+02 0.  0.
         23    2    4    4    0    0  0.11880918500E+03 -0.31719650842E+03  0.98252138654E+02  0.36424765658E+03  0.91069342700E+02 0.  0.
          4    1    3    3  502    0  0.14615088343E+02 -0.20006307066E+02 -0.22454822093E+03  0.22591094850E+03  0.00000000000E+00 0. -1.
         -4    1    3    3    0  502  0.43975684456E+02  0.66434051007E+02 -0.22301681800E+03  0.23682028010E+03  0.00000000000E+00 0.  1.
         11    1    5    5    0    0 -0.15680512557E+03  0.24392731513E+03  0.79878634132E+03  0.84979291686E+03  0.00000000000E+00 0. -1.
        -11    1    5    5    0    0 -0.20594832221E+02  0.26841449346E+02  0.23365901374E+03  0.23609562728E+03  0.00000000000E+00 0.  1.
          1    1    6    6  503    0  0.50480515101E+02 -0.24188169102E+03  0.86881592049E+02  0.26192259523E+03  0.00000000000E+00 0. -1.
         -1    1    6    6    0  503  0.68328669894E+02 -0.75314817395E+02  0.11370546606E+02  0.10232506134E+03  0.00000000000E+00 0.  1.
<mgrwt>
<rscale>  0 0.17867266E+04</rscale>
<asrwt>0</asrwt>
<pdfrwt beam="1">  1        1 0.19969230E+00 0.17867266E+04</pdfrwt>
<pdfrwt beam="2">  1       -1 0.94594998E-01 0.17867266E+04</pdfrwt>
<totfact> 0.92691189E+00</totfact>
</mgrwt>
</event>
<event>
12    2  0.3552864E-008  0.1956458E+04  0.7818608E-02  0.8627253E-01
          2   -1    0    0  501    0  0.00000000000E+00  0.00000000000E+00  0.93389606665E+03  0.93389606665E+03  0.00000000000E+00 0. -1.
         -2   -1    0    0    0  501 -0.00000000000E+00 -0.00000000000E+00 -0.10246662174E+04  0.10246662174E+04  0.00000000000E+00 0.  1.
         23    2    1    2    0    0 -0.51099628108E+03 -0.52798942829E+03 -0.26196093945E+03  0.78590136873E+03  0.95537384870E+02 0.  0.
        254    2    1    2    0    0  0.51099628108E+03  0.52798942829E+03  0.17119078870E+03  0.11726609153E+04  0.89774010746E+03 0.  0.
         23    2    4    4    0    0 -0.16556125147E+03 -0.10188495830E+03 -0.43926254373E+02  0.21925528617E+03  0.91390874673E+02 0.  0.
         23    2    4    4    0    0  0.67655753255E+03  0.62987438659E+03  0.21511704307E+03  0.95340562916E+03  0.90747527501E+02 0.  0.
          1    1    3    3  502    0 -0.18532083573E+03 -0.14071270552E+03 -0.54325103749E+02  0.23894579835E+03  0.00000000000E+00 0. -1.
         -1    1    3    3    0  502 -0.32567544535E+03 -0.38727672277E+03 -0.20763583570E+03  0.54695557038E+03  0.00000000000E+00 0.  1.
         11    1    5    5    0    0 -0.13332430569E+03 -0.62486236664E+02 -0.68886880348E+02  0.16255861264E+03  0.00000000000E+00 0. -1.
        -11    1    5    5    0    0 -0.32236945780E+02 -0.39398721639E+02  0.24960625975E+02  0.56696673528E+02  0.00000000000E+00 0.  1.
          3    1    6    6  503    0  0.11256175869E+03  0.14057929698E+03  0.67297939607E+02  0.19225426116E+03  0.00000000000E+00 0. -1.
         -3    1    6    6    0  503  0.56399577386E+03  0.48929508962E+03  0.14781910346E+03  0.76115136800E+03  0.00000000000E+00 0.  1.
<mgrwt>
<rscale>  0 0.19564578E+04</rscale>
<asrwt>0</asrwt>
<pdfrwt beam="1">  1        2 0.14367632E+00 0.19564578E+04</pdfrwt>
<pdfrwt beam="2">  1       -2 0.15764096E+00 0.19564578E+04</pdfrwt>
<totfact> 0.68022654E+00</totfact>
</mgrwt>
</event>
<event>
12    2  0.3552864E-008  0.1602108E+04  0.7818608E-02  0.8819254E-01
         -1   -1    0    0    0  501 -0.00000000000E+00  0.00000000000E+00  0.77068184792E+03  0.77068184792E+03  0.00000000000E+00 0.  1.
          1   -1    0    0  501    0  0.00000000000E+00 -0.00000000000E+00 -0.83262279060E+03  0.83262279060E+03  0.00000000000E+00 0. -1.
         23    2    1    2    0    0  0.18371815315E+03 -0.51215260025E+03  0.38409570438E+02  0.55292213929E+03  0.90525970193E+02 0.  0.
        254    2    1    2    0    0 -0.18371815315E+03  0.51215260025E+03 -0.10035051312E+03  0.10503824992E+04  0.89284966453E+03 0.  0.
         23    2    4    4    0    0 -0.46970497305E+03  0.10013469372E+03  0.10611080644E+03  0.50044981334E+03  0.92416415388E+02 0.  0.
         23    2    4    4    0    0  0.28598681989E+03  0.41201790652E+03 -0.20646131956E+03  0.54993268589E+03  0.90843084958E+02 0.  0.
          4    1    3    3  502    0  0.11303152249E+02 -0.12738846771E+03  0.29265727921E+02  0.13119476280E+03  0.00000000000E+00 0. -1.
         -4    1    3    3    0  502  0.17241500090E+03 -0.38476413254E+03  0.91438425167E+01  0.42172737649E+03  0.00000000000E+00 0.  1.
         11    1    5    5    0    0 -0.66361802508E+02  0.46662594501E+02  0.54342150638E+01  0.81306932368E+02  0.00000000000E+00 0. -1.
        -11    1    5    5    0    0 -0.40334317054E+03  0.53472099223E+02  0.10067659138E+03  0.41914288097E+03  0.00000000000E+00 0.  1.
          2    1    6    6  503    0  0.20764662054E+03  0.22201180633E+03 -0.11562958736E+03  0.32523308971E+03  0.00000000000E+00 0. -1.
         -2    1    6    6    0  503  0.78340199348E+02  0.19000610020E+03 -0.90831732201E+02  0.22469959617E+03  0.00000000000E+00 0.  1.
<mgrwt>
<rscale>  0 0.16021077E+04</rscale>
<asrwt>0</asrwt>
<pdfrwt beam="1">  1        1 0.12809581E+00 0.16021077E+04</pdfrwt>
<pdfrwt beam="2">  1       -1 0.11856644E+00 0.16021077E+04</pdfrwt>
<totfact> 0.12677296E+01</totfact>
</mgrwt>
</event>
<event>
12    2  0.3552864E-008  0.1378233E+04  0.7818608E-02  0.8969727E-01
         -2   -1    0    0    0  501 -0.00000000000E+00  0.00000000000E+00  0.29228145054E+03  0.29228145054E+03  0.00000000000E+00 0.  1.
          2   -1    0    0  501    0  0.00000000000E+00 -0.00000000000E+00 -0.16247406581E+04  0.16247406581E+04  0.00000000000E+00 0. -1.
         23    2    1    2    0    0 -0.25935774625E+03 -0.23502890196E+03 -0.28873928782E+03  0.46370761980E+03  0.95652261025E+02 0.  0.
        254    2    1    2    0    0  0.25935774625E+03  0.23502890196E+03 -0.10437199198E+04  0.14533144888E+04  0.94882385473E+03 0.  0.
         23    2    4    4    0    0  0.58464409849E+03  0.22851306541E+03 -0.86163355349E+03  0.10699781617E+04  0.91727548262E+02 0.  0.
         23    2    4    4    0    0 -0.32528635224E+03  0.65158365545E+01 -0.18208636627E+03  0.38333632713E+03  0.89093365819E+02 0.  0.
          4    1    3    3  502    0 -0.36189452014E+02 -0.56377271908E+02 -0.10275263846E+03  0.12266286290E+03  0.00000000000E+00 0. -1.
         -4    1    3    3    0  502 -0.22316829423E+03 -0.17865163006E+03 -0.18598664936E+03  0.34104475690E+03  0.00000000000E+00 0.  1.
         11    1    5    5    0    0  0.27993886738E+03  0.12144506456E+03 -0.49381436685E+03  0.58048884751E+03  0.00000000000E+00 0. -1.
        -11    1    5    5    0    0  0.30470523111E+03  0.10706800085E+03 -0.36781918664E+03  0.48948931422E+03  0.00000000000E+00 0.  1.
          4    1    6    6  503    0 -0.82582511366E+02 -0.36712810168E+02 -0.40370421065E+02  0.98982182795E+02  0.00000000000E+00 0. -1.
         -4    1    6    6    0  503 -0.24270384088E+03  0.43228646722E+02 -0.14171594521E+03  0.28435414433E+03  0.00000000000E+00 0.  1.
<mgrwt>
<rscale>  0 0.13782330E+04</rscale>
<asrwt>0</asrwt>
<pdfrwt beam="1">  1        2 0.24996010E+00 0.13782330E+04</pdfrwt>
<pdfrwt beam="2">  1       -2 0.44966377E-01 0.13782330E+04</pdfrwt>
<totfact> 0.49378077E+01</totfact>
</mgrwt>
</event>
<event>
12    2  0.3552864E-008  0.1345607E+04  0.7818608E-02  0.8994160E-01
          2   -1    0    0  501    0  0.00000000000E+00  0.00000000000E+00  0.14585506407E+04  0.14585506407E+04  0.00000000000E+00 0. -1.
         -2   -1    0    0    0  501 -0.00000000000E+00 -0.00000000000E+00 -0.31035244007E+03  0.31035244007E+03  0.00000000000E+00 0.  1.
         23    2    1    2    0    0  0.27442547031E+03 -0.99352383536E+02  0.62458317804E+03  0.69538810388E+03  0.90995790337E+02 0.  0.
        254    2    1    2    0    0 -0.27442547031E+03  0.99352383536E+02  0.52361502254E+03  0.10735149768E+04  0.89055122189E+03 0.  0.
         23    2    4    4    0    0 -0.29560452125E+02  0.36964179755E+03  0.58026674173E+03  0.69384983218E+03  0.84907121189E+02 0.  0.
         23    2    4    4    0    0 -0.24486501818E+03 -0.27028941402E+03 -0.56651719189E+02  0.37966514467E+03  0.88999777125E+02 0.  0.
          4    1    3    3  502    0  0.27105867263E+03 -0.10723034217E+03  0.62117061230E+03  0.68616621884E+03  0.00000000000E+00 0. -1.
         -4    1    3    3    0  502  0.33667976750E+01  0.78779586336E+01  0.34125657451E+01  0.92218850449E+01  0.00000000000E+00 0.  1.
         11    1    5    5    0    0 -0.37798337948E+01  0.18800103304E+03  0.36821602056E+03  0.41345098061E+03  0.00000000000E+00 0. -1.
        -11    1    5    5    0    0 -0.25780618330E+02  0.18164076451E+03  0.21205072117E+03  0.28039885157E+03  0.00000000000E+00 0.  1.
          4    1    6    6  503    0 -0.22827117722E+03 -0.25634922107E+03 -0.74904212107E+02  0.35133074799E+03  0.00000000000E+00 0. -1.
         -4    1    6    6    0  503 -0.16593840962E+02 -0.13940192949E+02  0.18252492917E+02  0.28334396676E+02  0.00000000000E+00 0.  1.
<mgrwt>
<rscale>  0 0.13456073E+04</rscale>
<asrwt>0</asrwt>
<pdfrwt beam="1">  1        2 0.22439240E+00 0.13456073E+04</pdfrwt>
<pdfrwt beam="2">  1       -2 0.47746530E-01 0.13456073E+04</pdfrwt>
<totfact> 0.54400792E+01</totfact>
</mgrwt>
</event>
<event>
12    2  0.3552864E-008  0.2921455E+04  0.7818608E-02  0.8266523E-01
         -2   -1    0    0    0  501 -0.00000000000E+00  0.00000000000E+00  0.11365592516E+04  0.11365592516E+04  0.00000000000E+00 0.  1.
          2   -1    0    0  501    0  0.00000000000E+00 -0.00000000000E+00 -0.18773542687E+04  0.18773542687E+04  0.00000000000E+00 0. -1.
         23    2    1    2    0    0 -0.10903020280E+04  0.71631921450E+03 -0.54069043148E+03  0.14150959443E+04  0.90987139506E+02 0.  0.
        254    2    1    2    0    0  0.10903020280E+04 -0.71631921450E+03 -0.20010458564E+03  0.15988175759E+04  0.90238798001E+03 0.  0.
         23    2    4    4    0    0  0.70193173804E+03 -0.36313930380E+03 -0.54412993619E+03  0.96381912250E+03  0.91058193584E+02 0.  0.
         23    2    4    4    0    0  0.38837029000E+03 -0.35317991070E+03  0.34402535055E+03  0.63499845342E+03  0.96447200800E+02 0.  0.
          2    1    3    3  502    0 -0.89955773719E+03  0.55091312475E+03 -0.45005348448E+03  0.11468467781E+04  0.00000000000E+00 0. -1.
         -2    1    3    3    0  502 -0.19074429085E+03  0.16540608975E+03 -0.90636946999E+02  0.26824916622E+03  0.00000000000E+00 0.  1.
         11    1    5    5    0    0  0.68958247620E+03 -0.36693200507E+03 -0.54193919046E+03  0.95071613744E+03  0.00000000000E+00 0.  1.
        -11    1    5    5    0    0  0.12349261836E+02  0.37927012702E+01 -0.21907457318E+01  0.13102985067E+02  0.00000000000E+00 0. -1.
          4    1    6    6  503    0  0.11497060986E+03 -0.10672715322E+03  0.52406865149E+02  0.16539469726E+03  0.00000000000E+00 0. -1.
         -4    1    6    6    0  503  0.27339968014E+03 -0.24645275748E+03  0.29161848540E+03  0.46960375616E+03  0.00000000000E+00 0.  1.
<mgrwt>
<rscale>  0 0.29214547E+04</rscale>
<asrwt>0</asrwt>
<pdfrwt beam="1">  1        2 0.28882373E+00 0.29214547E+04</pdfrwt>
<pdfrwt beam="2">  1       -2 0.17485527E+00 0.29214547E+04</pdfrwt>
<totfact> 0.13264047E+00</totfact>
</mgrwt>
</event>
<event>
12    2  0.3552864E-008  0.1428359E+04  0.7818608E-02  0.8933543E-01
          1   -1    0    0  501    0  0.00000000000E+00  0.00000000000E+00  0.26791884892E+04  0.26791884892E+04  0.00000000000E+00 0. -1.
         -1   -1    0    0    0  501 -0.00000000000E+00 -0.00000000000E+00 -0.19037579051E+03  0.19037579051E+03  0.00000000000E+00 0.  1.
         23    2    1    2    0    0  0.20134585268E+03  0.77632371144E+01  0.57817125218E+01  0.22135672211E+03  0.91460100490E+02 0.  0.
        254    2    1    2    0    0 -0.20134585268E+03 -0.77632371144E+01  0.24830309862E+04  0.26482075576E+04  0.89830950655E+03 0.  0.
         23    2    4    4    0    0  0.10341108388E+03  0.11481956710E+03  0.41786789571E+02  0.18328296807E+03  0.89269957673E+02 0.  0.
         23    2    4    4    0    0 -0.30475693656E+03 -0.12258280421E+03  0.24412441966E+04  0.24649245895E+04  0.90976207639E+02 0.  0.
          1    1    3    3  502    0 -0.13078579111E+01  0.89415971935E+00 -0.17214086395E+02  0.17286838471E+02  0.00000000000E+00 0. -1.
         -1    1    3    3    0  502  0.20265371059E+03  0.68690773951E+01  0.22995798916E+02  0.20406988364E+03  0.00000000000E+00 0.  1.
         11    1    5    5    0    0  0.36632632599E+02  0.36061433498E+02  0.59377884236E+02  0.78537315293E+02  0.00000000000E+00 0. -1.
        -11    1    5    5    0    0  0.66778451281E+02  0.78758133598E+02 -0.17591094665E+02  0.10474565277E+03  0.00000000000E+00 0.  1.
          1    1    6    6  503    0 -0.61283814756E+02 -0.50757564500E+02  0.39017488023E+03  0.39820657135E+03  0.00000000000E+00 0. -1.
         -1    1    6    6    0  503 -0.24347312180E+03 -0.71825239710E+02  0.20510693164E+04  0.20667180182E+04  0.00000000000E+00 0.  1.
<mgrwt>
<rscale>  0 0.14283594E+04</rscale>
<asrwt>0</asrwt>
<pdfrwt beam="1">  1        1 0.41218282E+00 0.14283594E+04</pdfrwt>
<pdfrwt beam="2">  1       -1 0.29288585E-01 0.14283594E+04</pdfrwt>
<totfact> 0.10558840E+01</totfact>
</mgrwt>
</event>
<event>
12    2  0.3552864E-008  0.1354092E+04  0.7818608E-02  0.8987736E-01
          1   -1    0    0  501    0  0.00000000000E+00  0.00000000000E+00  0.16207596821E+04  0.16207596821E+04  0.00000000000E+00 0. -1.
         -1   -1    0    0    0  501 -0.00000000000E+00 -0.00000000000E+00 -0.28282516333E+03  0.28282516333E+03  0.00000000000E+00 0.  1.
         23    2    1    2    0    0 -0.50749379018E+02 -0.97306488574E+02 -0.12190006819E+03  0.18795909380E+03  0.91787483511E+02 0.  0.
        254    2    1    2    0    0  0.50749379018E+02  0.97306488574E+02  0.14598345870E+04  0.17156257516E+04  0.89454493802E+03 0.  0.
         23    2    4    4    0    0 -0.29095161344E+03  0.23079768852E+03  0.11928610935E+04  0.12527539784E+04  0.92490689467E+02 0.  0.
         23    2    4    4    0    0  0.34170099246E+03 -0.13349119995E+03  0.26697349350E+03  0.46287177325E+03  0.91629490486E+02 0.  0.
          3    1    3    3  502    0 -0.46056028753E+02 -0.76456877600E+02 -0.30855391641E+02  0.94439753865E+02  0.00000000000E+00 0. -1.
         -3    1    3    3    0  502 -0.46933502649E+01 -0.20849610974E+02 -0.91044676550E+02  0.93519339939E+02  0.00000000000E+00 0.  1.
         11    1    5    5    0    0 -0.24250787697E+03  0.20207039681E+03  0.10975960568E+04  0.11420856446E+04  0.00000000000E+00 0.  1.
        -11    1    5    5    0    0 -0.48443736475E+02  0.28727291715E+02  0.95265036635E+02  0.11066833376E+03  0.00000000000E+00 0. -1.
          4    1    6    6  503    0  0.80306797534E+02 -0.36912368501E+02  0.11632169115E+03  0.14609052163E+03  0.00000000000E+00 0. -1.
         -4    1    6    6    0  503  0.26139419492E+03 -0.96578831447E+02  0.15065180235E+03  0.31678125162E+03  0.00000000000E+00 0.  1.
<mgrwt>
<rscale>  0 0.13540925E+04</rscale>
<asrwt>0</asrwt>
<pdfrwt beam="1">  1        1 0.24934764E+00 0.13540925E+04</pdfrwt>
<pdfrwt beam="2">  1       -1 0.43511565E-01 0.13540925E+04</pdfrwt>
<totfact> 0.27553581E+01</totfact>
</mgrwt>
</event>
<event>
12    2  0.3552864E-008  0.2105077E+04  0.7818608E-02  0.8559010E-01
          2   -1    0    0  501    0  0.00000000000E+00  0.00000000000E+00  0.94685971674E+03  0.94685971674E+03  0.00000000000E+00 0. -1.
         -2   -1    0    0    0  501 -0.00000000000E+00 -0.00000000000E+00 -0.11700115291E+04  0.11700115291E+04  0.00000000000E+00 0.  1.
         23    2    1    2    0    0 -0.25504573783E+03  0.97623550287E+02  0.72457205184E+03  0.77960290077E+03  0.90539155171E+02 0.  0.
        254    2    1    2    0    0  0.25504573783E+03 -0.97623550287E+02 -0.94772386424E+03  0.13372683451E+04  0.90306556686E+03 0.  0.
         23    2    4    4    0    0  0.20685556272E+03  0.37736905489E+03 -0.57835197436E+03  0.72663789172E+03  0.91186578089E+02 0.  0.
         23    2    4    4    0    0  0.48190175103E+02 -0.47499260518E+03 -0.36937188988E+03  0.61063045339E+03  0.92161215425E+02 0.  0.
          3    1    3    3  502    0 -0.17703479087E+03  0.80823220342E+02  0.60758052452E+03  0.63798730701E+03  0.00000000000E+00 0. -1.
         -3    1    3    3    0  502 -0.78010946955E+02  0.16800329946E+02  0.11699152733E+03  0.14161559376E+03  0.00000000000E+00 0.  1.
         11    1    5    5    0    0  0.19066003595E+03  0.35523619934E+03 -0.49229384945E+03  0.63631536272E+03  0.00000000000E+00 0.  1.
        -11    1    5    5    0    0  0.16195526775E+02  0.22132855552E+02 -0.86058124910E+02  0.90322529002E+02  0.00000000000E+00 0. -1.
          3    1    6    6  503    0  0.74502361425E+02 -0.39632856507E+03 -0.30394620261E+03  0.50498537348E+03  0.00000000000E+00 0. -1.
         -3    1    6    6    0  503 -0.26312186323E+02 -0.78664040109E+02 -0.65425687274E+02  0.10564507992E+03  0.00000000000E+00 0.  1.
<mgrwt>
<rscale>  0 0.21050765E+04</rscale>
<asrwt>0</asrwt>
<pdfrwt beam="1">  1        2 0.14567073E+00 0.21050765E+04</pdfrwt>
<pdfrwt beam="2">  1       -2 0.18000177E+00 0.21050765E+04</pdfrwt>
<totfact> 0.45552159E+00</totfact>
</mgrwt>
</event>
<event>
12    2  0.3552864E-008  0.1329953E+04  0.7818608E-02  0.9006143E-01
         -2   -1    0    0    0  501 -0.00000000000E+00  0.00000000000E+00  0.34176170056E+03  0.34176170056E+03  0.00000000000E+00 0.  1.
          2   -1    0    0  501    0  0.00000000000E+00 -0.00000000000E+00 -0.12938662667E+04  0.12938662667E+04  0.00000000000E+00 0. -1.
         23    2    1    2    0    0  0.15468781995E+03 -0.17783915089E+03 -0.50264812644E+03  0.56204126854E+03  0.87636540876E+02 0.  0.
        254    2    1    2    0    0 -0.15468781995E+03  0.17783915089E+03 -0.44945643969E+03  0.10735866987E+04  0.94605614170E+03 0.  0.
         23    2    4    4    0    0 -0.37256005728E+03  0.16025914140E+03 -0.64476618946E+03  0.76706683019E+03  0.90465983796E+02 0.  0.
         23    2    4    4    0    0  0.21787223733E+03  0.17580009497E+02  0.19530974976E+03  0.30651986853E+03  0.89616755785E+02 0.  0.
          1    1    3    3  502    0  0.10334218894E+03 -0.14367897412E+03 -0.43939546992E+03  0.47369994153E+03  0.00000000000E+00 0. -1.
         -1    1    3    3    0  502  0.51345631010E+02 -0.34160176769E+02 -0.63252656517E+02  0.88341327006E+02  0.00000000000E+00 0.  1.
         11    1    5    5    0    0 -0.34308578750E+02 -0.13823308773E+01 -0.10032896986E+03  0.10604193325E+03  0.00000000000E+00 0. -1.
        -11    1    5    5    0    0 -0.33825147853E+03  0.16164147227E+03 -0.54443721960E+03  0.66102489694E+03  0.00000000000E+00 0.  1.
          1    1    6    6  503    0  0.69957224877E+02  0.39394001084E+02  0.10379046843E+03  0.13121875617E+03  0.00000000000E+00 0. -1.
         -1    1    6    6    0  503  0.14791501246E+03 -0.21813991587E+02  0.91519281327E+02  0.17530111236E+03  0.00000000000E+00 0.  1.
<mgrwt>
<rscale>  0 0.13299533E+04</rscale>
<asrwt>0</asrwt>
<pdfrwt beam="1">  1        2 0.19905635E+00 0.13299533E+04</pdfrwt>
<pdfrwt beam="2">  1       -2 0.52578723E-01 0.13299533E+04</pdfrwt>
<totfact> 0.55635415E+01</totfact>
</mgrwt>
</event>
<event>
12    2  0.3552864E-008  0.1712600E+04  0.7818608E-02  0.8754211E-01
         -1   -1    0    0    0  501 -0.00000000000E+00  0.00000000000E+00  0.11286449052E+04  0.11286449052E+04  0.00000000000E+00 0.  1.
          1   -1    0    0  501    0  0.00000000000E+00 -0.00000000000E+00 -0.64967262153E+03  0.64967262153E+03  0.00000000000E+00 0. -1.
         23    2    1    2    0    0 -0.66923561257E+02 -0.25391772098E+03 -0.40364247041E+03  0.48995136792E+03  0.90399817062E+02 0.  0.
        254    2    1    2    0    0  0.66923561257E+02  0.25391772098E+03  0.88261475408E+03  0.12883661588E+04  0.90106913329E+03 0.  0.
         23    2    4    4    0    0 -0.29120786013E+03  0.42589186640E+03  0.58025955348E+03  0.78169731458E+03  0.90352877965E+02 0.  0.
         23    2    4    4    0    0  0.35813142139E+03 -0.17197414542E+03  0.30235520060E+03  0.50666884422E+03  0.86379561805E+02 0.  0.
          3    1    3    3  502    0 -0.81133562885E+02 -0.23138226135E+03 -0.32635452219E+03  0.40820053901E+03  0.00000000000E+00 0. -1.
         -3    1    3    3    0  502  0.14210001628E+02 -0.22535459637E+02 -0.77287948224E+02  0.81750828913E+02  0.00000000000E+00 0.  1.
         11    1    5    5    0    0 -0.47783087847E+01  0.81356213101E+01 -0.23159974228E+01  0.97151640751E+01  0.00000000000E+00 0.  1.
        -11    1    5    5    0    0 -0.28642955135E+03  0.41775624509E+03  0.58257555090E+03  0.77198215051E+03  0.00000000000E+00 0. -1.
          1    1    6    6  503    0  0.32725924679E+03 -0.12700553510E+03  0.27318011402E+03  0.44481051612E+03  0.00000000000E+00 0. -1.
         -1    1    6    6    0  503  0.30872174596E+02 -0.44968610320E+02  0.29175086578E+02  0.61858328099E+02  0.00000000000E+00 0.  1.
<mgrwt>
<rscale>  0 0.17126000E+04</rscale>
<asrwt>0</asrwt>
<pdfrwt beam="1">  1        1 0.99949634E-01 0.17126000E+04</pdfrwt>
<pdfrwt beam="2">  1       -1 0.17363768E+00 0.17126000E+04</pdfrwt>
<totfact> 0.67046445E+00</totfact>
</mgrwt>
</event>
<event>
12    2  0.3552864E-008  0.1413903E+04  0.7818608E-02  0.8943816E-01
         -2   -1    0    0    0  501 -0.00000000000E+00  0.00000000000E+00  0.79275273696E+03  0.79275273696E+03  0.00000000000E+00 0.  1.
          2   -1    0    0  501    0  0.00000000000E+00 -0.00000000000E+00 -0.63043638060E+03  0.63043638060E+03  0.00000000000E+00 0. -1.
         23    2    1    2    0    0 -0.28610944161E+03 -0.24884123868E+02  0.40998511350E+03  0.50884961853E+03  0.91445660265E+02 0.  0.
        254    2    1    2    0    0  0.28610944161E+03  0.24884123868E+02 -0.24766875714E+03  0.91433949903E+03  0.83198502031E+03 0.  0.
         23    2    4    4    0    0  0.28341057939E+03 -0.33576211240E+03  0.30165338141E+02  0.44964434346E+03  0.90621936332E+02 0.  0.
         23    2    4    4    0    0  0.26988622278E+01  0.36064623627E+03 -0.27783409528E+03  0.46469515557E+03  0.93149404251E+02 0.  0.
          2    1    3    3  502    0 -0.20226192372E+03  0.14456513375E+02  0.23140213156E+03  0.30767811599E+03  0.00000000000E+00 0. -1.
         -2    1    3    3    0  502 -0.83847517891E+02 -0.39340637243E+02  0.17858298194E+03  0.20117150254E+03  0.00000000000E+00 0.  1.
         11    1    5    5    0    0  0.74230611858E+02 -0.10654937989E+03  0.48914576084E+02  0.13876451219E+03  0.00000000000E+00 0.  1.
        -11    1    5    5    0    0  0.20917996753E+03 -0.22921273252E+03 -0.18749237943E+02  0.31087983126E+03  0.00000000000E+00 0. -1.
          1    1    6    6  503    0 -0.23412028987E+02  0.79401715795E+02 -0.27375347802E+02  0.87190396488E+02  0.00000000000E+00 0. -1.
         -1    1    6    6    0  503  0.26110891215E+02  0.28124452048E+03 -0.25045874748E+03  0.37750475908E+03  0.00000000000E+00 0.  1.
<mgrwt>
<rscale>  0 0.14139026E+04</rscale>
<asrwt>0</asrwt>
<pdfrwt beam="1">  1        2 0.96990213E-01 0.14139026E+04</pdfrwt>
<pdfrwt beam="2">  1       -2 0.12196196E+00 0.14139026E+04</pdfrwt>
<totfact> 0.23146363E+01</totfact>
</mgrwt>
</event>
<event>
12    2  0.3552864E-008  0.1374445E+04  0.7818608E-02  0.8972527E-01
          2   -1    0    0  501    0  0.00000000000E+00  0.00000000000E+00  0.34326328542E+04  0.34326328542E+04  0.00000000000E+00 0. -1.
         -2   -1    0    0    0  501 -0.00000000000E+00 -0.00000000000E+00 -0.13758390194E+03  0.13758390194E+03  0.00000000000E+00 0.  1.
         23    2    1    2    0    0 -0.35414413442E+03 -0.11007487909E+03  0.66638549307E+03  0.76791455444E+03  0.89936592115E+02 0.  0.
        254    2    1    2    0    0  0.35414413442E+03  0.11007487909E+03  0.26286634592E+04  0.28023022017E+04  0.89749178327E+03 0.  0.
         23    2    4    4    0    0  0.99441296148E+02  0.39201642397E+02  0.24829168493E+04  0.24864637591E+04  0.78743917663E+02 0.  0.
         23    2    4    4    0    0  0.25470283827E+03  0.70873236692E+02  0.14574660995E+03  0.31583844268E+03  0.92818619133E+02 0.  0.
          2    1    3    3  502    0 -0.26902113862E+02  0.65305108995E+01  0.97418337215E+02  0.10127538560E+03  0.00000000000E+00 0. -1.
         -2    1    3    3    0  502 -0.32724202056E+03 -0.11660538999E+03  0.56896715585E+03  0.66663916884E+03  0.00000000000E+00 0.  1.
         11    1    5    5    0    0 -0.13212421507E+02  0.41717823269E+01  0.36597485429E+03  0.36623703503E+03  0.00000000000E+00 0. -1.
        -11    1    5    5    0    0  0.11265371766E+03  0.35029860071E+02  0.21169419950E+04  0.21202267240E+04  0.00000000000E+00 0.  1.
          3    1    6    6  503    0  0.17130135469E+03  0.82136736634E+02  0.13005896418E+03  0.23023017132E+03  0.00000000000E+00 0. -1.
         -3    1    6    6    0  503  0.83401483585E+02 -0.11263499943E+02  0.15687645775E+02  0.85608271359E+02  0.00000000000E+00 0.  1.
<mgrwt>
<rscale>  0 0.13744454E+04</rscale>
<asrwt>0</asrwt>
<pdfrwt beam="1">  1        2 0.52809729E+00 0.13744454E+04</pdfrwt>
<pdfrwt beam="2">  1       -2 0.21166757E-01 0.13744454E+04</pdfrwt>
<totfact> 0.17363699E+01</totfact>
</mgrwt>
</event>
<event>
12    2  0.3552864E-008  0.1986910E+04  0.7818608E-02  0.8612765E-01
          2   -1    0    0  501    0  0.00000000000E+00  0.00000000000E+00  0.87233359891E+03  0.87233359891E+03  0.00000000000E+00 0. -1.
         -2   -1    0    0    0  501 -0.00000000000E+00 -0.00000000000E+00 -0.11313940574E+04  0.11313940574E+04  0.00000000000E+00 0.  1.
         23    2    1    2    0    0  0.59401993645E+03  0.31973208365E+03 -0.49701142501E+03  0.84254773360E+03  0.88193177634E+02 0.  0.
        254    2    1    2    0    0 -0.59401993645E+03 -0.31973208365E+03  0.23795096655E+03  0.11611799227E+04  0.91467472915E+03 0.  0.
         23    2    4    4    0    0 -0.58693953636E+03 -0.32224271285E+03 -0.20685205354E+03  0.70678390557E+03  0.91746017827E+02 0.  0.
         23    2    4    4    0    0 -0.70804000912E+01  0.25106291920E+01  0.44480302009E+03  0.45439601712E+03  0.92572017238E+02 0.  0.
          3    1    3    3  502    0  0.23959389926E+03  0.88381367555E+02 -0.15835476623E+03  0.30048749505E+03  0.00000000000E+00 0. -1.
         -3    1    3    3    0  502  0.35442603719E+03  0.23135071610E+03 -0.33865665878E+03  0.54206023855E+03  0.00000000000E+00 0.  1.
         11    1    5    5    0    0 -0.43797797346E+03 -0.20564102771E+03 -0.17732763754E+03  0.51532322725E+03  0.00000000000E+00 0.  1.
        -11    1    5    5    0    0 -0.14896156291E+03 -0.11660168514E+03 -0.29524415998E+02  0.19146067831E+03  0.00000000000E+00 0. -1.
          2    1    6    6  503    0  0.24997681432E+02  0.37138148271E+02  0.18497379563E+03  0.19031403312E+03  0.00000000000E+00 0. -1.
         -2    1    6    6    0  503 -0.32078081523E+02 -0.34627519079E+02  0.25982922446E+03  0.26408198400E+03  0.00000000000E+00 0.  1.
<mgrwt>
<rscale>  0 0.19869102E+04</rscale>
<asrwt>0</asrwt>
<pdfrwt beam="1">  1        2 0.13420517E+00 0.19869102E+04</pdfrwt>
<pdfrwt beam="2">  1       -2 0.17406062E+00 0.19869102E+04</pdfrwt>
<totfact> 0.56800608E+00</totfact>
</mgrwt>
</event>
<event>
12    2  0.3552864E-008  0.1436548E+04  0.7818608E-02  0.8927780E-01
          1   -1    0    0  501    0  0.00000000000E+00  0.00000000000E+00  0.52951775247E+03  0.52951775247E+03  0.00000000000E+00 0.  1.
         -1   -1    0    0    0  501 -0.00000000000E+00 -0.00000000000E+00 -0.97431530845E+03  0.97431530845E+03  0.00000000000E+00 0. -1.
         23    2    1    2    0    0  0.89076463266E+02  0.58257735705E+02  0.30169660968E+03  0.33144608925E+03  0.86643440074E+02 0.  0.
        254    2    1    2    0    0 -0.89076463266E+02 -0.58257735705E+02 -0.74649416566E+03  0.11723869717E+04  0.89772439640E+03 0.  0.
         23    2    4    4    0    0  0.56300474530E+02 -0.29429025743E+03 -0.81423533716E+03  0.87360952331E+03  0.10216611908E+03 0.  0.
         23    2    4    4    0    0 -0.14537693780E+03  0.23603252173E+03  0.67741171501E+02  0.29877744836E+03  0.88505886665E+02 0.  0.
          3    1    3    3  502    0 -0.13727361671E+02 -0.52768907020E+01  0.52018814606E+02  0.54057775638E+02  0.00000000000E+00 0. -1.
         -3    1    3    3    0  502  0.10280382494E+03  0.63534626407E+02  0.24967779508E+03  0.27738831361E+03  0.00000000000E+00 0.  1.
         11    1    5    5    0    0 -0.28330824779E+02 -0.11247384172E+03 -0.30428109121E+03  0.32563780980E+03  0.00000000000E+00 0. -1.
        -11    1    5    5    0    0  0.84631299309E+02 -0.18181641572E+03 -0.50995424595E+03  0.54797171351E+03  0.00000000000E+00 0.  1.
          1    1    6    6  503    0 -0.13690257356E+02  0.26026529848E+02 -0.20293464143E+02  0.35729932680E+02  0.00000000000E+00 0.  1.
         -1    1    6    6    0  503 -0.13168668044E+03  0.21000599188E+03  0.88034635644E+02  0.26304751568E+03  0.00000000000E+00 0. -1.
<mgrwt>
<rscale>  0 0.14365476E+04</rscale>
<asrwt>0</asrwt>
<pdfrwt beam="1">  1        1 0.81464271E-01 0.14365476E+04</pdfrwt>
<pdfrwt beam="2">  1       -1 0.14989466E+00 0.14365476E+04</pdfrwt>
<totfact> 0.13908588E+01</totfact>
</mgrwt>
</event>
<event>
12    2  0.3552864E-008  0.1434422E+04  0.7818608E-02  0.8929272E-01
         -1   -1    0    0    0  501 -0.00000000000E+00  0.00000000000E+00  0.85285704547E+03  0.85285704547E+03  0.00000000000E+00 0.  1.
          1   -1    0    0  501    0  0.00000000000E+00 -0.00000000000E+00 -0.60313963754E+03  0.60313963754E+03  0.00000000000E+00 0. -1.
         23    2    1    2    0    0  0.16499381011E+03 -0.18773688872E+03 -0.29032183080E+03  0.39216214652E+03  0.83882578449E+02 0.  0.
        254    2    1    2    0    0 -0.16499381011E+03  0.18773688872E+03  0.54003923873E+03  0.10638345365E+04  0.88183527084E+03 0.  0.
         23    2    4    4    0    0  0.10565003106E+01  0.20494517324E+03 -0.19921716337E+03  0.30050949838E+03  0.92816163518E+02 0.  0.
         23    2    4    4    0    0 -0.16605031042E+03 -0.17208284523E+02  0.73925640210E+03  0.76332503810E+03  0.91083780681E+02 0.  0.
          3    1    3    3  502    0  0.14467152775E+03 -0.18166516973E+03 -0.22449115518E+03  0.32299901484E+03  0.00000000000E+00 0. -1.
         -3    1    3    3    0  502  0.20322282362E+02 -0.60717189898E+01 -0.65830675618E+02  0.69163131684E+02  0.00000000000E+00 0.  1.
         11    1    5    5    0    0  0.46753448593E+02  0.93847515651E+02 -0.91566343539E+02  0.13920357904E+03  0.00000000000E+00 0.  1.
        -11    1    5    5    0    0 -0.45696948282E+02  0.11109765759E+03 -0.10765081983E+03  0.16130591934E+03  0.00000000000E+00 0. -1.
          1    1    6    6  503    0 -0.62447665150E+02  0.13840694474E+02  0.44975119227E+03  0.45427679960E+03  0.00000000000E+00 0. -1.
         -1    1    6    6    0  503 -0.10360264527E+03 -0.31048978996E+02  0.28950520983E+03  0.30904823851E+03  0.00000000000E+00 0.  1.
<mgrwt>
<rscale>  0 0.14344224E+04</rscale>
<asrwt>0</asrwt>
<pdfrwt beam="1">  1        1 0.92790713E-01 0.14344224E+04</pdfrwt>
<pdfrwt beam="2">  1       -1 0.13120878E+00 0.14344224E+04</pdfrwt>
<totfact> 0.16378339E+01</totfact>
</mgrwt>
</event>
<event>
12    2  0.3552864E-008  0.1256493E+04  0.7818608E-02  0.9064796E-01
         -2   -1    0    0    0  501 -0.00000000000E+00  0.00000000000E+00  0.17383121916E+04  0.17383121916E+04  0.00000000000E+00 0.  1.
          2   -1    0    0  501    0  0.00000000000E+00 -0.00000000000E+00 -0.22705585795E+03  0.22705585795E+03  0.00000000000E+00 0. -1.
         23    2    1    2    0    0  0.22664616619E+03  0.17489436089E+03  0.45569221741E+03  0.54582134710E+03  0.91153846990E+02 0.  0.
        254    2    1    2    0    0 -0.22664616619E+03 -0.17489436089E+03  0.10555641163E+04  0.14195467025E+04  0.90495343241E+03 0.  0.
         23    2    4    4    0    0  0.23959546512E+03 -0.35135005689E+03  0.40137972872E+03  0.59179889748E+03  0.90925238789E+02 0.  0.
         23    2    4    4    0    0 -0.46624163132E+03  0.17645569600E+03  0.65418438754E+03  0.82774780499E+03  0.93227379791E+02 0.  0.
          2    1    3    3  502    0  0.47742476954E+01 -0.71195416892E+01  0.17111235255E+01  0.87412389649E+01  0.00000000000E+00 0. -1.
         -2    1    3    3    0  502  0.22187191850E+03  0.18201390258E+03  0.45398109388E+03  0.53708010814E+03  0.00000000000E+00 0.  1.
         11    1    5    5    0    0  0.11587539635E+03 -0.16067803980E+03  0.12619311823E+03  0.23488133821E+03  0.00000000000E+00 0. -1.
        -11    1    5    5    0    0  0.12372006877E+03 -0.19067201708E+03  0.27518661049E+03  0.35691755926E+03  0.00000000000E+00 0.  1.
          4    1    6    6  503    0 -0.38203462230E+03  0.17936590772E+03  0.52666370398E+03  0.67490535528E+03  0.00000000000E+00 0. -1.
         -4    1    6    6    0  503 -0.84207009012E+02 -0.29102117201E+01  0.12752068356E+03  0.15284244972E+03  0.00000000000E+00 0.  1.
<mgrwt>
<rscale>  0 0.12564935E+04</rscale>
<asrwt>0</asrwt>
<pdfrwt beam="1">  1        2 0.34931672E-01 0.12564935E+04</pdfrwt>
<pdfrwt beam="2">  1       -2 0.26743264E+00 0.12564935E+04</pdfrwt>
<totfact> 0.74352763E+00</totfact>
</mgrwt>
</event>
<event>
12    2  0.3552864E-008  0.1730316E+04  0.7818608E-02  0.8744260E-01
          2   -1    0    0  501    0  0.00000000000E+00  0.00000000000E+00  0.30210600536E+04  0.30210600536E+04  0.00000000000E+00 0. -1.
         -2   -1    0    0    0  501 -0.00000000000E+00 -0.00000000000E+00 -0.24776016943E+03  0.24776016943E+03  0.00000000000E+00 0.  1.
         23    2    1    2    0    0  0.36351309867E+03  0.46517001863E+03  0.67498307140E+03  0.90122427647E+03  0.89878421621E+02 0.  0.
        254    2    1    2    0    0 -0.36351309867E+03 -0.46517001863E+03  0.20983168127E+04  0.23675959465E+04  0.92414944696E+03 0.  0.
         23    2    4    4    0    0 -0.65625131880E+03 -0.29576288737E+03  0.11832592992E+04  0.13879528427E+04  0.90382771729E+02 0.  0.
         23    2    4    4    0    0  0.29273822013E+03 -0.16940713126E+03  0.91505751353E+03  0.97964310384E+03  0.89307984998E+02 0.  0.
          3    1    3    3  502    0  0.15829535979E+03  0.26204713436E+03  0.30804430101E+03  0.43430106256E+03  0.00000000000E+00 0. -1.
         -3    1    3    3    0  502  0.20521773888E+03  0.20312288427E+03  0.36693877039E+03  0.46692321390E+03  0.00000000000E+00 0.  1.
         11    1    5    5    0    0 -0.81831463018E+02 -0.76431152395E+01  0.11625348775E+03  0.14237162275E+03  0.00000000000E+00 0.  1.
        -11    1    5    5    0    0 -0.57441985578E+03 -0.28811977213E+03  0.10670058114E+04  0.12455812199E+04  0.00000000000E+00 0. -1.
          4    1    6    6  503    0  0.11383240931E+03 -0.19278538619E+02  0.27205224787E+03  0.29553663907E+03  0.00000000000E+00 0.  1.
         -4    1    6    6    0  503  0.17890581081E+03 -0.15012859264E+03  0.64300526566E+03  0.68410646477E+03  0.00000000000E+00 0. -1.
<mgrwt>
<rscale>  0 0.17303160E+04</rscale>
<asrwt>0</asrwt>
<pdfrwt beam="1">  1        2 0.46477845E+00 0.17303160E+04</pdfrwt>
<pdfrwt beam="2">  1       -2 0.38116951E-01 0.17303160E+04</pdfrwt>
<totfact> 0.10466983E+01</totfact>
</mgrwt>
</event>
<event>
12    2  0.3552864E-008  0.1280784E+04  0.7818608E-02  0.9044944E-01
         -2   -1    0    0    0  501 -0.00000000000E+00  0.00000000000E+00  0.11949134003E+04  0.11949134003E+04  0.00000000000E+00 0.  1.
          2   -1    0    0  501    0  0.00000000000E+00 -0.00000000000E+00 -0.34320630258E+03  0.34320630258E+03  0.00000000000E+00 0. -1.
         23    2    1    2    0    0  0.15800988189E+03 -0.24806145753E+03  0.34874907148E+03  0.46518344767E+03  0.90929179247E+02 0.  0.
        254    2    1    2    0    0 -0.15800988189E+03  0.24806145753E+03  0.50295802619E+03  0.10729362552E+04  0.90095716994E+03 0.  0.
         23    2    4    4    0    0 -0.86720422512E+02 -0.32838398943E+03  0.25682317944E+03  0.43529304150E+03  0.90362659834E+02 0.  0.
         23    2    4    4    0    0 -0.71289459373E+02  0.57644544696E+03  0.24613484675E+03  0.63764321367E+03  0.92924511377E+02 0.  0.
          3    1    3    3  502    0  0.96910598655E+02 -0.10583402755E+03  0.11072916241E+03  0.18125521490E+03  0.00000000000E+00 0. -1.
         -3    1    3    3    0  502  0.61099283230E+02 -0.14222742998E+03  0.23801990907E+03  0.28392823277E+03  0.00000000000E+00 0.  1.
         11    1    5    5    0    0 -0.35217714951E+02 -0.27493567538E+03  0.20556411226E+03  0.34508914398E+03  0.00000000000E+00 0.  1.
        -11    1    5    5    0    0 -0.51502707561E+02 -0.53448314045E+02  0.51259067173E+02  0.90203897520E+02  0.00000000000E+00 0. -1.
          4    1    6    6  503    0  0.95536206647E+01  0.16888415336E+03  0.40003572099E+02  0.17382006416E+03  0.00000000000E+00 0. -1.
         -4    1    6    6    0  503 -0.80843080038E+02  0.40756129360E+03  0.20613127465E+03  0.46382314951E+03  0.00000000000E+00 0.  1.
<mgrwt>
<rscale>  0 0.12807838E+04</rscale>
<asrwt>0</asrwt>
<pdfrwt beam="1">  1        2 0.52800970E-01 0.12807838E+04</pdfrwt>
<pdfrwt beam="2">  1       -2 0.18383283E+00 0.12807838E+04</pdfrwt>
<totfact> 0.15803432E+01</totfact>
</mgrwt>
</event>
<event>
12    2  0.3552864E-008  0.1492524E+04  0.7818608E-02  0.8889439E-01
          1   -1    0    0  501    0  0.00000000000E+00  0.00000000000E+00  0.25062172994E+04  0.25062172994E+04  0.00000000000E+00 0. -1.
         -1   -1    0    0    0  501 -0.00000000000E+00 -0.00000000000E+00 -0.22221029833E+03  0.22221029833E+03  0.00000000000E+00 0.  1.
         23    2    1    2    0    0  0.10854778057E+03 -0.22025143803E+03  0.15014760690E+04  0.15240456319E+04  0.89394550742E+02 0.  0.
        254    2    1    2    0    0 -0.10854778057E+03  0.22025143803E+03  0.78253093202E+03  0.12043819658E+04  0.88197955947E+03 0.  0.
         23    2    4    4    0    0 -0.42633754693E+03  0.27873247015E+03  0.67729164046E+03  0.85256485436E+03  0.93206066364E+02 0.  0.
         23    2    4    4    0    0  0.31778976636E+03 -0.58481032122E+02  0.10523929156E+03  0.35181711143E+03  0.91047266231E+02 0.  0.
          1    1    3    3  502    0  0.79226049249E+02 -0.64070441843E+02  0.63381171413E+03  0.64194943521E+03  0.00000000000E+00 0. -1.
         -1    1    3    3    0  502  0.29321731322E+02 -0.15618099619E+03  0.86766435491E+03  0.88209619673E+03  0.00000000000E+00 0.  1.
         11    1    5    5    0    0 -0.38774928784E+03  0.27665670003E+03  0.59942413411E+03  0.76563550887E+03  0.00000000000E+00 0.  1.
        -11    1    5    5    0    0 -0.38588259088E+02  0.20757701228E+01  0.77867506350E+02  0.86929345484E+02  0.00000000000E+00 0. -1.
          3    1    6    6  503    0  0.57284524574E+02  0.22425825816E+02  0.32163637921E+02  0.69418542361E+02  0.00000000000E+00 0. -1.
         -3    1    6    6    0  503  0.26050524178E+03 -0.80906857938E+02  0.73075653636E+02  0.28239856907E+03  0.00000000000E+00 0.  1.
<mgrwt>
<rscale>  0 0.14925244E+04</rscale>
<asrwt>0</asrwt>
<pdfrwt beam="1">  1        1 0.38557187E+00 0.14925244E+04</pdfrwt>
<pdfrwt beam="2">  1       -1 0.34186201E-01 0.14925244E+04</pdfrwt>
<totfact> 0.10537470E+01</totfact>
</mgrwt>
</event>
<event>
12    2  0.3552864E-008  0.1303302E+04  0.7818608E-02  0.9026951E-01
         -1   -1    0    0    0  501 -0.00000000000E+00  0.00000000000E+00  0.36702839777E+03  0.36702839777E+03  0.00000000000E+00 0.  1.
          1   -1    0    0  501    0  0.00000000000E+00 -0.00000000000E+00 -0.11569923997E+04  0.11569923997E+04  0.00000000000E+00 0. -1.
         23    2    1    2    0    0 -0.19322039708E+03  0.19763847782E+03  0.12971514814E+02  0.29148333454E+03  0.91647064086E+02 0.  0.
        254    2    1    2    0    0  0.19322039708E+03 -0.19763847782E+03 -0.80293551678E+03  0.12325374630E+04  0.89333535906E+03 0.  0.
         23    2    4    4    0    0  0.47789695949E+03  0.11553605219E+03 -0.40279919963E+03  0.64255534252E+03  0.94319084674E+02 0.  0.
         23    2    4    4    0    0 -0.28467656240E+03 -0.31317453001E+03 -0.40013631715E+03  0.58998212045E+03  0.94078683640E+02 0.  0.
          3    1    3    3  502    0 -0.18006517053E+02  0.69572749167E+02  0.19134232856E+02  0.74368817054E+02  0.00000000000E+00 0. -1.
         -3    1    3    3    0  502 -0.17521388003E+03  0.12806572865E+03 -0.61627180421E+01  0.21711451749E+03  0.00000000000E+00 0.  1.
         11    1    5    5    0    0  0.25877494655E+03  0.89142076902E+02 -0.17222748313E+03  0.32337762567E+03  0.00000000000E+00 0. -1.
        -11    1    5    5    0    0  0.21912201294E+03  0.26393975286E+02 -0.23057171650E+03  0.31917771685E+03  0.00000000000E+00 0.  1.
          2    1    6    6  503    0 -0.18374725605E+03 -0.23774807865E+03 -0.32786285226E+03  0.44472604253E+03  0.00000000000E+00 0. -1.
         -2    1    6    6    0  503 -0.10092930636E+03 -0.75426451352E+02 -0.72273464890E+02  0.14525607792E+03  0.00000000000E+00 0.  1.
<mgrwt>
<rscale>  0 0.13033021E+04</rscale>
<asrwt>0</asrwt>
<pdfrwt beam="1">  1        1 0.17799883E+00 0.13033021E+04</pdfrwt>
<pdfrwt beam="2">  1       -1 0.56465909E-01 0.13033021E+04</pdfrwt>
<totfact> 0.35834072E+01</totfact>
</mgrwt>
</event>
<event>
12    2  0.3552864E-008  0.1970794E+04  0.7818608E-02  0.8620398E-01
         -2   -1    0    0    0  501 -0.00000000000E+00  0.00000000000E+00  0.88961359864E+03  0.88961359864E+03  0.00000000000E+00 0.  1.
          2   -1    0    0  501    0  0.00000000000E+00 -0.00000000000E+00 -0.10914933394E+04  0.10914933394E+04  0.00000000000E+00 0. -1.
         23    2    1    2    0    0  0.42754269244E+03 -0.53555215318E+03  0.80047712636E+02  0.69640352540E+03  0.94664519545E+02 0.  0.
        254    2    1    2    0    0 -0.42754269244E+03  0.53555215318E+03 -0.28192745341E+03  0.12847034126E+04  0.10494621989E+04 0.  0.
         23    2    4    4    0    0 -0.73710725101E+03  0.48867927637E+03 -0.60701525543E+02  0.89112541331E+03  0.91023581527E+02 0.  0.
         23    2    4    4    0    0  0.30956455858E+03  0.46872876814E+02 -0.22122592787E+03  0.39357799934E+03  0.89081130980E+02 0.  0.
          3    1    3    3  502    0 -0.55048066215E+00 -0.15937560549E+01 -0.63701283049E+01  0.65895084751E+01  0.00000000000E+00 0. -1.
         -3    1    3    3    0  502  0.42809317310E+03 -0.53395839713E+03  0.86417840941E+02  0.68981401693E+03  0.00000000000E+00 0.  1.
         11    1    5    5    0    0 -0.36859345124E+03  0.25442990989E+03 -0.75564296425E+02  0.45420884430E+03  0.00000000000E+00 0. -1.
        -11    1    5    5    0    0 -0.36851379977E+03  0.23424936647E+03  0.14862770882E+02  0.43691656901E+03  0.00000000000E+00 0.  1.
          1    1    6    6  503    0  0.10931570788E+03 -0.26091515441E+02 -0.77433772251E+02  0.13647959647E+03  0.00000000000E+00 0. -1.
         -1    1    6    6    0  503  0.20024885070E+03  0.72964392254E+02 -0.14379215562E+03  0.25709840287E+03  0.00000000000E+00 0.  1.
<mgrwt>
<rscale>  0 0.19707941E+04</rscale>
<asrwt>0</asrwt>
<pdfrwt beam="1">  1        2 0.16792205E+00 0.19707941E+04</pdfrwt>
<pdfrwt beam="2">  1       -2 0.13686363E+00 0.19707941E+04</pdfrwt>
<totfact> 0.78222554E+00</totfact>
</mgrwt>
</event>
<event>
12    2  0.3552864E-008  0.2610239E+04  0.7818608E-02  0.8364731E-01
         -2   -1    0    0    0  501 -0.00000000000E+00  0.00000000000E+00  0.89362244393E+03  0.89362244393E+03  0.00000000000E+00 0.  1.
          2   -1    0    0  501    0  0.00000000000E+00 -0.00000000000E+00 -0.19061038578E+04  0.19061038578E+04  0.00000000000E+00 0. -1.
         23    2    1    2    0    0 -0.46406509798E+03  0.71811736156E+03  0.37495460240E+03  0.93802667655E+03  0.90852253260E+02 0.  0.
        254    2    1    2    0    0  0.46406509798E+03 -0.71811736156E+03 -0.13874360162E+04  0.18616996252E+04  0.89994323988E+03 0.  0.
         23    2    4    4    0    0 -0.12583450655E+03 -0.61367635233E+03 -0.76610124456E+03  0.99372003160E+03  0.90196429221E+02 0.  0.
         23    2    4    4    0    0  0.58989960452E+03 -0.10444100923E+03 -0.62133477168E+03  0.86797959355E+03  0.91881491598E+02 0.  0.
          4    1    3    3  502    0 -0.15513125379E+03  0.16845652482E+03  0.11078580272E+03  0.25439496996E+03  0.00000000000E+00 0. -1.
         -4    1    3    3    0  502 -0.30893384419E+03  0.54966083674E+03  0.26416879968E+03  0.68363170659E+03  0.00000000000E+00 0.  1.
         11    1    5    5    0    0 -0.62146529710E+02 -0.37101386606E+03 -0.39217254311E+03  0.54342688886E+03  0.00000000000E+00 0. -1.
        -11    1    5    5    0    0 -0.63687976836E+02 -0.24266248628E+03 -0.37392870144E+03  0.45029314274E+03  0.00000000000E+00 0.  1.
          1    1    6    6  503    0  0.17219630848E+02  0.12829230330E+02 -0.20166949132E+02  0.29458626491E+02  0.00000000000E+00 0. -1.
         -1    1    6    6    0  503  0.57267997367E+03 -0.11727023956E+03 -0.60116782255E+03  0.83852096706E+03  0.00000000000E+00 0.  1.
<mgrwt>
<rscale>  0 0.26102392E+04</rscale>
<asrwt>0</asrwt>
<pdfrwt beam="1">  1        2 0.29324675E+00 0.26102392E+04</pdfrwt>
<pdfrwt beam="2">  1       -2 0.13748038E+00 0.26102392E+04</pdfrwt>
<totfact> 0.25072600E+00</totfact>
</mgrwt>
</event>
<event>
12    2  0.3552864E-008  0.2448569E+04  0.7818608E-02  0.8421541E-01
          1   -1    0    0  501    0  0.00000000000E+00  0.00000000000E+00  0.38414604714E+04  0.38414604714E+04  0.00000000000E+00 0.  1.
         -1   -1    0    0    0  501 -0.00000000000E+00 -0.00000000000E+00 -0.39018283541E+03  0.39018283541E+03  0.00000000000E+00 0. -1.
         23    2    1    2    0    0 -0.10527592975E+04 -0.60742274280E+02  0.12889075178E+04  0.16677206171E+04  0.89541639519E+02 0.  0.
        254    2    1    2    0    0  0.10527592975E+04  0.60742274280E+02  0.21623701182E+04  0.25639226897E+04  0.88648929385E+03 0.  0.
         23    2    4    4    0    0  0.75748610277E+03  0.41918984063E+03  0.16539247609E+04  0.18690157372E+04  0.90815156226E+02 0.  0.
         23    2    4    4    0    0  0.29527319470E+03 -0.35844756635E+03  0.50844535731E+03  0.69490695251E+03  0.93317061402E+02 0.  0.
          3    1    3    3  502    0 -0.22466593791E+02  0.54038617621E+01  0.13276094416E+02  0.26649657435E+02  0.00000000000E+00 0. -1.
         -3    1    3    3    0  502 -0.10302927037E+04 -0.66146136042E+02  0.12756314233E+04  0.16410709597E+04  0.00000000000E+00 0.  1.
         11    1    5    5    0    0  0.24794050408E+03  0.15009955377E+03  0.46744549970E+03  0.55000878610E+03  0.00000000000E+00 0. -1.
        -11    1    5    5    0    0  0.50954559869E+03  0.26909028686E+03  0.11864792612E+04  0.13190069511E+04  0.00000000000E+00 0.  1.
          3    1    6    6  503    0  0.15220341451E+03 -0.20460351063E+03  0.34347246911E+03  0.42778711176E+03  0.00000000000E+00 0. -1.
         -3    1    6    6    0  503  0.14306978018E+03 -0.15384405571E+03  0.16497288820E+03  0.26711984075E+03  0.00000000000E+00 0.  1.
<mgrwt>
<rscale>  0 0.24485685E+04</rscale>
<asrwt>0</asrwt>
<pdfrwt beam="1">  1        1 0.59099389E+00 0.24485685E+04</pdfrwt>
<pdfrwt beam="2">  1       -1 0.60028131E-01 0.24485685E+04</pdfrwt>
<totfact> 0.33100126E-01</totfact>
</mgrwt>
</event>
<event>
12    2  0.3552864E-008  0.2501580E+04  0.7818608E-02  0.8402423E-01
          1   -1    0    0  501    0  0.00000000000E+00  0.00000000000E+00  0.11841700198E+04  0.11841700198E+04  0.00000000000E+00 0. -1.
         -1   -1    0    0    0  501 -0.00000000000E+00 -0.00000000000E+00 -0.13211577221E+04  0.13211577221E+04  0.00000000000E+00 0.  1.
         23    2    1    2    0    0  0.75500786432E+03 -0.54959815689E+03 -0.61655922197E+03  0.11216674172E+04  0.76795255727E+02 0.  0.
        254    2    1    2    0    0 -0.75500786432E+03  0.54959815689E+03  0.47957151964E+03  0.13836603247E+04  0.90135012198E+03 0.  0.
         23    2    4    4    0    0 -0.65962759781E+03  0.20118803222E+03 -0.91457185963E+02  0.70138340794E+03  0.89381631065E+02 0.  0.
         23    2    4    4    0    0 -0.95380266515E+02  0.34841012467E+03  0.57102870561E+03  0.68227691674E+03  0.94556852111E+02 0.  0.
          1    1    3    3  502    0  0.43082541857E+03 -0.29055978115E+03 -0.38248933924E+03  0.64523919777E+03  0.00000000000E+00 0. -1.
         -1    1    3    3    0  502  0.32418244575E+03 -0.25903837574E+03 -0.23406988273E+03  0.47642821940E+03  0.00000000000E+00 0.  1.
         11    1    5    5    0    0 -0.65270138840E+03  0.18619784515E+03 -0.91426148927E+02  0.68487041158E+03  0.00000000000E+00 0.  1.
        -11    1    5    5    0    0 -0.69262094073E+01  0.14990187078E+02 -0.31037036385E-01  0.16512996357E+02  0.00000000000E+00 0. -1.
          3    1    6    6  503    0 -0.16050235397E+02  0.22795681384E+03  0.33025990425E+03  0.40161364940E+03  0.00000000000E+00 0. -1.
         -3    1    6    6    0  503 -0.79330031118E+02  0.12045331083E+03  0.24076880136E+03  0.28066326734E+03  0.00000000000E+00 0.  1.
<mgrwt>
<rscale>  0 0.25015798E+04</rscale>
<asrwt>0</asrwt>
<pdfrwt beam="1">  1        1 0.18218000E+00 0.25015798E+04</pdfrwt>
<pdfrwt beam="2">  1       -1 0.20325503E+00 0.25015798E+04</pdfrwt>
<totfact> 0.13935300E+00</totfact>
</mgrwt>
</event>
<event>
12    2  0.3552864E-008  0.1808189E+04  0.7818608E-02  0.8701957E-01
          2   -1    0    0  501    0  0.00000000000E+00  0.00000000000E+00  0.21622675776E+04  0.21622675776E+04  0.00000000000E+00 0. -1.
         -2   -1    0    0    0  501 -0.00000000000E+00 -0.00000000000E+00 -0.37802295166E+03  0.37802295166E+03  0.00000000000E+00 0.  1.
         23    2    1    2    0    0  0.52009996657E+03  0.20648525038E+03  0.12186448607E+03  0.57987831744E+03  0.90927312884E+02 0.  0.
        254    2    1    2    0    0 -0.52009996657E+03 -0.20648525038E+03  0.16623801399E+04  0.19604122118E+04  0.87553879238E+03 0.  0.
         23    2    4    4    0    0 -0.56453525281E+03 -0.39242616291E+03  0.15925431977E+04  0.17370735022E+04  0.92369748754E+02 0.  0.
         23    2    4    4    0    0  0.44435286241E+02  0.18594091253E+03  0.69836942234E+02  0.22333870968E+03  0.91948154549E+02 0.  0.
          3    1    3    3  502    0  0.11094742913E+03  0.58358440898E+01  0.19091076049E+02  0.11272913684E+03  0.00000000000E+00 0. -1.
         -3    1    3    3    0  502  0.40915253743E+03  0.20064940629E+03  0.10277341003E+03  0.46714918061E+03  0.00000000000E+00 0.  1.
         11    1    5    5    0    0 -0.25714337627E+02 -0.39721776084E+02  0.76960014566E+02  0.90343181795E+02  0.00000000000E+00 0.  1.
        -11    1    5    5    0    0 -0.53882091518E+03 -0.35270438682E+03  0.15155831831E+04  0.16467303204E+04  0.00000000000E+00 0. -1.
          1    1    6    6  503    0  0.14345540456E+02  0.57049298982E+02 -0.21383907385E+02  0.62591441430E+02  0.00000000000E+00 0. -1.
         -1    1    6    6    0  503  0.30089745785E+02  0.12889161355E+03  0.91220849619E+02  0.16074726825E+03  0.00000000000E+00 0.  1.
<mgrwt>
<rscale>  0 0.18081889E+04</rscale>
<asrwt>0</asrwt>
<pdfrwt beam="1">  1        2 0.33265654E+00 0.18081889E+04</pdfrwt>
<pdfrwt beam="2">  1       -2 0.58157378E-01 0.18081889E+04</pdfrwt>
<totfact> 0.14153801E+01</totfact>
</mgrwt>
</event>
<event>
12    2  0.3552864E-008  0.2250094E+04  0.7818608E-02  0.8497862E-01
         -2   -1    0    0    0  501 -0.00000000000E+00  0.00000000000E+00  0.30531409568E+03  0.30531409568E+03  0.00000000000E+00 0.  1.
          2   -1    0    0  501    0  0.00000000000E+00 -0.00000000000E+00 -0.41456684608E+04  0.41456684608E+04  0.00000000000E+00 0. -1.
         23    2    1    2    0    0  0.48933399219E+03 -0.67418236367E+03 -0.24839307687E+04  0.26214987645E+04  0.91510071061E+02 0.  0.
        254    2    1    2    0    0 -0.48933399219E+03  0.67418236367E+03 -0.13564235965E+04  0.18294837920E+04  0.90175182665E+03 0.  0.
         23    2    4    4    0    0 -0.36353727430E+03  0.87899117082E+03 -0.11706579306E+04  0.15110765922E+04  0.90153472948E+02 0.  0.
         23    2    4    4    0    0 -0.12579671789E+03 -0.20480880715E+03 -0.18576566583E+03  0.31840719985E+03  0.95408598133E+02 0.  0.
          1    1    3    3  502    0  0.37917592813E+03 -0.57638865595E+03 -0.20008804966E+04  0.21164878995E+04  0.00000000000E+00 0. -1.
         -1    1    3    3    0  502  0.11015806407E+03 -0.97793707726E+02 -0.48305027212E+03  0.50501086498E+03  0.00000000000E+00 0.  1.
         11    1    5    5    0    0 -0.36838458319E+03  0.85611537997E+03 -0.11447869315E+04  0.14762038693E+04  0.00000000000E+00 0.  1.
        -11    1    5    5    0    0  0.48473088883E+01  0.22875790855E+02 -0.25870999085E+02  0.34872722927E+02  0.00000000000E+00 0. -1.
          3    1    6    6  503    0 -0.43836863786E+02 -0.13450096185E+02 -0.58822299747E+02  0.74583099034E+02  0.00000000000E+00 0. -1.
         -3    1    6    6    0  503 -0.81959854107E+02 -0.19135871097E+03 -0.12694336608E+03  0.24382410082E+03  0.00000000000E+00 0.  1.
<mgrwt>
<rscale>  0 0.22500942E+04</rscale>
<asrwt>0</asrwt>
<pdfrwt beam="1">  1        2 0.63779509E+00 0.22500942E+04</pdfrwt>
<pdfrwt beam="2">  1       -2 0.46971404E-01 0.22500942E+04</pdfrwt>
<totfact> 0.10204246E+00</totfact>
</mgrwt>
</event>
<event>
12    2  0.3552864E-008  0.1546151E+04  0.7818608E-02  0.8854330E-01
         -1   -1    0    0    0  501 -0.00000000000E+00  0.00000000000E+00  0.13856833942E+04  0.13856833942E+04  0.00000000000E+00 0.  1.
          1   -1    0    0  501    0  0.00000000000E+00 -0.00000000000E+00 -0.43130020325E+03  0.43130020325E+03  0.00000000000E+00 0. -1.
         23    2    1    2    0    0 -0.29603629941E+03  0.91433754178E+02 -0.15284097378E+03  0.35899157562E+03  0.97554939057E+02 0.  0.
        254    2    1    2    0    0  0.29603629941E+03 -0.91433754178E+02  0.11072241647E+04  0.14579920218E+04  0.89654769127E+03 0.  0.
         23    2    4    4    0    0 -0.35163278248E+02  0.81703738504E+02 -0.11422813677E+03  0.17740393883E+03  0.10252869482E+03 0.  0.
         23    2    4    4    0    0  0.33119957765E+03 -0.17313749268E+03  0.12214523015E+04  0.12805880829E+04  0.91051424109E+02 0.  0.
          3    1    3    3  502    0 -0.17040061981E+03  0.42054383026E+02 -0.13783890999E+03  0.22316923504E+03  0.00000000000E+00 0. -1.
         -3    1    3    3    0  502 -0.12563567960E+03  0.49379371151E+02 -0.15002063793E+02  0.13582234058E+03  0.00000000000E+00 0.  1.
         11    1    5    5    0    0 -0.21459805386E+02  0.96888132406E+02 -0.52277296470E+02  0.11216393883E+03  0.00000000000E+00 0. -1.
        -11    1    5    5    0    0 -0.13703472862E+02 -0.15184393902E+02 -0.61950840297E+02  0.65240000001E+02  0.00000000000E+00 0.  1.
          1    1    6    6  503    0  0.29747077497E+03 -0.17196782079E+03  0.10197477131E+04  0.10760795472E+04  0.00000000000E+00 0. -1.
         -1    1    6    6    0  503  0.33728802684E+02 -0.11696718903E+01  0.20170458831E+03  0.20450853578E+03  0.00000000000E+00 0.  1.
<mgrwt>
<rscale>  0 0.15461507E+04</rscale>
<asrwt>0</asrwt>
<pdfrwt beam="1">  1        1 0.66353878E-01 0.15461507E+04</pdfrwt>
<pdfrwt beam="2">  1       -1 0.21318206E+00 0.15461507E+04</pdfrwt>
<totfact> 0.63925236E+00</totfact>
</mgrwt>
</event>
<event>
12    2  0.3552864E-008  0.1614213E+04  0.7818608E-02  0.8811864E-01
         -1   -1    0    0    0  501 -0.00000000000E+00  0.00000000000E+00  0.17768140940E+03  0.17768140940E+03  0.00000000000E+00 0.  1.
          1   -1    0    0  501    0  0.00000000000E+00 -0.00000000000E+00 -0.36662304831E+04  0.36662304831E+04  0.00000000000E+00 0. -1.
         23    2    1    2    0    0 -0.75470023630E+02  0.16359507409E+03  0.34988563084E+02  0.20507292343E+03  0.91496620958E+02 0.  0.
        254    2    1    2    0    0  0.75470023630E+02 -0.16359507409E+03 -0.35235376368E+04  0.36388389690E+04  0.89071459641E+03 0.  0.
         23    2    4    4    0    0 -0.21349740519E+03  0.26562460647E+01 -0.23018709895E+03  0.32739256309E+03  0.92798664751E+02 0.  0.
         23    2    4    4    0    0  0.28896742882E+03 -0.16625132015E+03 -0.32933505378E+04  0.33114464059E+04  0.91530640885E+02 0.  0.
          3    1    3    3  502    0 -0.65042710798E+02  0.54902574160E+02  0.43428612688E+02  0.95555697252E+02  0.00000000000E+00 0. -1.
         -3    1    3    3    0  502 -0.10427312833E+02  0.10869249993E+03 -0.84400496037E+01  0.10951722618E+03  0.00000000000E+00 0.  1.
         11    1    5    5    0    0 -0.83027537662E+02 -0.24204907255E+02 -0.40225306166E+02  0.95380945695E+02  0.00000000000E+00 0. -1.
        -11    1    5    5    0    0 -0.13046986753E+03  0.26861153320E+02 -0.18996179278E+03  0.23201161740E+03  0.00000000000E+00 0.  1.
          4    1    6    6  503    0  0.24065655088E+03 -0.15939323491E+03 -0.25026549761E+04  0.25192466549E+04  0.00000000000E+00 0. -1.
         -4    1    6    6    0  503  0.48310877944E+02 -0.68580852419E+01 -0.79069556172E+03  0.79219975107E+03  0.00000000000E+00 0.  1.
<mgrwt>
<rscale>  0 0.16142131E+04</rscale>
<asrwt>0</asrwt>
<pdfrwt beam="1">  1        1 0.56403550E+00 0.16142131E+04</pdfrwt>
<pdfrwt beam="2">  1       -1 0.27335599E-01 0.16142131E+04</pdfrwt>
<totfact> 0.21395850E+00</totfact>
</mgrwt>
</event>
<event>
12    2  0.3552864E-008  0.1291473E+04  0.7818608E-02  0.9036355E-01
          1   -1    0    0  501    0  0.00000000000E+00  0.00000000000E+00  0.25091239238E+03  0.25091239238E+03  0.00000000000E+00 0. -1.
         -1   -1    0    0    0  501 -0.00000000000E+00 -0.00000000000E+00 -0.16618364391E+04  0.16618364391E+04  0.00000000000E+00 0.  1.
         23    2    1    2    0    0 -0.11768958733E+03  0.75086522108E+02  0.67070149461E+02  0.17904792191E+03  0.89838347179E+02 0.  0.
        254    2    1    2    0    0  0.11768958733E+03 -0.75086522108E+02 -0.14779941962E+04  0.17337009096E+04  0.89541229341E+03 0.  0.
         23    2    4    4    0    0  0.30816797664E+03  0.32329039854E+03 -0.74450376077E+03  0.87283751656E+03  0.89862655768E+02 0.  0.
         23    2    4    4    0    0 -0.19047838931E+03 -0.39837692065E+03 -0.73349043544E+03  0.86086339305E+03  0.89952070051E+02 0.  0.
          4    1    3    3  502    0 -0.57259548185E+02  0.86300033126E+02  0.32587538874E+02  0.10857393456E+03  0.00000000000E+00 0.  1.
         -4    1    3    3    0  502 -0.60430039140E+02 -0.11213511018E+02  0.34482610587E+02  0.70473987348E+02  0.00000000000E+00 0. -1.
         11    1    5    5    0    0 -0.63721152633E+01  0.72091250092E+01 -0.17611125676E+02  0.20068061289E+02  0.00000000000E+00 0. -1.
        -11    1    5    5    0    0  0.31454009190E+03  0.31608127353E+03 -0.72689263510E+03  0.85276945527E+03  0.00000000000E+00 0.  1.
          3    1    6    6  503    0 -0.23488394805E+02 -0.14520084158E+03 -0.25353405532E+03  0.29311176417E+03  0.00000000000E+00 0. -1.
         -3    1    6    6    0  503 -0.16698999451E+03 -0.25317607907E+03 -0.47995638012E+03  0.56775162888E+03  0.00000000000E+00 0.  1.
<mgrwt>
<rscale>  0 0.12914726E+04</rscale>
<asrwt>0</asrwt>
<pdfrwt beam="1">  1        1 0.38601906E-01 0.12914726E+04</pdfrwt>
<pdfrwt beam="2">  1       -1 0.25566715E+00 0.12914726E+04</pdfrwt>
<totfact> 0.69807343E+00</totfact>
</mgrwt>
</event>
<event>
12    2  0.3552864E-008  0.1217057E+04  0.7818608E-02  0.9098056E-01
         -2   -1    0    0    0  501 -0.00000000000E+00  0.00000000000E+00  0.42263246954E+03  0.42263246954E+03  0.00000000000E+00 0.  1.
          2   -1    0    0  501    0  0.00000000000E+00 -0.00000000000E+00 -0.87619209905E+03  0.87619209905E+03  0.00000000000E+00 0. -1.
         23    2    1    2    0    0  0.19479135361E+03 -0.36333156215E+02  0.42447177523E+02  0.23024899103E+03  0.10931178028E+03 0.  0.
        254    2    1    2    0    0 -0.19479135361E+03  0.36333156215E+02 -0.49600680703E+03  0.10685755776E+04  0.92550918021E+03 0.  0.
         23    2    4    4    0    0 -0.53458832399E+03 -0.86967287637E+02 -0.17286130496E+03  0.57569118841E+03  0.90505957755E+02 0.  0.
         23    2    4    4    0    0  0.33979697038E+03  0.12330044385E+03 -0.32314550207E+03  0.49288438915E+03  0.88583435418E+02 0.  0.
          4    1    3    3  502    0  0.14374851937E+03 -0.50062467956E+02  0.73406813193E+02  0.16899244877E+03  0.00000000000E+00 0.  1.
         -4    1    3    3    0  502  0.51042834242E+02  0.13729311741E+02 -0.30959635670E+02  0.61256542256E+02  0.00000000000E+00 0. -1.
         11    1    5    5    0    0 -0.67075809113E+02  0.18776804952E+02 -0.17497153119E+02  0.71818402514E+02  0.00000000000E+00 0. -1.
        -11    1    5    5    0    0 -0.46751251488E+03 -0.10574409259E+03 -0.15536415185E+03  0.50387278590E+03  0.00000000000E+00 0.  1.
          3    1    6    6  503    0  0.18742013884E+03  0.52399370742E+02 -0.22798780174E+03  0.29975063009E+03  0.00000000000E+00 0. -1.
         -3    1    6    6    0  503  0.15237683154E+03  0.70901073110E+02 -0.95157700329E+02  0.19313375906E+03  0.00000000000E+00 0.  1.
<mgrwt>
<rscale>  0 0.12170575E+04</rscale>
<asrwt>0</asrwt>
<pdfrwt beam="1">  1        2 0.13479878E+00 0.12170575E+04</pdfrwt>
<pdfrwt beam="2">  1       -2 0.65020381E-01 0.12170575E+04</pdfrwt>
<totfact> 0.65476828E+01</totfact>
</mgrwt>
</event>
<event>
12    2  0.3552864E-008  0.1502778E+04  0.7818608E-02  0.8882608E-01
         -1   -1    0    0    0  501 -0.00000000000E+00  0.00000000000E+00  0.30160041151E+03  0.30160041151E+03  0.00000000000E+00 0.  1.
          1   -1    0    0  501    0  0.00000000000E+00 -0.00000000000E+00 -0.18719644291E+04  0.18719644291E+04  0.00000000000E+00 0. -1.
         23    2    1    2    0    0 -0.10695021972E+03 -0.45930563750E+03 -0.47216680355E+03  0.67358756050E+03  0.91535201672E+02 0.  0.
        254    2    1    2    0    0  0.10695021972E+03  0.45930563750E+03 -0.10981972140E+04  0.14999772801E+04  0.90636344907E+03 0.  0.
         23    2    4    4    0    0  0.47650386004E+03  0.32673656805E+03 -0.82820545211E+03  0.10145977418E+04  0.98344259164E+02 0.  0.
         23    2    4    4    0    0 -0.36955364032E+03  0.13256906945E+03 -0.26999176194E+03  0.48537953828E+03  0.92484017086E+02 0.  0.
          3    1    3    3  502    0 -0.44102689510E+02 -0.13906494667E+03 -0.20616972544E+03  0.25256694618E+03  0.00000000000E+00 0. -1.
         -3    1    3    3    0  502 -0.62847530213E+02 -0.32024069083E+03 -0.26599707810E+03  0.42102061431E+03  0.00000000000E+00 0.  1.
         11    1    5    5    0    0  0.12783198297E+03  0.69192853588E+02 -0.14380542745E+03  0.20447167975E+03  0.00000000000E+00 0. -1.
        -11    1    5    5    0    0  0.34867187708E+03  0.25754371446E+03 -0.68440002466E+03  0.81012606209E+03  0.00000000000E+00 0.  1.
          1    1    6    6  503    0 -0.96516911108E+02  0.51042387132E+02 -0.12397055350E+03  0.16519545257E+03  0.00000000000E+00 0. -1.
         -1    1    6    6    0  503 -0.27303672921E+03  0.81526682317E+02 -0.14602120844E+03  0.32018408571E+03  0.00000000000E+00 0.  1.
<mgrwt>
<rscale>  0 0.15027778E+04</rscale>
<asrwt>0</asrwt>
<pdfrwt beam="1">  1        1 0.28799453E+00 0.15027778E+04</pdfrwt>
<pdfrwt beam="2">  1       -1 0.46400063E-01 0.15027778E+04</pdfrwt>
<totfact> 0.16284215E+01</totfact>
</mgrwt>
</event>
<event>
12    2  0.3552864E-008  0.2141631E+04  0.7818608E-02  0.8543123E-01
          2   -1    0    0  501    0  0.00000000000E+00  0.00000000000E+00  0.17069541223E+04  0.17069541223E+04  0.00000000000E+00 0. -1.
         -2   -1    0    0    0  501 -0.00000000000E+00 -0.00000000000E+00 -0.67174942139E+03  0.67174942139E+03  0.00000000000E+00 0.  1.
         23    2    1    2    0    0 -0.67660536539E+02 -0.54601992611E+03 -0.33479056624E+03  0.65071499822E+03  0.92895520567E+02 0.  0.
        254    2    1    2    0    0  0.67660536539E+02  0.54601992611E+03  0.13699952672E+04  0.17279885455E+04  0.89796529633E+03 0.  0.
         23    2    4    4    0    0 -0.35963020370E+03  0.31100709881E+03  0.99329784198E+03  0.11051439341E+04  0.92968883851E+02 0.  0.
         23    2    4    4    0    0  0.42729074024E+03  0.23501282730E+03  0.37669742522E+03  0.62284461138E+03  0.90697596816E+02 0.  0.
          1    1    3    3  502    0 -0.65034374721E+02 -0.53497138620E+03 -0.34103715588E+03  0.63775402440E+03  0.00000000000E+00 0.  1.
         -1    1    3    3    0  502 -0.26261618184E+01 -0.11048539913E+02  0.62465896395E+01  0.12960973814E+02  0.00000000000E+00 0. -1.
         11    1    5    5    0    0 -0.19434348517E+03  0.12424568309E+03  0.40339004318E+03  0.46468258729E+03  0.00000000000E+00 0. -1.
        -11    1    5    5    0    0 -0.16528671853E+03  0.18676141572E+03  0.58990779881E+03  0.64046134686E+03  0.00000000000E+00 0.  1.
          4    1    6    6  503    0  0.35584295107E+03  0.23125464044E+03  0.32639810689E+03  0.53538643869E+03  0.00000000000E+00 0. -1.
         -4    1    6    6    0  503  0.71447789175E+02  0.37581868589E+01  0.50299318323E+02  0.87458172690E+02  0.00000000000E+00 0.  1.
<mgrwt>
<rscale>  0 0.21416306E+04</rscale>
<asrwt>0</asrwt>
<pdfrwt beam="1">  1        2 0.26260833E+00 0.21416306E+04</pdfrwt>
<pdfrwt beam="2">  1       -2 0.10334607E+00 0.21416306E+04</pdfrwt>
<totfact> 0.68171757E+00</totfact>
</mgrwt>
</event>
<event>
12    2  0.3552864E-008  0.1307755E+04  0.7818608E-02  0.9023438E-01
         -2   -1    0    0    0  501 -0.00000000000E+00  0.00000000000E+00  0.34883704886E+03  0.34883704886E+03  0.00000000000E+00 0. -1.
          2   -1    0    0  501    0  0.00000000000E+00 -0.00000000000E+00 -0.12256607747E+04  0.12256607747E+04  0.00000000000E+00 0.  1.
         23    2    1    2    0    0  0.19208443788E+03 -0.70889292205E+02 -0.55381644437E+03  0.59748278348E+03  0.91385444557E+02 0.  0.
        254    2    1    2    0    0 -0.19208443788E+03  0.70889292205E+02 -0.32300728147E+03  0.97701504007E+03  0.89905670656E+03 0.  0.
         23    2    4    4    0    0  0.85518925414E+02  0.19732032443E+03 -0.54274443650E+03  0.59056346250E+03  0.89134072268E+02 0.  0.
         23    2    4    4    0    0 -0.27760336329E+03 -0.12643103223E+03  0.21973715504E+03  0.38645157758E+03  0.89509615609E+02 0.  0.
          4    1    3    3  502    0  0.12171582672E+03 -0.42611684049E+02 -0.21868047093E+03  0.25387328819E+03  0.00000000000E+00 0. -1.
         -4    1    3    3    0  502  0.70368611162E+02 -0.28277608156E+02 -0.33513597344E+03  0.34360949529E+03  0.00000000000E+00 0.  1.
         11    1    5    5    0    0  0.93551608295E+02  0.18672672752E+03 -0.53680559082E+03  0.57600261850E+03  0.00000000000E+00 0. -1.
        -11    1    5    5    0    0 -0.80326828807E+01  0.10593596909E+02 -0.59388456868E+01  0.14560843994E+02  0.00000000000E+00 0.  1.
          1    1    6    6  503    0  0.48989967564E+01 -0.56868711598E+01 -0.17563349814E+01  0.77087862452E+01  0.00000000000E+00 0.  1.
         -1    1    6    6    0  503 -0.28250236005E+03 -0.12074416107E+03  0.22149349002E+03  0.37874279133E+03  0.00000000000E+00 0. -1.
<mgrwt>
<rscale>  0 0.13077552E+04</rscale>
<asrwt>0</asrwt>
<pdfrwt beam="1">  1        2 0.18856319E+00 0.13077552E+04</pdfrwt>
<pdfrwt beam="2">  1       -2 0.53667240E-01 0.13077552E+04</pdfrwt>
<totfact> 0.58592057E+01</totfact>
</mgrwt>
</event>
<event>
12    2  0.3552864E-008  0.2569298E+04  0.7818608E-02  0.8378705E-01
          2   -1    0    0  501    0  0.00000000000E+00  0.00000000000E+00  0.12836737156E+04  0.12836737156E+04  0.00000000000E+00 0. -1.
         -2   -1    0    0    0  501 -0.00000000000E+00 -0.00000000000E+00 -0.12856251658E+04  0.12856251658E+04  0.00000000000E+00 0.  1.
         23    2    1    2    0    0 -0.92357071129E+03  0.95756158543E+02  0.63345158921E+03  0.11293309192E+04  0.10943175270E+03 0.  0.
        254    2    1    2    0    0  0.92357071129E+03 -0.95756158543E+02 -0.63540303948E+03  0.14399679622E+04  0.89867603120E+03 0.  0.
         23    2    4    4    0    0 -0.14460873375E+03 -0.21544144947E+02 -0.23901866486E+03  0.29455828034E+03  0.90878062824E+02 0.  0.
         23    2    4    4    0    0  0.10681794450E+04 -0.74212013595E+02 -0.39638437462E+03  0.11454096819E+04  0.91257970565E+02 0.  0.
          1    1    3    3  502    0 -0.71397894737E+03  0.89545142390E+02  0.54055157429E+03  0.89998904120E+03  0.00000000000E+00 0. -1.
         -1    1    3    3    0  502 -0.20959176392E+03  0.62110161529E+01  0.92900014919E+02  0.22934187798E+03  0.00000000000E+00 0.  1.
         11    1    5    5    0    0 -0.67642098333E+02 -0.17147472825E+02 -0.19193148635E+03  0.20422336973E+03  0.00000000000E+00 0.  1.
        -11    1    5    5    0    0 -0.76966635422E+02 -0.43966721223E+01 -0.47087178508E+02  0.90334910603E+02  0.00000000000E+00 0. -1.
          2    1    6    6  503    0  0.74796698660E+03 -0.82151491433E+02 -0.30859519915E+03  0.81328622116E+03  0.00000000000E+00 0. -1.
         -2    1    6    6    0  503  0.32021245845E+03  0.79394778375E+01 -0.87789175470E+02  0.33212346075E+03  0.00000000000E+00 0.  1.
<mgrwt>
<rscale>  0 0.25692981E+04</rscale>
<asrwt>0</asrwt>
<pdfrwt beam="1">  1        2 0.19748826E+00 0.25692981E+04</pdfrwt>
<pdfrwt beam="2">  1       -2 0.19778849E+00 0.25692981E+04</pdfrwt>
<totfact> 0.20612228E+00</totfact>
</mgrwt>
</event>
<event>
12    2  0.3552864E-008  0.1649251E+04  0.7818608E-02  0.8790850E-01
          2   -1    0    0  501    0  0.00000000000E+00  0.00000000000E+00  0.23108536778E+04  0.23108536778E+04  0.00000000000E+00 0. -1.
         -2   -1    0    0    0  501 -0.00000000000E+00 -0.00000000000E+00 -0.29426660154E+03  0.29426660154E+03  0.00000000000E+00 0.  1.
         23    2    1    2    0    0  0.15733419216E+03  0.29357315946E+02  0.15830587837E+04  0.15941784661E+04  0.98559469419E+02 0.  0.
        254    2    1    2    0    0 -0.15733419216E+03 -0.29357315946E+02  0.43352829254E+03  0.10109418133E+04  0.89913328786E+03 0.  0.
         23    2    4    4    0    0 -0.23942837054E+03  0.33323828441E+03  0.46452569429E+03  0.62683524314E+03  0.93619456146E+02 0.  0.
         23    2    4    4    0    0  0.82094178387E+02 -0.36259560035E+03 -0.30997401752E+02  0.38410657012E+03  0.91443943325E+02 0.  0.
          3    1    3    3  502    0  0.92917704228E+02  0.47029721296E+02  0.12594187380E+04  0.12637171567E+04  0.00000000000E+00 0. -1.
         -3    1    3    3    0  502  0.64416487928E+02 -0.17672405350E+02  0.32364004568E+03  0.33046130938E+03  0.00000000000E+00 0.  1.
         11    1    5    5    0    0 -0.20525719897E+03  0.22582336896E+03  0.37088762274E+03  0.48029609659E+03  0.00000000000E+00 0. -1.
        -11    1    5    5    0    0 -0.34171171568E+02  0.10741491545E+03  0.93638071555E+02  0.14653914655E+03  0.00000000000E+00 0.  1.
          1    1    6    6  503    0  0.68107963871E+02 -0.34022322167E+03 -0.49177453715E+01  0.34700824130E+03  0.00000000000E+00 0. -1.
         -1    1    6    6    0  503  0.13986214515E+02 -0.22372378680E+02 -0.26079656381E+02  0.37098328820E+02  0.00000000000E+00 0.  1.
<mgrwt>
<rscale>  0 0.16492508E+04</rscale>
<asrwt>0</asrwt>
<pdfrwt beam="1">  1        2 0.35551594E+00 0.16492508E+04</pdfrwt>
<pdfrwt beam="2">  1       -2 0.45271786E-01 0.16492508E+04</pdfrwt>
<totfact> 0.19777398E+01</totfact>
</mgrwt>
</event>
<event>
12    2  0.3552864E-008  0.1156159E+04  0.7818608E-02  0.9152120E-01
         -1   -1    0    0    0  501 -0.00000000000E+00  0.00000000000E+00  0.20852472322E+04  0.20852472322E+04  0.00000000000E+00 0.  1.
          1   -1    0    0  501    0  0.00000000000E+00 -0.00000000000E+00 -0.16025734826E+03  0.16025734826E+03  0.00000000000E+00 0. -1.
         23    2    1    2    0    0  0.45741673314E+02 -0.11825849952E+03  0.70772439712E+02  0.17164980985E+03  0.91528933198E+02 0.  0.
        254    2    1    2    0    0 -0.45741673314E+02  0.11825849952E+03  0.18542174442E+04  0.20738547706E+04  0.92014884977E+03 0.  0.
         23    2    4    4    0    0 -0.35068623277E+03  0.90090479555E+02  0.16543454509E+04  0.16957202079E+04  0.86666166112E+02 0.  0.
         23    2    4    4    0    0  0.30494455945E+03  0.28168019964E+02  0.19987199331E+03  0.37813456265E+03  0.96188939469E+02 0.  0.
          2    1    3    3  502    0  0.43374493691E+02 -0.98791180908E+02  0.92689064447E+02  0.14224031354E+03  0.00000000000E+00 0.  1.
         -2    1    3    3    0  502  0.23671796224E+01 -0.19467318611E+02 -0.21916624736E+02  0.29409496307E+02  0.00000000000E+00 0. -1.
         11    1    5    5    0    0 -0.78500175031E+02  0.62200547657E+00  0.23563431660E+03  0.24836705806E+03  0.00000000000E+00 0. -1.
        -11    1    5    5    0    0 -0.27218605774E+03  0.89468474079E+02  0.14187111343E+04  0.14473531499E+04  0.00000000000E+00 0.  1.
          1    1    6    6  503    0  0.10863472731E+03 -0.15151330676E+02  0.11789848726E+03  0.16103142581E+03  0.00000000000E+00 0. -1.
         -1    1    6    6    0  503  0.19630983214E+03  0.43319350640E+02  0.81973506048E+02  0.21710313684E+03  0.00000000000E+00 0.  1.
<mgrwt>
<rscale>  0 0.11561595E+04</rscale>
<asrwt>0</asrwt>
<pdfrwt beam="1">  1        1 0.24654978E-01 0.11561595E+04</pdfrwt>
<pdfrwt beam="2">  1       -1 0.32080725E+00 0.11561595E+04</pdfrwt>
<totfact> 0.48221447E+00</totfact>
</mgrwt>
</event>
<event>
12    2  0.3552864E-008  0.2260613E+04  0.7818608E-02  0.8493615E-01
          2   -1    0    0  501    0  0.00000000000E+00  0.00000000000E+00  0.23169152295E+04  0.23169152295E+04  0.00000000000E+00 0.  1.
         -2   -1    0    0    0  501 -0.00000000000E+00 -0.00000000000E+00 -0.55141958913E+03  0.55141958913E+03  0.00000000000E+00 0. -1.
         23    2    1    2    0    0  0.88698994923E+03 -0.33000343878E+03  0.81001221957E+03  0.12490682637E+04  0.91642195018E+02 0.  0.
        254    2    1    2    0    0 -0.88698994923E+03  0.33000343878E+03  0.95548342082E+03  0.16192665549E+04  0.90189920106E+03 0.  0.
         23    2    4    4    0    0 -0.73827207728E+03  0.11530888515E+02  0.18375679970E+03  0.76628965830E+03  0.90855145701E+02 0.  0.
         23    2    4    4    0    0 -0.14871787195E+03  0.31847255026E+03  0.77172662111E+03  0.85297689664E+03  0.92009987323E+02 0.  0.
          1    1    3    3  502    0  0.52805811040E+03 -0.17521229739E+03  0.52841602472E+03  0.76731233035E+03  0.00000000000E+00 0. -1.
         -1    1    3    3    0  502  0.35893183882E+03 -0.15479114138E+03  0.28159619485E+03  0.48175593336E+03  0.00000000000E+00 0.  1.
         11    1    5    5    0    0 -0.18613271742E+03 -0.31502416621E+02  0.66885775648E+02  0.20027855035E+03  0.00000000000E+00 0. -1.
        -11    1    5    5    0    0 -0.55213935986E+03  0.43033305137E+02  0.11687102406E+03  0.56601110795E+03  0.00000000000E+00 0.  1.
          1    1    6    6  503    0 -0.45497262454E+02  0.11504107626E+03  0.17653722795E+03  0.21556865025E+03  0.00000000000E+00 0. -1.
         -1    1    6    6    0  503 -0.10322060950E+03  0.20343147400E+03  0.59518939316E+03  0.63740824639E+03  0.00000000000E+00 0.  1.
<mgrwt>
<rscale>  0 0.22606127E+04</rscale>
<asrwt>0</asrwt>
<pdfrwt beam="1">  1        2 0.35644849E+00 0.22606127E+04</pdfrwt>
<pdfrwt beam="2">  1       -2 0.84833784E-01 0.22606127E+04</pdfrwt>
<totfact> 0.48808251E+00</totfact>
</mgrwt>
</event>
<event>
12    2  0.3552864E-008  0.2352755E+04  0.7818608E-02  0.8457406E-01
         -2   -1    0    0    0  501 -0.00000000000E+00  0.00000000000E+00  0.67564502812E+03  0.67564502812E+03  0.00000000000E+00 0.  1.
          2   -1    0    0  501    0  0.00000000000E+00 -0.00000000000E+00 -0.20482123688E+04  0.20482123688E+04  0.00000000000E+00 0. -1.
         23    2    1    2    0    0  0.92740327738E+03 -0.33235951706E+03 -0.38761885335E+03  0.10625723586E+04  0.90950284481E+02 0.  0.
        254    2    1    2    0    0 -0.92740327738E+03  0.33235951706E+03 -0.98494848729E+03  0.16612850383E+04  0.90509931414E+03 0.  0.
         23    2    4    4    0    0 -0.76090212191E+03  0.58029207730E+03 -0.49728701247E+03  0.10823189470E+04  0.91700578799E+02 0.  0.
         23    2    4    4    0    0 -0.16650115547E+03 -0.24793256024E+03 -0.48766147482E+03  0.57896609132E+03  0.90525309608E+02 0.  0.
          3    1    3    3  502    0  0.60128426653E+03 -0.22681724046E+03 -0.29742917517E+03  0.70813342245E+03  0.00000000000E+00 0.  1.
         -3    1    3    3    0  502  0.32611901084E+03 -0.10554227661E+03 -0.90189678173E+02  0.35443893611E+03  0.00000000000E+00 0. -1.
         11    1    5    5    0    0 -0.71721364811E+03  0.56505006262E+03 -0.48739340301E+03  0.10350020868E+04  0.00000000000E+00 0.  1.
        -11    1    5    5    0    0 -0.43688473798E+02  0.15242014676E+02 -0.98936094650E+01  0.47316860234E+02  0.00000000000E+00 0. -1.
          1    1    6    6  503    0 -0.46453485133E+02 -0.51837208033E+02 -0.19330333545E+03  0.20545364906E+03  0.00000000000E+00 0. -1.
         -1    1    6    6    0  503 -0.12004767034E+03 -0.19609535221E+03 -0.29435813938E+03  0.37351244227E+03  0.00000000000E+00 0.  1.
<mgrwt>
<rscale>  0 0.23527554E+04</rscale>
<asrwt>0</asrwt>
<pdfrwt beam="1">  1        2 0.31510960E+00 0.23527554E+04</pdfrwt>
<pdfrwt beam="2">  1       -2 0.10394539E+00 0.23527554E+04</pdfrwt>
<totfact> 0.42694575E+00</totfact>
</mgrwt>
</event>
<event>
12    2  0.3552864E-008  0.2123831E+04  0.7818608E-02  0.8550818E-01
         -2   -1    0    0    0  501 -0.00000000000E+00  0.00000000000E+00  0.60643790611E+03  0.60643790611E+03  0.00000000000E+00 0.  1.
          2   -1    0    0  501    0  0.00000000000E+00 -0.00000000000E+00 -0.18594890969E+04  0.18594890969E+04  0.00000000000E+00 0. -1.
         23    2    1    2    0    0  0.78681079424E+03 -0.45543559092E+02 -0.91097694425E+02  0.79904382489E+03  0.95009486167E+02 0.  0.
        254    2    1    2    0    0 -0.78681079424E+03  0.45543559092E+02 -0.11619534963E+04  0.16668831781E+04  0.89845320415E+03 0.  0.
         23    2    4    4    0    0 -0.19469405899E+03  0.37169161108E+03 -0.16450862580E+03  0.45872327501E+03  0.85460661866E+02 0.  0.
         23    2    4    4    0    0 -0.59211673525E+03 -0.32614805198E+03 -0.99744487055E+03  0.12081599031E+04  0.88200349518E+02 0.  0.
          4    1    3    3  502    0  0.43880563070E+03 -0.46821202623E+02 -0.85463900326E+01  0.44137925567E+03  0.00000000000E+00 0. -1.
         -4    1    3    3    0  502  0.34800516354E+03  0.12776435307E+01 -0.82551304392E+02  0.35766456922E+03  0.00000000000E+00 0.  1.
         11    1    5    5    0    0 -0.18796558074E+03  0.35680646829E+03 -0.17466501884E+03  0.43948809331E+03  0.00000000000E+00 0.  1.
        -11    1    5    5    0    0 -0.67284782466E+01  0.14885142789E+02  0.10156393046E+02  0.19235181701E+02  0.00000000000E+00 0. -1.
          1    1    6    6  503    0 -0.58066849857E+02 -0.59255827377E+02 -0.15193118073E+03  0.17310718012E+03  0.00000000000E+00 0. -1.
         -1    1    6    6    0  503 -0.53404988539E+03 -0.26689222461E+03 -0.84551368982E+03  0.10350527230E+04  0.00000000000E+00 0.  1.
<mgrwt>
<rscale>  0 0.21238311E+04</rscale>
<asrwt>0</asrwt>
<pdfrwt beam="1">  1        2 0.28607525E+00 0.21238311E+04</pdfrwt>
<pdfrwt beam="2">  1       -2 0.93298138E-01 0.21238311E+04</pdfrwt>
<totfact> 0.71503755E+00</totfact>
</mgrwt>
</event>
<event>
12    2  0.3552864E-008  0.1242729E+04  0.7818608E-02  0.9076256E-01
          2   -1    0    0  501    0  0.00000000000E+00  0.00000000000E+00  0.14736119680E+04  0.14736119680E+04  0.00000000000E+00 0. -1.
         -2   -1    0    0    0  501 -0.00000000000E+00 -0.00000000000E+00 -0.26200529544E+03  0.26200529544E+03  0.00000000000E+00 0.  1.
         23    2    1    2    0    0 -0.84009188399E+02 -0.19078846192E+03  0.19730663651E+02  0.22917566942E+03  0.93136498919E+02 0.  0.
        254    2    1    2    0    0  0.84009188399E+02  0.19078846192E+03  0.11918760089E+04  0.15064415940E+04  0.89740741841E+03 0.  0.
         23    2    4    4    0    0  0.16192850179E+03 -0.96082886926E+02  0.11754872212E+04  0.11938517643E+04  0.89772306325E+02 0.  0.
         23    2    4    4    0    0 -0.77919313394E+02  0.28687134884E+03  0.16388787659E+02  0.31258982970E+03  0.95274440885E+02 0.  0.
          1    1    3    3  502    0 -0.36691274427E+02 -0.14710232139E+03  0.47739450884E+02  0.15894778309E+03  0.00000000000E+00 0. -1.
         -1    1    3    3    0  502 -0.47317913972E+02 -0.43686140525E+02 -0.28008787233E+02  0.70227886334E+02  0.00000000000E+00 0.  1.
         11    1    5    5    0    0  0.12290090595E+03 -0.77279980529E+02  0.10701740709E+04  0.10799765599E+04  0.00000000000E+00 0. -1.
        -11    1    5    5    0    0  0.39027595843E+02 -0.18802906397E+02  0.10531315034E+03  0.11387520433E+03  0.00000000000E+00 0.  1.
          3    1    6    6  503    0 -0.81246028785E+02  0.27873137133E+03 -0.40289785791E+01  0.29035896271E+03  0.00000000000E+00 0. -1.
         -3    1    6    6    0  503  0.33267153905E+01  0.81399775140E+01  0.20417766238E+02  0.22230866995E+02  0.00000000000E+00 0.  1.
<mgrwt>
<rscale>  0 0.12427295E+04</rscale>
<asrwt>0</asrwt>
<pdfrwt beam="1">  1        2 0.22670953E+00 0.12427295E+04</pdfrwt>
<pdfrwt beam="2">  1       -2 0.40308508E-01 0.12427295E+04</pdfrwt>
<totfact> 0.75275972E+01</totfact>
</mgrwt>
</event>
<event>
12    2  0.3552864E-008  0.1728250E+04  0.7818608E-02  0.8745414E-01
         -2   -1    0    0    0  501 -0.00000000000E+00  0.00000000000E+00  0.35575339963E+03  0.35575339963E+03  0.00000000000E+00 0.  1.
          2   -1    0    0  501    0  0.00000000000E+00 -0.00000000000E+00 -0.20989591044E+04  0.20989591044E+04  0.00000000000E+00 0. -1.
         23    2    1    2    0    0  0.27885471545E+03  0.48421364933E+03 -0.24686550700E+03  0.62167795467E+03  0.11540403047E+03 0.  0.
        254    2    1    2    0    0 -0.27885471545E+03 -0.48421364933E+03 -0.14963401978E+04  0.18330345494E+04  0.89931021410E+03 0.  0.
         23    2    4    4    0    0 -0.67053821715E+02  0.70565349871E+02 -0.11113323464E+04  0.11191039967E+04  0.88648112398E+02 0.  0.
         23    2    4    4    0    0 -0.21180089373E+03 -0.55477899920E+03 -0.38500785143E+03  0.71393055265E+03  0.93949091535E+02 0.  0.
          4    1    3    3  502    0 -0.64075548613E+01  0.33916940485E+02 -0.31620182825E+02  0.46810806157E+02  0.00000000000E+00 0. -1.
         -4    1    3    3    0  502  0.28526227031E+03  0.45029670885E+03 -0.21524532417E+03  0.57486714851E+03  0.00000000000E+00 0.  1.
         11    1    5    5    0    0 -0.21781627569E+02  0.64798239584E+02 -0.36297464682E+03  0.36935598734E+03  0.00000000000E+00 0. -1.
        -11    1    5    5    0    0 -0.45272194146E+02  0.57671102876E+01 -0.74835769956E+03  0.74974800941E+03  0.00000000000E+00 0.  1.
          3    1    6    6  503    0 -0.54379811445E+01 -0.45555954464E+01  0.49636483198E+01  0.86581114247E+01  0.00000000000E+00 0. -1.
         -3    1    6    6    0  503 -0.20636291259E+03 -0.55022340376E+03 -0.38997149975E+03  0.70527244123E+03  0.00000000000E+00 0.  1.
<mgrwt>
<rscale>  0 0.17282498E+04</rscale>
<asrwt>0</asrwt>
<pdfrwt beam="1">  1        2 0.32291680E+00 0.17282498E+04</pdfrwt>
<pdfrwt beam="2">  1       -2 0.54731290E-01 0.17282498E+04</pdfrwt>
<totfact> 0.17549574E+01</totfact>
</mgrwt>
</event>
<event>
12    2  0.3552864E-008  0.1896691E+04  0.7818608E-02  0.8656505E-01
         -2   -1    0    0    0  501 -0.00000000000E+00  0.00000000000E+00  0.84292746600E+03  0.84292746600E+03  0.00000000000E+00 0.  1.
          2   -1    0    0  501    0  0.00000000000E+00 -0.00000000000E+00 -0.10669471301E+04  0.10669471301E+04  0.00000000000E+00 0. -1.
         23    2    1    2    0    0  0.41342883387E+03 -0.36341926040E+03  0.40095126823E+03  0.68719484810E+03  0.92075405306E+02 0.  0.
        254    2    1    2    0    0 -0.41342883387E+03  0.36341926040E+03 -0.62497093235E+03  0.12226797480E+04  0.89518720972E+03 0.  0.
         23    2    4    4    0    0 -0.36504182555E+03  0.78730205209E+01 -0.74408808899E+03  0.83402705678E+03  0.92825257418E+02 0.  0.
         23    2    4    4    0    0 -0.48387008324E+02  0.35554623988E+03  0.11911715665E+03  0.38865269124E+03  0.90042135329E+02 0.  0.
          3    1    3    3  502    0  0.20074082730E+03 -0.15327311785E+03  0.13173154540E+03  0.28485562738E+03  0.00000000000E+00 0. -1.
         -3    1    3    3    0  502  0.21268800657E+03 -0.21014614255E+03  0.26921972283E+03  0.40233922072E+03  0.00000000000E+00 0.  1.
         11    1    5    5    0    0 -0.17207627114E+03  0.17490705004E+02 -0.45057633007E+03  0.48263360541E+03  0.00000000000E+00 0. -1.
        -11    1    5    5    0    0 -0.19296555441E+03 -0.96176844833E+01 -0.29351175892E+03  0.35139345137E+03  0.00000000000E+00 0.  1.
          4    1    6    6  503    0  0.20442263964E+02  0.17236013497E+03  0.44158371940E+02  0.17909735926E+03  0.00000000000E+00 0. -1.
         -4    1    6    6    0  503 -0.68829272288E+02  0.18318610491E+03  0.74958784705E+02  0.20955533198E+03  0.00000000000E+00 0.  1.
<mgrwt>
<rscale>  0 0.18966908E+04</rscale>
<asrwt>0</asrwt>
<pdfrwt beam="1">  1        2 0.16414571E+00 0.18966908E+04</pdfrwt>
<pdfrwt beam="2">  1       -2 0.12968115E+00 0.18966908E+04</pdfrwt>
<totfact> 0.93520127E+00</totfact>
</mgrwt>
</event>
<event>
12    2  0.3552864E-008  0.1447085E+04  0.7818608E-02  0.8920424E-01
          2   -1    0    0  501    0  0.00000000000E+00  0.00000000000E+00  0.15715854949E+04  0.15715854949E+04  0.00000000000E+00 0. -1.
         -2   -1    0    0    0  501 -0.00000000000E+00 -0.00000000000E+00 -0.33311186357E+03  0.33311186357E+03  0.00000000000E+00 0.  1.
         23    2    1    2    0    0 -0.39364892768E+03 -0.76976109914E+02  0.15298142748E+03  0.43907037605E+03  0.92166578614E+02 0.  0.
        254    2    1    2    0    0  0.39364892768E+03  0.76976109914E+02  0.10854922039E+04  0.14656269824E+04  0.89937996821E+03 0.  0.
         23    2    4    4    0    0  0.45762856792E+03 -0.32368619420E+03  0.59516735218E+03  0.82262381881E+03  0.91044558817E+02 0.  0.
         23    2    4    4    0    0 -0.63979640239E+02  0.40066230411E+03  0.49032485169E+03  0.64300316363E+03  0.91711133128E+02 0.  0.
          1    1    3    3  502    0 -0.14996977467E+03 -0.57909958346E+02  0.98858319444E+02  0.18872589624E+03  0.00000000000E+00 0. -1.
         -1    1    3    3    0  502 -0.24367915301E+03 -0.19066151568E+02  0.54123108035E+02  0.25034447981E+03  0.00000000000E+00 0.  1.
         11    1    5    5    0    0  0.14399324277E+03 -0.12978672617E+03  0.26009956129E+03  0.32439240133E+03  0.00000000000E+00 0. -1.
        -11    1    5    5    0    0  0.31363532515E+03 -0.19389946803E+03  0.33506779088E+03  0.49823141749E+03  0.00000000000E+00 0.  1.
          1    1    6    6  503    0 -0.45533076680E+01  0.51590059186E+02  0.22970720735E+02  0.56656163201E+02  0.00000000000E+00 0. -1.
         -1    1    6    6    0  503 -0.59426332571E+02  0.34907224493E+03  0.46735413096E+03  0.58634700042E+03  0.00000000000E+00 0.  1.
<mgrwt>
<rscale>  0 0.14470850E+04</rscale>
<asrwt>0</asrwt>
<pdfrwt beam="1">  1        2 0.24178238E+00 0.14470850E+04</pdfrwt>
<pdfrwt beam="2">  1       -2 0.51247980E-01 0.14470850E+04</pdfrwt>
<totfact> 0.40365759E+01</totfact>
</mgrwt>
</event>
<event>
12    2  0.3552864E-008  0.1631001E+04  0.7818608E-02  0.8801726E-01
          2   -1    0    0  501    0  0.00000000000E+00  0.00000000000E+00  0.20728949107E+04  0.20728949107E+04  0.00000000000E+00 0. -1.
         -2   -1    0    0    0  501 -0.00000000000E+00 -0.00000000000E+00 -0.32082729570E+03  0.32082729570E+03  0.00000000000E+00 0.  1.
         23    2    1    2    0    0 -0.18165922633E+03 -0.15098192580E+03 -0.13771472918E+03  0.28805889376E+03  0.90647466673E+02 0.  0.
        254    2    1    2    0    0  0.18165922633E+03  0.15098192580E+03  0.18897823442E+04  0.21056633127E+04  0.89818988050E+03 0.  0.
         23    2    4    4    0    0  0.13484505763E+03 -0.30333375302E+03  0.13462642019E+04  0.13897715893E+04  0.94038364159E+02 0.  0.
         23    2    4    4    0    0  0.46814168694E+02  0.45431567882E+03  0.54351814231E+03  0.71589172333E+03  0.92166621422E+02 0.  0.
          4    1    3    3  502    0 -0.52843690186E+00 -0.29680282141E+01  0.10644127800E+02  0.11062815810E+02  0.00000000000E+00 0. -1.
         -4    1    3    3    0  502 -0.18113078943E+03 -0.14801389758E+03 -0.14835885698E+03  0.27699607795E+03  0.00000000000E+00 0.  1.
         11    1    5    5    0    0 -0.14467205416E+02 -0.21527915527E+02  0.90514722765E+02  0.94157666797E+02  0.00000000000E+00 0.  1.
        -11    1    5    5    0    0  0.14931226305E+03 -0.28180583750E+03  0.12557494791E+04  0.12956139225E+04  0.00000000000E+00 0. -1.
          2    1    6    6  503    0 -0.24604163749E+02  0.20611373116E+03  0.24871982331E+03  0.32395954308E+03  0.00000000000E+00 0. -1.
         -2    1    6    6    0  503  0.71418332443E+02  0.24820194766E+03  0.29479831900E+03  0.39193218025E+03  0.00000000000E+00 0.  1.
<mgrwt>
<rscale>  0 0.16310012E+04</rscale>
<asrwt>0</asrwt>
<pdfrwt beam="1">  1        2 0.31890690E+00 0.16310012E+04</pdfrwt>
<pdfrwt beam="2">  1       -2 0.49358047E-01 0.16310012E+04</pdfrwt>
<totfact> 0.22623186E+01</totfact>
</mgrwt>
</event>
<event>
12    2  0.3552864E-008  0.1273973E+04  0.7818608E-02  0.9050463E-01
          2   -1    0    0  501    0  0.00000000000E+00  0.00000000000E+00  0.10456044288E+04  0.10456044288E+04  0.00000000000E+00 0.  1.
         -2   -1    0    0    0  501 -0.00000000000E+00 -0.00000000000E+00 -0.38805502848E+03  0.38805502848E+03  0.00000000000E+00 0. -1.
         23    2    1    2    0    0  0.16024757700E+03 -0.24611740933E+03  0.55580442939E+02  0.31258847764E+03  0.91483909026E+02 0.  0.
        254    2    1    2    0    0 -0.16024757700E+03  0.24611740933E+03  0.60196895738E+03  0.11210709796E+04  0.89898857091E+03 0.  0.
         23    2    4    4    0    0  0.96306376915E+02 -0.27255166091E+03  0.39849288832E+03  0.50052388936E+03  0.90378402688E+02 0.  0.
         23    2    4    4    0    0 -0.25655395391E+03  0.51866907024E+03  0.20347606906E+03  0.62054709029E+03  0.94014067546E+02 0.  0.
          1    1    3    3  502    0  0.87422287783E+02 -0.11817104363E+03 -0.17847047363E+02  0.14807285049E+03  0.00000000000E+00 0.  1.
         -1    1    3    3    0  502  0.72825289213E+02 -0.12794636570E+03  0.73427490303E+02  0.16451562715E+03  0.00000000000E+00 0. -1.
         11    1    5    5    0    0  0.95536059834E+02 -0.13879122895E+03  0.23780983381E+03  0.29145095817E+03  0.00000000000E+00 0.  1.
        -11    1    5    5    0    0  0.77031708094E+00 -0.13376043196E+03  0.16068305452E+03  0.20907293119E+03  0.00000000000E+00 0. -1.
          1    1    6    6  503    0 -0.45238666827E+02  0.18864805498E+03  0.57113797263E+02  0.20222910636E+03  0.00000000000E+00 0. -1.
         -1    1    6    6    0  503 -0.21131528708E+03  0.33002101526E+03  0.14636227180E+03  0.41831798392E+03  0.00000000000E+00 0.  1.
<mgrwt>
<rscale>  0 0.12739734E+04</rscale>
<asrwt>0</asrwt>
<pdfrwt beam="1">  1        2 0.16086222E+00 0.12739734E+04</pdfrwt>
<pdfrwt beam="2">  1       -2 0.59700774E-01 0.12739734E+04</pdfrwt>
<totfact> 0.60552889E+01</totfact>
</mgrwt>
</event>
<event>
12    2  0.3552864E-008  0.2108979E+04  0.7818608E-02  0.8557298E-01
          1   -1    0    0  501    0  0.00000000000E+00  0.00000000000E+00  0.11509234504E+04  0.11509234504E+04  0.00000000000E+00 0. -1.
         -1   -1    0    0    0  501 -0.00000000000E+00 -0.00000000000E+00 -0.96613558317E+03  0.96613558317E+03  0.00000000000E+00 0.  1.
         23    2    1    2    0    0 -0.79910455650E+03  0.16437801287E+02 -0.24784880309E+03  0.84211959170E+03  0.94329655962E+02 0.  0.
        254    2    1    2    0    0  0.79910455650E+03 -0.16437801287E+02  0.43263667036E+03  0.12749394419E+04  0.89412403975E+03 0.  0.
         23    2    4    4    0    0 -0.39198379963E+02  0.28019795099E+03  0.45523404113E+02  0.30024314793E+03  0.89588854360E+02 0.  0.
         23    2    4    4    0    0  0.83830293647E+03 -0.29663575228E+03  0.38711326625E+03  0.97469629398E+03  0.97116434131E+02 0.  0.
          1    1    3    3  502    0 -0.36940367551E+03  0.36807096835E+02 -0.76301941970E+02  0.37899317171E+03  0.00000000000E+00 0. -1.
         -1    1    3    3    0  502 -0.42970088100E+03 -0.20369295547E+02 -0.17154686112E+03  0.46312641999E+03  0.00000000000E+00 0.  1.
         11    1    5    5    0    0 -0.67418527078E+02  0.17422450462E+03  0.35096035591E+02  0.19008200209E+03  0.00000000000E+00 0. -1.
        -11    1    5    5    0    0  0.28220147115E+02  0.10597344637E+03  0.10427368522E+02  0.11016114584E+03  0.00000000000E+00 0.  1.
          3    1    6    6  503    0  0.61967188596E+03 -0.20965473433E+03  0.23799043935E+03  0.69612341083E+03  0.00000000000E+00 0. -1.
         -3    1    6    6    0  503  0.21863105051E+03 -0.86981017942E+02  0.14912282689E+03  0.27857288315E+03  0.00000000000E+00 0.  1.
<mgrwt>
<rscale>  0 0.21089790E+04</rscale>
<asrwt>0</asrwt>
<pdfrwt beam="1">  1        1 0.17706515E+00 0.21089790E+04</pdfrwt>
<pdfrwt beam="2">  1       -1 0.14863624E+00 0.21089790E+04</pdfrwt>
<totfact> 0.38168504E+00</totfact>
</mgrwt>
</event>
<event>
12    2  0.3552864E-008  0.2017205E+04  0.7818608E-02  0.8598619E-01
          2   -1    0    0  501    0  0.00000000000E+00  0.00000000000E+00  0.13747492054E+04  0.13747492054E+04  0.00000000000E+00 0. -1.
         -2   -1    0    0    0  501 -0.00000000000E+00 -0.00000000000E+00 -0.73997409938E+03  0.73997409938E+03  0.00000000000E+00 0.  1.
         23    2    1    2    0    0 -0.51615582959E+03  0.61552803820E+03  0.23883133039E+03  0.84293469129E+03  0.90591849301E+02 0.  0.
        254    2    1    2    0    0  0.51615582959E+03 -0.61552803820E+03  0.39594377568E+03  0.12717886135E+04  0.90298571295E+03 0.  0.
         23    2    4    4    0    0  0.53709849321E+03 -0.18951135684E+03  0.56178496069E+03  0.80498587699E+03  0.89501811833E+02 0.  0.
         23    2    4    4    0    0 -0.20942663612E+02 -0.42601668136E+03 -0.16584118502E+03  0.46680273655E+03  0.92047206595E+02 0.  0.
          1    1    3    3  502    0 -0.65869105693E+02  0.10667511254E+03  0.92239037076E+01  0.12571157114E+03  0.00000000000E+00 0. -1.
         -1    1    3    3    0  502 -0.45028672390E+03  0.50885292567E+03  0.22960742668E+03  0.71722312014E+03  0.00000000000E+00 0.  1.
         11    1    5    5    0    0  0.40206297810E+03 -0.17942644027E+03  0.41069207923E+03  0.60209340618E+03  0.00000000000E+00 0. -1.
        -11    1    5    5    0    0  0.13503551511E+03 -0.10084916568E+02  0.15109288147E+03  0.20289247081E+03  0.00000000000E+00 0.  1.
          2    1    6    6  503    0  0.23758861190E+02 -0.25673810342E+03 -0.69829592798E+02  0.26712377143E+03  0.00000000000E+00 0.  1.
         -2    1    6    6    0  503 -0.44701524802E+02 -0.16927857794E+03 -0.96011592218E+02  0.19967896512E+03  0.00000000000E+00 0. -1.
<mgrwt>
<rscale>  0 0.20172048E+04</rscale>
<asrwt>0</asrwt>
<pdfrwt beam="1">  1        2 0.21149988E+00 0.20172048E+04</pdfrwt>
<pdfrwt beam="2">  1       -2 0.11384217E+00 0.20172048E+04</pdfrwt>
<totfact> 0.83912512E+00</totfact>
</mgrwt>
</event>
<event>
12    2  0.3552864E-008  0.3556954E+04  0.7818608E-02  0.8100424E-01
          2   -1    0    0  501    0  0.00000000000E+00  0.00000000000E+00  0.31077612010E+04  0.31077612010E+04  0.00000000000E+00 0. -1.
         -2   -1    0    0    0  501 -0.00000000000E+00 -0.00000000000E+00 -0.10177684430E+04  0.10177684430E+04  0.00000000000E+00 0.  1.
         23    2    1    2    0    0  0.87853472967E+02  0.88541086385E+02  0.29005979664E+04  0.29047105721E+04  0.91198621870E+02 0.  0.
        254    2    1    2    0    0 -0.87853472967E+02 -0.88541086385E+02 -0.81060520833E+03  0.12208190718E+04  0.90430119190E+03 0.  0.
         23    2    4    4    0    0 -0.24394527851E+03 -0.75172383312E+02  0.10318313651E+03  0.28940961677E+03  0.89168270686E+02 0.  0.
         23    2    4    4    0    0  0.15609180555E+03 -0.13368703074E+02 -0.91378834484E+03  0.93140945506E+03  0.89280792113E+02 0.  0.
          2    1    3    3  502    0  0.60580324886E+01  0.57804022931E+01  0.12451564738E+04  0.12451846277E+04  0.00000000000E+00 0. -1.
         -2    1    3    3    0  502  0.81795440479E+02  0.82760684092E+02  0.16554414925E+04  0.16595259444E+04  0.00000000000E+00 0.  1.
         11    1    5    5    0    0 -0.49312424563E+02 -0.35522976392E+02  0.61479688106E+02  0.86448534503E+02  0.00000000000E+00 0.  1.
        -11    1    5    5    0    0 -0.19463285395E+03 -0.39649406919E+02  0.41703448399E+02  0.20296108226E+03  0.00000000000E+00 0. -1.
          1    1    6    6  503    0 -0.94528358240E+01 -0.34235679177E+01 -0.12343544671E+03  0.12384420223E+03  0.00000000000E+00 0. -1.
         -1    1    6    6    0  503  0.16554464137E+03 -0.99451351562E+01 -0.79035289813E+03  0.80756525283E+03  0.00000000000E+00 0.  1.
<mgrwt>
<rscale>  0 0.35569545E+04</rscale>
<asrwt>0</asrwt>
<pdfrwt beam="1">  1        2 0.47811710E+00 0.35569545E+04</pdfrwt>
<pdfrwt beam="2">  1       -2 0.15657976E+00 0.35569545E+04</pdfrwt>
<totfact> 0.32474240E-01</totfact>
</mgrwt>
</event>
<event>
12    2  0.3552864E-008  0.1360175E+04  0.7818608E-02  0.8983161E-01
         -2   -1    0    0    0  501 -0.00000000000E+00  0.00000000000E+00  0.99392828680E+03  0.99392828680E+03  0.00000000000E+00 0.  1.
          2   -1    0    0  501    0  0.00000000000E+00 -0.00000000000E+00 -0.46534430141E+03  0.46534430141E+03  0.00000000000E+00 0. -1.
         23    2    1    2    0    0 -0.18978489895E+03 -0.22059317233E+03 -0.10377820647E+03  0.32173118788E+03  0.89785219087E+02 0.  0.
        254    2    1    2    0    0  0.18978489895E+03  0.22059317233E+03  0.63236219187E+03  0.11375414003E+04  0.89968819055E+03 0.  0.
         23    2    4    4    0    0 -0.12493345943E+03 -0.20453125769E+03 -0.57014274382E+02  0.26393033803E+03  0.94695254326E+02 0.  0.
         23    2    4    4    0    0  0.31471835839E+03  0.42512443002E+03  0.68937646625E+03  0.87361106230E+03  0.90432017876E+02 0.  0.
          2    1    3    3  502    0 -0.16422114786E+03 -0.18573916040E+03 -0.12015561348E+03  0.27550860706E+03  0.00000000000E+00 0. -1.
         -2    1    3    3    0  502 -0.25563751095E+02 -0.34854011930E+02  0.16377407011E+02  0.46222580824E+02  0.00000000000E+00 0.  1.
         11    1    5    5    0    0 -0.36679803618E+02 -0.48672313049E+01  0.41270496210E+01  0.37230773193E+02  0.00000000000E+00 0. -1.
        -11    1    5    5    0    0 -0.88253655815E+02 -0.19966402638E+03 -0.61141324003E+02  0.22669956483E+03  0.00000000000E+00 0.  1.
          3    1    6    6  503    0  0.11517856126E+02  0.10754658642E+02  0.23730299803E+01  0.15935964468E+02  0.00000000000E+00 0. -1.
         -3    1    6    6    0  503  0.30320050226E+03  0.41436977138E+03  0.68700343627E+03  0.85767509784E+03  0.00000000000E+00 0.  1.
<mgrwt>
<rscale>  0 0.13601748E+04</rscale>
<asrwt>0</asrwt>
<pdfrwt beam="1">  1        2 0.71591431E-01 0.13601748E+04</pdfrwt>
<pdfrwt beam="2">  1       -2 0.15291204E+00 0.13601748E+04</pdfrwt>
<totfact> 0.18576216E+01</totfact>
</mgrwt>
</event>
<event>
12    2  0.3552864E-008  0.1127463E+04  0.7818608E-02  0.9178830E-01
          2   -1    0    0  501    0  0.00000000000E+00  0.00000000000E+00  0.45013119413E+03  0.45013119413E+03  0.00000000000E+00 0. -1.
         -2   -1    0    0    0  501 -0.00000000000E+00 -0.00000000000E+00 -0.70600169167E+03  0.70600169167E+03  0.00000000000E+00 0.  1.
         23    2    1    2    0    0 -0.11071321177E+03  0.14292747424E+03 -0.11373356545E+03  0.23317764758E+03  0.93545781647E+02 0.  0.
        254    2    1    2    0    0  0.11071321177E+03 -0.14292747424E+03 -0.14213693209E+03  0.92295523823E+03  0.89384438587E+03 0.  0.
         23    2    4    4    0    0  0.39048878377E+03 -0.38707120640E+02  0.20956767948E+03  0.45233471165E+03  0.81904503180E+02 0.  0.
         23    2    4    4    0    0 -0.27977557200E+03 -0.10422035360E+03 -0.35170461156E+03  0.47062052658E+03  0.93012329562E+02 0.  0.
          4    1    3    3  502    0 -0.10139217952E+03  0.70789955550E+02 -0.40909984394E+02  0.13025059961E+03  0.00000000000E+00 0. -1.
         -4    1    3    3    0  502 -0.93210322528E+01  0.72137518692E+02 -0.72823581060E+02  0.10292704797E+03  0.00000000000E+00 0.  1.
         11    1    5    5    0    0  0.34411530574E+02  0.20250639796E+02  0.20137089266E+02  0.44718499670E+02  0.00000000000E+00 0.  1.
        -11    1    5    5    0    0  0.35607725320E+03 -0.58957760436E+02  0.18943059021E+03  0.40761621198E+03  0.00000000000E+00 0. -1.
          2    1    6    6  503    0 -0.11262871249E+03 -0.42085396983E+02 -0.75893034674E+02  0.14218354416E+03  0.00000000000E+00 0.  1.
         -2    1    6    6    0  503 -0.16714685951E+03 -0.62134956619E+02 -0.27581157689E+03  0.32843698242E+03  0.00000000000E+00 0. -1.
<mgrwt>
<rscale>  0 0.11274633E+04</rscale>
<asrwt>0</asrwt>
<pdfrwt beam="1">  1        2 0.69250953E-01 0.11274633E+04</pdfrwt>
<pdfrwt beam="2">  1       -2 0.10861564E+00 0.11274633E+04</pdfrwt>
<totfact> 0.46688794E+01</totfact>
</mgrwt>
</event>
<event>
12    2  0.3552864E-008  0.2097966E+04  0.7818608E-02  0.8562140E-01
         -1   -1    0    0    0  501 -0.00000000000E+00  0.00000000000E+00  0.88505580703E+03  0.88505580703E+03  0.00000000000E+00 0.  1.
          1   -1    0    0  501    0  0.00000000000E+00 -0.00000000000E+00 -0.12432727814E+04  0.12432727814E+04  0.00000000000E+00 0. -1.
         23    2    1    2    0    0 -0.44780491921E+03  0.38962781122E+03 -0.75951717374E+03  0.96815261336E+03  0.90078125047E+02 0.  0.
        254    2    1    2    0    0  0.44780491921E+03 -0.38962781122E+03  0.40130019940E+03  0.11601759750E+04  0.91248417306E+03 0.  0.
         23    2    4    4    0    0  0.70676987265E+03 -0.34161848424E+03  0.19579580790E+03  0.81416678127E+03  0.91130168860E+02 0.  0.
         23    2    4    4    0    0 -0.25896495344E+03 -0.48009326984E+02  0.20550439150E+03  0.34600919377E+03  0.90125272056E+02 0.  0.
          1    1    3    3  502    0 -0.41030157882E+03  0.31663711615E+03 -0.65167010393E+03  0.83263459769E+03  0.00000000000E+00 0. -1.
         -1    1    3    3    0  502 -0.37503340396E+02  0.72990695070E+02 -0.10784706980E+03  0.13551801568E+03  0.00000000000E+00 0.  1.
         11    1    5    5    0    0  0.59071304445E+03 -0.26170878384E+03  0.18869169796E+03  0.67308093518E+03  0.00000000000E+00 0.  1.
        -11    1    5    5    0    0  0.11605682820E+03 -0.79909700398E+02  0.71041099387E+01  0.14108584609E+03  0.00000000000E+00 0. -1.
          1    1    6    6  503    0 -0.18537030456E+02  0.18847838856E+02  0.75900988876E+01  0.27504038409E+02  0.00000000000E+00 0. -1.
         -1    1    6    6    0  503 -0.24042792298E+03 -0.66857165840E+02  0.19791429261E+03  0.31850515536E+03  0.00000000000E+00 0.  1.
<mgrwt>
<rscale>  0 0.20979664E+04</rscale>
<asrwt>0</asrwt>
<pdfrwt beam="1">  1        1 0.19127273E+00 0.20979664E+04</pdfrwt>
<pdfrwt beam="2">  1       -1 0.13616243E+00 0.20979664E+04</pdfrwt>
<totfact> 0.41192483E+00</totfact>
</mgrwt>
</event>
<event>
12    2  0.3552864E-008  0.2490674E+04  0.7818608E-02  0.8406315E-01
         -1   -1    0    0    0  501 -0.00000000000E+00  0.00000000000E+00  0.48569683944E+03  0.48569683944E+03  0.00000000000E+00 0.  1.
          1   -1    0    0  501    0  0.00000000000E+00 -0.00000000000E+00 -0.31930709064E+04  0.31930709064E+04  0.00000000000E+00 0. -1.
         23    2    1    2    0    0  0.33338769481E+03 -0.35428990672E+03  0.24559856636E+03  0.55245541546E+03  0.90662214944E+02 0.  0.
        254    2    1    2    0    0 -0.33338769481E+03  0.35428990672E+03 -0.29529726333E+04  0.31263123303E+04  0.90394287479E+03 0.  0.
         23    2    4    4    0    0  0.90507187895E+01 -0.28051247607E+03 -0.97588385020E+03  0.10197330032E+04  0.93471621227E+02 0.  0.
         23    2    4    4    0    0 -0.34243841360E+03  0.63480238279E+03 -0.19770887831E+04  0.21065793271E+04  0.92510934969E+02 0.  0.
          1    1    3    3  502    0  0.66321302291E+01 -0.92316712263E+01 -0.79069567777E+01  0.13846619461E+02  0.00000000000E+00 0. -1.
         -1    1    3    3    0  502  0.32675556458E+03 -0.34505823549E+03  0.25350552313E+03  0.53860879600E+03  0.00000000000E+00 0.  1.
         11    1    5    5    0    0  0.25832643422E+02 -0.17328200919E+02 -0.79792969034E+02  0.85641753372E+02  0.00000000000E+00 0. -1.
        -11    1    5    5    0    0 -0.16781924633E+02 -0.26318427515E+03 -0.89609088116E+03  0.93409124982E+03  0.00000000000E+00 0.  1.
          2    1    6    6  503    0 -0.34241785279E+03  0.58840818412E+03 -0.18514222478E+04  0.19726222438E+04  0.00000000000E+00 0. -1.
         -2    1    6    6    0  503 -0.20560813521E-01  0.46394198667E+02 -0.12566653527E+03  0.13395708335E+03  0.00000000000E+00 0.  1.
<mgrwt>
<rscale>  0 0.24906742E+04</rscale>
<asrwt>0</asrwt>
<pdfrwt beam="1">  1        1 0.49124167E+00 0.24906742E+04</pdfrwt>
<pdfrwt beam="2">  1       -1 0.74722592E-01 0.24906742E+04</pdfrwt>
<totfact> 0.68939604E-01</totfact>
</mgrwt>
</event>
<event>
12    2  0.3552864E-008  0.1638175E+04  0.7818608E-02  0.8797433E-01
          2   -1    0    0  501    0  0.00000000000E+00  0.00000000000E+00  0.35506149559E+03  0.35506149559E+03  0.00000000000E+00 0.  1.
         -2   -1    0    0    0  501 -0.00000000000E+00 -0.00000000000E+00 -0.18895450258E+04  0.18895450258E+04  0.00000000000E+00 0. -1.
         23    2    1    2    0    0 -0.30785141951E+03  0.15967346453E+03 -0.11904077220E+04  0.12424769190E+04  0.80063960549E+02 0.  0.
        254    2    1    2    0    0  0.30785141951E+03 -0.15967346453E+03 -0.34407580826E+03  0.10021296025E+04  0.87498998084E+03 0.  0.
         23    2    4    4    0    0  0.58263411460E+03 -0.12131471377E+03 -0.79223038515E+02  0.60806875579E+03  0.96392689837E+02 0.  0.
         23    2    4    4    0    0 -0.27478269509E+03 -0.38358750756E+02 -0.26485276975E+03  0.39406084670E+03  0.90332928525E+02 0.  0.
          4    1    3    3  502    0 -0.23157696625E+03  0.78548127816E+02 -0.81017861545E+03  0.84627837536E+03  0.00000000000E+00 0. -1.
         -4    1    3    3    0  502 -0.76274453265E+02  0.81125336710E+02 -0.38022910655E+03  0.39619854359E+03  0.00000000000E+00 0.  1.
         11    1    5    5    0    0  0.22480030961E+03 -0.33888964772E+01 -0.10372961761E+02  0.22506501762E+03  0.00000000000E+00 0. -1.
        -11    1    5    5    0    0  0.35783380499E+03 -0.11792581729E+03 -0.68850076754E+02  0.38300373816E+03  0.00000000000E+00 0.  1.
          3    1    6    6  503    0 -0.14367051790E+03 -0.62298727220E+02 -0.16535351508E+03  0.22773698443E+03  0.00000000000E+00 0. -1.
         -3    1    6    6    0  503 -0.13111217719E+03  0.23939976464E+02 -0.99499254665E+02  0.16632386227E+03  0.00000000000E+00 0.  1.
<mgrwt>
<rscale>  0 0.16381754E+04</rscale>
<asrwt>0</asrwt>
<pdfrwt beam="1">  1        2 0.54624846E-01 0.16381754E+04</pdfrwt>
<pdfrwt beam="2">  1       -2 0.29069923E+00 0.16381754E+04</pdfrwt>
<totfact> 0.31568040E+00</totfact>
</mgrwt>
</event>
<event>
12    2  0.3552864E-008  0.1470660E+04  0.7818608E-02  0.8904202E-01
         -2   -1    0    0    0  501 -0.00000000000E+00  0.00000000000E+00  0.26998054938E+03  0.26998054938E+03  0.00000000000E+00 0.  1.
          2   -1    0    0  501    0  0.00000000000E+00 -0.00000000000E+00 -0.20027744808E+04  0.20027744808E+04  0.00000000000E+00 0. -1.
         23    2    1    2    0    0  0.33951432689E+03  0.17439720479E+03 -0.93743501204E+03  0.10163260944E+04  0.91923692539E+02 0.  0.
        254    2    1    2    0    0 -0.33951432689E+03 -0.17439720479E+03 -0.79535891934E+03  0.12564289357E+04  0.89461360189E+03 0.  0.
         23    2    4    4    0    0 -0.51882527324E+03 -0.42958692395E+02 -0.85787258951E+03  0.10074303254E+04  0.89136789582E+02 0.  0.
         23    2    4    4    0    0  0.17931094635E+03 -0.13143851240E+03  0.62513670173E+02  0.24899861032E+03  0.93079809621E+02 0.  0.
          1    1    3    3  502    0  0.23851773286E+03  0.10125174900E+03 -0.72600870274E+03  0.77086397116E+03  0.00000000000E+00 0. -1.
         -1    1    3    3    0  502  0.10099659403E+03  0.73145455786E+02 -0.21142630930E+03  0.24546212329E+03  0.00000000000E+00 0.  1.
         11    1    5    5    0    0 -0.79494375215E+02 -0.35717401270E+02 -0.11424388211E+03  0.14368978058E+03  0.00000000000E+00 0.  1.
        -11    1    5    5    0    0 -0.43933089803E+03 -0.72412911246E+01 -0.74362870740E+03  0.86374054480E+03  0.00000000000E+00 0. -1.
          2    1    6    6  503    0  0.12110364431E+03 -0.11397270763E+03  0.81679750107E+02  0.18527669127E+03  0.00000000000E+00 0. -1.
         -2    1    6    6    0  503  0.58207302044E+02 -0.17465804763E+02 -0.19166079934E+02  0.63721919049E+02  0.00000000000E+00 0.  1.
<mgrwt>
<rscale>  0 0.14706599E+04</rscale>
<asrwt>0</asrwt>
<pdfrwt beam="1">  1        2 0.30811914E+00 0.14706599E+04</pdfrwt>
<pdfrwt beam="2">  1       -2 0.41535471E-01 0.14706599E+04</pdfrwt>
<totfact> 0.35419117E+01</totfact>
</mgrwt>
</event>
<event>
12    2  0.3552864E-008  0.1305044E+04  0.7818608E-02  0.9025575E-01
         -1   -1    0    0    0  501 -0.00000000000E+00  0.00000000000E+00  0.22462752610E+03  0.22462752610E+03  0.00000000000E+00 0.  1.
          1   -1    0    0  501    0  0.00000000000E+00 -0.00000000000E+00 -0.18955161244E+04  0.18955161244E+04  0.00000000000E+00 0. -1.
         23    2    1    2    0    0  0.27714881480E+03 -0.36223246758E+02 -0.67947155980E+03  0.74023780590E+03  0.90259733873E+02 0.  0.
        254    2    1    2    0    0 -0.27714881480E+03  0.36223246758E+02 -0.99141703849E+03  0.13799058446E+04  0.91820956571E+03 0.  0.
         23    2    4    4    0    0 -0.10177096962E+03 -0.41533438792E+03 -0.29644950234E+03  0.52787707059E+03  0.88948918862E+02 0.  0.
         23    2    4    4    0    0 -0.17537784518E+03  0.45155763468E+03 -0.69496753614E+03  0.85202877399E+03  0.91167260568E+02 0.  0.
          3    1    3    3  502    0  0.17408675668E+03  0.18208356120E+02 -0.45048260965E+03  0.48329320778E+03  0.00000000000E+00 0. -1.
         -3    1    3    3    0  502  0.10306205813E+03 -0.54431602878E+02 -0.22898895015E+03  0.25694459813E+03  0.00000000000E+00 0.  1.
         11    1    5    5    0    0 -0.11601998719E+03 -0.37055381340E+03 -0.27724390819E+03  0.47711104649E+03  0.00000000000E+00 0. -1.
        -11    1    5    5    0    0  0.14249017572E+02 -0.44780574519E+02 -0.19205594157E+02  0.50766024101E+02  0.00000000000E+00 0.  1.
          3    1    6    6  503    0 -0.14313471843E+03  0.41831205939E+03 -0.65815021362E+03  0.79286457251E+03  0.00000000000E+00 0. -1.
         -3    1    6    6    0  503 -0.32243126758E+02  0.33245575286E+02 -0.36817322520E+02  0.59164201480E+02  0.00000000000E+00 0.  1.
<mgrwt>
<rscale>  0 0.13050442E+04</rscale>
<asrwt>0</asrwt>
<pdfrwt beam="1">  1        1 0.29161786E+00 0.13050442E+04</pdfrwt>
<pdfrwt beam="2">  1       -1 0.34558081E-01 0.13050442E+04</pdfrwt>
<totfact> 0.27379087E+01</totfact>
</mgrwt>
</event>
<event>
12    2  0.3552864E-008  0.1219060E+04  0.7818608E-02  0.9096335E-01
          2   -1    0    0  501    0  0.00000000000E+00  0.00000000000E+00  0.25305356327E+04  0.25305356327E+04  0.00000000000E+00 0. -1.
         -2   -1    0    0    0  501 -0.00000000000E+00 -0.00000000000E+00 -0.14681748666E+03  0.14681748666E+03  0.00000000000E+00 0.  1.
         23    2    1    2    0    0  0.36671704497E+02  0.26715635921E+03  0.58802671045E+03  0.65332782467E+03  0.91348235320E+02 0.  0.
        254    2    1    2    0    0 -0.36671704497E+02 -0.26715635921E+03  0.17956914356E+04  0.20240252947E+04  0.89412153960E+03 0.  0.
         23    2    4    4    0    0  0.36779017176E+03 -0.32595686745E+03  0.11527560591E+04  0.12565339611E+04  0.92269028442E+02 0.  0.
         23    2    4    4    0    0 -0.40446187626E+03  0.58800508242E+02  0.64293537650E+03  0.76749133366E+03  0.92898545566E+02 0.  0.
          2    1    3    3  502    0  0.34345505118E+02  0.82945865752E+02  0.28388717322E+03  0.29774411411E+03  0.00000000000E+00 0. -1.
         -2    1    3    3    0  502  0.23261993784E+01  0.18421049346E+03  0.30413953723E+03  0.35558371056E+03  0.00000000000E+00 0.  1.
         11    1    5    5    0    0  0.40777026439E+02 -0.79575999392E+02  0.17527374657E+03  0.19676379698E+03  0.00000000000E+00 0. -1.
        -11    1    5    5    0    0  0.32701314532E+03 -0.24638086806E+03  0.97748231255E+03  0.10597701641E+04  0.00000000000E+00 0.  1.
          2    1    6    6  503    0 -0.33272060686E+03  0.83770330841E+02  0.53179560885E+03  0.63287205670E+03  0.00000000000E+00 0. -1.
         -2    1    6    6    0  503 -0.71741269392E+02 -0.24969822599E+02  0.11113976765E+03  0.13461927696E+03  0.00000000000E+00 0.  1.
<mgrwt>
<rscale>  0 0.12190601E+04</rscale>
<asrwt>0</asrwt>
<pdfrwt beam="1">  1        2 0.38931314E+00 0.12190601E+04</pdfrwt>
<pdfrwt beam="2">  1       -2 0.22587307E-01 0.12190601E+04</pdfrwt>
<totfact> 0.57096160E+01</totfact>
</mgrwt>
</event>
<event>
12    2  0.3552864E-008  0.1336746E+04  0.7818608E-02  0.9000922E-01
         -2   -1    0    0    0  501 -0.00000000000E+00  0.00000000000E+00  0.12823898857E+03  0.12823898857E+03  0.00000000000E+00 0.  1.
          2   -1    0    0  501    0  0.00000000000E+00 -0.00000000000E+00 -0.34835169954E+04  0.34835169954E+04  0.00000000000E+00 0. -1.
         23    2    1    2    0    0  0.32244986315E+03 -0.14045568788E+03 -0.63428778588E+03  0.73103056141E+03  0.91558570864E+02 0.  0.
        254    2    1    2    0    0 -0.32244986315E+03  0.14045568788E+03 -0.27209902209E+04  0.28807254225E+04  0.87811699854E+03 0.  0.
         23    2    4    4    0    0 -0.61381412037E+03  0.14184395267E+03 -0.16956397366E+04  0.18112858534E+04  0.93138850091E+02 0.  0.
         23    2    4    4    0    0  0.29136425722E+03 -0.13882647896E+01 -0.10253504843E+04  0.10694395691E+04  0.86384712057E+02 0.  0.
          3    1    3    3  502    0  0.91762460832E+02 -0.55196442555E+02 -0.27972052251E+03  0.29951722354E+03  0.00000000000E+00 0. -1.
         -3    1    3    3    0  502  0.23068740232E+03 -0.85259245322E+02 -0.35456726338E+03  0.43151333787E+03  0.00000000000E+00 0.  1.
         11    1    5    5    0    0 -0.25062569990E+03  0.41711757069E+02 -0.80802147282E+03  0.84702527275E+03  0.00000000000E+00 0. -1.
        -11    1    5    5    0    0 -0.36318842048E+03  0.10013219560E+03 -0.88761826373E+03  0.96426058069E+03  0.00000000000E+00 0.  1.
          2    1    6    6  503    0  0.65562511968E+02  0.40164658548E+01 -0.12520365652E+03  0.14138787282E+03  0.00000000000E+00 0. -1.
         -2    1    6    6    0  503  0.22580174525E+03 -0.54047306444E+01 -0.90014682783E+03  0.92805169626E+03  0.00000000000E+00 0.  1.
<mgrwt>
<rscale>  0 0.13367463E+04</rscale>
<asrwt>0</asrwt>
<pdfrwt beam="1">  1        2 0.53592573E+00 0.13367463E+04</pdfrwt>
<pdfrwt beam="2">  1       -2 0.19729074E-01 0.13367463E+04</pdfrwt>
<totfact> 0.18214799E+01</totfact>
</mgrwt>
</event>
<event>
12    2  0.3552864E-008  0.1241543E+04  0.7818608E-02  0.9077252E-01
         -1   -1    0    0    0  501 -0.00000000000E+00  0.00000000000E+00  0.91125145959E+03  0.91125145959E+03  0.00000000000E+00 0.  1.
          1   -1    0    0  501    0  0.00000000000E+00 -0.00000000000E+00 -0.42288789875E+03  0.42288789875E+03  0.00000000000E+00 0. -1.
         23    2    1    2    0    0 -0.17105739578E+03 -0.97898850437E+02  0.34641944270E+03  0.40875215519E+03  0.90703233258E+02 0.  0.
        254    2    1    2    0    0  0.17105739578E+03  0.97898850437E+02  0.14194411813E+03  0.92538720315E+03  0.89294374152E+03 0.  0.
         23    2    4    4    0    0 -0.47545271905E+01  0.51336183269E+02  0.50140157270E+03  0.51210356244E+03  0.90490399012E+02 0.  0.
         23    2    4    4    0    0  0.17581192297E+03  0.46562667168E+02 -0.35945745457E+03  0.41328364071E+03  0.92281047921E+02 0.  0.
          1    1    3    3  502    0 -0.14298496942E+03 -0.45734972140E+02  0.19453098514E+03  0.24572076294E+03  0.00000000000E+00 0. -1.
         -1    1    3    3    0  502 -0.28072426358E+02 -0.52163878297E+02  0.15188845756E+03  0.16303139226E+03  0.00000000000E+00 0.  1.
         11    1    5    5    0    0  0.73489895104E+01 -0.61156926055E+00  0.37288208457E+03  0.37295499817E+03  0.00000000000E+00 0.  1.
        -11    1    5    5    0    0 -0.12103516701E+02  0.51947752530E+02  0.12851948813E+03  0.13914856427E+03  0.00000000000E+00 0. -1.
          3    1    6    6  503    0  0.70975237585E+02 -0.13426954539E+02 -0.74428037394E+02  0.10371740552E+03  0.00000000000E+00 0. -1.
         -3    1    6    6    0  503  0.10483668539E+03  0.59989621707E+02 -0.28502941717E+03  0.30956623519E+03  0.00000000000E+00 0.  1.
<mgrwt>
<rscale>  0 0.12415429E+04</rscale>
<asrwt>0</asrwt>
<pdfrwt beam="1">  1        1 0.65059677E-01 0.12415429E+04</pdfrwt>
<pdfrwt beam="2">  1       -1 0.14019253E+00 0.12415429E+04</pdfrwt>
<totfact> 0.22953908E+01</totfact>
</mgrwt>
</event>
<event>
12    2  0.3552864E-008  0.1470466E+04  0.7818608E-02  0.8904334E-01
         -2   -1    0    0    0  501 -0.00000000000E+00  0.00000000000E+00  0.34186458183E+03  0.34186458183E+03  0.00000000000E+00 0.  1.
          2   -1    0    0  501    0  0.00000000000E+00 -0.00000000000E+00 -0.15812323565E+04  0.15812323565E+04  0.00000000000E+00 0. -1.
         23    2    1    2    0    0 -0.62223131134E+02 -0.39456881373E+03 -0.61819298252E+03  0.74516582720E+03  0.11641855341E+03 0.  0.
        254    2    1    2    0    0  0.62223131134E+02  0.39456881373E+03 -0.62117479217E+03  0.11779311111E+04  0.91766405256E+03 0.  0.
         23    2    4    4    0    0  0.30803772949E+03 -0.12803484679E+03 -0.30960090774E+02  0.34734527604E+03  0.91706318113E+02 0.  0.
         23    2    4    4    0    0 -0.24581459836E+03  0.52260366052E+03 -0.59021470140E+03  0.83058583511E+03  0.89331030425E+02 0.  0.
          3    1    3    3  502    0 -0.79881707888E+02 -0.38824927055E+03 -0.57857602323E+03  0.70133358539E+03  0.00000000000E+00 0. -1.
         -3    1    3    3    0  502  0.17658576753E+02 -0.63195431769E+01 -0.39616959293E+02  0.43832241815E+02  0.00000000000E+00 0.  1.
         11    1    5    5    0    0  0.26564508130E+03 -0.12837853617E+03 -0.32331788208E+00  0.29503976393E+03  0.00000000000E+00 0. -1.
        -11    1    5    5    0    0  0.42392648191E+02  0.34368938124E+00 -0.30636772892E+02  0.52305512102E+02  0.00000000000E+00 0.  1.
          2    1    6    6  503    0 -0.15613177958E+03  0.37577178747E+03 -0.46430438245E+03  0.61738167160E+03  0.00000000000E+00 0. -1.
         -2    1    6    6    0  503 -0.89682818781E+02  0.14683187304E+03 -0.12591031894E+03  0.21320416352E+03  0.00000000000E+00 0.  1.
<mgrwt>
<rscale>  0 0.14704657E+04</rscale>
<asrwt>0</asrwt>
<pdfrwt beam="1">  1        2 0.24326652E+00 0.14704657E+04</pdfrwt>
<pdfrwt beam="2">  1       -2 0.52594551E-01 0.14704657E+04</pdfrwt>
<totfact> 0.37729062E+01</totfact>
</mgrwt>
</event>
<event>
12    2  0.3552864E-008  0.1459623E+04  0.7818608E-02  0.8911756E-01
         -2   -1    0    0    0  501 -0.00000000000E+00  0.00000000000E+00  0.19496115758E+03  0.19496115758E+03  0.00000000000E+00 0.  1.
          2   -1    0    0  501    0  0.00000000000E+00 -0.00000000000E+00 -0.27319526676E+04  0.27319526676E+04  0.00000000000E+00 0. -1.
         23    2    1    2    0    0  0.73504018798E+02 -0.87021779164E+02 -0.16383388482E+04  0.16448970020E+04  0.92500457464E+02 0.  0.
        254    2    1    2    0    0 -0.73504018798E+02  0.87021779164E+02 -0.89865266176E+03  0.12820168232E+04  0.90720168519E+03 0.  0.
         23    2    4    4    0    0  0.22874778030E+03 -0.66143440264E+02 -0.89582806957E+03  0.93139156861E+03  0.91004517216E+02 0.  0.
         23    2    4    4    0    0 -0.30225179910E+03  0.15316521943E+03 -0.28245921872E+01  0.35062525458E+03  0.90079722054E+02 0.  0.
          3    1    3    3  502    0  0.71875506702E+01 -0.30766766808E+02 -0.10182353750E+04  0.10187254457E+04  0.00000000000E+00 0. -1.
         -3    1    3    3    0  502  0.66316468128E+02 -0.56255012355E+02 -0.62010347324E+03  0.62617155628E+03  0.00000000000E+00 0.  1.
         11    1    5    5    0    0  0.86382500941E+02 -0.69811818470E+02 -0.44216416183E+03  0.45589995884E+03  0.00000000000E+00 0.  1.
        -11    1    5    5    0    0  0.14236527936E+03  0.36683782058E+01 -0.45366390774E+03  0.47549160976E+03  0.00000000000E+00 0. -1.
          1    1    6    6  503    0 -0.24123402501E+03  0.78259665612E+02  0.53513710973E+01  0.25366723726E+03  0.00000000000E+00 0. -1.
         -1    1    6    6    0  503 -0.61017774088E+02  0.74905553816E+02 -0.81759632845E+01  0.96958017321E+02  0.00000000000E+00 0.  1.
<mgrwt>
<rscale>  0 0.14596228E+04</rscale>
<asrwt>0</asrwt>
<pdfrwt beam="1">  1        2 0.42030038E+00 0.14596228E+04</pdfrwt>
<pdfrwt beam="2">  1       -2 0.29994026E-01 0.14596228E+04</pdfrwt>
<totfact> 0.25393112E+01</totfact>
</mgrwt>
</event>
<event>
12    2  0.3552864E-008  0.2093637E+04  0.7818608E-02  0.8564052E-01
         -1   -1    0    0    0  501 -0.00000000000E+00  0.00000000000E+00  0.88940181193E+03  0.88940181193E+03  0.00000000000E+00 0.  1.
          1   -1    0    0  501    0  0.00000000000E+00 -0.00000000000E+00 -0.12320965533E+04  0.12320965533E+04  0.00000000000E+00 0. -1.
         23    2    1    2    0    0 -0.32724018633E+03  0.81126588476E+03 -0.20391763254E+03  0.90341759722E+03  0.96656498938E+02 0.  0.
        254    2    1    2    0    0  0.32724018633E+03 -0.81126588476E+03 -0.13877710887E+03  0.12180807681E+04  0.83619566863E+03 0.  0.
         23    2    4    4    0    0 -0.23372132480E+02 -0.23108440375E+03 -0.41163617941E+03  0.48081276824E+03  0.88262764897E+02 0.  0.
         23    2    4    4    0    0  0.35061231881E+03 -0.58018148101E+03  0.27285907054E+03  0.73726799981E+03  0.97839062567E+02 0.  0.
          1    1    3    3  502    0 -0.21587903818E+03  0.50970862267E+03 -0.81848111197E+02  0.55955853354E+03  0.00000000000E+00 0. -1.
         -1    1    3    3    0  502 -0.11136114815E+03  0.30155726209E+03 -0.12206952135E+03  0.34385906369E+03  0.00000000000E+00 0.  1.
         11    1    5    5    0    0  0.19071995770E+02 -0.70288063488E+01 -0.30047494726E+02  0.36276674057E+02  0.00000000000E+00 0.  1.
        -11    1    5    5    0    0 -0.42444128250E+02 -0.22405559741E+03 -0.38158868469E+03  0.44453609419E+03  0.00000000000E+00 0. -1.
          1    1    6    6  503    0  0.34107614613E+03 -0.56540016743E+03  0.28132978461E+03  0.71774419851E+03  0.00000000000E+00 0. -1.
         -1    1    6    6    0  503  0.95361726881E+01 -0.14781313572E+02 -0.84707140651E+01  0.19523801301E+02  0.00000000000E+00 0.  1.
<mgrwt>
<rscale>  0 0.20936369E+04</rscale>
<asrwt>0</asrwt>
<pdfrwt beam="1">  1        1 0.18955332E+00 0.20936369E+04</pdfrwt>
<pdfrwt beam="2">  1       -1 0.13683105E+00 0.20936369E+04</pdfrwt>
<totfact> 0.41457161E+00</totfact>
</mgrwt>
</event>
<event>
12    2  0.3552864E-008  0.1666457E+04  0.7818608E-02  0.8780730E-01
          1   -1    0    0  501    0  0.00000000000E+00  0.00000000000E+00  0.14525030222E+04  0.14525030222E+04  0.00000000000E+00 0. -1.
         -1   -1    0    0    0  501 -0.00000000000E+00 -0.00000000000E+00 -0.47798142523E+03  0.47798142523E+03  0.00000000000E+00 0.  1.
         23    2    1    2    0    0  0.18246297779E+03  0.43995278774E+03  0.73832681805E+03  0.88331762488E+03  0.90952418692E+02 0.  0.
        254    2    1    2    0    0 -0.18246297779E+03 -0.43995278774E+03  0.23619477890E+03  0.10471668225E+04  0.90217469869E+03 0.  0.
         23    2    4    4    0    0  0.34894743036E+03 -0.16093899975E+03  0.19083509061E+03  0.43869177041E+03  0.91470032386E+02 0.  0.
         23    2    4    4    0    0 -0.53141040814E+03 -0.27901378798E+03  0.45359688294E+02  0.60847505213E+03  0.89099225451E+02 0.  0.
          2    1    3    3  502    0  0.10060469734E+03  0.29847440842E+03  0.55128185136E+03  0.63491728378E+03  0.00000000000E+00 0. -1.
         -2    1    3    3    0  502  0.81858280441E+02  0.14147837931E+03  0.18704496669E+03  0.24840034109E+03  0.00000000000E+00 0.  1.
         11    1    5    5    0    0  0.29034011101E+03 -0.12271097143E+03  0.11505939825E+03  0.33555033556E+03  0.00000000000E+00 0. -1.
        -11    1    5    5    0    0  0.58607319347E+02 -0.38228028325E+02  0.75775692354E+02  0.10314143485E+03  0.00000000000E+00 0.  1.
          3    1    6    6  503    0 -0.21389031338E+03 -0.12822464109E+03  0.60603936479E+02  0.25663877700E+03  0.00000000000E+00 0. -1.
         -3    1    6    6    0  503 -0.31752009476E+03 -0.15078914689E+03 -0.15244248185E+02  0.35183627513E+03  0.00000000000E+00 0.  1.
<mgrwt>
<rscale>  0 0.16664567E+04</rscale>
<asrwt>0</asrwt>
<pdfrwt beam="1">  1        1 0.22346200E+00 0.16664567E+04</pdfrwt>
<pdfrwt beam="2">  1       -1 0.73535605E-01 0.16664567E+04</pdfrwt>
<totfact> 0.12549989E+01</totfact>
</mgrwt>
</event>
<event>
12    2  0.3552864E-008  0.1859953E+04  0.7818608E-02  0.8675051E-01
          1   -1    0    0  501    0  0.00000000000E+00  0.00000000000E+00  0.14194514560E+04  0.14194514560E+04  0.00000000000E+00 0. -1.
         -1   -1    0    0    0  501 -0.00000000000E+00 -0.00000000000E+00 -0.60928885696E+03  0.60928885696E+03  0.00000000000E+00 0.  1.
         23    2    1    2    0    0 -0.23777688216E+03  0.13229196636E+03 -0.39928970495E+03  0.49239177066E+03  0.94754299573E+02 0.  0.
        254    2    1    2    0    0  0.23777688216E+03 -0.13229196636E+03  0.12094523040E+04  0.15363485423E+04  0.90749818609E+03 0.  0.
         23    2    4    4    0    0  0.20753903669E+03 -0.48418066200E+03  0.94625800329E+03  0.10867486021E+04  0.90083018715E+02 0.  0.
         23    2    4    4    0    0  0.30237845470E+02  0.35188869564E+03  0.26319430075E+03  0.44959994020E+03  0.90160328651E+02 0.  0.
          2    1    3    3  502    0 -0.80038367679E+02  0.75587521501E+02 -0.96941056500E+02  0.14668736190E+03  0.00000000000E+00 0. -1.
         -2    1    3    3    0  502 -0.15773851448E+03  0.56704444859E+02 -0.30234864845E+03  0.34570440876E+03  0.00000000000E+00 0.  1.
         11    1    5    5    0    0  0.88920068973E+02 -0.16272380332E+03  0.41545435430E+03  0.45495948758E+03  0.00000000000E+00 0.  1.
        -11    1    5    5    0    0  0.11861896772E+03 -0.32145685868E+03  0.53080364898E+03  0.63178911456E+03  0.00000000000E+00 0. -1.
          2    1    6    6  503    0  0.59485289005E+02  0.28857820251E+03  0.21742964281E+03  0.36618510093E+03  0.00000000000E+00 0. -1.
         -2    1    6    6    0  503 -0.29247443535E+02  0.63310493129E+02  0.45764657932E+02  0.83414839262E+02  0.00000000000E+00 0.  1.
<mgrwt>
<rscale>  0 0.18599526E+04</rscale>
<asrwt>0</asrwt>
<pdfrwt beam="1">  1        1 0.21837715E+00 0.18599526E+04</pdfrwt>
<pdfrwt beam="2">  1       -1 0.93736748E-01 0.18599526E+04</pdfrwt>
<totfact> 0.77121403E+00</totfact>
</mgrwt>
</event>
<event>
12    2  0.3552864E-008  0.1296410E+04  0.7818608E-02  0.9032417E-01
          2   -1    0    0  501    0  0.00000000000E+00  0.00000000000E+00  0.15614323079E+04  0.15614323079E+04  0.00000000000E+00 0. -1.
         -2   -1    0    0    0  501 -0.00000000000E+00 -0.00000000000E+00 -0.26909238609E+03  0.26909238609E+03  0.00000000000E+00 0.  1.
         23    2    1    2    0    0  0.16281544167E+03 -0.26550055713E+02  0.73874307882E+03  0.76246878920E+03  0.91670848685E+02 0.  0.
        254    2    1    2    0    0 -0.16281544167E+03  0.26550055713E+02  0.55359684299E+03  0.10680559048E+04  0.89836528076E+03 0.  0.
         23    2    4    4    0    0 -0.33360403971E+03  0.18641882796E+03  0.68097211516E+03  0.78602176423E+03  0.89797313331E+02 0.  0.
         23    2    4    4    0    0  0.17078859804E+03 -0.15986877225E+03 -0.12737527217E+03  0.28203414056E+03  0.92693186999E+02 0.  0.
          3    1    3    3  502    0  0.16244840733E+03 -0.46316307750E+02  0.66565447004E+03  0.68675363770E+03  0.00000000000E+00 0. -1.
         -3    1    3    3    0  502  0.36703433829E+00  0.19766252037E+02  0.73088608772E+02  0.75715151496E+02  0.00000000000E+00 0.  1.
         11    1    5    5    0    0 -0.30828858267E+03  0.19556795540E+03  0.64402888289E+03  0.74031201353E+03  0.00000000000E+00 0. -1.
        -11    1    5    5    0    0 -0.25315457038E+02 -0.91491274355E+01  0.36943232273E+02  0.45709750696E+02  0.00000000000E+00 0.  1.
          3    1    6    6  503    0  0.16876405132E+03 -0.15733736476E+03 -0.13940596368E+03  0.26957443143E+03  0.00000000000E+00 0. -1.
         -3    1    6    6    0  503  0.20245467184E+01 -0.25314074902E+01  0.12030691512E+02  0.12459709128E+02  0.00000000000E+00 0.  1.
<mgrwt>
<rscale>  0 0.12964097E+04</rscale>
<asrwt>0</asrwt>
<pdfrwt beam="1">  1        2 0.24022035E+00 0.12964097E+04</pdfrwt>
<pdfrwt beam="2">  1       -2 0.41398829E-01 0.12964097E+04</pdfrwt>
<totfact> 0.63501000E+01</totfact>
</mgrwt>
</event>
<event>
12    2  0.3552864E-008  0.1992879E+04  0.7818608E-02  0.8609957E-01
          2   -1    0    0  501    0  0.00000000000E+00  0.00000000000E+00  0.12123521479E+04  0.12123521479E+04  0.00000000000E+00 0. -1.
         -2   -1    0    0    0  501 -0.00000000000E+00 -0.00000000000E+00 -0.81897988655E+03  0.81897988655E+03  0.00000000000E+00 0.  1.
         23    2    1    2    0    0 -0.42305951037E+03  0.18309996688E+03 -0.51015238159E+03  0.69343011940E+03  0.89916243621E+02 0.  0.
        254    2    1    2    0    0  0.42305951037E+03 -0.18309996688E+03  0.90352464290E+03  0.13379019150E+04  0.87242180549E+03 0.  0.
         23    2    4    4    0    0 -0.24803320381E+03 -0.44971843660E+02  0.12262746905E+03  0.29498791798E+03  0.91855531545E+02 0.  0.
         23    2    4    4    0    0  0.67109271418E+03 -0.13812812322E+03  0.78089717385E+03  0.10429139970E+04  0.91784528308E+02 0.  0.
          3    1    3    3  502    0 -0.89556965743E+01 -0.72159282964E+01 -0.36336691382E+01  0.12061412592E+02  0.00000000000E+00 0. -1.
         -3    1    3    3    0  502 -0.41410381380E+03  0.19031589517E+03 -0.50651871245E+03  0.68136870681E+03  0.00000000000E+00 0.  1.
         11    1    5    5    0    0 -0.26251103711E+02 -0.34818508847E+02  0.54403392847E+01  0.43943671853E+02  0.00000000000E+00 0. -1.
        -11    1    5    5    0    0 -0.22178210010E+03 -0.10153334813E+02  0.11718712976E+03  0.25104424613E+03  0.00000000000E+00 0.  1.
          1    1    6    6  503    0  0.31786990273E+03 -0.55534219472E+02  0.43556638603E+03  0.54207324342E+03  0.00000000000E+00 0. -1.
         -1    1    6    6    0  503  0.35322281145E+03 -0.82593903746E+02  0.34533078782E+03  0.50084075362E+03  0.00000000000E+00 0.  1.
<mgrwt>
<rscale>  0 0.19928793E+04</rscale>
<asrwt>0</asrwt>
<pdfrwt beam="1">  1        2 0.18651572E+00 0.19928793E+04</pdfrwt>
<pdfrwt beam="2">  1       -2 0.12599691E+00 0.19928793E+04</pdfrwt>
<totfact> 0.81372172E+00</totfact>
</mgrwt>
</event>
<event>
12    2  0.3552864E-008  0.3165527E+04  0.7818608E-02  0.8197981E-01
         -1   -1    0    0    0  501 -0.00000000000E+00  0.00000000000E+00  0.35330944280E+04  0.35330944280E+04  0.00000000000E+00 0.  1.
          1   -1    0    0  501    0  0.00000000000E+00 -0.00000000000E+00 -0.70905009297E+03  0.70905009297E+03  0.00000000000E+00 0. -1.
         23    2    1    2    0    0  0.14078397053E+04  0.16169894685E+03  0.86695764337E+03  0.16638119060E+04  0.92170048325E+02 0.  0.
        254    2    1    2    0    0 -0.14078397053E+04 -0.16169894685E+03  0.19570866917E+04  0.25783326150E+04  0.89969526487E+03 0.  0.
         23    2    4    4    0    0 -0.91817243547E+03  0.46395619677E+02  0.55956085316E+03  0.10801538731E+04  0.91819749850E+02 0.  0.
         23    2    4    4    0    0 -0.48966726985E+03 -0.20809456653E+03  0.13975258385E+04  0.14981787419E+04  0.91562489740E+02 0.  0.
          3    1    3    3  502    0  0.81131190152E+03  0.12071387653E+03  0.54387328007E+03  0.98417325015E+03  0.00000000000E+00 0. -1.
         -3    1    3    3    0  502  0.59652780380E+03  0.40985070322E+02  0.32308436329E+03  0.67963865583E+03  0.00000000000E+00 0.  1.
         11    1    5    5    0    0 -0.20123966187E+03  0.44882798905E+02  0.10653227890E+03  0.23207971388E+03  0.00000000000E+00 0.  1.
        -11    1    5    5    0    0 -0.71693277360E+03  0.15128207717E+01  0.45302857426E+03  0.84807415924E+03  0.00000000000E+00 0. -1.
          3    1    6    6  503    0 -0.37055110331E+03 -0.16725795171E+03  0.11625911401E+04  0.12316255525E+04  0.00000000000E+00 0. -1.
         -3    1    6    6    0  503 -0.11911616654E+03 -0.40836614823E+02  0.23493469842E+03  0.26655318936E+03  0.00000000000E+00 0.  1.
<mgrwt>
<rscale>  0 0.31655274E+04</rscale>
<asrwt>0</asrwt>
<pdfrwt beam="1">  1        1 0.10908463E+00 0.31655274E+04</pdfrwt>
<pdfrwt beam="2">  1       -1 0.54355298E+00 0.31655274E+04</pdfrwt>
<totfact> 0.18155538E-02</totfact>
</mgrwt>
</event>
<event>
12    2  0.3552864E-008  0.1017326E+04  0.7818608E-02  0.9289744E-01
         -2   -1    0    0    0  501 -0.00000000000E+00  0.00000000000E+00  0.62281555164E+03  0.62281555164E+03  0.00000000000E+00 0. -1.
          2   -1    0    0  501    0  0.00000000000E+00 -0.00000000000E+00 -0.41543255023E+03  0.41543255023E+03  0.00000000000E+00 0.  1.
         23    2    1    2    0    0  0.31051926883E+02 -0.18176966923E+02 -0.26827007937E+02  0.11242229552E+03  0.10307502067E+03 0.  0.
        254    2    1    2    0    0 -0.31051926883E+02  0.18176966923E+02  0.23421000935E+03  0.92582580635E+03  0.89498853118E+03 0.  0.
         23    2    4    4    0    0 -0.39609768754E+03 -0.20462955474E+03  0.15114657109E+03  0.48052644817E+03  0.96404090627E+02 0.  0.
         23    2    4    4    0    0  0.36504576066E+03  0.22280652166E+03  0.83063438258E+02  0.44529935818E+03  0.92145700662E+02 0.  0.
          4    1    3    3  502    0 -0.32470769569E+01 -0.24026644270E+01  0.37563773142E+02  0.37780330303E+02  0.00000000000E+00 0. -1.
         -4    1    3    3    0  502  0.34299003840E+02 -0.15774302496E+02 -0.64390781079E+02  0.74641965219E+02  0.00000000000E+00 0.  1.
         11    1    5    5    0    0 -0.37358370308E+03 -0.21479468844E+03  0.13767350958E+03  0.45238870082E+03  0.00000000000E+00 0.  1.
        -11    1    5    5    0    0 -0.22513984459E+02  0.10165133700E+02  0.13473061511E+02  0.28137747348E+02  0.00000000000E+00 0. -1.
          1    1    6    6  503    0  0.35948876648E+03  0.23023492782E+03  0.75928358823E+02  0.43359590737E+03  0.00000000000E+00 0.  1.
         -1    1    6    6    0  503  0.55569941825E+01 -0.74284061590E+01  0.71350794350E+01  0.11703450814E+02  0.00000000000E+00 0. -1.
<mgrwt>
<rscale>  0 0.10173256E+04</rscale>
<asrwt>0</asrwt>
<pdfrwt beam="1">  1        2 0.63912700E-01 0.10173256E+04</pdfrwt>
<pdfrwt beam="2">  1       -2 0.95817778E-01 0.10173256E+04</pdfrwt>
<totfact> 0.69443104E+01</totfact>
</mgrwt>
</event>
<event>
12    2  0.3552864E-008  0.1702021E+04  0.7818608E-02  0.8760213E-01
          1   -1    0    0  501    0  0.00000000000E+00  0.00000000000E+00  0.24957174649E+04  0.24957174649E+04  0.00000000000E+00 0. -1.
         -1   -1    0    0    0  501 -0.00000000000E+00 -0.00000000000E+00 -0.29018463829E+03  0.29018463829E+03  0.00000000000E+00 0.  1.
         23    2    1    2    0    0  0.23456328995E+03 -0.51512614680E+03  0.44684908271E+03  0.72690729674E+03  0.91352237119E+02 0.  0.
        254    2    1    2    0    0 -0.23456328995E+03  0.51512614680E+03  0.17586837440E+04  0.20589948065E+04  0.90890935621E+03 0.  0.
         23    2    4    4    0    0 -0.37340928423E+03  0.20735187262E+03  0.16275994261E+04  0.16855605502E+04  0.98006039860E+02 0.  0.
         23    2    4    4    0    0  0.13884599428E+03  0.30777427419E+03  0.13108431787E+03  0.37343425633E+03  0.90922117380E+02 0.  0.
          3    1    3    3  502    0 -0.45749279341E+01 -0.20753157538E+02  0.33026421764E+02  0.39272993875E+02  0.00000000000E+00 0. -1.
         -3    1    3    3    0  502  0.23913821788E+03 -0.49437298926E+03  0.41382266094E+03  0.68763430287E+03  0.00000000000E+00 0.  1.
         11    1    5    5    0    0 -0.36289547530E+03  0.17590764523E+03  0.15389817910E+04  0.15909436126E+04  0.00000000000E+00 0.  1.
        -11    1    5    5    0    0 -0.10513808926E+02  0.31444227383E+02  0.88617635110E+02  0.94616937523E+02  0.00000000000E+00 0. -1.
          3    1    6    6  503    0  0.33716100254E+02  0.17561299584E+03  0.47583445434E+02  0.18504292476E+03  0.00000000000E+00 0.  1.
         -3    1    6    6    0  503  0.10512989403E+03  0.13216127834E+03  0.83500872432E+02  0.18839133156E+03  0.00000000000E+00 0. -1.
<mgrwt>
<rscale>  0 0.17020210E+04</rscale>
<asrwt>0</asrwt>
<pdfrwt beam="1">  1        1 0.38395652E+00 0.17020210E+04</pdfrwt>
<pdfrwt beam="2">  1       -1 0.44643792E-01 0.17020210E+04</pdfrwt>
<totfact> 0.64608504E+00</totfact>
</mgrwt>
</event>
<event>
12    2  0.3552864E-008  0.1872160E+04  0.7818608E-02  0.8668840E-01
         -1   -1    0    0    0  501 -0.00000000000E+00  0.00000000000E+00  0.16990261678E+04  0.16990261678E+04  0.00000000000E+00 0.  1.
          1   -1    0    0  501    0  0.00000000000E+00 -0.00000000000E+00 -0.51573417763E+03  0.51573417763E+03  0.00000000000E+00 0. -1.
         23    2    1    2    0    0 -0.50437169276E+03  0.33313029309E+03  0.26076407952E+01  0.61165734238E+03  0.93548426300E+02 0.  0.
        254    2    1    2    0    0  0.50437169276E+03 -0.33313029309E+03  0.11806843493E+04  0.16031030030E+04  0.90030945175E+03 0.  0.
         23    2    4    4    0    0  0.73663108879E+03 -0.18616969446E+03  0.10104198143E+04  0.12675054431E+04  0.91308985927E+02 0.  0.
         23    2    4    4    0    0 -0.23225939602E+03 -0.14696059863E+03  0.17026453500E+03  0.33559755995E+03  0.89965914532E+02 0.  0.
          1    1    3    3  502    0 -0.46333805935E+03  0.30287068616E+03 -0.24161466488E+02  0.55407272649E+03  0.00000000000E+00 0. -1.
         -1    1    3    3    0  502 -0.41033633416E+02  0.30259606927E+02  0.26769107283E+02  0.57584615892E+02  0.00000000000E+00 0.  1.
         11    1    5    5    0    0  0.45327226060E+03 -0.77910083385E+02  0.56344036233E+03  0.72731751335E+03  0.00000000000E+00 0. -1.
        -11    1    5    5    0    0  0.28335882819E+03 -0.10825961107E+03  0.44697945202E+03  0.54018792973E+03  0.00000000000E+00 0.  1.
          2    1    6    6  503    0 -0.18987261531E+03 -0.14721293549E+03  0.11615387647E+03  0.26686135246E+03  0.00000000000E+00 0. -1.
         -2    1    6    6    0  503 -0.42386780713E+02  0.25233686145E+00  0.54110658537E+02  0.68736207492E+02  0.00000000000E+00 0.  1.
<mgrwt>
<rscale>  0 0.18721601E+04</rscale>
<asrwt>0</asrwt>
<pdfrwt beam="1">  1        1 0.79343720E-01 0.18721601E+04</pdfrwt>
<pdfrwt beam="2">  1       -1 0.26138864E+00 0.18721601E+04</pdfrwt>
<totfact> 0.23404181E+00</totfact>
</mgrwt>
</event>
<event>
12    2  0.3552864E-008  0.1688243E+04  0.7818608E-02  0.8768099E-01
          2   -1    0    0  501    0  0.00000000000E+00  0.00000000000E+00  0.76402581905E+03  0.76402581905E+03  0.00000000000E+00 0. -1.
         -2   -1    0    0    0  501 -0.00000000000E+00 -0.00000000000E+00 -0.93261360060E+03  0.93261360060E+03  0.00000000000E+00 0.  1.
         23    2    1    2    0    0 -0.10144327564E+03 -0.58447679475E+03  0.30627287110E+02  0.60108557452E+03  0.91988996085E+02 0.  0.
        254    2    1    2    0    0  0.10144327564E+03  0.58447679475E+03 -0.19921506866E+03  0.10955538451E+04  0.89924842076E+03 0.  0.
         23    2    4    4    0    0 -0.49264560584E+01 -0.16376191968E+03 -0.27269434499E+03  0.33067210660E+03  0.90219731701E+02 0.  0.
         23    2    4    4    0    0  0.10636973170E+03  0.74823871444E+03  0.73479276330E+02  0.76488173853E+03  0.92028127714E+02 0.  0.
          4    1    3    3  502    0  0.15570133972E+02 -0.51651206502E+02 -0.63036441733E+01  0.54314014166E+02  0.00000000000E+00 0. -1.
         -4    1    3    3    0  502 -0.11701340961E+03 -0.53282558825E+03  0.36930931283E+02  0.54677156035E+03  0.00000000000E+00 0.  1.
         11    1    5    5    0    0  0.11394653633E+02 -0.13106352666E+03 -0.26103355292E+03  0.29231148096E+03  0.00000000000E+00 0.  1.
        -11    1    5    5    0    0 -0.16321109691E+02 -0.32698393023E+02 -0.11660792068E+02  0.38360625640E+02  0.00000000000E+00 0. -1.
          3    1    6    6  503    0  0.96838287187E+02  0.37857996335E+03  0.20302163124E+02  0.39129607760E+03  0.00000000000E+00 0. -1.
         -3    1    6    6    0  503  0.95314445125E+01  0.36965875108E+03  0.53177113206E+02  0.37358566093E+03  0.00000000000E+00 0.  1.
<mgrwt>
<rscale>  0 0.16882427E+04</rscale>
<asrwt>0</asrwt>
<pdfrwt beam="1">  1        2 0.11754243E+00 0.16882427E+04</pdfrwt>
<pdfrwt beam="2">  1       -2 0.14347902E+00 0.16882427E+04</pdfrwt>
<totfact> 0.11739764E+01</totfact>
</mgrwt>
</event>
<event>
12    2  0.3552864E-008  0.1458850E+04  0.7818608E-02  0.8912288E-01
         -1   -1    0    0    0  501 -0.00000000000E+00  0.00000000000E+00  0.11430305394E+04  0.11430305394E+04  0.00000000000E+00 0.  1.
          1   -1    0    0  501    0  0.00000000000E+00 -0.00000000000E+00 -0.46548256744E+03  0.46548256744E+03  0.00000000000E+00 0. -1.
         23    2    1    2    0    0  0.21524615917E+03  0.32629807496E+03  0.44635773406E+03  0.60111342806E+03  0.96440571723E+02 0.  0.
        254    2    1    2    0    0 -0.21524615917E+03 -0.32629807496E+03  0.23119023790E+03  0.10073996788E+04  0.89922402322E+03 0.  0.
         23    2    4    4    0    0 -0.45177534022E+03 -0.98492518859E+02  0.40918879375E+03  0.62417043288E+03  0.91386684136E+02 0.  0.
         23    2    4    4    0    0  0.23652918105E+03 -0.22780555611E+03 -0.17799855585E+03  0.38322924590E+03  0.85672306786E+02 0.  0.
          1    1    3    3  502    0  0.14211451139E+03  0.13096261782E+03  0.19593451298E+03  0.27520551410E+03  0.00000000000E+00 0. -1.
         -1    1    3    3    0  502  0.73131647781E+02  0.19533545714E+03  0.25042322108E+03  0.32590791396E+03  0.00000000000E+00 0.  1.
         11    1    5    5    0    0 -0.27418683686E+03 -0.31862881375E+02  0.19438352984E+03  0.33760719985E+03  0.00000000000E+00 0. -1.
        -11    1    5    5    0    0 -0.17758850336E+03 -0.66629637484E+02  0.21480526391E+03  0.28656323302E+03  0.00000000000E+00 0.  1.
          1    1    6    6  503    0  0.21763887936E+03 -0.20996160850E+03 -0.18720250123E+03  0.35566182719E+03  0.00000000000E+00 0. -1.
         -1    1    6    6    0  503  0.18890301694E+02 -0.17843947607E+02  0.92039453772E+01  0.27567418718E+02  0.00000000000E+00 0.  1.
<mgrwt>
<rscale>  0 0.14588499E+04</rscale>
<asrwt>0</asrwt>
<pdfrwt beam="1">  1        1 0.71612703E-01 0.14588499E+04</pdfrwt>
<pdfrwt beam="2">  1       -1 0.17585085E+00 0.14588499E+04</pdfrwt>
<totfact> 0.10581676E+01</totfact>
</mgrwt>
</event>
<event>
12    2  0.3552864E-008  0.1593966E+04  0.7818608E-02  0.8824264E-01
          1   -1    0    0  501    0  0.00000000000E+00  0.00000000000E+00  0.18172406318E+04  0.18172406318E+04  0.00000000000E+00 0. -1.
         -1   -1    0    0    0  501 -0.00000000000E+00 -0.00000000000E+00 -0.34953077302E+03  0.34953077302E+03  0.00000000000E+00 0.  1.
         23    2    1    2    0    0  0.49957411608E+03 -0.42708276412E+02  0.22663991990E+03  0.55759931676E+03  0.90294243595E+02 0.  0.
        254    2    1    2    0    0 -0.49957411608E+03  0.42708276412E+02  0.12410699389E+04  0.16091720880E+04  0.89318638673E+03 0.  0.
         23    2    4    4    0    0 -0.98767565870E+02  0.90468826620E+02 -0.11028735991E+03  0.19582431938E+03  0.90797696271E+02 0.  0.
         23    2    4    4    0    0 -0.40080655021E+03 -0.47760550208E+02  0.13513572988E+04  0.14133477687E+04  0.91969589497E+02 0.  0.
          1    1    3    3  502    0  0.62548032570E+02  0.13669483822E+00  0.63556952119E+02  0.89172648422E+02  0.00000000000E+00 0. -1.
         -1    1    3    3    0  502  0.43702608351E+03 -0.42844971250E+02  0.16308296778E+03  0.46842666834E+03  0.00000000000E+00 0.  1.
         11    1    5    5    0    0 -0.44813482816E+02  0.44175174826E+02 -0.10763839845E+03  0.12468247325E+03  0.00000000000E+00 0. -1.
        -11    1    5    5    0    0 -0.53954083054E+02  0.46293651794E+02 -0.26489614513E+01  0.71141846135E+02  0.00000000000E+00 0.  1.
          3    1    6    6  503    0 -0.36622000266E+03 -0.53796261693E+02  0.11261937929E+04  0.11854634483E+04  0.00000000000E+00 0. -1.
         -3    1    6    6    0  503 -0.34586547548E+02  0.60357114850E+01  0.22516350586E+03  0.22788432034E+03  0.00000000000E+00 0.  1.
<mgrwt>
<rscale>  0 0.15939655E+04</rscale>
<asrwt>0</asrwt>
<pdfrwt beam="1">  1        1 0.27957548E+00 0.15939655E+04</pdfrwt>
<pdfrwt beam="2">  1       -1 0.53773966E-01 0.15939655E+04</pdfrwt>
<totfact> 0.13289454E+01</totfact>
</mgrwt>
</event>
<event>
12    2  0.3552864E-008  0.1079097E+04  0.7818608E-02  0.9225809E-01
         -1   -1    0    0    0  501 -0.00000000000E+00  0.00000000000E+00  0.21384896392E+03  0.21384896392E+03  0.00000000000E+00 0.  1.
          1   -1    0    0  501    0  0.00000000000E+00 -0.00000000000E+00 -0.13612987160E+04  0.13612987160E+04  0.00000000000E+00 0. -1.
         23    2    1    2    0    0  0.14271130170E+03 -0.11129494885E+02 -0.40451931818E+03  0.43852083278E+03  0.90411618266E+02 0.  0.
        254    2    1    2    0    0 -0.14271130170E+03  0.11129494885E+02 -0.74293043390E+03  0.11366268471E+04  0.84822436815E+03 0.  0.
         23    2    4    4    0    0  0.15501412500E+03  0.34593153239E+03 -0.43590417451E+03  0.58487065501E+03  0.91450695368E+02 0.  0.
         23    2    4    4    0    0 -0.29772542670E+03 -0.33480203751E+03 -0.30702625938E+03  0.55175619212E+03  0.97143901326E+02 0.  0.
          4    1    3    3  502    0  0.98716475381E+02  0.35187090664E+02 -0.23269416155E+03  0.25520510708E+03  0.00000000000E+00 0. -1.
         -4    1    3    3    0  502  0.43994826320E+02 -0.46316585549E+02 -0.17182515663E+03  0.18331572571E+03  0.00000000000E+00 0.  1.
         11    1    5    5    0    0 -0.11086606385E+02  0.95740297472E+01 -0.19823062489E+02  0.24648097151E+02  0.00000000000E+00 0. -1.
        -11    1    5    5    0    0  0.16610073139E+03  0.33635750265E+03 -0.41608111203E+03  0.56022255786E+03  0.00000000000E+00 0.  1.
          3    1    6    6  503    0 -0.89326593344E+02 -0.95329998205E+02 -0.14559532418E+03  0.19561453744E+03  0.00000000000E+00 0. -1.
         -3    1    6    6    0  503 -0.20839883336E+03 -0.23947203931E+03 -0.16143093520E+03  0.35614165467E+03  0.00000000000E+00 0.  1.
<mgrwt>
<rscale>  0 0.10790965E+04</rscale>
<asrwt>0</asrwt>
<pdfrwt beam="1">  1        1 0.20943058E+00 0.10790965E+04</pdfrwt>
<pdfrwt beam="2">  1       -1 0.32899840E-01 0.10790965E+04</pdfrwt>
<totfact> 0.70710763E+01</totfact>
</mgrwt>
</event>
<event>
12    2  0.3552864E-008  0.1335428E+04  0.7818608E-02  0.9001933E-01
         -1   -1    0    0    0  501 -0.00000000000E+00  0.00000000000E+00  0.79490988240E+03  0.79490988240E+03  0.00000000000E+00 0.  1.
          1   -1    0    0  501    0  0.00000000000E+00 -0.00000000000E+00 -0.56087129930E+03  0.56087129930E+03  0.00000000000E+00 0. -1.
         23    2    1    2    0    0  0.29936403432E+03 -0.15323116210E+03  0.12645417776E+03  0.37104539394E+03  0.92657494072E+02 0.  0.
        254    2    1    2    0    0 -0.29936403432E+03  0.15323116210E+03  0.10758440535E+03  0.98473578777E+03  0.91925597815E+03 0.  0.
         23    2    4    4    0    0  0.99194054598E+02  0.10949152702E+03  0.42910953854E+03  0.46256712534E+03  0.89473428611E+02 0.  0.
         23    2    4    4    0    0 -0.39855808892E+03  0.43739635080E+02 -0.32152513319E+03  0.52216866243E+03  0.92303818066E+02 0.  0.
          2    1    3    3  502    0  0.29368305750E+03 -0.16268371289E+03  0.11435151627E+03  0.35467167631E+03  0.00000000000E+00 0. -1.
         -2    1    3    3    0  502  0.56809768197E+01  0.94525507871E+01  0.12102661485E+02  0.16373717630E+02  0.00000000000E+00 0.  1.
         11    1    5    5    0    0  0.14434766600E+02  0.73691584280E+02  0.25246921254E+03  0.26339991526E+03  0.00000000000E+00 0.  1.
        -11    1    5    5    0    0  0.84759287998E+02  0.35799942739E+02  0.17664032600E+03  0.19916721008E+03  0.00000000000E+00 0. -1.
          2    1    6    6  503    0 -0.28250131278E+03  0.62671180179E+02 -0.19224329524E+03  0.34740776202E+03  0.00000000000E+00 0. -1.
         -2    1    6    6    0  503 -0.11605677614E+03 -0.18931545099E+02 -0.12928183795E+03  0.17476090040E+03  0.00000000000E+00 0.  1.
<mgrwt>
<rscale>  0 0.13354282E+04</rscale>
<asrwt>0</asrwt>
<pdfrwt beam="1">  1        1 0.86287892E-01 0.13354282E+04</pdfrwt>
<pdfrwt beam="2">  1       -1 0.12229383E+00 0.13354282E+04</pdfrwt>
<totfact> 0.21852784E+01</totfact>
</mgrwt>
</event>
<event>
12    2  0.3552864E-008  0.1078353E+04  0.7818608E-02  0.9226551E-01
          2   -1    0    0  501    0  0.00000000000E+00  0.00000000000E+00  0.23078135970E+04  0.23078135970E+04  0.00000000000E+00 0. -1.
         -2   -1    0    0    0  501 -0.00000000000E+00 -0.00000000000E+00 -0.12596836930E+03  0.12596836930E+03  0.00000000000E+00 0.  1.
         23    2    1    2    0    0  0.73076434577E+02 -0.69907562498E+02  0.55438388714E+03  0.57068828467E+03  0.90091017078E+02 0.  0.
        254    2    1    2    0    0 -0.73076434577E+02  0.69907562498E+02  0.16274613406E+04  0.18630936816E+04  0.90125491339E+03 0.  0.
         23    2    4    4    0    0  0.34505135993E+03  0.18123655520E+03  0.11247475939E+04  0.11936303442E+04  0.88255983661E+02 0.  0.
         23    2    4    4    0    0 -0.41812779450E+03 -0.11132899270E+03  0.50271374667E+03  0.66946333744E+03  0.90747186977E+02 0.  0.
          3    1    3    3  502    0  0.28015898022E+02 -0.79943618660E+02  0.42383193026E+03  0.43221450440E+03  0.00000000000E+00 0. -1.
         -3    1    3    3    0  502  0.45060536554E+02  0.10036056162E+02  0.13055195688E+03  0.13847378027E+03  0.00000000000E+00 0.  1.
         11    1    5    5    0    0  0.29424318390E+02 -0.26563691578E+01  0.14548862710E+03  0.14845803254E+03  0.00000000000E+00 0.  1.
        -11    1    5    5    0    0  0.31562704154E+03  0.18389292435E+03  0.97925896679E+03  0.10451723116E+04  0.00000000000E+00 0. -1.
          4    1    6    6  503    0 -0.34008065207E+03 -0.12524869392E+03  0.40099460677E+03  0.54049862156E+03  0.00000000000E+00 0. -1.
         -4    1    6    6    0  503 -0.78047142429E+02  0.13919701222E+02  0.10171913989E+03  0.12896471589E+03  0.00000000000E+00 0.  1.
<mgrwt>
<rscale>  0 0.10783534E+04</rscale>
<asrwt>0</asrwt>
<pdfrwt beam="1">  1        2 0.35504822E+00 0.10783534E+04</pdfrwt>
<pdfrwt beam="2">  1       -2 0.19379751E-01 0.10783534E+04</pdfrwt>
<totfact> 0.10141613E+02</totfact>
</mgrwt>
</event>
<event>
12    2  0.3552864E-008  0.1119560E+04  0.7818608E-02  0.9186335E-01
          1   -1    0    0  501    0  0.00000000000E+00  0.00000000000E+00  0.30037896651E+03  0.30037896651E+03  0.00000000000E+00 0. -1.
         -1   -1    0    0    0  501 -0.00000000000E+00 -0.00000000000E+00 -0.10431936654E+04  0.10431936654E+04  0.00000000000E+00 0.  1.
         23    2    1    2    0    0  0.11111556490E+03 -0.29787838759E+01  0.38326775409E+02  0.14800835055E+03  0.89899878769E+02 0.  0.
        254    2    1    2    0    0 -0.11111556490E+03  0.29787838759E+01 -0.78114147429E+03  0.11955642813E+04  0.89824072835E+03 0.  0.
         23    2    4    4    0    0 -0.36463984561E+03 -0.25703818224E+03 -0.66084707666E+03  0.80252002975E+03  0.91042271934E+02 0.  0.
         23    2    4    4    0    0  0.25352428071E+03  0.26001696612E+03 -0.12029439763E+03  0.39304425160E+03  0.90164616303E+02 0.  0.
          3    1    3    3  502    0  0.12228619004E+03  0.10800242510E+02  0.23726122763E+02  0.12503394105E+03  0.00000000000E+00 0. -1.
         -3    1    3    3    0  502 -0.11170625141E+02 -0.13779026386E+02  0.14600652646E+02  0.22974409500E+02  0.00000000000E+00 0.  1.
         11    1    5    5    0    0 -0.21488365185E+03 -0.11671402810E+03 -0.29630282632E+03  0.38417771028E+03  0.00000000000E+00 0. -1.
        -11    1    5    5    0    0 -0.14975619376E+03 -0.14032415414E+03 -0.36454425034E+03  0.41834231948E+03  0.00000000000E+00 0.  1.
          1    1    6    6  503    0  0.26023271556E+03  0.25911471262E+03 -0.11969406540E+03  0.38624884445E+03  0.00000000000E+00 0. -1.
         -1    1    6    6    0  503 -0.67084348527E+01  0.90225350415E+00 -0.60033222154E+00  0.67954071501E+01  0.00000000000E+00 0.  1.
<mgrwt>
<rscale>  0 0.11195596E+04</rscale>
<asrwt>0</asrwt>
<pdfrwt beam="1">  1        1 0.46212149E-01 0.11195596E+04</pdfrwt>
<pdfrwt beam="2">  1       -1 0.16049133E+00 0.11195596E+04</pdfrwt>
<totfact> 0.25241900E+01</totfact>
</mgrwt>
</event>
<event>
12    2  0.3552864E-008  0.1787078E+04  0.7818608E-02  0.8713202E-01
         -1   -1    0    0    0  501 -0.00000000000E+00  0.00000000000E+00  0.56345673011E+03  0.56345673011E+03  0.00000000000E+00 0.  1.
          1   -1    0    0  501    0  0.00000000000E+00 -0.00000000000E+00 -0.14169888543E+04  0.14169888543E+04  0.00000000000E+00 0. -1.
         23    2    1    2    0    0 -0.51003643642E+03 -0.84135056693E+01 -0.78745192551E+03  0.94246909757E+03  0.89216093414E+02 0.  0.
        254    2    1    2    0    0  0.51003643642E+03  0.84135056693E+01 -0.66080198643E+02  0.10379764868E+04  0.90156566091E+03 0.  0.
         23    2    4    4    0    0  0.37860336092E+03  0.29048265545E+03 -0.35635662147E+03  0.60248398171E+03  0.90973779360E+02 0.  0.
         23    2    4    4    0    0  0.13143307550E+03 -0.28206914978E+03  0.29027642282E+03  0.43549250509E+03  0.92496820215E+02 0.  0.
          3    1    3    3  502    0 -0.30288944133E+03 -0.52122065170E+01 -0.38566250081E+03  0.49041283150E+03  0.00000000000E+00 0. -1.
         -3    1    3    3    0  502 -0.20714699509E+03 -0.32012991523E+01 -0.40178942470E+03  0.45205626607E+03  0.00000000000E+00 0.  1.
         11    1    5    5    0    0  0.16853707716E+03  0.12986583555E+03 -0.10347288812E+03  0.23659357598E+03  0.00000000000E+00 0.  1.
        -11    1    5    5    0    0  0.21006628376E+03  0.16061681990E+03 -0.25288373335E+03  0.36589040572E+03  0.00000000000E+00 0. -1.
          4    1    6    6  503    0  0.90761487650E+02 -0.90209051559E+02  0.12714726435E+03  0.18039331322E+03  0.00000000000E+00 0. -1.
         -4    1    6    6    0  503  0.40671587853E+02 -0.19186009822E+03  0.16312915847E+03  0.25509919187E+03  0.00000000000E+00 0.  1.
<mgrwt>
<rscale>  0 0.17870780E+04</rscale>
<asrwt>0</asrwt>
<pdfrwt beam="1">  1        1 0.21799828E+00 0.17870780E+04</pdfrwt>
<pdfrwt beam="2">  1       -1 0.86685652E-01 0.17870780E+04</pdfrwt>
<totfact> 0.92621424E+00</totfact>
</mgrwt>
</event>
<event>
12    2  0.3552864E-008  0.1351245E+04  0.7818608E-02  0.8989886E-01
          1   -1    0    0  501    0  0.00000000000E+00  0.00000000000E+00  0.30894324659E+03  0.30894324659E+03  0.00000000000E+00 0. -1.
         -1   -1    0    0    0  501 -0.00000000000E+00 -0.00000000000E+00 -0.14775071929E+04  0.14775071929E+04  0.00000000000E+00 0.  1.
         23    2    1    2    0    0 -0.10419264788E+03  0.34260271178E+03 -0.45651216067E+03  0.58755255692E+03  0.92638697691E+02 0.  0.
        254    2    1    2    0    0  0.10419264788E+03 -0.34260271178E+03 -0.71205178563E+03  0.11988978826E+04  0.89560351799E+03 0.  0.
         23    2    4    4    0    0 -0.37180442886E+03 -0.70752395399E+02 -0.41595843102E+03  0.56951996125E+03  0.89928500188E+02 0.  0.
         23    2    4    4    0    0  0.47599707674E+03 -0.27185031638E+03 -0.29609335461E+03  0.62937792133E+03  0.89271953174E+02 0.  0.
          1    1    3    3  502    0 -0.91951526153E+02  0.30877504269E+03 -0.35276330657E+03  0.47774371855E+03  0.00000000000E+00 0. -1.
         -1    1    3    3    0  502 -0.12241121725E+02  0.33827669092E+02 -0.10374885410E+03  0.10980883837E+03  0.00000000000E+00 0.  1.
         11    1    5    5    0    0 -0.23556668158E+03 -0.87576404499E+02 -0.28156168017E+03  0.37740994666E+03  0.00000000000E+00 0. -1.
        -11    1    5    5    0    0 -0.13623774728E+03  0.16824009100E+02 -0.13439675085E+03  0.19211001459E+03  0.00000000000E+00 0.  1.
          4    1    6    6  503    0  0.39215742866E+03 -0.18239460103E+03 -0.22236700584E+03  0.48631504668E+03  0.00000000000E+00 0. -1.
         -4    1    6    6    0  503  0.83839648080E+02 -0.89455715351E+02 -0.73726348767E+02  0.14306287465E+03  0.00000000000E+00 0.  1.
<mgrwt>
<rscale>  0 0.13512452E+04</rscale>
<asrwt>0</asrwt>
<pdfrwt beam="1">  1        1 0.47529731E-01 0.13512452E+04</pdfrwt>
<pdfrwt beam="2">  1       -1 0.22730880E+00 0.13512452E+04</pdfrwt>
<totfact> 0.81259382E+00</totfact>
</mgrwt>
</event>
<event>
12    2  0.3552864E-008  0.1395836E+04  0.7818608E-02  0.8956838E-01
         -2   -1    0    0    0  501 -0.00000000000E+00  0.00000000000E+00  0.35833893553E+03  0.35833893553E+03  0.00000000000E+00 0.  1.
          2   -1    0    0  501    0  0.00000000000E+00 -0.00000000000E+00 -0.13592979865E+04  0.13592979865E+04  0.00000000000E+00 0. -1.
         23    2    1    2    0    0  0.34059603439E+03 -0.13320647200E+03 -0.44777881907E+03  0.58514342720E+03  0.90207188005E+02 0.  0.
        254    2    1    2    0    0 -0.34059603439E+03  0.13320647200E+03 -0.55318023189E+03  0.11324934948E+04  0.91803241991E+03 0.  0.
         23    2    4    4    0    0 -0.57053077405E+02  0.28298177238E+03  0.16186994463E+03  0.34336831447E+03  0.91466842415E+02 0.  0.
         23    2    4    4    0    0 -0.28354295699E+03 -0.14977530038E+03 -0.71505017652E+03  0.78912518034E+03  0.92695988318E+02 0.  0.
          1    1    3    3  502    0  0.28952155187E+03 -0.14002559422E+03 -0.35498812194E+03  0.47900570221E+03  0.00000000000E+00 0. -1.
         -1    1    3    3    0  502  0.51074482519E+02  0.68191222188E+01 -0.92790697131E+02  0.10613772499E+03  0.00000000000E+00 0.  1.
         11    1    5    5    0    0  0.12355740802E+00  0.18924919151E+03  0.75826429526E+02  0.20387476344E+03  0.00000000000E+00 0.  1.
        -11    1    5    5    0    0 -0.57176634813E+02  0.93732580875E+02  0.86043515107E+02  0.13949355103E+03  0.00000000000E+00 0. -1.
          4    1    6    6  503    0 -0.55919475643E+02  0.39622634262E+01 -0.16580894344E+03  0.17502940613E+03  0.00000000000E+00 0. -1.
         -4    1    6    6    0  503 -0.22762348134E+03 -0.15373756381E+03 -0.54924123308E+03  0.61409577421E+03  0.00000000000E+00 0.  1.
<mgrwt>
<rscale>  0 0.13958358E+04</rscale>
<asrwt>0</asrwt>
<pdfrwt beam="1">  1        2 0.20912277E+00 0.13958358E+04</pdfrwt>
<pdfrwt beam="2">  1       -2 0.55129067E-01 0.13958358E+04</pdfrwt>
<totfact> 0.45994150E+01</totfact>
</mgrwt>
</event>
<event>
12    2  0.3552864E-008  0.1424404E+04  0.7818608E-02  0.8936340E-01
          3   -1    0    0  501    0  0.00000000000E+00  0.00000000000E+00  0.13231560069E+04  0.13231560069E+04  0.00000000000E+00 0. -1.
         -3   -1    0    0    0  501 -0.00000000000E+00 -0.00000000000E+00 -0.38335007770E+03  0.38335007770E+03  0.00000000000E+00 0.  1.
         23    2    1    2    0    0  0.26574924203E+03 -0.13690358338E+03  0.63306435194E+03  0.70591078995E+03  0.90411940022E+02 0.  0.
        254    2    1    2    0    0 -0.26574924203E+03  0.13690358338E+03  0.30674157722E+03  0.10005952946E+04  0.90428717652E+03 0.  0.
         23    2    4    4    0    0  0.14751925703E+03 -0.39037153988E+02  0.47932489915E+03  0.51065135608E+03  0.87901182789E+02 0.  0.
         23    2    4    4    0    0 -0.41326849905E+03  0.17594073737E+03 -0.17258332193E+03  0.48994393853E+03  0.92271688605E+02 0.  0.
          1    1    3    3  502    0  0.24235148411E+03 -0.14786199627E+03  0.55041921508E+03  0.61932118010E+03  0.00000000000E+00 0. -1.
         -1    1    3    3    0  502  0.23397757919E+02  0.10958412886E+02  0.82645136860E+02  0.86589609858E+02  0.00000000000E+00 0.  1.
         11    1    5    5    0    0 -0.46247918310E+01  0.31491777411E+01  0.94935890138E+02  0.95100627003E+02  0.00000000000E+00 0.  1.
        -11    1    5    5    0    0  0.15214404886E+03 -0.42186331729E+02  0.38438900901E+03  0.41555072908E+03  0.00000000000E+00 0. -1.
          4    1    6    6  503    0 -0.20516881270E+03  0.12861121034E+03 -0.11949370176E+03  0.27002560969E+03  0.00000000000E+00 0. -1.
         -4    1    6    6    0  503 -0.20809968635E+03  0.47329527031E+02 -0.53089620169E+02  0.21991832884E+03  0.00000000000E+00 0.  1.
<mgrwt>
<rscale>  0 0.14244044E+04</rscale>
<asrwt>0</asrwt>
<pdfrwt beam="1">  1        3 0.20356246E+00 0.14244044E+04</pdfrwt>
<pdfrwt beam="2">  1       -3 0.58976936E-01 0.14244044E+04</pdfrwt>
<totfact> 0.10034316E+00</totfact>
</mgrwt>
</event>
<event>
12    2  0.3552864E-008  0.1733514E+04  0.7818608E-02  0.8742478E-01
          2   -1    0    0  501    0  0.00000000000E+00  0.00000000000E+00  0.10449983872E+04  0.10449983872E+04  0.00000000000E+00 0. -1.
         -2   -1    0    0    0  501 -0.00000000000E+00 -0.00000000000E+00 -0.71891727237E+03  0.71891727237E+03  0.00000000000E+00 0.  1.
         23    2    1    2    0    0 -0.17255670034E+03 -0.56668733361E+03 -0.82295654125E+02  0.60514871804E+03  0.92314935712E+02 0.  0.
        254    2    1    2    0    0  0.17255670034E+03  0.56668733361E+03  0.40837676894E+03  0.11587669415E+04  0.90832752377E+03 0.  0.
         23    2    4    4    0    0 -0.17268826147E+03 -0.68301732109E+02 -0.13714408075E+03  0.24752460475E+03  0.89294842018E+02 0.  0.
         23    2    4    4    0    0  0.34524496181E+03  0.63498906572E+03  0.54552084969E+03  0.91124233677E+03  0.10180570537E+03 0.  0.
          4    1    3    3  502    0 -0.80901887545E+02 -0.34328284904E+03 -0.90264826733E+01  0.35280264631E+03  0.00000000000E+00 0. -1.
         -4    1    3    3    0  502 -0.91654812790E+02 -0.22340448457E+03 -0.73269171452E+02  0.25234607173E+03  0.00000000000E+00 0.  1.
         11    1    5    5    0    0 -0.52242001498E+02 -0.62524428063E+02 -0.79625077710E+02  0.11392402655E+03  0.00000000000E+00 0.  1.
        -11    1    5    5    0    0 -0.12044625997E+03 -0.57773040455E+01 -0.57519003042E+02  0.13360057820E+03  0.00000000000E+00 0. -1.
          3    1    6    6  503    0  0.30641444576E+03  0.50022560858E+03  0.47179232783E+03  0.75279709926E+03  0.00000000000E+00 0. -1.
         -3    1    6    6    0  503  0.38830516051E+02  0.13476345713E+03  0.73728521854E+02  0.15844523751E+03  0.00000000000E+00 0.  1.
<mgrwt>
<rscale>  0 0.17335136E+04</rscale>
<asrwt>0</asrwt>
<pdfrwt beam="1">  1        2 0.16076898E+00 0.17335136E+04</pdfrwt>
<pdfrwt beam="2">  1       -2 0.11060266E+00 0.17335136E+04</pdfrwt>
<totfact> 0.14511095E+01</totfact>
</mgrwt>
</event>
<event>
12    2  0.3552864E-008  0.1347147E+04  0.7818608E-02  0.8992990E-01
         -1   -1    0    0    0  501 -0.00000000000E+00  0.00000000000E+00  0.37121601586E+03  0.37121601586E+03  0.00000000000E+00 0.  1.
          1   -1    0    0  501    0  0.00000000000E+00 -0.00000000000E+00 -0.12222031292E+04  0.12222031292E+04  0.00000000000E+00 0. -1.
         23    2    1    2    0    0 -0.46314740489E+03 -0.87262183146E+02 -0.23646360757E+03  0.53580135926E+03  0.95120195586E+02 0.  0.
        254    2    1    2    0    0  0.46314740489E+03  0.87262183146E+02 -0.61452350576E+03  0.10576177858E+04  0.72027497139E+03 0.  0.
         23    2    4    4    0    0  0.56059797457E+03  0.22978641446E+03 -0.60571430681E+03  0.86134538923E+03  0.89186168883E+02 0.  0.
         23    2    4    4    0    0 -0.97450569673E+02 -0.14252423132E+03 -0.88091989561E+01  0.19627239656E+03  0.92927292133E+02 0.  0.
          3    1    3    3  502    0 -0.11963164092E+03 -0.49436495703E+02 -0.28774726237E+02  0.13260347464E+03  0.00000000000E+00 0. -1.
         -3    1    3    3    0  502 -0.34351576398E+03 -0.37825687443E+02 -0.20768888134E+03  0.40319788462E+03  0.00000000000E+00 0.  1.
         11    1    5    5    0    0  0.58444669218E+02  0.50343018060E+02 -0.54795374853E+02  0.94618877253E+02  0.00000000000E+00 0.  1.
        -11    1    5    5    0    0  0.50215330535E+03  0.17944339640E+03 -0.55091893196E+03  0.76672651198E+03  0.00000000000E+00 0. -1.
          1    1    6    6  503    0 -0.82799200121E+02 -0.15570496967E+03 -0.71766170703E+01  0.17649716415E+03  0.00000000000E+00 0. -1.
         -1    1    6    6    0  503 -0.14651369552E+02  0.13180738353E+02 -0.16325818858E+01  0.19775232410E+02  0.00000000000E+00 0.  1.
<mgrwt>
<rscale>  0 0.13471472E+04</rscale>
<asrwt>0</asrwt>
<pdfrwt beam="1">  1        1 0.18803126E+00 0.13471472E+04</pdfrwt>
<pdfrwt beam="2">  1       -1 0.57110154E-01 0.13471472E+04</pdfrwt>
<totfact> 0.31284699E+01</totfact>
</mgrwt>
</event>
<event>
12    2  0.3552864E-008  0.1705181E+04  0.7818608E-02  0.8758415E-01
         -1   -1    0    0    0  501 -0.00000000000E+00  0.00000000000E+00  0.12109266225E+04  0.12109266225E+04  0.00000000000E+00 0.  1.
          1   -1    0    0  501    0  0.00000000000E+00 -0.00000000000E+00 -0.60029269244E+03  0.60029269244E+03  0.00000000000E+00 0. -1.
         23    2    1    2    0    0 -0.38126453374E+03  0.27194751864E+03  0.63836699245E+03  0.79707663040E+03  0.92198915924E+02 0.  0.
        254    2    1    2    0    0  0.38126453374E+03 -0.27194751864E+03 -0.27733062376E+02  0.10141426845E+04  0.89910965087E+03 0.  0.
         23    2    4    4    0    0  0.18785594064E+02 -0.83863634100E+02  0.39811732619E+03  0.41721279932E+03  0.90460526403E+02 0.  0.
         23    2    4    4    0    0  0.36247893967E+03 -0.18808388454E+03 -0.42585038856E+03  0.59692988523E+03  0.90610182166E+02 0.  0.
          2    1    3    3  502    0 -0.80029998805E+02  0.18292073011E+02  0.13447608545E+03  0.15755385810E+03  0.00000000000E+00 0. -1.
         -2    1    3    3    0  502 -0.30123453493E+03  0.25365544563E+03  0.50389090700E+03  0.63952277230E+03  0.00000000000E+00 0.  1.
         11    1    5    5    0    0 -0.10558450830E+02 -0.59874754815E+02  0.10249623703E+03  0.11917191680E+03  0.00000000000E+00 0.  1.
        -11    1    5    5    0    0  0.29344044894E+02 -0.23988879286E+02  0.29562108915E+03  0.29804088252E+03  0.00000000000E+00 0. -1.
          3    1    6    6  503    0  0.30284505710E+03 -0.18607061223E+03 -0.38836416130E+03  0.52646379090E+03  0.00000000000E+00 0. -1.
         -3    1    6    6    0  503  0.59633882569E+02 -0.20132723116E+01 -0.37486227261E+02  0.70466094328E+02  0.00000000000E+00 0.  1.
<mgrwt>
<rscale>  0 0.17051808E+04</rscale>
<asrwt>0</asrwt>
<pdfrwt beam="1">  1        1 0.92352722E-01 0.17051808E+04</pdfrwt>
<pdfrwt beam="2">  1       -1 0.18629640E+00 0.17051808E+04</pdfrwt>
<totfact> 0.61080308E+00</totfact>
</mgrwt>
</event>
<event>
12    2  0.3552864E-008  0.2147598E+04  0.7818608E-02  0.8540561E-01
          2   -1    0    0  501    0  0.00000000000E+00  0.00000000000E+00  0.15182402824E+04  0.15182402824E+04  0.00000000000E+00 0.  1.
         -2   -1    0    0    0  501 -0.00000000000E+00 -0.00000000000E+00 -0.75946122442E+03  0.75946122442E+03  0.00000000000E+00 0. -1.
         23    2    1    2    0    0 -0.62013905617E+03  0.16283875828E+03 -0.32856804712E+03  0.72603824069E+03  0.89920271198E+02 0.  0.
        254    2    1    2    0    0  0.62013905617E+03 -0.16283875828E+03  0.10873471051E+04  0.15516632661E+04  0.90235594658E+03 0.  0.
         23    2    4    4    0    0 -0.31483377499E+02  0.12527599722E+03  0.73179451911E+03  0.75022328361E+03  0.10308481231E+03 0.  0.
         23    2    4    4    0    0  0.65162243367E+03 -0.28811475550E+03  0.35555258599E+03  0.80143998253E+03  0.90920271664E+02 0.  0.
          1    1    3    3  502    0 -0.48693668729E+03  0.14327030188E+03 -0.29578883920E+03  0.58747319448E+03  0.00000000000E+00 0. -1.
         -1    1    3    3    0  502 -0.13320236888E+03  0.19568456400E+02 -0.32779207914E+02  0.13856504621E+03  0.00000000000E+00 0.  1.
         11    1    5    5    0    0  0.32125855081E+02  0.78039528889E+02  0.32453983130E+03  0.33533317870E+03  0.00000000000E+00 0. -1.
        -11    1    5    5    0    0 -0.63609232579E+02  0.47236468327E+02  0.40725468781E+03  0.41489010491E+03  0.00000000000E+00 0.  1.
          2    1    6    6  503    0  0.35755453474E+02 -0.16723452879E+01  0.36129544454E+02  0.50858560482E+02  0.00000000000E+00 0. -1.
         -2    1    6    6    0  503  0.61586698019E+03 -0.28644241021E+03  0.31942304154E+03  0.75058142205E+03  0.00000000000E+00 0.  1.
<mgrwt>
<rscale>  0 0.21475983E+04</rscale>
<asrwt>0</asrwt>
<pdfrwt beam="1">  1        2 0.23357543E+00 0.21475983E+04</pdfrwt>
<pdfrwt beam="2">  1       -2 0.11684019E+00 0.21475983E+04</pdfrwt>
<totfact> 0.64551877E+00</totfact>
</mgrwt>
</event>
<event>
12    2  0.3552864E-008  0.2150569E+04  0.7818608E-02  0.8539289E-01
         -1   -1    0    0    0  501 -0.00000000000E+00  0.00000000000E+00  0.35918356669E+03  0.35918356669E+03  0.00000000000E+00 0.  1.
          1   -1    0    0  501    0  0.00000000000E+00 -0.00000000000E+00 -0.32190684642E+04  0.32190684642E+04  0.00000000000E+00 0. -1.
         23    2    1    2    0    0 -0.20774643048E+03  0.36079708504E+02 -0.26063574172E+04  0.26165193552E+04  0.92812849868E+02 0.  0.
        254    2    1    2    0    0  0.20774643048E+03 -0.36079708504E+02 -0.25352748028E+03  0.96173267568E+03  0.90343413234E+03 0.  0.
         23    2    4    4    0    0 -0.26652143744E+03  0.16615076911E+03 -0.29107216772E+03  0.43774072426E+03  0.90852518743E+02 0.  0.
         23    2    4    4    0    0  0.47426786792E+03 -0.20223047762E+03  0.37544687440E+02  0.52399195142E+03  0.85620003427E+02 0.  0.
          3    1    3    3  502    0 -0.17378261798E+03  0.40312116173E+02 -0.24486841532E+04  0.24551740360E+04  0.00000000000E+00 0. -1.
         -3    1    3    3    0  502 -0.33963812504E+02 -0.42324076682E+01 -0.15767326403E+03  0.16134531919E+03  0.00000000000E+00 0.  1.
         11    1    5    5    0    0 -0.15263313475E+02 -0.10245863956E+02 -0.27736598840E+02  0.33275597390E+02  0.00000000000E+00 0.  1.
        -11    1    5    5    0    0 -0.25125812396E+03  0.17639663307E+03 -0.26333556888E+03  0.40446512687E+03  0.00000000000E+00 0. -1.
          2    1    6    6  503    0  0.15589535370E+03 -0.99434818765E+02  0.41086141342E+02  0.18941677724E+03  0.00000000000E+00 0. -1.
         -2    1    6    6    0  503  0.31837251421E+03 -0.10279565885E+03 -0.35414539024E+01  0.33457517418E+03  0.00000000000E+00 0.  1.
<mgrwt>
<rscale>  0 0.21505688E+04</rscale>
<asrwt>0</asrwt>
<pdfrwt beam="1">  1        1 0.49524132E+00 0.21505688E+04</pdfrwt>
<pdfrwt beam="2">  1       -1 0.55259009E-01 0.21505688E+04</pdfrwt>
<totfact> 0.12490973E+00</totfact>
</mgrwt>
</event>
<event>
12    2  0.3552864E-008  0.2011414E+04  0.7818608E-02  0.8601303E-01
         -1   -1    0    0    0  501 -0.00000000000E+00  0.00000000000E+00  0.58839675371E+03  0.58839675371E+03  0.00000000000E+00 0.  1.
          1   -1    0    0  501    0  0.00000000000E+00 -0.00000000000E+00 -0.17189877112E+04  0.17189877112E+04  0.00000000000E+00 0. -1.
         23    2    1    2    0    0 -0.50566783013E+03  0.45069845770E+03  0.31239904486E+02  0.68411182970E+03  0.90575988619E+02 0.  0.
        254    2    1    2    0    0  0.50566783013E+03 -0.45069845770E+03 -0.11618308620E+04  0.16232726353E+04  0.90902917568E+03 0.  0.
         23    2    4    4    0    0  0.75562661547E+03 -0.41135431291E+03 -0.88889261599E+03  0.12403469891E+04  0.90258616664E+02 0.  0.
         23    2    4    4    0    0 -0.24995878534E+03 -0.39344144787E+02 -0.27293824604E+03  0.38292564615E+03  0.90052252786E+02 0.  0.
          4    1    3    3  502    0 -0.20783193830E+03  0.14283794550E+03 -0.18612325718E+02  0.25286995061E+03  0.00000000000E+00 0. -1.
         -4    1    3    3    0  502 -0.29783589182E+03  0.30786051219E+03  0.49852230204E+02  0.43124187909E+03  0.00000000000E+00 0.  1.
         11    1    5    5    0    0  0.29104115113E+03 -0.20278683689E+03 -0.39570248851E+03  0.53142065474E+03  0.00000000000E+00 0. -1.
        -11    1    5    5    0    0  0.46458546434E+03 -0.20856747602E+03 -0.49319012748E+03  0.70892633437E+03  0.00000000000E+00 0.  1.
          4    1    6    6  503    0 -0.11041132075E+03 -0.19449601434E+01 -0.60208509902E+02  0.12577562278E+03  0.00000000000E+00 0. -1.
         -4    1    6    6    0  503 -0.13954746459E+03 -0.37399184643E+02 -0.21272973613E+03  0.25715002337E+03  0.00000000000E+00 0.  1.
<mgrwt>
<rscale>  0 0.20114142E+04</rscale>
<asrwt>0</asrwt>
<pdfrwt beam="1">  1        1 0.26445965E+00 0.20114142E+04</pdfrwt>
<pdfrwt beam="2">  1       -1 0.90522577E-01 0.20114142E+04</pdfrwt>
<totfact> 0.51119910E+00</totfact>
</mgrwt>
</event>
<event>
12    2  0.3552864E-008  0.1671953E+04  0.7818608E-02  0.8777524E-01
         -2   -1    0    0    0  501 -0.00000000000E+00  0.00000000000E+00  0.10013171771E+04  0.10013171771E+04  0.00000000000E+00 0.  1.
          2   -1    0    0  501    0  0.00000000000E+00 -0.00000000000E+00 -0.69793759430E+03  0.69793759430E+03  0.00000000000E+00 0. -1.
         23    2    1    2    0    0  0.46259661513E+03 -0.33458492091E+03  0.50307025245E+02  0.58030112688E+03  0.90971992597E+02 0.  0.
        254    2    1    2    0    0 -0.46259661513E+03  0.33458492091E+03  0.25307255755E+03  0.11189536445E+04  0.92847662414E+03 0.  0.
         23    2    4    4    0    0 -0.35095223214E+03  0.78250560502E+02  0.57367549679E+03  0.68368632146E+03  0.95040996778E+02 0.  0.
         23    2    4    4    0    0 -0.11164438298E+03  0.25633436041E+03 -0.32060293924E+03  0.43526732306E+03  0.92193412419E+02 0.  0.
          4    1    3    3  502    0  0.21171068794E+03 -0.15935182247E+03  0.68649895708E+02  0.27372838160E+03  0.00000000000E+00 0. -1.
         -4    1    3    3    0  502  0.25088592718E+03 -0.17523309844E+03 -0.18342870463E+02  0.30657274528E+03  0.00000000000E+00 0.  1.
         11    1    5    5    0    0 -0.21882643246E+03  0.52037160667E+02  0.43866994975E+03  0.49297484565E+03  0.00000000000E+00 0. -1.
        -11    1    5    5    0    0 -0.13212579968E+03  0.26213399835E+02  0.13500554704E+03  0.19071147581E+03  0.00000000000E+00 0.  1.
          1    1    6    6  503    0 -0.81860367477E+02  0.11737708653E+03 -0.21475750151E+03  0.25806837206E+03  0.00000000000E+00 0. -1.
         -1    1    6    6    0  503 -0.29784015504E+02  0.13895727389E+03 -0.10584543773E+03  0.17719895100E+03  0.00000000000E+00 0.  1.
<mgrwt>
<rscale>  0 0.16719532E+04</rscale>
<asrwt>0</asrwt>
<pdfrwt beam="1">  1        2 0.10737501E+00 0.16719532E+04</pdfrwt>
<pdfrwt beam="2">  1       -2 0.15404880E+00 0.16719532E+04</pdfrwt>
<totfact> 0.10939179E+01</totfact>
</mgrwt>
</event>
<event>
12    2  0.3552864E-008  0.1646651E+04  0.7818608E-02  0.8792390E-01
          2   -1    0    0  501    0  0.00000000000E+00  0.00000000000E+00  0.20136872998E+04  0.20136872998E+04  0.00000000000E+00 0.  1.
         -2   -1    0    0    0  501 -0.00000000000E+00 -0.00000000000E+00 -0.33662866599E+03  0.33662866599E+03  0.00000000000E+00 0. -1.
         23    2    1    2    0    0  0.17228243965E+03 -0.15049321755E+03 -0.15968128080E+03  0.29213474007E+03  0.86689949701E+02 0.  0.
        254    2    1    2    0    0 -0.17228243965E+03  0.15049321755E+03  0.18367399146E+04  0.20581812257E+04  0.90009277099E+03 0.  0.
         23    2    4    4    0    0 -0.20777033129E+01 -0.32760789805E+03  0.36640226162E+03  0.50011509180E+03  0.92375516311E+02 0.  0.
         23    2    4    4    0    0 -0.17020473633E+03  0.47810111560E+03  0.14703376530E+04  0.15580661339E+04  0.90149513643E+02 0.  0.
          2    1    3    3  502    0  0.17317649779E+03 -0.13299445613E+03 -0.12092240437E+03  0.24959938427E+03  0.00000000000E+00 0. -1.
         -2    1    3    3    0  502 -0.89405814279E+00 -0.17498761414E+02 -0.38758876430E+02  0.42535355801E+02  0.00000000000E+00 0.  1.
         11    1    5    5    0    0 -0.24521883571E+02 -0.19842266355E+03  0.27618343879E+03  0.34095478886E+03  0.00000000000E+00 0. -1.
        -11    1    5    5    0    0  0.22444180258E+02 -0.12918523450E+03  0.90218822830E+02  0.15916030295E+03  0.00000000000E+00 0.  1.
          2    1    6    6  503    0 -0.15412300005E+03  0.43203233429E+03  0.12282040215E+04  0.13110648175E+04  0.00000000000E+00 0. -1.
         -2    1    6    6    0  503 -0.16081736286E+02  0.46068781306E+02  0.24213363143E+03  0.24700131644E+03  0.00000000000E+00 0.  1.
<mgrwt>
<rscale>  0 0.16466510E+04</rscale>
<asrwt>0</asrwt>
<pdfrwt beam="1">  1        2 0.30979804E+00 0.16466510E+04</pdfrwt>
<pdfrwt beam="2">  1       -2 0.51789027E-01 0.16466510E+04</pdfrwt>
<totfact> 0.22091714E+01</totfact>
</mgrwt>
</event>
<event>
12    2  0.3552864E-008  0.2845815E+04  0.7818608E-02  0.8289184E-01
         -2   -1    0    0    0  501 -0.00000000000E+00  0.00000000000E+00  0.22388166259E+04  0.22388166259E+04  0.00000000000E+00 0.  1.
          2   -1    0    0  501    0  0.00000000000E+00 -0.00000000000E+00 -0.90434645759E+03  0.90434645759E+03  0.00000000000E+00 0. -1.
         23    2    1    2    0    0 -0.94084108946E+03 -0.79434807394E+03  0.19783546591E+03  0.12506878433E+04  0.94394870074E+02 0.  0.
        254    2    1    2    0    0  0.94084108946E+03  0.79434807394E+03  0.11366347024E+04  0.18924752403E+04  0.87940506598E+03 0.  0.
         23    2    4    4    0    0  0.36010103424E+03 -0.47035069223E+02  0.17571953975E+02  0.37391458178E+03  0.87282806431E+02 0.  0.
         23    2    4    4    0    0  0.58074005522E+03  0.84138314316E+03  0.11190627485E+04  0.15185606585E+04  0.92414464237E+02 0.  0.
          1    1    3    3  502    0 -0.44613542435E+03 -0.40430676229E+03  0.53954256070E+02  0.60449304102E+03  0.00000000000E+00 0. -1.
         -1    1    3    3    0  502 -0.49470566512E+03 -0.39004131164E+03  0.14388120984E+03  0.64619480223E+03  0.00000000000E+00 0.  1.
         11    1    5    5    0    0  0.34136459455E+03 -0.51043018107E+02 -0.38406720420E+01  0.34518100595E+03  0.00000000000E+00 0.  1.
        -11    1    5    5    0    0  0.18736439697E+02  0.40079488842E+01  0.21412626017E+02  0.28733575826E+02  0.00000000000E+00 0. -1.
          2    1    6    6  503    0  0.44648233368E+03  0.57876254462E+03  0.77364676856E+03  0.10643504497E+04  0.00000000000E+00 0.  1.
         -2    1    6    6    0  503  0.13425772153E+03  0.26262059854E+03  0.34541597991E+03  0.45421020876E+03  0.00000000000E+00 0. -1.
<mgrwt>
<rscale>  0 0.28458151E+04</rscale>
<asrwt>0</asrwt>
<pdfrwt beam="1">  1        2 0.13913022E+00 0.28458151E+04</pdfrwt>
<pdfrwt beam="2">  1       -2 0.34443333E+00 0.28458151E+04</pdfrwt>
<totfact> 0.42577474E-01</totfact>
</mgrwt>
</event>
<event>
12    2  0.3552864E-008  0.1330756E+04  0.7818608E-02  0.9005525E-01
          1   -1    0    0  501    0  0.00000000000E+00  0.00000000000E+00  0.17124570725E+04  0.17124570725E+04  0.00000000000E+00 0. -1.
         -1   -1    0    0    0  501 -0.00000000000E+00 -0.00000000000E+00 -0.25853376749E+03  0.25853376749E+03  0.00000000000E+00 0.  1.
         23    2    1    2    0    0 -0.21078669229E+03 -0.17187972194E+03  0.71081514330E+03  0.76657277445E+03  0.91662326656E+02 0.  0.
        254    2    1    2    0    0  0.21078669229E+03  0.17187972194E+03  0.74310816171E+03  0.12044180655E+04  0.90798649115E+03 0.  0.
         23    2    4    4    0    0  0.32093610741E+03  0.49115610735E+03  0.52155402086E+03  0.79032015831E+03  0.91395016923E+02 0.  0.
         23    2    4    4    0    0 -0.11014941512E+03 -0.31927638542E+03  0.22155414085E+03  0.41409790722E+03  0.91216969394E+02 0.  0.
          4    1    3    3  502    0 -0.11560897909E+03 -0.79441872416E+02  0.48280535333E+03  0.50276978464E+03  0.00000000000E+00 0. -1.
         -4    1    3    3    0  502 -0.95177713197E+02 -0.92437849519E+02  0.22800978996E+03  0.26380298981E+03  0.00000000000E+00 0.  1.
         11    1    5    5    0    0  0.23101540568E+03  0.41680977152E+03  0.40494140556E+03  0.62536073209E+03  0.00000000000E+00 0. -1.
        -11    1    5    5    0    0  0.89920701729E+02  0.74346335826E+02  0.11661261531E+03  0.16495942622E+03  0.00000000000E+00 0.  1.
          3    1    6    6  503    0 -0.14025445451E+02 -0.16782301564E+03  0.12971403596E+03  0.21257236138E+03  0.00000000000E+00 0. -1.
         -3    1    6    6    0  503 -0.96123969667E+02 -0.15145336978E+03  0.91840104886E+02  0.20152554584E+03  0.00000000000E+00 0.  1.
<mgrwt>
<rscale>  0 0.13307561E+04</rscale>
<asrwt>0</asrwt>
<pdfrwt beam="1">  1        1 0.26345493E+00 0.13307561E+04</pdfrwt>
<pdfrwt beam="2">  1       -1 0.39774427E-01 0.13307561E+04</pdfrwt>
<totfact> 0.28201065E+01</totfact>
</mgrwt>
</event>
<event>
12    2  0.3552864E-008  0.1227877E+04  0.7818608E-02  0.9088800E-01
          2   -1    0    0  501    0  0.00000000000E+00  0.00000000000E+00  0.11836855070E+04  0.11836855070E+04  0.00000000000E+00 0. -1.
         -2   -1    0    0    0  501 -0.00000000000E+00 -0.00000000000E+00 -0.31842946026E+03  0.31842946026E+03  0.00000000000E+00 0.  1.
         23    2    1    2    0    0  0.70184237872E+02  0.71295873712E+02 -0.10889197860E+03  0.17235741241E+03  0.88547646803E+02 0.  0.
        254    2    1    2    0    0 -0.70184237872E+02 -0.71295873712E+02  0.97414802531E+03  0.13297575548E+04  0.89960093959E+03 0.  0.
         23    2    4    4    0    0 -0.76499987210E+02  0.32466047244E+03  0.82863630093E+03  0.89786487537E+03  0.90920541144E+02 0.  0.
         23    2    4    4    0    0  0.63157493377E+01 -0.39595634615E+03  0.14551172438E+03  0.43189267945E+03  0.92392141885E+02 0.  0.
          4    1    3    3  502    0 -0.13877003514E+02  0.21721246135E+02 -0.55318455612E+02  0.61028807062E+02  0.00000000000E+00 0. -1.
         -4    1    3    3    0  502  0.84061241386E+02  0.49574627577E+02 -0.53573522990E+02  0.11132860535E+03  0.00000000000E+00 0.  1.
         11    1    5    5    0    0 -0.52929285656E+02  0.62190396068E+02  0.21784128031E+03  0.23264560613E+03  0.00000000000E+00 0. -1.
        -11    1    5    5    0    0 -0.23570701554E+02  0.26247007637E+03  0.61079502062E+03  0.66521926924E+03  0.00000000000E+00 0.  1.
          1    1    6    6  503    0 -0.91794052252E+01 -0.27240696215E+02 -0.11340006015E+02  0.30901662528E+02  0.00000000000E+00 0. -1.
         -1    1    6    6    0  503  0.15495154563E+02 -0.36871564993E+03  0.15685173040E+03  0.40099101692E+03  0.00000000000E+00 0.  1.
<mgrwt>
<rscale>  0 0.12278768E+04</rscale>
<asrwt>0</asrwt>
<pdfrwt beam="1">  1        2 0.18210546E+00 0.12278768E+04</pdfrwt>
<pdfrwt beam="2">  1       -2 0.48989148E-01 0.12278768E+04</pdfrwt>
<totfact> 0.75255617E+01</totfact>
</mgrwt>
</event>
<event>
12    2  0.3552864E-008  0.4227955E+04  0.7818608E-02  0.7960076E-01
         -3   -1    0    0    0  501 -0.00000000000E+00  0.00000000000E+00  0.25110184154E+04  0.25110184154E+04  0.00000000000E+00 0.  1.
          3   -1    0    0  501    0  0.00000000000E+00 -0.00000000000E+00 -0.17797163057E+04  0.17797163057E+04  0.00000000000E+00 0. -1.
         23    2    1    2    0    0 -0.75163903737E+03 -0.13964220907E+04  0.16210402654E+04  0.22696012132E+04  0.91445213880E+02 0.  0.
        254    2    1    2    0    0  0.75163903737E+03  0.13964220907E+04 -0.88973815567E+03  0.20211335078E+04  0.88226457075E+03 0.  0.
         23    2    4    4    0    0  0.88563652350E+03  0.81826441439E+03 -0.52455055184E+03  0.13184758192E+04  0.96522022511E+02 0.  0.
         23    2    4    4    0    0 -0.13399748613E+03  0.57815767635E+03 -0.36518760382E+03  0.70265768860E+03  0.90245312057E+02 0.  0.
          3    1    3    3  502    0 -0.34028689553E+03 -0.59760298811E+03  0.76347004109E+03  0.10275266451E+04  0.00000000000E+00 0. -1.
         -3    1    3    3    0  502 -0.41135214184E+03 -0.79881910263E+03  0.85757022428E+03  0.12420745682E+04  0.00000000000E+00 0.  1.
         11    1    5    5    0    0  0.88739812239E+03  0.81268850310E+03 -0.51915374991E+03  0.13105184649E+04  0.00000000000E+00 0. -1.
        -11    1    5    5    0    0 -0.17615988924E+01  0.55759112889E+01 -0.53968019344E+01  0.79573543643E+01  0.00000000000E+00 0.  1.
          2    1    6    6  503    0 -0.70769186801E+02  0.16637454863E+03 -0.14290788314E+03  0.23045917490E+03  0.00000000000E+00 0. -1.
         -2    1    6    6    0  503 -0.63228299327E+02  0.41178312772E+03 -0.22227972068E+03  0.47219851370E+03  0.00000000000E+00 0.  1.
<mgrwt>
<rscale>  0 0.42279548E+04</rscale>
<asrwt>0</asrwt>
<pdfrwt beam="1">  1        3 0.27380251E+00 0.42279548E+04</pdfrwt>
<pdfrwt beam="2">  1       -3 0.38631053E+00 0.42279548E+04</pdfrwt>
<totfact> 0.13556577E-03</totfact>
</mgrwt>
</event>
<event>
12    2  0.3552864E-008  0.2082230E+04  0.7818608E-02  0.8569112E-01
         -1   -1    0    0    0  501 -0.00000000000E+00  0.00000000000E+00  0.12175846867E+04  0.12175846867E+04  0.00000000000E+00 0.  1.
          1   -1    0    0  501    0  0.00000000000E+00 -0.00000000000E+00 -0.89022216826E+03  0.89022216826E+03  0.00000000000E+00 0. -1.
         23    2    1    2    0    0  0.79506164483E+03 -0.22664254049E+03  0.27511525344E+03  0.87998756992E+03  0.12328771351E+03 0.  0.
        254    2    1    2    0    0 -0.79506164483E+03  0.22664254049E+03  0.52247264967E+02  0.12278192850E+04  0.90626737762E+03 0.  0.
         23    2    4    4    0    0 -0.47848905949E+03  0.55823751788E+03 -0.73273480550E+02  0.74446698859E+03  0.91001031487E+02 0.  0.
         23    2    4    4    0    0 -0.31657258534E+03 -0.33159497740E+03  0.12552074552E+03  0.48335229642E+03  0.87752800971E+02 0.  0.
          1    1    3    3  502    0  0.20541125331E+03 -0.40228316938E+01  0.60466663382E+02  0.21416391746E+03  0.00000000000E+00 0. -1.
         -1    1    3    3    0  502  0.58965039152E+03 -0.22261970879E+03  0.21464859006E+03  0.66582365246E+03  0.00000000000E+00 0.  1.
         11    1    5    5    0    0 -0.36571071709E+03  0.37679132260E+03 -0.26422968312E+02  0.52575108429E+03  0.00000000000E+00 0. -1.
        -11    1    5    5    0    0 -0.11277834240E+03  0.18144619529E+03 -0.46850512238E+02  0.21871590430E+03  0.00000000000E+00 0.  1.
          3    1    6    6  503    0 -0.25924426470E+03 -0.21733041803E+03  0.10231339210E+03  0.35342344232E+03  0.00000000000E+00 0. -1.
         -3    1    6    6    0  503 -0.57328320641E+02 -0.11426455937E+03  0.23207353420E+02  0.12992885410E+03  0.00000000000E+00 0.  1.
<mgrwt>
<rscale>  0 0.20822304E+04</rscale>
<asrwt>0</asrwt>
<pdfrwt beam="1">  1        1 0.13695726E+00 0.20822304E+04</pdfrwt>
<pdfrwt beam="2">  1       -1 0.18732072E+00 0.20822304E+04</pdfrwt>
<totfact> 0.31509606E+00</totfact>
</mgrwt>
</event>
<event>
12    2  0.3552864E-008  0.2229043E+04  0.7818608E-02  0.8506436E-01
          1   -1    0    0  501    0  0.00000000000E+00  0.00000000000E+00  0.69023797381E+03  0.69023797381E+03  0.00000000000E+00 0. -1.
         -1   -1    0    0    0  501 -0.00000000000E+00 -0.00000000000E+00 -0.17996092847E+04  0.17996092847E+04  0.00000000000E+00 0.  1.
         23    2    1    2    0    0 -0.47967560157E+03 -0.74522735522E+03 -0.15053813520E+03  0.90376753060E+03  0.93174704245E+02 0.  0.
        254    2    1    2    0    0  0.47967560157E+03  0.74522735522E+03 -0.95883317569E+03  0.15860797279E+04  0.90046396417E+03 0.  0.
         23    2    4    4    0    0  0.40616480497E+03  0.79035609210E+03 -0.34183482433E+03  0.95640704164E+03  0.90723652080E+02 0.  0.
         23    2    4    4    0    0  0.73510796606E+02 -0.45128736886E+02 -0.61699835136E+03  0.62967268627E+03  0.91434600365E+02 0.  0.
          4    1    3    3  502    0 -0.34414823481E+02 -0.10437173664E+03 -0.54083394495E+01  0.11003222082E+03  0.00000000000E+00 0. -1.
         -4    1    3    3    0  502 -0.44526077809E+03 -0.64085561858E+03 -0.14512979575E+03  0.79373530978E+03  0.00000000000E+00 0.  1.
         11    1    5    5    0    0  0.37191278967E+03  0.66494948062E+03 -0.27312893966E+03  0.80936787222E+03  0.00000000000E+00 0.  1.
        -11    1    5    5    0    0  0.34252015302E+02  0.12540661148E+03 -0.68705884665E+02  0.14703916942E+03  0.00000000000E+00 0. -1.
          3    1    6    6  503    0  0.18835647821E+02  0.86653814165E+01 -0.23919702496E+02  0.31654741057E+02  0.00000000000E+00 0. -1.
         -3    1    6    6    0  503  0.54675148785E+02 -0.53794118303E+02 -0.59307864886E+03  0.59801794521E+03  0.00000000000E+00 0.  1.
<mgrwt>
<rscale>  0 0.22290434E+04</rscale>
<asrwt>0</asrwt>
<pdfrwt beam="1">  1        1 0.10619046E+00 0.22290434E+04</pdfrwt>
<pdfrwt beam="2">  1       -1 0.27686296E+00 0.22290434E+04</pdfrwt>
<totfact> 0.11805847E+00</totfact>
</mgrwt>
</event>
<event>
12    2  0.3552864E-008  0.1659566E+04  0.7818608E-02  0.8784767E-01
          1   -1    0    0  501    0  0.00000000000E+00  0.00000000000E+00  0.98837430139E+03  0.98837430139E+03  0.00000000000E+00 0. -1.
         -1   -1    0    0    0  501 -0.00000000000E+00 -0.00000000000E+00 -0.69663875100E+03  0.69663875100E+03  0.00000000000E+00 0.  1.
         23    2    1    2    0    0 -0.28966668165E+03  0.48250663298E+03 -0.25071251587E+03  0.62313909885E+03  0.93413776176E+02 0.  0.
        254    2    1    2    0    0  0.28966668165E+03 -0.48250663298E+03  0.54244806626E+03  0.10618739535E+04  0.71875374871E+03 0.  0.
         23    2    4    4    0    0  0.18006994846E+03 -0.38522872635E+03  0.70250324612E+03  0.82642345517E+03  0.92943845921E+02 0.  0.
         23    2    4    4    0    0  0.10959673319E+03 -0.97277906624E+02 -0.16005517986E+03  0.23545049837E+03  0.91350104200E+02 0.  0.
          1    1    3    3  502    0 -0.22853137128E+03  0.43692172257E+03 -0.23020394833E+03  0.54417004433E+03  0.00000000000E+00 0.  1.
         -1    1    3    3    0  502 -0.61135310365E+02  0.45584910404E+02 -0.20508567546E+02  0.78969054526E+02  0.00000000000E+00 0. -1.
         11    1    5    5    0    0  0.18129589177E+03 -0.37844863331E+03  0.65143811745E+03  0.77489559896E+03  0.00000000000E+00 0.  1.
        -11    1    5    5    0    0 -0.12259433094E+01 -0.67800930420E+01  0.51065128675E+02  0.51527856206E+02  0.00000000000E+00 0. -1.
          1    1    6    6  503    0  0.15662378134E+01 -0.19081358467E+02  0.81363633759E+01  0.20802686145E+02  0.00000000000E+00 0. -1.
         -1    1    6    6    0  503  0.10803049537E+03 -0.78196548157E+02 -0.16819154324E+03  0.21464781222E+03  0.00000000000E+00 0.  1.
<mgrwt>
<rscale>  0 0.16595660E+04</rscale>
<asrwt>0</asrwt>
<pdfrwt beam="1">  1        1 0.15205759E+00 0.16595660E+04</pdfrwt>
<pdfrwt beam="2">  1       -1 0.10717519E+00 0.16595660E+04</pdfrwt>
<totfact> 0.11975257E+01</totfact>
</mgrwt>
</event>
<event>
12    2  0.3552864E-008  0.1508723E+04  0.7818608E-02  0.8878673E-01
          2   -1    0    0  501    0  0.00000000000E+00  0.00000000000E+00  0.59903441647E+03  0.59903441647E+03  0.00000000000E+00 0. -1.
         -2   -1    0    0    0  501 -0.00000000000E+00 -0.00000000000E+00 -0.94996383393E+03  0.94996383393E+03  0.00000000000E+00 0.  1.
         23    2    1    2    0    0  0.19084212570E+03 -0.13058008738E+03 -0.54478863524E+03  0.59831660695E+03  0.87842067953E+02 0.  0.
        254    2    1    2    0    0 -0.19084212570E+03  0.13058008738E+03  0.19385921778E+03  0.95068164346E+03  0.90152222087E+03 0.  0.
         23    2    4    4    0    0  0.39128822853E+02  0.42294985810E+03  0.32883829181E+03  0.54482340410E+03  0.90996001289E+02 0.  0.
         23    2    4    4    0    0 -0.22997094855E+03 -0.29236977072E+03 -0.13497907403E+03  0.40585823936E+03  0.90193347989E+02 0.  0.
          3    1    3    3  502    0  0.11807650957E+03 -0.31644567925E+02 -0.23102139421E+03  0.26137009273E+03  0.00000000000E+00 0. -1.
         -3    1    3    3    0  502  0.72765616132E+02 -0.98935519452E+02 -0.31376724103E+03  0.33694651422E+03  0.00000000000E+00 0.  1.
         11    1    5    5    0    0  0.56568395057E+01  0.70100437876E+02  0.16114341680E+02  0.72150836664E+02  0.00000000000E+00 0. -1.
        -11    1    5    5    0    0  0.33471983347E+02  0.35284942022E+03  0.31272395013E+03  0.47267256743E+03  0.00000000000E+00 0.  1.
          4    1    6    6  503    0 -0.97331313227E+02 -0.10732396001E+03 -0.78550507037E+01  0.14509830719E+03  0.00000000000E+00 0. -1.
         -4    1    6    6    0  503 -0.13263963533E+03 -0.18504581071E+03 -0.12712402333E+03  0.26075993217E+03  0.00000000000E+00 0.  1.
<mgrwt>
<rscale>  0 0.15087227E+04</rscale>
<asrwt>0</asrwt>
<pdfrwt beam="1">  1        2 0.92159141E-01 0.15087227E+04</pdfrwt>
<pdfrwt beam="2">  1       -2 0.14614828E+00 0.15087227E+04</pdfrwt>
<totfact> 0.15389275E+01</totfact>
</mgrwt>
</event>
<event>
12    2  0.3552864E-008  0.1933414E+04  0.7818608E-02  0.8638401E-01
          1   -1    0    0  501    0  0.00000000000E+00  0.00000000000E+00  0.15034261856E+04  0.15034261856E+04  0.00000000000E+00 0. -1.
         -1   -1    0    0    0  501 -0.00000000000E+00 -0.00000000000E+00 -0.62159508241E+03  0.62159508241E+03  0.00000000000E+00 0.  1.
         23    2    1    2    0    0 -0.18746252541E+02  0.92831504683E+02 -0.48358301030E+03  0.50064505951E+03  0.88452459055E+02 0.  0.
        254    2    1    2    0    0  0.18746252541E+02 -0.92831504683E+02  0.13654141135E+04  0.16243762085E+04  0.87479897984E+03 0.  0.
         23    2    4    4    0    0  0.48782583333E+02 -0.33984849543E+03  0.13050412172E+04  0.13523089839E+04  0.87921948524E+02 0.  0.
         23    2    4    4    0    0 -0.30036330791E+02  0.24701699075E+03  0.60372896261E+02  0.27206722457E+03  0.91957126953E+02 0.  0.
          3    1    3    3  502    0 -0.12013067772E+02  0.28816901695E+02 -0.35956540679E+03  0.36091828629E+03  0.00000000000E+00 0.  1.
         -3    1    3    3    0  502 -0.67331847694E+01  0.64014602988E+02 -0.12401760352E+03  0.13972677322E+03  0.00000000000E+00 0. -1.
         11    1    5    5    0    0  0.25499775258E+02 -0.17736412244E+02  0.97567167764E+02  0.10239224132E+03  0.00000000000E+00 0.  1.
        -11    1    5    5    0    0  0.23282808075E+02 -0.32211208319E+03  0.12074740494E+04  0.12499167426E+04  0.00000000000E+00 0. -1.
          1    1    6    6  503    0 -0.45534563552E+02  0.24351171895E+03  0.49012902382E+02  0.25253439042E+03  0.00000000000E+00 0. -1.
         -1    1    6    6    0  503  0.15498232760E+02  0.35052717956E+01  0.11359993879E+02  0.19532834151E+02  0.00000000000E+00 0.  1.
<mgrwt>
<rscale>  0 0.19334139E+04</rscale>
<asrwt>0</asrwt>
<pdfrwt beam="1">  1        1 0.23129633E+00 0.19334139E+04</pdfrwt>
<pdfrwt beam="2">  1       -1 0.95630013E-01 0.19334139E+04</pdfrwt>
<totfact> 0.64029866E+00</totfact>
</mgrwt>
</event>
<event>
12    2  0.3552864E-008  0.2322177E+04  0.7818608E-02  0.8469228E-01
          2   -1    0    0  501    0  0.00000000000E+00  0.00000000000E+00  0.19619295996E+04  0.19619295996E+04  0.00000000000E+00 0. -1.
         -2   -1    0    0    0  501 -0.00000000000E+00 -0.00000000000E+00 -0.68714327353E+03  0.68714327353E+03  0.00000000000E+00 0.  1.
         23    2    1    2    0    0  0.68903786039E+03 -0.40442022990E+03  0.11931853857E+04  0.14389316671E+04  0.92217583498E+02 0.  0.
        254    2    1    2    0    0 -0.68903786039E+03  0.40442022990E+03  0.81600940415E+02  0.12101412060E+04  0.90523705713E+03 0.  0.
         23    2    4    4    0    0 -0.78929984954E+03  0.45566010457E+03  0.28197017545E+03  0.95888761981E+03  0.96632831856E+02 0.  0.
         23    2    4    4    0    0  0.10026198915E+03 -0.51239874672E+02 -0.20036923504E+03  0.25125358620E+03  0.10150144335E+03 0.  0.
          2    1    3    3  502    0  0.13357945237E+03 -0.61760163841E+02  0.16494908259E+03  0.22105652621E+03  0.00000000000E+00 0.  1.
         -2    1    3    3    0  502  0.55545840802E+03 -0.34266006606E+03  0.10282363031E+04  0.12178751409E+04  0.00000000000E+00 0. -1.
         11    1    5    5    0    0 -0.76856800945E+03  0.45479254712E+03  0.26350457609E+03  0.93111100718E+03  0.00000000000E+00 0. -1.
        -11    1    5    5    0    0 -0.20731840097E+02  0.86755745116E+00  0.18465599360E+02  0.27776612635E+02  0.00000000000E+00 0.  1.
          3    1    6    6  503    0  0.65864755830E+02 -0.77975934042E+02 -0.16949853787E+03  0.19785895656E+03  0.00000000000E+00 0. -1.
         -3    1    6    6    0  503  0.34397233321E+02  0.26736059370E+02 -0.30870697171E+02  0.53394629642E+02  0.00000000000E+00 0.  1.
<mgrwt>
<rscale>  0 0.23221772E+04</rscale>
<asrwt>0</asrwt>
<pdfrwt beam="1">  1        2 0.30183532E+00 0.23221772E+04</pdfrwt>
<pdfrwt beam="2">  1       -2 0.10571435E+00 0.23221772E+04</pdfrwt>
<totfact> 0.45910339E+00</totfact>
</mgrwt>
</event>
<event>
12    2  0.3552864E-008  0.2233697E+04  0.7818608E-02  0.8504532E-01
         -2   -1    0    0    0  501 -0.00000000000E+00  0.00000000000E+00  0.87673517175E+03  0.87673517175E+03  0.00000000000E+00 0.  1.
          2   -1    0    0  501    0  0.00000000000E+00 -0.00000000000E+00 -0.14227226491E+04  0.14227226491E+04  0.00000000000E+00 0. -1.
         23    2    1    2    0    0 -0.64903232227E+03  0.56232678460E+03  0.14635822574E+03  0.87595166645E+03  0.91739978626E+02 0.  0.
        254    2    1    2    0    0  0.64903232227E+03 -0.56232678460E+03 -0.69234570310E+03  0.14235061544E+04  0.89976265260E+03 0.  0.
         23    2    4    4    0    0  0.16738606308E+03  0.17924463665E+03 -0.41928862279E+03  0.49361656609E+03  0.87793116092E+02 0.  0.
         23    2    4    4    0    0  0.48164625919E+03 -0.74157142126E+03 -0.27305708031E+03  0.92988958833E+03  0.90681781824E+02 0.  0.
          3    1    3    3  502    0 -0.18371504868E+02  0.10472881848E+02 -0.10128170821E+02  0.23447244817E+02  0.00000000000E+00 0. -1.
         -3    1    3    3    0  502 -0.63066081741E+03  0.55185390276E+03  0.15648639656E+03  0.85250442163E+03  0.00000000000E+00 0.  1.
         11    1    5    5    0    0  0.18402830064E+02  0.78267673874E+02 -0.12297395397E+03  0.14692544464E+03  0.00000000000E+00 0.  1.
        -11    1    5    5    0    0  0.14898323302E+03  0.10097696278E+03 -0.29631466882E+03  0.34669112145E+03  0.00000000000E+00 0. -1.
          4    1    6    6  503    0  0.12017166100E+01  0.25173489461E+01 -0.25654648043E+01  0.37898256146E+01  0.00000000000E+00 0.  1.
         -4    1    6    6    0  503  0.48044454258E+03 -0.74408877020E+03 -0.27049161550E+03  0.92609976271E+03  0.00000000000E+00 0. -1.
<mgrwt>
<rscale>  0 0.22336974E+04</rscale>
<asrwt>0</asrwt>
<pdfrwt beam="1">  1        2 0.21888041E+00 0.22336974E+04</pdfrwt>
<pdfrwt beam="2">  1       -2 0.13488234E+00 0.22336974E+04</pdfrwt>
<totfact> 0.50625140E+00</totfact>
</mgrwt>
</event>
<event>
12    2  0.3552864E-008  0.1257301E+04  0.7818608E-02  0.9064128E-01
          1   -1    0    0  501    0  0.00000000000E+00  0.00000000000E+00  0.13102431213E+04  0.13102431213E+04  0.00000000000E+00 0. -1.
         -1   -1    0    0    0  501 -0.00000000000E+00 -0.00000000000E+00 -0.30162466543E+03  0.30162466543E+03  0.00000000000E+00 0.  1.
         23    2    1    2    0    0 -0.20952705124E+03  0.13055421594E+03  0.30177181044E+02  0.26441775493E+03  0.89778050590E+02 0.  0.
        254    2    1    2    0    0  0.20952705124E+03 -0.13055421594E+03  0.97844127485E+03  0.13474500318E+04  0.89293240024E+03 0.  0.
         23    2    4    4    0    0  0.25791932908E+02  0.34962419735E+03  0.21060067082E+03  0.41935594565E+03  0.92760247046E+02 0.  0.
         23    2    4    4    0    0  0.18373511833E+03 -0.48017841329E+03  0.76784060403E+03  0.92809408616E+03  0.86310701908E+02 0.  0.
          3    1    3    3  502    0 -0.21281466209E+02 -0.11947182793E+02 -0.70446675907E+01  0.25402033819E+02  0.00000000000E+00 0. -1.
         -3    1    3    3    0  502 -0.18824558503E+03  0.14250139873E+03  0.37221848634E+02  0.23901572112E+03  0.00000000000E+00 0.  1.
         11    1    5    5    0    0  0.36577922287E+02  0.89501258899E+02  0.25742631251E+02  0.10005549863E+03  0.00000000000E+00 0. -1.
        -11    1    5    5    0    0 -0.10785989379E+02  0.26012293845E+03  0.18485803957E+03  0.31930044702E+03  0.00000000000E+00 0.  1.
          1    1    6    6  503    0  0.90036822976E+02 -0.33287750894E+03  0.54634930225E+03  0.64607400932E+03  0.00000000000E+00 0. -1.
         -1    1    6    6    0  503  0.93698295357E+02 -0.14730090435E+03  0.22149130179E+03  0.28202007684E+03  0.00000000000E+00 0.  1.
<mgrwt>
<rscale>  0 0.12573013E+04</rscale>
<asrwt>0</asrwt>
<pdfrwt beam="1">  1        1 0.20157586E+00 0.12573013E+04</pdfrwt>
<pdfrwt beam="2">  1       -1 0.46403795E-01 0.12573013E+04</pdfrwt>
<totfact> 0.40518084E+01</totfact>
</mgrwt>
</event>
<event>
12    2  0.3552864E-008  0.3614815E+04  0.7818608E-02  0.8087107E-01
          2   -1    0    0  501    0  0.00000000000E+00  0.00000000000E+00  0.24856338416E+04  0.24856338416E+04  0.00000000000E+00 0. -1.
         -2   -1    0    0    0  501 -0.00000000000E+00 -0.00000000000E+00 -0.13142410057E+04  0.13142410057E+04  0.00000000000E+00 0.  1.
         23    2    1    2    0    0 -0.13267655496E+04  0.78420326238E+03 -0.18228140480E+03  0.15559443840E+04  0.11160123310E+03 0.  0.
        254    2    1    2    0    0  0.13267655496E+04 -0.78420326238E+03  0.13536742407E+04  0.22439304633E+04  0.90967488377E+03 0.  0.
         23    2    4    4    0    0  0.13301725353E+04 -0.40022366533E+03  0.10131471307E+04  0.17211314903E+04  0.79300331396E+02 0.  0.
         23    2    4    4    0    0 -0.34069857536E+01 -0.38397959705E+03  0.34052711003E+03  0.52279897303E+03  0.99539514959E+02 0.  0.
          1    1    3    3  502    0 -0.72646360084E+03  0.46422193736E+03 -0.14876658500E+03  0.87486162751E+03  0.00000000000E+00 0. -1.
         -1    1    3    3    0  502 -0.60030194871E+03  0.31998132502E+03 -0.33514819800E+02  0.68108275645E+03  0.00000000000E+00 0.  1.
         11    1    5    5    0    0  0.13171978949E+03 -0.62147727368E+02  0.92653919942E+02  0.17261863121E+03  0.00000000000E+00 0.  1.
        -11    1    5    5    0    0  0.11984527458E+04 -0.33807593796E+03  0.92049321074E+03  0.15485128591E+04  0.00000000000E+00 0. -1.
          3    1    6    6  503    0  0.34038407945E+02 -0.29848231209E+03  0.23143203125E+03  0.37922432535E+03  0.00000000000E+00 0. -1.
         -3    1    6    6    0  503 -0.37445393698E+02 -0.85497284958E+02  0.10909507878E+03  0.14357464769E+03  0.00000000000E+00 0.  1.
<mgrwt>
<rscale>  0 0.36148150E+04</rscale>
<asrwt>0</asrwt>
<pdfrwt beam="1">  1        2 0.38240521E+00 0.36148150E+04</pdfrwt>
<pdfrwt beam="2">  1       -2 0.20219092E+00 0.36148150E+04</pdfrwt>
<totfact> 0.37166370E-01</totfact>
</mgrwt>
</event>
<event>
12    2  0.3552864E-008  0.2183081E+04  0.7818608E-02  0.8525503E-01
         -3   -1    0    0    0  501 -0.00000000000E+00  0.00000000000E+00  0.57777026764E+03  0.57777026764E+03  0.00000000000E+00 0.  1.
          3   -1    0    0  501    0  0.00000000000E+00 -0.00000000000E+00 -0.20621709657E+04  0.20621709657E+04  0.00000000000E+00 0. -1.
         23    2    1    2    0    0  0.34245349275E+03  0.75089822391E+03 -0.18203998238E+03  0.85025461517E+03  0.93122596960E+02 0.  0.
        254    2    1    2    0    0 -0.34245349275E+03 -0.75089822391E+03 -0.13023607157E+04  0.17896866182E+04  0.90868708594E+03 0.  0.
         23    2    4    4    0    0  0.10425698169E+03 -0.73039463275E+03 -0.98588832492E+03  0.12342547790E+04  0.84043040046E+02 0.  0.
         23    2    4    4    0    0 -0.44671047444E+03 -0.20503591169E+02 -0.31647239079E+03  0.55543183917E+03  0.91537470991E+02 0.  0.
          3    1    3    3  502    0  0.42906493146E+02  0.18746343017E+03 -0.48151073037E+02  0.19824739756E+03  0.00000000000E+00 0. -1.
         -3    1    3    3    0  502  0.29954699960E+03  0.56343479374E+03 -0.13388890934E+03  0.65200721761E+03  0.00000000000E+00 0.  1.
         11    1    5    5    0    0  0.72969219851E+01 -0.32283617078E+02 -0.20409686946E+02  0.38884859821E+02  0.00000000000E+00 0.  1.
        -11    1    5    5    0    0  0.96960059709E+02 -0.69811101567E+03 -0.96547863797E+03  0.11953699192E+04  0.00000000000E+00 0. -1.
          2    1    6    6  503    0 -0.38995516179E+03 -0.47447384510E+02 -0.26111059326E+03  0.47169378246E+03  0.00000000000E+00 0. -1.
         -2    1    6    6    0  503 -0.56755312659E+02  0.26943793340E+02 -0.55361797531E+02  0.83738056703E+02  0.00000000000E+00 0.  1.
<mgrwt>
<rscale>  0 0.21830814E+04</rscale>
<asrwt>0</asrwt>
<pdfrwt beam="1">  1        3 0.31725707E+00 0.21830814E+04</pdfrwt>
<pdfrwt beam="2">  1       -3 0.88887734E-01 0.21830814E+04</pdfrwt>
<totfact> 0.85269719E-02</totfact>
</mgrwt>
</event>
<event>
12    2  0.3552864E-008  0.3222118E+04  0.7818608E-02  0.8183000E-01
         -2   -1    0    0    0  501 -0.00000000000E+00  0.00000000000E+00  0.11788667386E+04  0.11788667386E+04  0.00000000000E+00 0. -1.
          2   -1    0    0  501    0  0.00000000000E+00 -0.00000000000E+00 -0.22016998807E+04  0.22016998807E+04  0.00000000000E+00 0.  1.
         23    2    1    2    0    0 -0.92557456691E+03 -0.62456754101E+02  0.74491861348E+03  0.11932315652E+04  0.91152084513E+02 0.  0.
        254    2    1    2    0    0  0.92557456691E+03  0.62456754101E+02 -0.17677517556E+04  0.21873350541E+04  0.89381163807E+03 0.  0.
         23    2    4    4    0    0  0.57177958208E+03 -0.31406267989E+03 -0.13973215684E+04  0.15449086316E+04  0.93101326714E+02 0.  0.
         23    2    4    4    0    0  0.35379498483E+03  0.37651943399E+03 -0.37043018714E+03  0.64242642245E+03  0.92495455326E+02 0.  0.
          4    1    3    3  502    0 -0.62033614495E+03 -0.43334537441E+02  0.44326974137E+03  0.76366411365E+03  0.00000000000E+00 0. -1.
         -4    1    3    3    0  502 -0.30523842196E+03 -0.19122216661E+02  0.30164887211E+03  0.42956745158E+03  0.00000000000E+00 0.  1.
         11    1    5    5    0    0  0.55174757180E+03 -0.30589458053E+03 -0.12971382294E+04  0.14424161895E+04  0.00000000000E+00 0. -1.
        -11    1    5    5    0    0  0.20032010280E+02 -0.81680993554E+01 -0.10018333900E+03  0.10249244215E+03  0.00000000000E+00 0.  1.
          3    1    6    6  503    0  0.25368857783E+03  0.30866376249E+03 -0.24753184666E+03  0.47000343393E+03  0.00000000000E+00 0. -1.
         -3    1    6    6    0  503  0.10010640700E+03  0.67855671493E+02 -0.12289834048E+03  0.17242298851E+03  0.00000000000E+00 0.  1.
<mgrwt>
<rscale>  0 0.32221178E+04</rscale>
<asrwt>0</asrwt>
<pdfrwt beam="1">  1        2 0.33872305E+00 0.32221178E+04</pdfrwt>
<pdfrwt beam="2">  1       -2 0.18136412E+00 0.32221178E+04</pdfrwt>
<totfact> 0.76845425E-01</totfact>
</mgrwt>
</event>
<event>
12    2  0.3552864E-008  0.1944727E+04  0.7818608E-02  0.8632908E-01
          2   -1    0    0  501    0  0.00000000000E+00  0.00000000000E+00  0.32498729807E+04  0.32498729807E+04  0.00000000000E+00 0. -1.
         -2   -1    0    0    0  501 -0.00000000000E+00 -0.00000000000E+00 -0.29093161700E+03  0.29093161700E+03  0.00000000000E+00 0.  1.
         23    2    1    2    0    0  0.41729270423E+03 -0.11663342158E+02  0.11415832178E+02  0.42736176131E+03  0.90766289209E+02 0.  0.
        254    2    1    2    0    0 -0.41729270423E+03  0.11663342158E+02  0.29475255315E+04  0.31134428364E+04  0.91178413124E+03 0.  0.
         23    2    4    4    0    0 -0.19507745405E+03  0.20414311664E+03  0.27064413620E+04  0.27229199473E+04  0.98684184413E+02 0.  0.
         23    2    4    4    0    0 -0.22221525017E+03 -0.19247977448E+03  0.24108416952E+03  0.39052288910E+03  0.89210252364E+02 0.  0.
          1    1    3    3  502    0  0.58238745014E+02 -0.18137109602E+02  0.29577733716E+02  0.67790474975E+02  0.00000000000E+00 0. -1.
         -1    1    3    3    0  502  0.35905395921E+03  0.64737674443E+01 -0.18161901538E+02  0.35957128634E+03  0.00000000000E+00 0.  1.
         11    1    5    5    0    0 -0.14362475324E+03  0.87445322607E+02  0.13313477761E+04  0.13419246086E+04  0.00000000000E+00 0. -1.
        -11    1    5    5    0    0 -0.51452700817E+02  0.11669779403E+03  0.13750935859E+04  0.13809953387E+04  0.00000000000E+00 0.  1.
          1    1    6    6  503    0 -0.11420467976E+03 -0.12421430588E+03  0.85396118709E+02  0.18911477931E+03  0.00000000000E+00 0. -1.
         -1    1    6    6    0  503 -0.10801057041E+03 -0.68265468601E+02  0.15568805081E+03  0.20140810979E+03  0.00000000000E+00 0.  1.
<mgrwt>
<rscale>  0 0.19447270E+04</rscale>
<asrwt>0</asrwt>
<pdfrwt beam="1">  1        2 0.49998043E+00 0.19447270E+04</pdfrwt>
<pdfrwt beam="2">  1       -2 0.44758713E-01 0.19447270E+04</pdfrwt>
<totfact> 0.53356080E+00</totfact>
</mgrwt>
</event>
<event>
12    2  0.3552864E-008  0.1625398E+04  0.7818608E-02  0.8805095E-01
          2   -1    0    0  501    0  0.00000000000E+00  0.00000000000E+00  0.76502198335E+03  0.76502198335E+03  0.00000000000E+00 0. -1.
         -2   -1    0    0    0  501 -0.00000000000E+00 -0.00000000000E+00 -0.86334730181E+03  0.86334730181E+03  0.00000000000E+00 0.  1.
         23    2    1    2    0    0 -0.55775796239E+03 -0.23598403964E+02 -0.19557054706E+02  0.56659619272E+03  0.94857461125E+02 0.  0.
        254    2    1    2    0    0  0.55775796239E+03  0.23598403964E+02 -0.78768263753E+02  0.10617730924E+04  0.89972597560E+03 0.  0.
         23    2    4    4    0    0  0.73563446380E+03 -0.17579415729E+03  0.21662777683E+02  0.76189260095E+03  0.89159460347E+02 0.  0.
         23    2    4    4    0    0 -0.17787650141E+03  0.19939256126E+03 -0.10043104144E+03  0.29988049149E+03  0.91893807489E+02 0.  0.
          4    1    3    3  502    0 -0.37793208247E+03 -0.18604390101E+02  0.31210595808E+02  0.37967470759E+03  0.00000000000E+00 0. -1.
         -4    1    3    3    0  502 -0.17982587992E+03 -0.49940138626E+01 -0.50767650513E+02  0.18692148513E+03  0.00000000000E+00 0.  1.
         11    1    5    5    0    0  0.63395262789E+03 -0.16070651621E+03  0.48040765926E+02  0.65576705769E+03  0.00000000000E+00 0.  1.
        -11    1    5    5    0    0  0.10168183591E+03 -0.15087641086E+02 -0.26377988243E+02  0.10612554326E+03  0.00000000000E+00 0. -1.
          1    1    6    6  503    0 -0.57248033314E+02  0.14042699916E+02 -0.54394312535E+01  0.59195626119E+02  0.00000000000E+00 0. -1.
         -1    1    6    6    0  503 -0.12062846810E+03  0.18534986134E+03 -0.94991610182E+02  0.24068486537E+03  0.00000000000E+00 0.  1.
<mgrwt>
<rscale>  0 0.16253980E+04</rscale>
<asrwt>0</asrwt>
<pdfrwt beam="1">  1        2 0.11769569E+00 0.16253980E+04</pdfrwt>
<pdfrwt beam="2">  1       -2 0.13282266E+00 0.16253980E+04</pdfrwt>
<totfact> 0.14378447E+01</totfact>
</mgrwt>
</event>
<event>
12    2  0.3552864E-008  0.1274860E+04  0.7818608E-02  0.9049742E-01
         -2   -1    0    0    0  501 -0.00000000000E+00  0.00000000000E+00  0.15643343691E+04  0.15643343691E+04  0.00000000000E+00 0. -1.
          2   -1    0    0  501    0  0.00000000000E+00 -0.00000000000E+00 -0.25973814489E+03  0.25973814489E+03  0.00000000000E+00 0.  1.
         23    2    1    2    0    0 -0.13423347158E+02  0.82751806614E+02  0.75399548300E+03  0.76436262342E+03  0.93343365830E+02 0.  0.
        254    2    1    2    0    0  0.13423347158E+02 -0.82751806614E+02  0.55060074118E+03  0.10597098905E+04  0.90155189988E+03 0.  0.
         23    2    4    4    0    0  0.31717117368E+03  0.22082532613E+03  0.61019492136E+02  0.40201629219E+03  0.92370680937E+02 0.  0.
         23    2    4    4    0    0 -0.30374782652E+03 -0.30357713274E+03  0.48958124904E+03  0.65769359835E+03  0.91919814311E+02 0.  0.
          2    1    3    3  502    0 -0.41082180792E+02  0.35420240933E+02  0.18657829250E+03  0.19430336662E+03  0.00000000000E+00 0.  1.
         -2    1    3    3    0  502  0.27658833634E+02  0.47331565681E+02  0.56741719050E+03  0.57005925680E+03  0.00000000000E+00 0. -1.
         11    1    5    5    0    0  0.23432112296E+03  0.12974524829E+03  0.74880276639E+02  0.27811377878E+03  0.00000000000E+00 0.  1.
        -11    1    5    5    0    0  0.82850050720E+02  0.91080077834E+02 -0.13860784503E+02  0.12390251341E+03  0.00000000000E+00 0. -1.
          4    1    6    6  503    0 -0.74288565733E+02 -0.84844537819E+02  0.19325953432E+03  0.22375574674E+03  0.00000000000E+00 0. -1.
         -4    1    6    6    0  503 -0.22945926078E+03 -0.21873259492E+03  0.29632171472E+03  0.43393785161E+03  0.00000000000E+00 0.  1.
<mgrwt>
<rscale>  0 0.12748605E+04</rscale>
<asrwt>0</asrwt>
<pdfrwt beam="1">  1        2 0.39959716E-01 0.12748605E+04</pdfrwt>
<pdfrwt beam="2">  1       -2 0.24066682E+00 0.12748605E+04</pdfrwt>
<totfact> 0.93026218E+00</totfact>
</mgrwt>
</event>
<event>
12    2  0.3552864E-008  0.2174174E+04  0.7818608E-02  0.8529255E-01
         -1   -1    0    0    0  501 -0.00000000000E+00  0.00000000000E+00  0.48442269362E+03  0.48442269362E+03  0.00000000000E+00 0.  1.
          1   -1    0    0  501    0  0.00000000000E+00 -0.00000000000E+00 -0.24395178802E+04  0.24395178802E+04  0.00000000000E+00 0. -1.
         23    2    1    2    0    0 -0.65830730575E+03  0.38596544056E+03 -0.14567691020E+04  0.16471399265E+04  0.92498058712E+02 0.  0.
        254    2    1    2    0    0  0.65830730575E+03 -0.38596544056E+03 -0.49832608465E+03  0.12768006474E+04  0.89417737413E+03 0.  0.
         23    2    4    4    0    0 -0.16910331258E+03  0.87070474269E+02 -0.39208688877E+02  0.21499878977E+03  0.92249447162E+02 0.  0.
         23    2    4    4    0    0  0.82741061833E+03 -0.47303591483E+03 -0.45911739577E+03  0.10618018576E+04  0.90901560373E+02 0.  0.
          1    1    3    3  502    0 -0.29617619223E+03  0.19885316161E+03 -0.76766790795E+03  0.84650867309E+03  0.00000000000E+00 0. -1.
         -1    1    3    3    0  502 -0.36213111352E+03  0.18711227895E+03 -0.68910119403E+03  0.80063125340E+03  0.00000000000E+00 0.  1.
         11    1    5    5    0    0 -0.12747541292E+03  0.10492151260E+03 -0.22067004867E+02  0.16656967734E+03  0.00000000000E+00 0.  1.
        -11    1    5    5    0    0 -0.41627899666E+02 -0.17851038329E+02 -0.17141684010E+02  0.48429112430E+02  0.00000000000E+00 0. -1.
          1    1    6    6  503    0  0.59807050297E+02 -0.13578558256E+02 -0.15555028288E+02  0.63270999792E+02  0.00000000000E+00 0. -1.
         -1    1    6    6    0  503  0.76760356804E+03 -0.45945735657E+03 -0.44356236748E+03  0.99853085782E+03  0.00000000000E+00 0.  1.
<mgrwt>
<rscale>  0 0.21741737E+04</rscale>
<asrwt>0</asrwt>
<pdfrwt beam="1">  1        1 0.37531044E+00 0.21741737E+04</pdfrwt>
<pdfrwt beam="2">  1       -1 0.74526568E-01 0.21741737E+04</pdfrwt>
<totfact> 0.24700610E+00</totfact>
</mgrwt>
</event>
<event>
12    2  0.3552864E-008  0.1301744E+04  0.7818608E-02  0.9028183E-01
          1   -1    0    0  501    0  0.00000000000E+00  0.00000000000E+00  0.16363791670E+04  0.16363791670E+04  0.00000000000E+00 0. -1.
         -1   -1    0    0    0  501 -0.00000000000E+00 -0.00000000000E+00 -0.25888526908E+03  0.25888526908E+03  0.00000000000E+00 0.  1.
         23    2    1    2    0    0 -0.89681176777E+01 -0.11699443135E+03 -0.86037005809E+02  0.17496744371E+03  0.97175695971E+02 0.  0.
        254    2    1    2    0    0  0.89681176777E+01  0.11699443135E+03  0.14635309037E+04  0.17202969923E+04  0.89651040802E+03 0.  0.
         23    2    4    4    0    0  0.16881388497E+03  0.34279309195E+03  0.13564672459E+04  0.14122450678E+04  0.91801474398E+02 0.  0.
         23    2    4    4    0    0 -0.15984576730E+03 -0.22579866061E+03  0.10706365783E+03  0.30805192457E+03  0.83052133922E+02 0.  0.
          4    1    3    3  502    0 -0.32239539801E+02 -0.10216815109E+03 -0.28042652117E+02  0.11074343936E+03  0.00000000000E+00 0. -1.
         -4    1    3    3    0  502  0.23271422123E+02 -0.14826280257E+02 -0.57994353692E+02  0.64224004345E+02  0.00000000000E+00 0.  1.
         11    1    5    5    0    0  0.15332092425E+03  0.24115226160E+03  0.10836964279E+04  0.11207406778E+04  0.00000000000E+00 0. -1.
        -11    1    5    5    0    0  0.15492960719E+02  0.10164083035E+03  0.27277081794E+03  0.29150438993E+03  0.00000000000E+00 0.  1.
          2    1    6    6  503    0 -0.15713758124E+03 -0.22673246492E+03  0.11555784684E+03  0.29908768957E+03  0.00000000000E+00 0. -1.
         -2    1    6    6    0  503 -0.27081860560E+01  0.93380430990E+00 -0.84941890107E+01  0.89642350010E+01  0.00000000000E+00 0.  1.
<mgrwt>
<rscale>  0 0.13017442E+04</rscale>
<asrwt>0</asrwt>
<pdfrwt beam="1">  1        1 0.25175063E+00 0.13017442E+04</pdfrwt>
<pdfrwt beam="2">  1       -1 0.39828504E-01 0.13017442E+04</pdfrwt>
<totfact> 0.31775278E+01</totfact>
</mgrwt>
</event>
<event>
12    2  0.3552864E-008  0.2930185E+04  0.7818608E-02  0.8263953E-01
         -1   -1    0    0    0  501 -0.00000000000E+00  0.00000000000E+00  0.12132630658E+04  0.12132630658E+04  0.00000000000E+00 0.  1.
          1   -1    0    0  501    0  0.00000000000E+00 -0.00000000000E+00 -0.17691929693E+04  0.17691929693E+04  0.00000000000E+00 0. -1.
         23    2    1    2    0    0  0.11752112628E+04  0.45876051262E+03  0.15893514857E+03  0.12746434264E+04  0.88728590855E+02 0.  0.
        254    2    1    2    0    0 -0.11752112628E+04 -0.45876051262E+03 -0.71486505209E+03  0.17078126087E+04  0.90222455275E+03 0.  0.
         23    2    4    4    0    0 -0.31027953753E+02 -0.35132240310E+03 -0.33185128352E+03  0.49304828349E+03  0.92634608235E+02 0.  0.
         23    2    4    4    0    0 -0.11441833091E+04 -0.10743810951E+03 -0.38301376857E+03  0.12147643252E+04  0.90853876046E+02 0.  0.
          4    1    3    3  502    0  0.61633249710E+03  0.20963982495E+03  0.11587462371E+03  0.66124241516E+03  0.00000000000E+00 0. -1.
         -4    1    3    3    0  502  0.55887876572E+03  0.24912068767E+03  0.43060524856E+02  0.61340101124E+03  0.00000000000E+00 0.  1.
         11    1    5    5    0    0 -0.40498418630E+02 -0.31013527690E+03 -0.24803791454E+03  0.39918268868E+03  0.00000000000E+00 0. -1.
        -11    1    5    5    0    0  0.94704648766E+01 -0.41187126202E+02 -0.83813368983E+02  0.93865594815E+02  0.00000000000E+00 0.  1.
          3    1    6    6  503    0 -0.99796352168E+03 -0.68378039968E+02 -0.35076090668E+03  0.10600188492E+04  0.00000000000E+00 0. -1.
         -3    1    6    6    0  503 -0.14621978738E+03 -0.39060069547E+02 -0.32252861894E+02  0.15474547604E+03  0.00000000000E+00 0.  1.
<mgrwt>
<rscale>  0 0.29301853E+04</rscale>
<asrwt>0</asrwt>
<pdfrwt beam="1">  1        1 0.27218353E+00 0.29301853E+04</pdfrwt>
<pdfrwt beam="2">  1       -1 0.18665586E+00 0.29301853E+04</pdfrwt>
<totfact> 0.68291812E-01</totfact>
</mgrwt>
</event>
<event>
12    2  0.3552864E-008  0.2054659E+04  0.7818608E-02  0.8581484E-01
          1   -1    0    0  501    0  0.00000000000E+00  0.00000000000E+00  0.13968549493E+04  0.13968549493E+04  0.00000000000E+00 0. -1.
         -1   -1    0    0    0  501 -0.00000000000E+00 -0.00000000000E+00 -0.75555839403E+03  0.75555839403E+03  0.00000000000E+00 0.  1.
         23    2    1    2    0    0 -0.57988733987E+03 -0.44746737529E+03 -0.13733348774E+03  0.75065663819E+03  0.90158320273E+02 0.  0.
        254    2    1    2    0    0  0.57988733987E+03  0.44746737529E+03  0.77863004300E+03  0.14017567051E+04  0.90673079667E+03 0.  0.
         23    2    4    4    0    0 -0.20856436563E+03 -0.24301832615E+02  0.24356583285E+03  0.33443861984E+03  0.91843354849E+02 0.  0.
         23    2    4    4    0    0  0.78845170550E+03  0.47176920790E+03  0.53506421015E+03  0.10673180853E+04  0.93015637246E+02 0.  0.
          4    1    3    3  502    0 -0.16977154252E+03 -0.17208753270E+03 -0.17697968219E+02  0.24238340215E+03  0.00000000000E+00 0. -1.
         -4    1    3    3    0  502 -0.41011579735E+03 -0.27537984259E+03 -0.11963551952E+03  0.50827323604E+03  0.00000000000E+00 0.  1.
         11    1    5    5    0    0 -0.20603496444E+03 -0.25922619210E+01  0.22959784947E+03  0.30850007921E+03  0.00000000000E+00 0.  1.
        -11    1    5    5    0    0 -0.25294011860E+01 -0.21709570694E+02  0.13967983386E+02  0.25938540628E+02  0.00000000000E+00 0. -1.
          2    1    6    6  503    0  0.26955614525E+03  0.15116947199E+03  0.23060605608E+03  0.38560585811E+03  0.00000000000E+00 0. -1.
         -2    1    6    6    0  503  0.51889556025E+03  0.32059973591E+03  0.30445815407E+03  0.68171222718E+03  0.00000000000E+00 0.  1.
<mgrwt>
<rscale>  0 0.20546586E+04</rscale>
<asrwt>0</asrwt>
<pdfrwt beam="1">  1        1 0.21490076E+00 0.20546586E+04</pdfrwt>
<pdfrwt beam="2">  1       -1 0.11623975E+00 0.20546586E+04</pdfrwt>
<totfact> 0.47692912E+00</totfact>
</mgrwt>
</event>
<event>
12    2  0.3552864E-008  0.2720020E+04  0.7818608E-02  0.8328538E-01
          1   -1    0    0  501    0  0.00000000000E+00  0.00000000000E+00  0.12169204510E+04  0.12169204510E+04  0.00000000000E+00 0. -1.
         -1   -1    0    0    0  501 -0.00000000000E+00 -0.00000000000E+00 -0.15199245865E+04  0.15199245865E+04  0.00000000000E+00 0.  1.
         23    2    1    2    0    0 -0.10660152951E+04 -0.29427622519E+03  0.34271784044E+03  0.11613491899E+04  0.91045683423E+02 0.  0.
        254    2    1    2    0    0  0.10660152951E+04  0.29427622519E+03 -0.64572197593E+03  0.15754958477E+04  0.91773808338E+03 0.  0.
         23    2    4    4    0    0 -0.25849346821E+02  0.86620004103E+02 -0.41710904312E+03  0.43715578950E+03  0.94625665621E+02 0.  0.
         23    2    4    4    0    0  0.10918646420E+04  0.20765622108E+03 -0.22861293281E+03  0.11383400582E+04  0.90910464241E+02 0.  0.
          1    1    3    3  502    0 -0.75041772800E+03 -0.16648368162E+03  0.25314999522E+03  0.80927653050E+03  0.00000000000E+00 0. -1.
         -1    1    3    3    0  502 -0.31559756713E+03 -0.12779254356E+03  0.89567845221E+02  0.35207265936E+03  0.00000000000E+00 0.  1.
         11    1    5    5    0    0 -0.22721621009E+02  0.65737665176E+02 -0.11562184157E+03  0.13493006682E+03  0.00000000000E+00 0. -1.
        -11    1    5    5    0    0 -0.31277258117E+01  0.20882338926E+02 -0.30148720155E+03  0.30222572267E+03  0.00000000000E+00 0.  1.
          2    1    6    6  503    0  0.10686820245E+04  0.19137818640E+03 -0.21440968757E+03  0.11066518847E+04  0.00000000000E+00 0.  1.
         -2    1    6    6    0  503  0.23182617452E+02  0.16278034679E+02 -0.14203245244E+02  0.31688173510E+02  0.00000000000E+00 0. -1.
<mgrwt>
<rscale>  0 0.27200201E+04</rscale>
<asrwt>0</asrwt>
<pdfrwt beam="1">  1        1 0.18721853E+00 0.27200201E+04</pdfrwt>
<pdfrwt beam="2">  1       -1 0.23383455E+00 0.27200201E+04</pdfrwt>
<totfact> 0.80595856E-01</totfact>
</mgrwt>
</event>
<event>
12    2  0.3552864E-008  0.1857752E+04  0.7818608E-02  0.8676176E-01
          2   -1    0    0  501    0  0.00000000000E+00  0.00000000000E+00  0.11719614277E+04  0.11719614277E+04  0.00000000000E+00 0. -1.
         -2   -1    0    0    0  501 -0.00000000000E+00 -0.00000000000E+00 -0.73621080305E+03  0.73621080305E+03  0.00000000000E+00 0.  1.
         23    2    1    2    0    0 -0.56671494492E+03 -0.34205401555E+03  0.40231805019E+03  0.78026269202E+03  0.93719137373E+02 0.  0.
        254    2    1    2    0    0  0.56671494492E+03  0.34205401555E+03  0.33432574449E+02  0.11279095387E+04  0.91263103833E+03 0.  0.
         23    2    4    4    0    0  0.39973938916E+03  0.40049996077E+03  0.40787999117E+03  0.70374865905E+03  0.93296785005E+02 0.  0.
         23    2    4    4    0    0  0.16697555576E+03 -0.58445945219E+02 -0.37444741673E+03  0.42416087965E+03  0.91677801039E+02 0.  0.
          4    1    3    3  502    0 -0.20065111530E+03 -0.15019129992E+03  0.19691965543E+03  0.31874072118E+03  0.00000000000E+00 0. -1.
         -4    1    3    3    0  502 -0.36606382962E+03 -0.19186271563E+03  0.20539839476E+03  0.46152197084E+03  0.00000000000E+00 0.  1.
         11    1    5    5    0    0  0.20573621474E+03  0.20216963675E+03  0.15067184779E+03  0.32542580997E+03  0.00000000000E+00 0.  1.
        -11    1    5    5    0    0  0.19400317442E+03  0.19833032402E+03  0.25720814339E+03  0.37832284908E+03  0.00000000000E+00 0. -1.
          3    1    6    6  503    0 -0.31385582986E+01 -0.23314639223E+01  0.39176542091E+01  0.55348249039E+01  0.00000000000E+00 0. -1.
         -3    1    6    6    0  503  0.17011411405E+03 -0.56114481297E+02 -0.37836507093E+03  0.41862605475E+03  0.00000000000E+00 0.  1.
<mgrwt>
<rscale>  0 0.18577520E+04</rscale>
<asrwt>0</asrwt>
<pdfrwt beam="1">  1        2 0.18030176E+00 0.18577520E+04</pdfrwt>
<pdfrwt beam="2">  1       -2 0.11326320E+00 0.18577520E+04</pdfrwt>
<totfact> 0.11325203E+01</totfact>
</mgrwt>
</event>
<event>
12    2  0.3552864E-008  0.3056181E+04  0.7818608E-02  0.8227868E-01
         -1   -1    0    0    0  501 -0.00000000000E+00  0.00000000000E+00  0.17951329631E+04  0.17951329631E+04  0.00000000000E+00 0.  1.
          1   -1    0    0  501    0  0.00000000000E+00 -0.00000000000E+00 -0.13007728197E+04  0.13007728197E+04  0.00000000000E+00 0. -1.
         23    2    1    2    0    0  0.50726966993E+03  0.51605517486E+03  0.14340492539E+04  0.16089233352E+04  0.92203982518E+02 0.  0.
        254    2    1    2    0    0 -0.50726966993E+03 -0.51605517486E+03 -0.93968911051E+03  0.14869824476E+04  0.89692012661E+03 0.  0.
         23    2    4    4    0    0 -0.46966524548E+03 -0.38378908987E+02 -0.63568778518E+02  0.48425310846E+03  0.91660787642E+02 0.  0.
         23    2    4    4    0    0 -0.37604424455E+02 -0.47767626588E+03 -0.87612033199E+03  0.10027293391E+04  0.91052642523E+02 0.  0.
          1    1    3    3  502    0  0.32322724100E+03  0.34313998863E+03  0.83609259904E+03  0.95982901357E+03  0.00000000000E+00 0. -1.
         -1    1    3    3    0  502  0.18404242893E+03  0.17291518624E+03  0.59795665483E+03  0.64909432160E+03  0.00000000000E+00 0.  1.
         11    1    5    5    0    0 -0.47377692206E+03 -0.37619666846E+02 -0.60579908785E+02  0.47911349027E+03  0.00000000000E+00 0. -1.
        -11    1    5    5    0    0  0.41116765806E+01 -0.75924214044E+00 -0.29888697323E+01  0.51396181967E+01  0.00000000000E+00 0.  1.
          1    1    6    6  503    0 -0.61078989451E+02 -0.24914613515E+03 -0.42318186290E+03  0.49486091854E+03  0.00000000000E+00 0. -1.
         -1    1    6    6    0  503  0.23474564997E+02 -0.22853013073E+03 -0.45293846909E+03  0.50786842059E+03  0.00000000000E+00 0.  1.
<mgrwt>
<rscale>  0 0.30561807E+04</rscale>
<asrwt>0</asrwt>
<pdfrwt beam="1">  1        1 0.20011890E+00 0.30561807E+04</pdfrwt>
<pdfrwt beam="2">  1       -1 0.27617430E+00 0.30561807E+04</pdfrwt>
<totfact> 0.36052331E-01</totfact>
</mgrwt>
</event>
<event>
12    2  0.3552864E-008  0.3064480E+04  0.7818608E-02  0.8225554E-01
          2   -1    0    0  501    0  0.00000000000E+00  0.00000000000E+00  0.20655956233E+04  0.20655956233E+04  0.00000000000E+00 0. -1.
         -2   -1    0    0    0  501 -0.00000000000E+00 -0.00000000000E+00 -0.11366018660E+04  0.11366018660E+04  0.00000000000E+00 0.  1.
         23    2    1    2    0    0 -0.13867817997E+04 -0.65450622909E+02  0.27704702938E+03  0.14186326663E+04  0.91192330651E+02 0.  0.
        254    2    1    2    0    0  0.13867817997E+04  0.65450622909E+02  0.65194672790E+03  0.17835648231E+04  0.91028643736E+03 0.  0.
         23    2    4    4    0    0  0.16909803577E+03 -0.27908268538E+03 -0.36186957908E+02  0.34030202974E+03  0.89524770556E+02 0.  0.
         23    2    4    4    0    0  0.12176837640E+04  0.34453330829E+03  0.68813368581E+03  0.14432627934E+04  0.89568809223E+02 0.  0.
          3    1    3    3  502    0 -0.40500133155E+03 -0.53163470707E+02  0.10577992206E+03  0.42195002676E+03  0.00000000000E+00 0. -1.
         -3    1    3    3    0  502 -0.98178046820E+03 -0.12287152202E+02  0.17126710732E+03  0.99668263951E+03  0.00000000000E+00 0.  1.
         11    1    5    5    0    0  0.58248723661E+02 -0.35558453788E+02  0.93715764299E+01  0.68885004818E+02  0.00000000000E+00 0.  1.
        -11    1    5    5    0    0  0.11084931211E+03 -0.24352423159E+03 -0.45558534338E+02  0.27141702492E+03  0.00000000000E+00 0. -1.
          1    1    6    6  503    0  0.12050320318E+04  0.33212569141E+03  0.67129930996E+03  0.14188207907E+04  0.00000000000E+00 0. -1.
         -1    1    6    6    0  503  0.12651732146E+02  0.12407616872E+02  0.16834375850E+02  0.24442002639E+02  0.00000000000E+00 0.  1.
<mgrwt>
<rscale>  0 0.30644803E+04</rscale>
<asrwt>0</asrwt>
<pdfrwt beam="1">  1        2 0.31778394E+00 0.30644803E+04</pdfrwt>
<pdfrwt beam="2">  1       -2 0.17486183E+00 0.30644803E+04</pdfrwt>
<totfact> 0.10298877E+00</totfact>
</mgrwt>
</event>
<event>
12    2  0.3552864E-008  0.1968867E+04  0.7818608E-02  0.8621316E-01
          1   -1    0    0  501    0  0.00000000000E+00  0.00000000000E+00  0.28751445272E+04  0.28751445272E+04  0.00000000000E+00 0. -1.
         -1   -1    0    0    0  501 -0.00000000000E+00 -0.00000000000E+00 -0.33706467851E+03  0.33706467851E+03  0.00000000000E+00 0.  1.
         23    2    1    2    0    0  0.24146694850E+03 -0.70169040174E+03  0.73176625507E+03  0.10463194265E+04  0.92880477239E+02 0.  0.
        254    2    1    2    0    0 -0.24146694850E+03  0.70169040174E+03  0.18063135936E+04  0.21658897792E+04  0.93682123702E+03 0.  0.
         23    2    4    4    0    0 -0.24451936891E+03  0.63186172333E+03  0.18989284881E+04  0.20182335300E+04  0.91094562938E+02 0.  0.
         23    2    4    4    0    0  0.30524204111E+01  0.69828678412E+02 -0.92614894542E+02  0.14765624920E+03  0.91320795207E+02 0.  0.
          2    1    3    3  502    0  0.14364589415E+03 -0.37755264096E+03  0.45976726221E+03  0.61201803487E+03  0.00000000000E+00 0. -1.
         -2    1    3    3    0  502  0.97821054349E+02 -0.32413776078E+03  0.27199899286E+03  0.43430139161E+03  0.00000000000E+00 0.  1.
         11    1    5    5    0    0 -0.13976985324E+03  0.47360281797E+03  0.13620341694E+04  0.14487830478E+04  0.00000000000E+00 0. -1.
        -11    1    5    5    0    0 -0.10474951567E+03  0.15825890536E+03  0.53689431875E+03  0.56945048219E+03  0.00000000000E+00 0.  1.
          4    1    6    6  503    0 -0.21066629913E+02  0.32969393457E+02 -0.95810512630E+02  0.10349124664E+03  0.00000000000E+00 0. -1.
         -4    1    6    6    0  503  0.24119050324E+02  0.36859284955E+02  0.31956180883E+01  0.44165002557E+02  0.00000000000E+00 0.  1.
<mgrwt>
<rscale>  0 0.19688674E+04</rscale>
<asrwt>0</asrwt>
<pdfrwt beam="1">  1        1 0.44232991E+00 0.19688674E+04</pdfrwt>
<pdfrwt beam="2">  1       -1 0.51856106E-01 0.19688674E+04</pdfrwt>
<totfact> 0.25675574E+00</totfact>
</mgrwt>
</event>
<event>
12    2  0.3552864E-008  0.2536765E+04  0.7818608E-02  0.8390004E-01
          1   -1    0    0  501    0  0.00000000000E+00  0.00000000000E+00  0.94566401445E+03  0.94566401445E+03  0.00000000000E+00 0. -1.
         -1   -1    0    0    0  501 -0.00000000000E+00 -0.00000000000E+00 -0.17012319396E+04  0.17012319396E+04  0.00000000000E+00 0.  1.
         23    2    1    2    0    0  0.57457222379E+03 -0.35860507364E+03  0.58424327920E+03  0.89849807338E+03  0.85016112536E+02 0.  0.
        254    2    1    2    0    0 -0.57457222379E+03  0.35860507364E+03 -0.13398112044E+04  0.17483978807E+04  0.89614186746E+03 0.  0.
         23    2    4    4    0    0 -0.52249616004E+03  0.34279899403E+03 -0.14577568220E+04  0.15893971548E+04  0.10302900653E+03 0.  0.
         23    2    4    4    0    0 -0.52076063750E+02  0.15806079612E+02  0.11794561761E+03  0.15900072585E+03  0.91696856761E+02 0.  0.
          4    1    3    3  502    0  0.32651774862E+03 -0.15976584594E+03  0.33806056643E+03  0.49641103158E+03  0.00000000000E+00 0. -1.
         -4    1    3    3    0  502  0.24805447517E+03 -0.19883922770E+03  0.24618271277E+03  0.40208704181E+03  0.00000000000E+00 0.  1.
         11    1    5    5    0    0 -0.76119274188E+00  0.19008170561E+02 -0.36299806590E+02  0.40982507499E+02  0.00000000000E+00 0. -1.
        -11    1    5    5    0    0 -0.52173496730E+03  0.32379082347E+03 -0.14214570154E+04  0.15484146473E+04  0.00000000000E+00 0.  1.
          3    1    6    6  503    0 -0.36765592494E+02  0.35448782743E+02  0.15208541868E+02  0.53288129402E+02  0.00000000000E+00 0. -1.
         -3    1    6    6    0  503 -0.15310471256E+02 -0.19642703131E+02  0.10273707574E+03  0.10571259645E+03  0.00000000000E+00 0.  1.
<mgrwt>
<rscale>  0 0.25367647E+04</rscale>
<asrwt>0</asrwt>
<pdfrwt beam="1">  1        1 0.14548677E+00 0.25367647E+04</pdfrwt>
<pdfrwt beam="2">  1       -1 0.26172799E+00 0.25367647E+04</pdfrwt>
<totfact> 0.86509682E-01</totfact>
</mgrwt>
</event>
<event>
12    2  0.3552864E-008  0.1560208E+04  0.7818608E-02  0.8845373E-01
          2   -1    0    0  501    0  0.00000000000E+00  0.00000000000E+00  0.22956183671E+04  0.22956183671E+04  0.00000000000E+00 0. -1.
         -2   -1    0    0    0  501 -0.00000000000E+00 -0.00000000000E+00 -0.26509741860E+03  0.26509741860E+03  0.00000000000E+00 0.  1.
         23    2    1    2    0    0  0.35677251496E+03 -0.34617247740E+03  0.42193852681E+03  0.65955574176E+03  0.99295742831E+02 0.  0.
        254    2    1    2    0    0 -0.35677251496E+03  0.34617247740E+03  0.16085824217E+04  0.19011600439E+04  0.88303459374E+03 0.  0.
         23    2    4    4    0    0  0.89927848291E+02  0.43476533577E+03  0.39404050828E+03  0.60083116255E+03  0.92856064151E+02 0.  0.
         23    2    4    4    0    0 -0.44670036325E+03 -0.88592858361E+02  0.12145419134E+04  0.13003288814E+04  0.91396013271E+02 0.  0.
          2    1    3    3  502    0  0.24951368821E+03 -0.20008598172E+03  0.21984995971E+03  0.38810499284E+03  0.00000000000E+00 0.  1.
         -2    1    3    3    0  502  0.10725882674E+03 -0.14608649569E+03  0.20208856710E+03  0.27145074892E+03  0.00000000000E+00 0. -1.
         11    1    5    5    0    0  0.27571689250E+02  0.10402960069E+03  0.15213248224E+03  0.18635087341E+03  0.00000000000E+00 0. -1.
        -11    1    5    5    0    0  0.62356159041E+02  0.33073573508E+03  0.24190802603E+03  0.41448028914E+03  0.00000000000E+00 0.  1.
          1    1    6    6  503    0 -0.43945835592E+02 -0.38866849418E+02  0.15451387079E+03  0.16527675189E+03  0.00000000000E+00 0. -1.
         -1    1    6    6    0  503 -0.40275452766E+03 -0.49726008944E+02  0.10600280426E+04  0.11350521295E+04  0.00000000000E+00 0.  1.
<mgrwt>
<rscale>  0 0.15602083E+04</rscale>
<asrwt>0</asrwt>
<pdfrwt beam="1">  1        2 0.35317204E+00 0.15602083E+04</pdfrwt>
<pdfrwt beam="2">  1       -2 0.40784220E-01 0.15602083E+04</pdfrwt>
<totfact> 0.24999285E+01</totfact>
</mgrwt>
</event>
<event>
12    2  0.3552864E-008  0.1284103E+04  0.7818608E-02  0.9042268E-01
          2   -1    0    0  501    0  0.00000000000E+00  0.00000000000E+00  0.72205337193E+03  0.72205337193E+03  0.00000000000E+00 0. -1.
         -2   -1    0    0    0  501 -0.00000000000E+00 -0.00000000000E+00 -0.57091336634E+03  0.57091336634E+03  0.00000000000E+00 0.  1.
         23    2    1    2    0    0  0.81601728160E+02  0.23380436129E+03 -0.15396163526E+03  0.30520497302E+03  0.90125296247E+02 0.  0.
        254    2    1    2    0    0 -0.81601728160E+02 -0.23380436129E+03  0.30510164085E+03  0.98776176525E+03  0.90623560526E+03 0.  0.
         23    2    4    4    0    0  0.14546980738E+03  0.22725531661E+03  0.36365152397E+03  0.46220064985E+03  0.92631344881E+02 0.  0.
         23    2    4    4    0    0 -0.22707153554E+03 -0.46105967790E+03 -0.58549883115E+02  0.52556111540E+03  0.92999399800E+02 0.  0.
          3    1    3    3  502    0  0.34760492438E+02  0.24215725540E+02 -0.53132372622E+02  0.67953971322E+02  0.00000000000E+00 0. -1.
         -3    1    3    3    0  502  0.46841235722E+02  0.20958863575E+03 -0.10082926264E+03  0.23725100169E+03  0.00000000000E+00 0.  1.
         11    1    5    5    0    0 -0.49253033449E+01  0.55296641767E+02  0.89781952327E+02  0.10555934903E+03  0.00000000000E+00 0.  1.
        -11    1    5    5    0    0  0.15039511072E+03  0.17195867484E+03  0.27386957164E+03  0.35664130082E+03  0.00000000000E+00 0. -1.
          4    1    6    6  503    0 -0.22741713737E+03 -0.40029704135E+03 -0.62792723145E+02  0.46464954725E+03  0.00000000000E+00 0. -1.
         -4    1    6    6    0  503  0.34560183891E+00 -0.60762636557E+02  0.42428400297E+01  0.60911568142E+02  0.00000000000E+00 0.  1.
<mgrwt>
<rscale>  0 0.12841027E+04</rscale>
<asrwt>0</asrwt>
<pdfrwt beam="1">  1        2 0.11108513E+00 0.12841027E+04</pdfrwt>
<pdfrwt beam="2">  1       -2 0.87832825E-01 0.12841027E+04</pdfrwt>
<totfact> 0.43216408E+01</totfact>
</mgrwt>
</event>
<event>
12    2  0.3552864E-008  0.1904192E+04  0.7818608E-02  0.8652773E-01
         -2   -1    0    0    0  501 -0.00000000000E+00  0.00000000000E+00  0.97183642713E+03  0.97183642713E+03  0.00000000000E+00 0. -1.
          2   -1    0    0  501    0  0.00000000000E+00 -0.00000000000E+00 -0.93275643387E+03  0.93275643387E+03  0.00000000000E+00 0.  1.
         23    2    1    2    0    0 -0.29371227710E+03  0.42626638349E+03 -0.52379936682E+03  0.74178177668E+03  0.88907233220E+02 0.  0.
        254    2    1    2    0    0  0.29371227710E+03 -0.42626638349E+03  0.56287936008E+03  0.11628110843E+04  0.87597175320E+03 0.  0.
         23    2    4    4    0    0 -0.20306775117E+03 -0.35349064618E+03  0.49471337091E+03  0.64737022529E+03  0.90303603119E+02 0.  0.
         23    2    4    4    0    0  0.49678002827E+03 -0.72775737316E+02  0.68165989164E+02  0.51544085903E+03  0.94583152037E+02 0.  0.
          3    1    3    3  502    0 -0.92314392871E+02  0.17276626019E+03 -0.25115640530E+03  0.31851164455E+03  0.00000000000E+00 0. -1.
         -3    1    3    3    0  502 -0.20139788423E+03  0.25350012330E+03 -0.27264296151E+03  0.42327013212E+03  0.00000000000E+00 0.  1.
         11    1    5    5    0    0 -0.18770406292E+01  0.23359739910E+01  0.22971725486E+02  0.23166359831E+02  0.00000000000E+00 0. -1.
        -11    1    5    5    0    0 -0.20119071054E+03 -0.35582662017E+03  0.47174164543E+03  0.62420386546E+03  0.00000000000E+00 0.  1.
          3    1    6    6  503    0  0.10644368411E+03  0.23156539720E+02  0.12321954493E+02  0.10962807022E+03  0.00000000000E+00 0. -1.
         -3    1    6    6    0  503  0.39033634416E+03 -0.95932277036E+02  0.55844034671E+02  0.40581278880E+03  0.00000000000E+00 0.  1.
<mgrwt>
<rscale>  0 0.19041919E+04</rscale>
<asrwt>0</asrwt>
<pdfrwt beam="1">  1        2 0.14350099E+00 0.19041919E+04</pdfrwt>
<pdfrwt beam="2">  1       -2 0.14951330E+00 0.19041919E+04</pdfrwt>
<totfact> 0.78852088E+00</totfact>
</mgrwt>
</event>
<event>
12    2  0.3552864E-008  0.1137082E+04  0.7818608E-02  0.9169784E-01
          2   -1    0    0  501    0  0.00000000000E+00  0.00000000000E+00  0.51326365655E+03  0.51326365655E+03  0.00000000000E+00 0. -1.
         -2   -1    0    0    0  501 -0.00000000000E+00 -0.00000000000E+00 -0.62977192701E+03  0.62977192701E+03  0.00000000000E+00 0.  1.
         23    2    1    2    0    0 -0.73480419952E+02 -0.15334055891E+03 -0.33028839382E+01  0.19043481310E+03  0.85684361913E+02 0.  0.
        254    2    1    2    0    0  0.73480419952E+02  0.15334055891E+03 -0.11320538653E+03  0.95260077046E+03  0.93044079297E+03 0.  0.
         23    2    4    4    0    0 -0.27856392367E+03  0.25377555299E+03 -0.33846192476E+03  0.51457702125E+03  0.90736681841E+02 0.  0.
         23    2    4    4    0    0  0.35204434362E+03 -0.10043499408E+03  0.22525653823E+03  0.43802374920E+03  0.84272705786E+02 0.  0.
          1    1    3    3  502    0  0.18273967150E+02 -0.28001377482E+02  0.89620435612E+01  0.34616950199E+02  0.00000000000E+00 0. -1.
         -1    1    3    3    0  502 -0.91754387103E+02 -0.12533918142E+03 -0.12264927499E+02  0.15581786290E+03  0.00000000000E+00 0.  1.
         11    1    5    5    0    0 -0.30660945309E+02  0.22900387679E+02 -0.79300625821E+02  0.88051749436E+02  0.00000000000E+00 0. -1.
        -11    1    5    5    0    0 -0.24790297836E+03  0.23087516531E+03 -0.25916129893E+03  0.42652527182E+03  0.00000000000E+00 0.  1.
          1    1    6    6  503    0  0.29956281451E+02 -0.19261745886E+02  0.53001867836E+02  0.63856022794E+02  0.00000000000E+00 0. -1.
         -1    1    6    6    0  503  0.32208806217E+03 -0.81173248195E+02  0.17225467039E+03  0.37416772641E+03  0.00000000000E+00 0.  1.
<mgrwt>
<rscale>  0 0.11370823E+04</rscale>
<asrwt>0</asrwt>
<pdfrwt beam="1">  1        2 0.78963639E-01 0.11370823E+04</pdfrwt>
<pdfrwt beam="2">  1       -2 0.96887989E-01 0.11370823E+04</pdfrwt>
<totfact> 0.52674722E+01</totfact>
</mgrwt>
</event>
<event>
12    2  0.3552864E-008  0.1413714E+04  0.7818608E-02  0.8943951E-01
         -2   -1    0    0    0  501 -0.00000000000E+00  0.00000000000E+00  0.70671747313E+03  0.70671747313E+03  0.00000000000E+00 0.  1.
          2   -1    0    0  501    0  0.00000000000E+00 -0.00000000000E+00 -0.70699665885E+03  0.70699665885E+03  0.00000000000E+00 0. -1.
         23    2    1    2    0    0 -0.10517482952E+01  0.15457245834E+03 -0.41205294604E+03  0.44938630322E+03  0.90921219368E+02 0.  0.
        254    2    1    2    0    0  0.10517482952E+01 -0.15457245834E+03  0.41177376032E+03  0.96432782876E+03  0.85818225371E+03 0.  0.
         23    2    4    4    0    0 -0.13863849483E+03 -0.44635044384E+03  0.41360094981E+03  0.63063400013E+03  0.90466266996E+02 0.  0.
         23    2    4    4    0    0  0.13969024313E+03  0.29177798550E+03 -0.18271894916E+01  0.33369382863E+03  0.81856434065E+02 0.  0.
          4    1    3    3  502    0  0.24952221252E+01  0.16665533254E+03 -0.38610770888E+03  0.42054653590E+03  0.00000000000E+00 0. -1.
         -4    1    3    3    0  502 -0.35469704204E+01 -0.12082874201E+02 -0.25945237159E+02  0.28839767325E+02  0.00000000000E+00 0.  1.
         11    1    5    5    0    0 -0.85484522371E+02 -0.19232924041E+03  0.23567397447E+03  0.31597525619E+03  0.00000000000E+00 0. -1.
        -11    1    5    5    0    0 -0.53153972460E+02 -0.25402120344E+03  0.17792697534E+03  0.31465874394E+03  0.00000000000E+00 0.  1.
          4    1    6    6  503    0  0.13288852399E+03  0.20581742823E+03 -0.19165779985E+02  0.24573868376E+03  0.00000000000E+00 0. -1.
         -4    1    6    6    0  503  0.68017191321E+01  0.85960557273E+02  0.17338590494E+02  0.87955144876E+02  0.00000000000E+00 0.  1.
<mgrwt>
<rscale>  0 0.14137141E+04</rscale>
<asrwt>0</asrwt>
<pdfrwt beam="1">  1        2 0.10876872E+00 0.14137141E+04</pdfrwt>
<pdfrwt beam="2">  1       -2 0.10872577E+00 0.14137141E+04</pdfrwt>
<totfact> 0.26588733E+01</totfact>
</mgrwt>
</event>
<event>
12    2  0.3552864E-008  0.2172863E+04  0.7818608E-02  0.8529809E-01
          2   -1    0    0  501    0  0.00000000000E+00  0.00000000000E+00  0.23244709857E+04  0.23244709857E+04  0.00000000000E+00 0. -1.
         -2   -1    0    0    0  501 -0.00000000000E+00 -0.00000000000E+00 -0.50778602289E+03  0.50778602289E+03  0.00000000000E+00 0.  1.
         23    2    1    2    0    0 -0.39686080932E+03  0.77616252063E+03  0.47099027056E+03  0.99812402042E+03  0.12038673003E+03 0.  0.
        254    2    1    2    0    0  0.39686080932E+03 -0.77616252063E+03  0.13456946923E+04  0.18341329882E+04  0.89063059301E+03 0.  0.
         23    2    4    4    0    0  0.53816539480E+03 -0.27073519097E+03  0.34245850549E+03  0.69777075991E+03  0.81772058852E+02 0.  0.
         23    2    4    4    0    0 -0.14130458548E+03 -0.50542732966E+03  0.10032361868E+04  0.11363622283E+04  0.97018018872E+02 0.  0.
          4    1    3    3  502    0 -0.16617548650E+03  0.23770442135E+03  0.20252772024E+03  0.35374448647E+03  0.00000000000E+00 0. -1.
         -4    1    3    3    0  502 -0.23068532282E+03  0.53845809928E+03  0.26846255032E+03  0.64437953394E+03  0.00000000000E+00 0.  1.
         11    1    5    5    0    0  0.48591917005E+03 -0.21443328829E+03  0.29762358765E+03  0.60883402901E+03  0.00000000000E+00 0.  1.
        -11    1    5    5    0    0  0.52246224752E+02 -0.56301902677E+02  0.44834917832E+02  0.88936730898E+02  0.00000000000E+00 0. -1.
          3    1    6    6  503    0 -0.42065985690E+02 -0.68968319835E+02  0.10217829040E+03  0.13025582260E+03  0.00000000000E+00 0. -1.
         -3    1    6    6    0  503 -0.99238599794E+02 -0.43645900982E+03  0.90105789638E+03  0.10061064057E+04  0.00000000000E+00 0.  1.
<mgrwt>
<rscale>  0 0.21728634E+04</rscale>
<asrwt>0</asrwt>
<pdfrwt beam="1">  1        2 0.35761092E+00 0.21728634E+04</pdfrwt>
<pdfrwt beam="2">  1       -2 0.78120928E-01 0.21728634E+04</pdfrwt>
<totfact> 0.58644585E+00</totfact>
</mgrwt>
</event>
<event>
12    2  0.3552864E-008  0.3513617E+04  0.7818608E-02  0.8110571E-01
          1   -1    0    0  501    0  0.00000000000E+00  0.00000000000E+00  0.31915759623E+04  0.31915759623E+04  0.00000000000E+00 0. -1.
         -1   -1    0    0    0  501 -0.00000000000E+00 -0.00000000000E+00 -0.96703805927E+03  0.96703805927E+03  0.00000000000E+00 0.  1.
         23    2    1    2    0    0  0.95625540322E+03 -0.62841574184E+03 -0.35052778498E+03  0.12001754915E+04  0.90668305011E+02 0.  0.
        254    2    1    2    0    0 -0.95625540322E+03  0.62841574184E+03  0.25750656880E+04  0.29584385301E+04  0.90114621343E+03 0.  0.
         23    2    4    4    0    0 -0.11119529679E+04  0.57462823481E+03  0.20874552823E+04  0.24357661811E+04  0.94076150294E+02 0.  0.
         23    2    4    4    0    0  0.15569756471E+03  0.53787507031E+02  0.48761040563E+03  0.52267234896E+03  0.91036526305E+02 0.  0.
          4    1    3    3  502    0  0.17191902075E+02 -0.18995445552E+02  0.39326968735E+01  0.25920157279E+02  0.00000000000E+00 0. -1.
         -4    1    3    3    0  502  0.93906350114E+03 -0.60942029629E+03 -0.35446048186E+03  0.11742553342E+04  0.00000000000E+00 0.  1.
         11    1    5    5    0    0 -0.16686579005E+03  0.10227865283E+03  0.38994052935E+03  0.43630119315E+03  0.00000000000E+00 0. -1.
        -11    1    5    5    0    0 -0.94508717788E+03  0.47234958198E+03  0.16975147530E+04  0.19994649879E+04  0.00000000000E+00 0.  1.
          4    1    6    6  503    0  0.93385680631E+02  0.53125633654E+02  0.40609124011E+03  0.42006346377E+03  0.00000000000E+00 0.  1.
         -4    1    6    6    0  503  0.62311884081E+02  0.66187337641E+00  0.81519165523E+02  0.10260888520E+03  0.00000000000E+00 0. -1.
<mgrwt>
<rscale>  0 0.35136166E+04</rscale>
<asrwt>0</asrwt>
<pdfrwt beam="1">  1        1 0.49101168E+00 0.35136166E+04</pdfrwt>
<pdfrwt beam="2">  1       -1 0.14877509E+00 0.35136166E+04</pdfrwt>
<totfact> 0.12524112E-01</totfact>
</mgrwt>
</event>
<event>
12    2  0.3552864E-008  0.1898164E+04  0.7818608E-02  0.8655771E-01
          1   -1    0    0  501    0  0.00000000000E+00  0.00000000000E+00  0.27528983119E+04  0.27528983119E+04  0.00000000000E+00 0. -1.
         -1   -1    0    0    0  501 -0.00000000000E+00 -0.00000000000E+00 -0.32720286909E+03  0.32720286909E+03  0.00000000000E+00 0.  1.
         23    2    1    2    0    0 -0.72082446874E+02 -0.18808264575E+03  0.20758631056E+04  0.20876414165E+04  0.92022225263E+02 0.  0.
        254    2    1    2    0    0  0.72082446874E+02  0.18808264575E+03  0.34983233720E+03  0.99245976448E+03  0.90665470780E+03 0.  0.
         23    2    4    4    0    0 -0.29573939154E+03 -0.16036209702E+03 -0.32039574947E+02  0.34994691565E+03  0.90876397066E+02 0.  0.
         23    2    4    4    0    0  0.36782183841E+03  0.34844474276E+03  0.38187191215E+03  0.64251284883E+03  0.10143944032E+03 0.  0.
          4    1    3    3  502    0 -0.49096076981E+02 -0.65491375818E+02  0.48153628101E+03  0.48844317481E+03  0.00000000000E+00 0.  1.
         -4    1    3    3    0  502 -0.22986369893E+02 -0.12259126993E+03  0.15943268246E+04  0.15991982417E+04  0.00000000000E+00 0. -1.
         11    1    5    5    0    0 -0.27739134340E+03 -0.13586382129E+03 -0.52255333292E+02  0.31326594961E+03  0.00000000000E+00 0.  1.
        -11    1    5    5    0    0 -0.18348048139E+02 -0.24498275727E+02  0.20215758346E+02  0.36680966040E+02  0.00000000000E+00 0. -1.
          4    1    6    6  503    0  0.36520035640E+03  0.35027228667E+03  0.38660026423E+03  0.63680588834E+03  0.00000000000E+00 0.  1.
         -4    1    6    6    0  503  0.26214820111E+01 -0.18275439055E+01 -0.47283520793E+01  0.57069604911E+01  0.00000000000E+00 0. -1.
<mgrwt>
<rscale>  0 0.18981636E+04</rscale>
<asrwt>0</asrwt>
<pdfrwt beam="1">  1        1 0.42352280E+00 0.18981636E+04</pdfrwt>
<pdfrwt beam="2">  1       -1 0.50338905E-01 0.18981636E+04</pdfrwt>
<totfact> 0.33431583E+00</totfact>
</mgrwt>
</event>
<event>
12    2  0.3552864E-008  0.2689540E+04  0.7818608E-02  0.8338407E-01
         -2   -1    0    0    0  501 -0.00000000000E+00  0.00000000000E+00  0.24328499064E+04  0.24328499064E+04  0.00000000000E+00 0.  1.
          2   -1    0    0  501    0  0.00000000000E+00 -0.00000000000E+00 -0.74332823786E+03  0.74332823786E+03  0.00000000000E+00 0. -1.
         23    2    1    2    0    0 -0.81062543628E+03 -0.14819632472E+03 -0.26398141049E+03  0.86987972198E+03  0.89043792684E+02 0.  0.
        254    2    1    2    0    0  0.81062543628E+03  0.14819632472E+03  0.19535030790E+04  0.23062984223E+04  0.90761356544E+03 0.  0.
         23    2    4    4    0    0  0.10720953344E+03 -0.25798408428E+03  0.16058343735E+03  0.33587921024E+03  0.94753003744E+02 0.  0.
         23    2    4    4    0    0  0.70341590284E+03  0.40618040900E+03  0.17929196417E+04  0.19704192120E+04  0.90634279345E+02 0.  0.
          2    1    3    3  502    0 -0.63691949214E+03 -0.79045981953E+02 -0.19912810413E+03  0.67198713424E+03  0.00000000000E+00 0. -1.
         -2    1    3    3    0  502 -0.17370594414E+03 -0.69150342769E+02 -0.64853306369E+02  0.19789258774E+03  0.00000000000E+00 0.  1.
         11    1    5    5    0    0  0.69219466519E+02 -0.77072487903E+02  0.92507474416E+02  0.13888533313E+03  0.00000000000E+00 0.  1.
        -11    1    5    5    0    0  0.37990066917E+02 -0.18091159638E+03  0.68075962938E+02  0.19699387711E+03  0.00000000000E+00 0. -1.
          4    1    6    6  503    0  0.15826486436E+02 -0.55290383902E+00  0.62754659331E+02  0.64721948699E+02  0.00000000000E+00 0.  1.
         -4    1    6    6    0  503  0.68758941641E+03  0.40673331284E+03  0.17301649823E+04  0.19056972633E+04  0.00000000000E+00 0. -1.
<mgrwt>
<rscale>  0 0.26895398E+04</rscale>
<asrwt>0</asrwt>
<pdfrwt beam="1">  1        2 0.11435819E+00 0.26895398E+04</pdfrwt>
<pdfrwt beam="2">  1       -2 0.37428460E+00 0.26895398E+04</pdfrwt>
<totfact> 0.36302124E-01</totfact>
</mgrwt>
</event>
<event>
12    2  0.3654138E-008  0.1675684E+04  0.7818608E-02  0.8775355E-01
          2   -1    0    0  501    0  0.00000000000E+00  0.00000000000E+00  0.14678446540E+04  0.14678446540E+04  0.00000000000E+00 0. -1.
         -2   -1    0    0    0  501 -0.00000000000E+00 -0.00000000000E+00 -0.47823823815E+03  0.47823823815E+03  0.00000000000E+00 0.  1.
         23    2    1    2    0    0 -0.22575205247E+03 -0.45180311539E+03 -0.93067162045E+01  0.51333832550E+03  0.91321285506E+02 0.  0.
        254    2    1    2    0    0  0.22575205247E+03  0.45180311539E+03  0.99891313211E+03  0.14327445667E+04  0.89433746630E+03 0.  0.
         23    2    4    4    0    0  0.10992511008E+03  0.44124266663E+01 -0.14054448477E+03  0.19972193419E+03  0.89627559731E+02 0.  0.
         23    2    4    4    0    0  0.11582694239E+03  0.44739068872E+03  0.11394576169E+04  0.12330226325E+04  0.91688836068E+02 0.  0.
          3    1    3    3  502    0 -0.90908956920E+01 -0.34078302299E+02 -0.23793670335E+02  0.42545432423E+02  0.00000000000E+00 0. -1.
         -3    1    3    3    0  502 -0.21666115678E+03 -0.41772481309E+03  0.14486954131E+02  0.47079289307E+03  0.00000000000E+00 0.  1.
         11    1    5    5    0    0  0.74674096154E+02  0.63915298148E+01 -0.25161553011E+02  0.79058054869E+02  0.00000000000E+00 0. -1.
        -11    1    5    5    0    0  0.35251013926E+02 -0.19791031485E+01 -0.11538293176E+03  0.12066387933E+03  0.00000000000E+00 0.  1.
          2    1    6    6  503    0  0.56122127403E+01  0.20212499193E+03  0.49838167635E+03  0.53783854883E+03  0.00000000000E+00 0. -1.
         -2    1    6    6    0  503  0.11021472965E+03  0.24526569680E+03  0.64107594053E+03  0.69518408367E+03  0.00000000000E+00 0.  1.
<mgrwt>
<rscale>  0 0.16756843E+04</rscale>
<asrwt>0</asrwt>
<pdfrwt beam="1">  1        2 0.22582225E+00 0.16756843E+04</pdfrwt>
<pdfrwt beam="2">  1       -2 0.73575114E-01 0.16756843E+04</pdfrwt>
<totfact> 0.21025533E+01</totfact>
</mgrwt>
</event>
<event>
12    2  0.3552864E-008  0.1711712E+04  0.7818608E-02  0.8754713E-01
         -1   -1    0    0    0  501 -0.00000000000E+00  0.00000000000E+00  0.33444549837E+03  0.33444549837E+03  0.00000000000E+00 0.  1.
          1   -1    0    0  501    0  0.00000000000E+00 -0.00000000000E+00 -0.21901610359E+04  0.21901610359E+04  0.00000000000E+00 0. -1.
         23    2    1    2    0    0 -0.34243632946E+03 -0.52293257464E+03 -0.64153449791E+03  0.90076390428E+03  0.95330907329E+02 0.  0.
        254    2    1    2    0    0  0.34243632946E+03  0.52293257464E+03 -0.12141810396E+04  0.16238426300E+04  0.87858304820E+03 0.  0.
         23    2    4    4    0    0  0.14991687916E+03  0.21464842355E+03 -0.12176921497E+04  0.12494340680E+04  0.98804364910E+02 0.  0.
         23    2    4    4    0    0  0.19251945030E+03  0.30828415109E+03  0.35111100593E+01  0.37440856197E+03  0.89814179404E+02 0.  0.
          4    1    3    3  502    0 -0.20713441013E+03 -0.30268285335E+03 -0.44113506627E+03  0.57369131096E+03  0.00000000000E+00 0. -1.
         -4    1    3    3    0  502 -0.13530191934E+03 -0.22024972129E+03 -0.20039943164E+03  0.32707259332E+03  0.00000000000E+00 0.  1.
         11    1    5    5    0    0  0.70143131446E+02  0.17344323742E+03 -0.73326850054E+03  0.75675974349E+03  0.00000000000E+00 0. -1.
        -11    1    5    5    0    0  0.79773747718E+02  0.41205186132E+02 -0.48442364911E+03  0.49267432449E+03  0.00000000000E+00 0.  1.
          2    1    6    6  503    0  0.39648696625E+02  0.63550986226E+02 -0.36095783724E+02  0.83148376996E+02  0.00000000000E+00 0.  1.
         -2    1    6    6    0  503  0.15287075368E+03  0.24473316487E+03  0.39606893783E+02  0.29126018497E+03  0.00000000000E+00 0. -1.
<mgrwt>
<rscale>  0 0.17117120E+04</rscale>
<asrwt>0</asrwt>
<pdfrwt beam="1">  1        1 0.33694785E+00 0.17117120E+04</pdfrwt>
<pdfrwt beam="2">  1       -1 0.51453154E-01 0.17117120E+04</pdfrwt>
<totfact> 0.79972767E+00</totfact>
</mgrwt>
</event>
<event>
12    2  0.3552864E-008  0.2439589E+04  0.7818608E-02  0.8424829E-01
         -2   -1    0    0    0  501 -0.00000000000E+00  0.00000000000E+00  0.92944609551E+03  0.92944609551E+03  0.00000000000E+00 0. -1.
          2   -1    0    0  501    0  0.00000000000E+00 -0.00000000000E+00 -0.16008441662E+04  0.16008441662E+04  0.00000000000E+00 0.  1.
         23    2    1    2    0    0 -0.26645046309E+03 -0.77769645936E+03 -0.95893612598E+03  0.12660983217E+04  0.87400425684E+02 0.  0.
        254    2    1    2    0    0  0.26645046309E+03  0.77769645936E+03  0.28753805531E+03  0.12641919399E+04  0.91634900316E+03 0.  0.
         23    2    4    4    0    0  0.41774223315E+03  0.75461522221E+03  0.48659176796E+03  0.99448475084E+03  0.90970676873E+02 0.  0.
         23    2    4    4    0    0 -0.15129177006E+03  0.23081237151E+02 -0.19905371265E+03  0.26970718911E+03  0.98476617219E+02 0.  0.
          4    1    3    3  502    0  0.65050664983E+00 -0.66592415607E+02 -0.65781691064E+02  0.93606644286E+02  0.00000000000E+00 0. -1.
         -4    1    3    3    0  502 -0.26710096974E+03 -0.71110404376E+03 -0.89315443492E+03  0.11724916775E+04  0.00000000000E+00 0.  1.
         11    1    5    5    0    0  0.33769349347E+03  0.59659822541E+03  0.34356158746E+03  0.76681216897E+03  0.00000000000E+00 0.  1.
        -11    1    5    5    0    0  0.80048739682E+02  0.15801699680E+03  0.14303018050E+03  0.22767258187E+03  0.00000000000E+00 0. -1.
          2    1    6    6  503    0 -0.11723384912E+03  0.45884394105E+02 -0.18968849436E+03  0.22766395827E+03  0.00000000000E+00 0. -1.
         -2    1    6    6    0  503 -0.34057920936E+02 -0.22803156954E+02 -0.93652182937E+01  0.42043230837E+02  0.00000000000E+00 0.  1.
<mgrwt>
<rscale>  0 0.24395888E+04</rscale>
<asrwt>0</asrwt>
<pdfrwt beam="1">  1        2 0.24628372E+00 0.24395888E+04</pdfrwt>
<pdfrwt beam="2">  1       -2 0.14299171E+00 0.24395888E+04</pdfrwt>
<totfact> 0.33942253E+00</totfact>
</mgrwt>
</event>
<event>
12    2  0.3552864E-008  0.2139526E+04  0.7818608E-02  0.8544029E-01
         -1   -1    0    0    0  501 -0.00000000000E+00  0.00000000000E+00  0.47733371603E+03  0.47733371603E+03  0.00000000000E+00 0.  1.
          1   -1    0    0  501    0  0.00000000000E+00 -0.00000000000E+00 -0.23974686584E+04  0.23974686584E+04  0.00000000000E+00 0. -1.
         23    2    1    2    0    0  0.10046298292E+03 -0.44183877553E+02 -0.19573202401E+04  0.19624713692E+04  0.90257003052E+02 0.  0.
        254    2    1    2    0    0 -0.10046298292E+03  0.44183877553E+02  0.37185297795E+02  0.91233100517E+03  0.90494203718E+03 0.  0.
         23    2    4    4    0    0 -0.17069197591E+03 -0.15358357508E+03  0.40814220422E+03  0.47719128076E+03  0.91694025962E+02 0.  0.
         23    2    4    4    0    0  0.70228992990E+02  0.19776745263E+03 -0.37095690642E+03  0.43513972441E+03  0.87712465242E+02 0.  0.
          4    1    3    3  502    0  0.10835379666E+03 -0.26727582567E+02 -0.12728677502E+04  0.12777508437E+04  0.00000000000E+00 0. -1.
         -4    1    3    3    0  502 -0.78908137428E+01 -0.17456294986E+02 -0.68445248990E+03  0.68472052554E+03  0.00000000000E+00 0.  1.
         11    1    5    5    0    0 -0.14285068648E+03 -0.16290731755E+03  0.34246357023E+03  0.40524857763E+03  0.00000000000E+00 0. -1.
        -11    1    5    5    0    0 -0.27841289431E+02  0.93237424716E+01  0.65678633993E+02  0.71942703133E+02  0.00000000000E+00 0.  1.
          2    1    6    6  503    0  0.57074146892E+02  0.19187126611E+03 -0.28676791467E+03  0.34972543214E+03  0.00000000000E+00 0. -1.
         -2    1    6    6    0  503  0.13154846098E+02  0.58961865255E+01 -0.84188991757E+02  0.85414292273E+02  0.00000000000E+00 0.  1.
<mgrwt>
<rscale>  0 0.21395258E+04</rscale>
<asrwt>0</asrwt>
<pdfrwt beam="1">  1        1 0.36884134E+00 0.21395258E+04</pdfrwt>
<pdfrwt beam="2">  1       -1 0.73435955E-01 0.21395258E+04</pdfrwt>
<totfact> 0.27315994E+00</totfact>
</mgrwt>
</event>
<event>
12    2  0.3552864E-008  0.1321878E+04  0.7818608E-02  0.9012394E-01
         -1   -1    0    0    0  501 -0.00000000000E+00  0.00000000000E+00  0.31385505756E+03  0.31385505756E+03  0.00000000000E+00 0.  1.
          1   -1    0    0  501    0  0.00000000000E+00 -0.00000000000E+00 -0.13918528062E+04  0.13918528062E+04  0.00000000000E+00 0. -1.
         23    2    1    2    0    0 -0.35361439945E+03 -0.84709246844E+02 -0.36950738644E+03  0.52638540112E+03  0.91252845909E+02 0.  0.
        254    2    1    2    0    0  0.35361439945E+03  0.84709246844E+02 -0.70849036222E+03  0.11793224627E+04  0.86984140945E+03 0.  0.
         23    2    4    4    0    0 -0.11029760942E+03 -0.22326350678E+02  0.14057783906E+03  0.20197640213E+03  0.91478465256E+02 0.  0.
         23    2    4    4    0    0  0.46391200887E+03  0.10703559752E+03 -0.84906820128E+03  0.97734606053E+03  0.87278522605E+02 0.  0.
          2    1    3    3  502    0 -0.33398411323E+03 -0.75364211617E+02 -0.30577341015E+03  0.45904523812E+03  0.00000000000E+00 0. -1.
         -2    1    3    3    0  502 -0.19630286217E+02 -0.93450352267E+01 -0.63733976287E+02  0.67340163007E+02  0.00000000000E+00 0.  1.
         11    1    5    5    0    0 -0.11957833946E+03  0.12984193057E+01  0.11809173562E+03  0.16806642492E+03  0.00000000000E+00 0. -1.
        -11    1    5    5    0    0  0.92807300469E+01 -0.23624769983E+02  0.22486103433E+02  0.33909977213E+02  0.00000000000E+00 0.  1.
          4    1    6    6  503    0  0.16060576999E+02 -0.74233284904E+01 -0.63013671283E+02  0.65450521067E+02  0.00000000000E+00 0.  1.
         -4    1    6    6    0  503  0.44785143187E+03  0.11445892601E+03 -0.78605453000E+03  0.91189553947E+03  0.00000000000E+00 0. -1.
<mgrwt>
<rscale>  0 0.13218775E+04</rscale>
<asrwt>0</asrwt>
<pdfrwt beam="1">  1        1 0.21413120E+00 0.13218775E+04</pdfrwt>
<pdfrwt beam="2">  1       -1 0.48285394E-01 0.13218775E+04</pdfrwt>
<totfact> 0.32747254E+01</totfact>
</mgrwt>
</event>
<event>
12    2  0.3552864E-008  0.2800893E+04  0.7818608E-02  0.8302991E-01
         -1   -1    0    0    0  501 -0.00000000000E+00  0.00000000000E+00  0.52504909108E+03  0.52504909108E+03  0.00000000000E+00 0.  1.
          1   -1    0    0  501    0  0.00000000000E+00 -0.00000000000E+00 -0.37353669051E+04  0.37353669051E+04  0.00000000000E+00 0. -1.
         23    2    1    2    0    0 -0.38097843143E+03 -0.11940523304E+04 -0.12781647629E+04  0.17922689839E+04  0.87277811607E+02 0.  0.
        254    2    1    2    0    0  0.38097843143E+03  0.11940523304E+04 -0.19321530511E+04  0.24681470123E+04  0.88748449469E+03 0.  0.
         23    2    4    4    0    0  0.11922407553E+03 -0.72996613452E+02 -0.54293753523E+03  0.56788885144E+03  0.90408487810E+02 0.  0.
         23    2    4    4    0    0  0.26175435589E+03  0.12670489439E+04 -0.13892155159E+04  0.19002581609E+04  0.84456848538E+02 0.  0.
          3    1    3    3  502    0 -0.80062034943E+02 -0.23346091062E+03 -0.30249810130E+03  0.39040879539E+03  0.00000000000E+00 0. -1.
         -3    1    3    3    0  502 -0.30091639649E+03 -0.96059141982E+03 -0.97566666158E+03  0.14018601885E+04  0.00000000000E+00 0.  1.
         11    1    5    5    0    0  0.53766194293E+02 -0.77570999667E+02 -0.23926137056E+03  0.25720432943E+03  0.00000000000E+00 0.  1.
        -11    1    5    5    0    0  0.65457881241E+02  0.45743862146E+01 -0.30367616467E+03  0.31068452201E+03  0.00000000000E+00 0. -1.
          1    1    6    6  503    0  0.63331907388E+02  0.51049218515E+03 -0.54799293906E+03  0.75160459209E+03  0.00000000000E+00 0. -1.
         -1    1    6    6    0  503  0.19842244851E+03  0.75655675874E+03 -0.84122257686E+03  0.11486535688E+04  0.00000000000E+00 0.  1.
<mgrwt>
<rscale>  0 0.28008934E+04</rscale>
<asrwt>0</asrwt>
<pdfrwt beam="1">  1        1 0.57467182E+00 0.28008934E+04</pdfrwt>
<pdfrwt beam="2">  1       -1 0.80776784E-01 0.28008934E+04</pdfrwt>
<totfact> 0.21339391E-01</totfact>
</mgrwt>
</event>
<event>
12    2  0.3552864E-008  0.2051377E+04  0.7818608E-02  0.8582970E-01
          2   -1    0    0  501    0  0.00000000000E+00  0.00000000000E+00  0.16658118942E+04  0.16658118942E+04  0.00000000000E+00 0. -1.
         -2   -1    0    0    0  501 -0.00000000000E+00 -0.00000000000E+00 -0.63154609781E+03  0.63154609781E+03  0.00000000000E+00 0.  1.
         23    2    1    2    0    0 -0.48615210572E+03 -0.41593510854E+03 -0.16687728588E+03  0.66706022344E+03  0.88178391586E+02 0.  0.
        254    2    1    2    0    0  0.48615210572E+03  0.41593510854E+03  0.12011430822E+04  0.16302977685E+04  0.89765261971E+03 0.  0.
         23    2    4    4    0    0 -0.45187505429E+02  0.15653832491E+03  0.97217918334E+03  0.98974497526E+03  0.88975242147E+02 0.  0.
         23    2    4    4    0    0  0.53133961115E+03  0.25939678363E+03  0.22896389889E+03  0.64055279328E+03  0.90966698515E+02 0.  0.
          1    1    3    3  502    0 -0.74273029826E+02 -0.26689690176E+02 -0.14739417005E+02  0.80287439459E+02  0.00000000000E+00 0. -1.
         -1    1    3    3    0  502 -0.41187907590E+03 -0.38924541837E+03 -0.15213786887E+03  0.58677278399E+03  0.00000000000E+00 0.  1.
         11    1    5    5    0    0 -0.68557784202E+02  0.12098179732E+03  0.82096124877E+03  0.83265487271E+03  0.00000000000E+00 0.  1.
        -11    1    5    5    0    0  0.23370278773E+02  0.35556527593E+02  0.15121793457E+03  0.15709010255E+03  0.00000000000E+00 0. -1.
          1    1    6    6  503    0  0.14638558684E+03  0.80846568180E+02  0.10885723985E+03  0.19953647859E+03  0.00000000000E+00 0. -1.
         -1    1    6    6    0  503  0.38495402431E+03  0.17855021545E+03  0.12010665905E+03  0.44101631468E+03  0.00000000000E+00 0.  1.
<mgrwt>
<rscale>  0 0.20513771E+04</rscale>
<asrwt>0</asrwt>
<pdfrwt beam="1">  1        2 0.25627875E+00 0.20513771E+04</pdfrwt>
<pdfrwt beam="2">  1       -2 0.97160938E-01 0.20513771E+04</pdfrwt>
<totfact> 0.83819182E+00</totfact>
</mgrwt>
</event>
<event>
12    2  0.3552864E-008  0.2150504E+04  0.7818608E-02  0.8539317E-01
          2   -1    0    0  501    0  0.00000000000E+00  0.00000000000E+00  0.13282008226E+04  0.13282008226E+04  0.00000000000E+00 0. -1.
         -2   -1    0    0    0  501 -0.00000000000E+00 -0.00000000000E+00 -0.87047558453E+03  0.87047558453E+03  0.00000000000E+00 0.  1.
         23    2    1    2    0    0  0.20610763070E+03  0.81563859990E+03 -0.91773392898E+02  0.85365449720E+03  0.11205785951E+03 0.  0.
        254    2    1    2    0    0 -0.20610763070E+03 -0.81563859990E+03  0.54949863096E+03  0.13450219099E+04  0.89408529327E+03 0.  0.
         23    2    4    4    0    0 -0.43718809966E+03 -0.41125123645E+03 -0.14575916421E+02  0.60764692605E+03  0.93601898662E+02 0.  0.
         23    2    4    4    0    0  0.23108046896E+03 -0.40438736344E+03  0.56407454738E+03  0.73737498386E+03  0.92814055898E+02 0.  0.
          1    1    3    3  502    0  0.14826431780E+03  0.70399433797E+03 -0.50060362287E+02  0.72117707652E+03  0.00000000000E+00 0. -1.
         -1    1    3    3    0  502  0.57843312894E+02  0.11164426192E+03 -0.41713030612E+02  0.13247742068E+03  0.00000000000E+00 0.  1.
         11    1    5    5    0    0 -0.60888729318E+02 -0.22856864602E+02  0.12305861747E+02  0.66191448472E+02  0.00000000000E+00 0. -1.
        -11    1    5    5    0    0 -0.37629937034E+03 -0.38839437185E+03 -0.26881778168E+02  0.54145547758E+03  0.00000000000E+00 0.  1.
          4    1    6    6  503    0  0.19812192593E+03 -0.33413340553E+03  0.40962359387E+03  0.56452539259E+03  0.00000000000E+00 0. -1.
         -4    1    6    6    0  503  0.32958543028E+02 -0.70253957913E+02  0.15445095351E+03  0.17284959127E+03  0.00000000000E+00 0.  1.
<mgrwt>
<rscale>  0 0.21505036E+04</rscale>
<asrwt>0</asrwt>
<pdfrwt beam="1">  1        2 0.20433859E+00 0.21505036E+04</pdfrwt>
<pdfrwt beam="2">  1       -2 0.13391932E+00 0.21505036E+04</pdfrwt>
<totfact> 0.58840224E+00</totfact>
</mgrwt>
</event>
<event>
12    2  0.3552864E-008  0.2032959E+04  0.7818608E-02  0.8591365E-01
          1   -1    0    0  501    0  0.00000000000E+00  0.00000000000E+00  0.92796149166E+03  0.92796149166E+03  0.00000000000E+00 0. -1.
         -1   -1    0    0    0  501 -0.00000000000E+00 -0.00000000000E+00 -0.11134407806E+04  0.11134407806E+04  0.00000000000E+00 0.  1.
         23    2    1    2    0    0  0.56648138751E+03 -0.52641017357E+03  0.17561983059E+03  0.79821702935E+03  0.91100317349E+02 0.  0.
        254    2    1    2    0    0 -0.56648138751E+03  0.52641017357E+03 -0.36109911951E+03  0.12431852429E+04  0.90394034141E+03 0.  0.
         23    2    4    4    0    0  0.49422993141E+02  0.52310199516E+03 -0.20513773189E+02  0.53348454588E+03  0.90036749241E+02 0.  0.
         23    2    4    4    0    0 -0.61590438065E+03  0.33081784047E+01 -0.34058534632E+03  0.70970069701E+03  0.91255416651E+02 0.  0.
          1    1    3    3  502    0  0.42159466755E+03 -0.35212514909E+03  0.93787831263E+02  0.55725249360E+03  0.00000000000E+00 0. -1.
         -1    1    3    3    0  502  0.14488671996E+03 -0.17428502447E+03  0.81831999324E+02  0.24096453575E+03  0.00000000000E+00 0.  1.
         11    1    5    5    0    0  0.21741442632E+02  0.29017972678E+02 -0.13152342834E+02  0.38570937091E+02  0.00000000000E+00 0.  1.
        -11    1    5    5    0    0  0.27681550509E+02  0.49408402248E+03 -0.73614303559E+01  0.49491360879E+03  0.00000000000E+00 0. -1.
          3    1    6    6  503    0 -0.61624520336E+03  0.76450538447E+01 -0.34236115770E+03  0.70500195731E+03  0.00000000000E+00 0. -1.
         -3    1    6    6    0  503  0.34082270823E+00 -0.43368754400E+01  0.17758113869E+01  0.46987397015E+01  0.00000000000E+00 0.  1.
<mgrwt>
<rscale>  0 0.20329586E+04</rscale>
<asrwt>0</asrwt>
<pdfrwt beam="1">  1        1 0.14276331E+00 0.20329586E+04</pdfrwt>
<pdfrwt beam="2">  1       -1 0.17129858E+00 0.20329586E+04</pdfrwt>
<totfact> 0.38446172E+00</totfact>
</mgrwt>
</event>
<event>
12    2  0.3552864E-008  0.1258542E+04  0.7818608E-02  0.9063104E-01
         -2   -1    0    0    0  501 -0.00000000000E+00  0.00000000000E+00  0.39209586831E+03  0.39209586831E+03  0.00000000000E+00 0.  1.
          2   -1    0    0  501    0  0.00000000000E+00 -0.00000000000E+00 -0.10099112398E+04  0.10099112398E+04  0.00000000000E+00 0. -1.
         23    2    1    2    0    0  0.18305894852E+03 -0.32080706313E+03 -0.31356666777E+03  0.49255325140E+03  0.88639155775E+02 0.  0.
        254    2    1    2    0    0 -0.18305894852E+03  0.32080706313E+03 -0.30424870376E+03  0.90945385675E+03  0.77337655345E+03 0.  0.
         23    2    4    4    0    0 -0.35099485388E+03  0.25073431205E+03  0.10453309825E+03  0.45316519277E+03  0.91468249230E+02 0.  0.
         23    2    4    4    0    0  0.16793590536E+03  0.70072751085E+02 -0.40878180201E+03  0.45628866398E+03  0.89353928141E+02 0.  0.
          4    1    3    3  502    0  0.15259227338E+03 -0.30665755947E+03 -0.26300831379E+03  0.43185256025E+03  0.00000000000E+00 0. -1.
         -4    1    3    3    0  502  0.30466675145E+02 -0.14149503662E+02 -0.50558353981E+02  0.60700691145E+02  0.00000000000E+00 0.  1.
         11    1    5    5    0    0 -0.33116389795E+03  0.22214513064E+03  0.71386347180E+02  0.40510985786E+03  0.00000000000E+00 0.  1.
        -11    1    5    5    0    0 -0.19830955936E+02  0.28589181407E+02  0.33146751069E+02  0.48055334910E+02  0.00000000000E+00 0. -1.
          2    1    6    6  503    0  0.73194985184E+02  0.49015537547E+02 -0.10330071793E+03  0.13576106622E+03  0.00000000000E+00 0. -1.
         -2    1    6    6    0  503  0.94740920178E+02  0.21057213538E+02 -0.30548108407E+03  0.32052759776E+03  0.00000000000E+00 0.  1.
<mgrwt>
<rscale>  0 0.12585421E+04</rscale>
<asrwt>0</asrwt>
<pdfrwt beam="1">  1        2 0.15537096E+00 0.12585421E+04</pdfrwt>
<pdfrwt beam="2">  1       -2 0.60322442E-01 0.12585421E+04</pdfrwt>
<totfact> 0.62484587E+01</totfact>
</mgrwt>
</event>
<event>
12    2  0.3552864E-008  0.3027429E+04  0.7818608E-02  0.8235942E-01
          1   -1    0    0  501    0  0.00000000000E+00  0.00000000000E+00  0.18710231093E+04  0.18710231093E+04  0.00000000000E+00 0. -1.
         -1   -1    0    0    0  501 -0.00000000000E+00 -0.00000000000E+00 -0.12246406783E+04  0.12246406783E+04  0.00000000000E+00 0.  1.
         23    2    1    2    0    0 -0.35177104442E+03  0.68704564354E+03 -0.86879164891E+03  0.11656939212E+04  0.90932968532E+02 0.  0.
        254    2    1    2    0    0  0.35177104442E+03 -0.68704564354E+03  0.15151740799E+04  0.19299698664E+04  0.91282890443E+03 0.  0.
         23    2    4    4    0    0 -0.11798892808E+03 -0.66773136911E+03  0.66473934744E+03  0.95408630990E+03  0.92820893447E+02 0.  0.
         23    2    4    4    0    0  0.46975997251E+03 -0.19314274424E+02  0.85043473245E+03  0.97588355648E+03  0.89788689018E+02 0.  0.
          3    1    3    3  502    0 -0.15564405137E+03  0.23812854564E+03 -0.36793061155E+03  0.46508408905E+03  0.00000000000E+00 0. -1.
         -3    1    3    3    0  502 -0.19612699306E+03  0.44891709790E+03 -0.50086103736E+03  0.70060983218E+03  0.00000000000E+00 0.  1.
         11    1    5    5    0    0 -0.39857352274E+02 -0.47062448269E+03  0.45279980549E+03  0.65429632132E+03  0.00000000000E+00 0. -1.
        -11    1    5    5    0    0 -0.78131575810E+02 -0.19710688642E+03  0.21193954195E+03  0.29978998858E+03  0.00000000000E+00 0.  1.
          3    1    6    6  503    0  0.29083228343E+03  0.37153551600E+01  0.60495176607E+03  0.67124053827E+03  0.00000000000E+00 0. -1.
         -3    1    6    6    0  503  0.17892768908E+03 -0.23029629584E+02  0.24548296639E+03  0.30464301821E+03  0.00000000000E+00 0.  1.
<mgrwt>
<rscale>  0 0.30274286E+04</rscale>
<asrwt>0</asrwt>
<pdfrwt beam="1">  1        1 0.28784971E+00 0.30274286E+04</pdfrwt>
<pdfrwt beam="2">  1       -1 0.18840626E+00 0.30274286E+04</pdfrwt>
<totfact> 0.56127240E-01</totfact>
</mgrwt>
</event>
<event>
12    2  0.3552864E-008  0.1138066E+04  0.7818608E-02  0.9168864E-01
         -3   -1    0    0    0  501 -0.00000000000E+00  0.00000000000E+00  0.43149323498E+03  0.43149323498E+03  0.00000000000E+00 0.  1.
          3   -1    0    0  501    0  0.00000000000E+00 -0.00000000000E+00 -0.75041422652E+03  0.75041422652E+03  0.00000000000E+00 0. -1.
         23    2    1    2    0    0 -0.78277393213E+02  0.12618382193E+03  0.10443289781E+03  0.20453817539E+03  0.94233369050E+02 0.  0.
        254    2    1    2    0    0  0.78277393213E+02 -0.12618382193E+03 -0.42335388936E+03  0.97736928611E+03  0.86831589792E+03 0.  0.
         23    2    4    4    0    0  0.10339102886E+03 -0.65504889965E+02  0.25096411065E+03  0.29407992695E+03  0.92300721260E+02 0.  0.
         23    2    4    4    0    0 -0.25113635646E+02 -0.60678931964E+02 -0.67431800001E+03  0.68328935915E+03  0.88695860764E+02 0.  0.
          1    1    3    3  502    0 -0.19574281885E+02  0.97757335515E+02  0.26986362637E+02  0.10328558915E+03  0.00000000000E+00 0. -1.
         -1    1    3    3    0  502 -0.58703111328E+02  0.28426486415E+02  0.77446535177E+02  0.10125258624E+03  0.00000000000E+00 0.  1.
         11    1    5    5    0    0  0.96035583374E+02 -0.81835275630E+02  0.24432050272E+03  0.27497700570E+03  0.00000000000E+00 0.  1.
        -11    1    5    5    0    0  0.73554454854E+01  0.16330385665E+02  0.66436079264E+01  0.19102921256E+02  0.00000000000E+00 0. -1.
          1    1    6    6  503    0  0.30288897426E+02 -0.30932883737E+01 -0.18898679357E+03  0.19142359803E+03  0.00000000000E+00 0. -1.
         -1    1    6    6    0  503 -0.55402533073E+02 -0.57585643591E+02 -0.48533120644E+03  0.49186576112E+03  0.00000000000E+00 0.  1.
<mgrwt>
<rscale>  0 0.11380662E+04</rscale>
<asrwt>0</asrwt>
<pdfrwt beam="1">  1        3 0.11544834E+00 0.11380662E+04</pdfrwt>
<pdfrwt beam="2">  1       -3 0.66383576E-01 0.11380662E+04</pdfrwt>
<totfact> 0.35352180E+00</totfact>
</mgrwt>
</event>
<event>
12    2  0.3552864E-008  0.2283637E+04  0.7818608E-02  0.8484401E-01
         -2   -1    0    0    0  501 -0.00000000000E+00  0.00000000000E+00  0.27601542203E+03  0.27601542203E+03  0.00000000000E+00 0.  1.
          2   -1    0    0  501    0  0.00000000000E+00 -0.00000000000E+00 -0.47234651945E+04  0.47234651945E+04  0.00000000000E+00 0. -1.
         23    2    1    2    0    0 -0.97841140297E+02  0.93192431975E+03 -0.24387492750E+04  0.26141290118E+04  0.90092383713E+02 0.  0.
        254    2    1    2    0    0  0.97841140297E+02 -0.93192431975E+03 -0.20087004975E+04  0.23853516047E+04  0.88145831615E+03 0.  0.
         23    2    4    4    0    0  0.33175874255E+03 -0.21731242391E+03 -0.26950992439E+03  0.48840283458E+03  0.92807201416E+02 0.  0.
         23    2    4    4    0    0 -0.23391760226E+03 -0.71461189584E+03 -0.17391905731E+04  0.18969487701E+04  0.90791963947E+02 0.  0.
          1    1    3    3  502    0 -0.11045341567E+03  0.87202072291E+03 -0.23095072443E+04  0.24711219738E+04  0.00000000000E+00 0. -1.
         -1    1    3    3    0  502  0.12612275372E+02  0.59903596837E+02 -0.12924203072E+03  0.14300703797E+03  0.00000000000E+00 0.  1.
         11    1    5    5    0    0  0.27825026135E+03 -0.18330515671E+03 -0.17999932400E+03  0.37871327552E+03  0.00000000000E+00 0. -1.
        -11    1    5    5    0    0  0.53508481201E+02 -0.34007267203E+02 -0.89510600398E+02  0.10968955906E+03  0.00000000000E+00 0.  1.
          1    1    6    6  503    0 -0.13877171260E+03 -0.46032584005E+03 -0.12137978358E+04  0.13055507088E+04  0.00000000000E+00 0. -1.
         -1    1    6    6    0  503 -0.95145889654E+02 -0.25428605579E+03 -0.52539273730E+03  0.59139806129E+03  0.00000000000E+00 0.  1.
<mgrwt>
<rscale>  0 0.22836368E+04</rscale>
<asrwt>0</asrwt>
<pdfrwt beam="1">  1        2 0.72668687E+00 0.22836368E+04</pdfrwt>
<pdfrwt beam="2">  1       -2 0.42463916E-01 0.22836368E+04</pdfrwt>
<totfact> 0.34965144E-01</totfact>
</mgrwt>
</event>
<event>
12    2  0.3552864E-008  0.1501758E+04  0.7818608E-02  0.8883285E-01
          2   -1    0    0  501    0  0.00000000000E+00  0.00000000000E+00  0.40558663257E+03  0.40558663257E+03  0.00000000000E+00 0.  1.
         -2   -1    0    0    0  501 -0.00000000000E+00 -0.00000000000E+00 -0.13901325697E+04  0.13901325697E+04  0.00000000000E+00 0. -1.
         23    2    1    2    0    0  0.17255462781E+03 -0.36192957173E+03 -0.29680728049E+02  0.41220443412E+03  0.90903440099E+02 0.  0.
        254    2    1    2    0    0 -0.17255462781E+03  0.36192957173E+03 -0.95486520905E+03  0.13835147681E+04  0.91737529490E+03 0.  0.
         23    2    4    4    0    0 -0.41496695297E+03 -0.11023304823E+03 -0.58119022506E+03  0.72800049131E+03  0.88621332953E+02 0.  0.
         23    2    4    4    0    0  0.24241232516E+03  0.47216261996E+03 -0.37367498399E+03  0.65551427682E+03  0.91458724995E+02 0.  0.
          2    1    3    3  502    0  0.37063591916E+02 -0.15096098502E+03 -0.42491480464E+02  0.16114730763E+03  0.00000000000E+00 0. -1.
         -2    1    3    3    0  502  0.13549103590E+03 -0.21096858671E+03  0.12810752415E+02  0.25105712649E+03  0.00000000000E+00 0.  1.
         11    1    5    5    0    0 -0.37912849753E+03 -0.11245021562E+03 -0.56228365591E+03  0.68742008869E+03  0.00000000000E+00 0. -1.
        -11    1    5    5    0    0 -0.35838455437E+02  0.22171673852E+01 -0.18906569157E+02  0.40580402618E+02  0.00000000000E+00 0.  1.
          1    1    6    6  503    0  0.12538632417E+03  0.33818582020E+03 -0.25168741157E+03  0.43981579373E+03  0.00000000000E+00 0. -1.
         -1    1    6    6    0  503  0.11702600099E+03  0.13397679976E+03 -0.12198757241E+03  0.21569848309E+03  0.00000000000E+00 0.  1.
<mgrwt>
<rscale>  0 0.15017579E+04</rscale>
<asrwt>0</asrwt>
<pdfrwt beam="1">  1        2 0.62397945E-01 0.15017579E+04</pdfrwt>
<pdfrwt beam="2">  1       -2 0.21386654E+00 0.15017579E+04</pdfrwt>
<totfact> 0.81720491E+00</totfact>
</mgrwt>
</event>
<event>
12    2  0.3552864E-008  0.2726293E+04  0.7818608E-02  0.8326524E-01
         -1   -1    0    0    0  501 -0.00000000000E+00  0.00000000000E+00  0.13609675885E+04  0.13609675885E+04  0.00000000000E+00 0. -1.
          1   -1    0    0  501    0  0.00000000000E+00 -0.00000000000E+00 -0.13653288478E+04  0.13653288478E+04  0.00000000000E+00 0.  1.
         23    2    1    2    0    0 -0.11577395597E+04  0.59512947313E+02  0.33513388965E+03  0.12102634272E+04  0.92304713233E+02 0.  0.
        254    2    1    2    0    0  0.11577395597E+04 -0.59512947313E+02 -0.33949514894E+03  0.15160330091E+04  0.91607666144E+03 0.  0.
         23    2    4    4    0    0  0.82646607292E+02  0.31248033794E+03 -0.93967593666E+02  0.34886080269E+03  0.91648937264E+02 0.  0.
         23    2    4    4    0    0  0.10750929524E+04 -0.37199328525E+03 -0.24552755528E+03  0.11671722065E+04  0.88336393921E+02 0.  0.
          3    1    3    3  502    0 -0.71986930954E+03  0.81688259321E+02  0.20566762603E+03  0.75311617093E+03  0.00000000000E+00 0. -1.
         -3    1    3    3    0  502 -0.43787025017E+03 -0.22175312008E+02  0.12946626363E+03  0.45714725622E+03  0.00000000000E+00 0.  1.
         11    1    5    5    0    0 -0.50884710277E+00  0.12905687917E+03 -0.67776012090E+02  0.14577216745E+03  0.00000000000E+00 0. -1.
        -11    1    5    5    0    0  0.83155454394E+02  0.18342345877E+03 -0.26191581576E+02  0.20308863525E+03  0.00000000000E+00 0.  1.
          3    1    6    6  503    0  0.87525097379E+03 -0.27872700991E+03 -0.17068273210E+03  0.93428347316E+03  0.00000000000E+00 0. -1.
         -3    1    6    6    0  503  0.19984197863E+03 -0.93266275342E+02 -0.74844823175E+02  0.23288873329E+03  0.00000000000E+00 0.  1.
<mgrwt>
<rscale>  0 0.27262929E+04</rscale>
<asrwt>0</asrwt>
<pdfrwt beam="1">  1        1 0.21005059E+00 0.27262929E+04</pdfrwt>
<pdfrwt beam="2">  1       -1 0.20937963E+00 0.27262929E+04</pdfrwt>
<totfact> 0.91922123E-01</totfact>
</mgrwt>
</event>
<event>
12    2  0.3552864E-008  0.2870827E+04  0.7818608E-02  0.8281611E-01
         -2   -1    0    0    0  501 -0.00000000000E+00  0.00000000000E+00  0.99583121663E+03  0.99583121663E+03  0.00000000000E+00 0.  1.
          2   -1    0    0  501    0  0.00000000000E+00 -0.00000000000E+00 -0.20690366081E+04  0.20690366081E+04  0.00000000000E+00 0. -1.
         23    2    1    2    0    0 -0.94856224173E+03  0.16862204042E+03 -0.14266346846E+04  0.17237844775E+04  0.89121729244E+02 0.  0.
        254    2    1    2    0    0  0.94856224173E+03 -0.16862204042E+03  0.35342929317E+03  0.13410833472E+04  0.86335888243E+03 0.  0.
         23    2    4    4    0    0  0.15978010483E+03  0.30877567433E+03  0.40571519339E+02  0.36309233570E+03  0.96529255168E+02 0.  0.
         23    2    4    4    0    0  0.78878213690E+03 -0.47739771475E+03  0.31285777383E+03  0.97799101149E+03  0.92198667932E+02 0.  0.
          4    1    3    3  502    0 -0.56712787836E+03  0.96796754240E+02 -0.77317098620E+03  0.96374115609E+03  0.00000000000E+00 0. -1.
         -4    1    3    3    0  502 -0.38143436337E+03  0.71825286179E+02 -0.65346369840E+03  0.76004332141E+03  0.00000000000E+00 0.  1.
         11    1    5    5    0    0  0.10108116789E+03  0.27517055793E+03  0.31078842303E+02  0.29479167711E+03  0.00000000000E+00 0. -1.
        -11    1    5    5    0    0  0.58698936943E+02  0.33605116400E+02  0.94926770363E+01  0.68300658590E+02  0.00000000000E+00 0.  1.
          2    1    6    6  503    0  0.50660023047E+03 -0.25445610247E+03  0.18595432217E+03  0.59663281131E+03  0.00000000000E+00 0. -1.
         -2    1    6    6    0  503  0.28218190643E+03 -0.22294161228E+03  0.12690345166E+03  0.38135820018E+03  0.00000000000E+00 0.  1.
<mgrwt>
<rscale>  0 0.28708265E+04</rscale>
<asrwt>0</asrwt>
<pdfrwt beam="1">  1        2 0.31831332E+00 0.28708265E+04</pdfrwt>
<pdfrwt beam="2">  1       -2 0.15320480E+00 0.28708265E+04</pdfrwt>
<totfact> 0.14982858E+00</totfact>
</mgrwt>
</event>
<event>
12    2  0.3552864E-008  0.2801058E+04  0.7818608E-02  0.8302940E-01
          1   -1    0    0  501    0  0.00000000000E+00  0.00000000000E+00  0.23465637054E+04  0.23465637054E+04  0.00000000000E+00 0. -1.
         -1   -1    0    0    0  501 -0.00000000000E+00 -0.00000000000E+00 -0.83589499914E+03  0.83589499914E+03  0.00000000000E+00 0.  1.
         23    2    1    2    0    0  0.45593037404E+03 -0.57509979801E+03 -0.47624438197E+03  0.87952253136E+03  0.90215786688E+02 0.  0.
        254    2    1    2    0    0 -0.45593037404E+03  0.57509979801E+03  0.19869130882E+04  0.23029361732E+04  0.90392428547E+03 0.  0.
         23    2    4    4    0    0  0.93493116805E+01  0.39475015246E+02 -0.72035574507E+02  0.12325841539E+03  0.91421149156E+02 0.  0.
         23    2    4    4    0    0 -0.46527968572E+03  0.53562478276E+03  0.20589486627E+04  0.21796777578E+04  0.91358842466E+02 0.  0.
          2    1    3    3  502    0  0.20329041299E+02 -0.18407015179E+02 -0.41259588750E+02  0.49542323237E+02  0.00000000000E+00 0. -1.
         -2    1    3    3    0  502  0.43560133274E+03 -0.55669278283E+03 -0.43498479322E+03  0.82998020812E+03  0.00000000000E+00 0.  1.
         11    1    5    5    0    0 -0.65048799938E-01 -0.16661645682E+02 -0.63563247014E+02  0.65710737625E+02  0.00000000000E+00 0. -1.
        -11    1    5    5    0    0  0.94143604804E+01  0.56136660928E+02 -0.84723274925E+01  0.57547677768E+02  0.00000000000E+00 0.  1.
          2    1    6    6  503    0 -0.33284849836E+03  0.40216565438E+03  0.16236715784E+04  0.17055306303E+04  0.00000000000E+00 0. -1.
         -2    1    6    6    0  503 -0.13243118736E+03  0.13345912838E+03  0.43527708436E+03  0.47414712748E+03  0.00000000000E+00 0.  1.
<mgrwt>
<rscale>  0 0.28010576E+04</rscale>
<asrwt>0</asrwt>
<pdfrwt beam="1">  1        1 0.36100980E+00 0.28010576E+04</pdfrwt>
<pdfrwt beam="2">  1       -1 0.12859923E+00 0.28010576E+04</pdfrwt>
<totfact> 0.77987986E-01</totfact>
</mgrwt>
</event>
<event>
12    2  0.3552864E-008  0.1651466E+04  0.7818608E-02  0.8789540E-01
          1   -1    0    0  501    0  0.00000000000E+00  0.00000000000E+00  0.14597737146E+04  0.14597737146E+04  0.00000000000E+00 0. -1.
         -1   -1    0    0    0  501 -0.00000000000E+00 -0.00000000000E+00 -0.46708259296E+03  0.46708259296E+03  0.00000000000E+00 0.  1.
         23    2    1    2    0    0  0.51379193711E+03 -0.20404695720E+03  0.51324202017E+03  0.75972429782E+03  0.90256977887E+02 0.  0.
        254    2    1    2    0    0 -0.51379193711E+03  0.20404695720E+03  0.47944910151E+03  0.11671320098E+04  0.90923504768E+03 0.  0.
         23    2    4    4    0    0 -0.42817362066E+03  0.13307899662E+03 -0.18028955537E+03  0.49186569888E+03  0.91568953153E+02 0.  0.
         23    2    4    4    0    0 -0.85618316444E+02  0.70967960575E+02  0.65973865689E+03  0.67526631091E+03  0.91446966683E+02 0.  0.
          3    1    3    3  502    0  0.32479059428E+03 -0.11241624913E+03  0.37279355831E+03  0.50705165449E+03  0.00000000000E+00 0. -1.
         -3    1    3    3    0  502  0.18900134283E+03 -0.91630708063E+02  0.14044846186E+03  0.25267264334E+03  0.00000000000E+00 0.  1.
         11    1    5    5    0    0 -0.36679363942E+03  0.79604263755E+02 -0.13615626667E+03  0.39926550274E+03  0.00000000000E+00 0. -1.
        -11    1    5    5    0    0 -0.61379981246E+02  0.53474732867E+02 -0.44133288699E+02  0.92600196135E+02  0.00000000000E+00 0.  1.
          4    1    6    6  503    0 -0.91982407150E+01  0.66248398094E+02  0.33658738233E+03  0.34316836076E+03  0.00000000000E+00 0. -1.
         -4    1    6    6    0  503 -0.76420075729E+02  0.47195624811E+01  0.32315127456E+03  0.33209795015E+03  0.00000000000E+00 0.  1.
<mgrwt>
<rscale>  0 0.16514659E+04</rscale>
<asrwt>0</asrwt>
<pdfrwt beam="1">  1        1 0.22458057E+00 0.16514659E+04</pdfrwt>
<pdfrwt beam="2">  1       -1 0.71858861E-01 0.16514659E+04</pdfrwt>
<totfact> 0.13029349E+01</totfact>
</mgrwt>
</event>
<event>
12    2  0.3552864E-008  0.1354984E+04  0.7818608E-02  0.8987064E-01
          2   -1    0    0  501    0  0.00000000000E+00  0.00000000000E+00  0.22457621652E+04  0.22457621652E+04  0.00000000000E+00 0. -1.
         -2   -1    0    0    0  501 -0.00000000000E+00 -0.00000000000E+00 -0.20438302182E+03  0.20438302182E+03  0.00000000000E+00 0.  1.
         23    2    1    2    0    0  0.22359363939E+03  0.38417944929E+01  0.10096757917E+04  0.10388640929E+04  0.98916753471E+02 0.  0.
        254    2    1    2    0    0 -0.22359363939E+03 -0.38417944929E+01  0.10317033517E+04  0.14112810942E+04  0.93663954964E+03 0.  0.
         23    2    4    4    0    0 -0.15646316327E+03  0.44323749899E+03  0.67586946367E+03  0.82829859806E+03  0.91317214485E+02 0.  0.
         23    2    4    4    0    0 -0.67130476119E+02 -0.44707929348E+03  0.35583388803E+03  0.58298249613E+03  0.94151152083E+02 0.  0.
          1    1    3    3  502    0  0.12147134597E+03 -0.13940262524E+02  0.34220699433E+03  0.36339406404E+03  0.00000000000E+00 0.  1.
         -1    1    3    3    0  502  0.10212229342E+03  0.17782057017E+02  0.66746879737E+03  0.67547002882E+03  0.00000000000E+00 0. -1.
         11    1    5    5    0    0 -0.11058857282E+03  0.19728402069E+03  0.27910188759E+03  0.35923346296E+03  0.00000000000E+00 0. -1.
        -11    1    5    5    0    0 -0.45874590454E+02  0.24595347830E+03  0.39676757608E+03  0.46906513510E+03  0.00000000000E+00 0.  1.
          1    1    6    6  503    0 -0.54052470253E+02 -0.44532077353E+03  0.34516601825E+03  0.56601399367E+03  0.00000000000E+00 0. -1.
         -1    1    6    6    0  503 -0.13078005866E+02 -0.17585199450E+01  0.10667869786E+02  0.16968502456E+02  0.00000000000E+00 0.  1.
<mgrwt>
<rscale>  0 0.13549844E+04</rscale>
<asrwt>0</asrwt>
<pdfrwt beam="1">  1        2 0.34550186E+00 0.13549844E+04</pdfrwt>
<pdfrwt beam="2">  1       -2 0.31443543E-01 0.13549844E+04</pdfrwt>
<totfact> 0.44704175E+01</totfact>
</mgrwt>
</event>
<event>
12    2  0.3552864E-008  0.2547257E+04  0.7818608E-02  0.8386341E-01
          2   -1    0    0  501    0  0.00000000000E+00  0.00000000000E+00  0.16415994671E+04  0.16415994671E+04  0.00000000000E+00 0. -1.
         -2   -1    0    0    0  501 -0.00000000000E+00 -0.00000000000E+00 -0.98813934788E+03  0.98813934788E+03  0.00000000000E+00 0.  1.
         23    2    1    2    0    0  0.75612566779E+03 -0.69861298100E+03 -0.15593263552E+03  0.10454294667E+04  0.93923694444E+02 0.  0.
        254    2    1    2    0    0 -0.75612566779E+03  0.69861298100E+03  0.80939275476E+03  0.15843093482E+04  0.89170250463E+03 0.  0.
         23    2    4    4    0    0 -0.44667291067E+03  0.53975129939E+03  0.96012331811E+03  0.11926271163E+04  0.98359027003E+02 0.  0.
         23    2    4    4    0    0 -0.30945275712E+03  0.15886168162E+03 -0.15073056335E+03  0.39168223197E+03  0.98474490772E+02 0.  0.
          1    1    3    3  502    0  0.39729164350E+03 -0.40526382498E+03 -0.48004489922E+02  0.56954705590E+03  0.00000000000E+00 0. -1.
         -1    1    3    3    0  502  0.35883402430E+03 -0.29334915602E+03 -0.10792814560E+03  0.47588241084E+03  0.00000000000E+00 0.  1.
         11    1    5    5    0    0 -0.10604311070E+02  0.29317969190E+02  0.18715331102E+02  0.36362870472E+02  0.00000000000E+00 0. -1.
        -11    1    5    5    0    0 -0.43606859960E+03  0.51043333020E+03  0.94140798701E+03  0.11562642458E+04  0.00000000000E+00 0.  1.
          1    1    6    6  503    0 -0.10589286612E+03  0.43914679046E+01 -0.44130162391E+02  0.11480442203E+03  0.00000000000E+00 0. -1.
         -1    1    6    6    0  503 -0.20355989101E+03  0.15447021371E+03 -0.10660040096E+03  0.27687780994E+03  0.00000000000E+00 0.  1.
<mgrwt>
<rscale>  0 0.25472566E+04</rscale>
<asrwt>0</asrwt>
<pdfrwt beam="1">  1        2 0.25255376E+00 0.25472566E+04</pdfrwt>
<pdfrwt beam="2">  1       -2 0.15202144E+00 0.25472566E+04</pdfrwt>
<totfact> 0.27157289E+00</totfact>
</mgrwt>
</event>
<event>
12    2  0.3552864E-008  0.1952257E+04  0.7818608E-02  0.8629273E-01
          2   -1    0    0  501    0  0.00000000000E+00  0.00000000000E+00  0.16242352795E+04  0.16242352795E+04  0.00000000000E+00 0. -1.
         -2   -1    0    0    0  501 -0.00000000000E+00 -0.00000000000E+00 -0.58663115957E+03  0.58663115957E+03  0.00000000000E+00 0.  1.
         23    2    1    2    0    0 -0.49314116048E+03  0.36531805806E+03 -0.12086528855E+03  0.63205299321E+03  0.90758363562E+02 0.  0.
        254    2    1    2    0    0  0.49314116048E+03 -0.36531805806E+03  0.11584694085E+04  0.15788134459E+04  0.87974714476E+03 0.  0.
         23    2    4    4    0    0 -0.75810215397E+02 -0.36675587112E+03  0.83139215401E+03  0.91642549757E+03  0.91464315832E+02 0.  0.
         23    2    4    4    0    0  0.56895137587E+03  0.14378130646E+01  0.32707725446E+03  0.66238794828E+03  0.89836118741E+02 0.  0.
          3    1    3    3  502    0  0.24167649856E+01  0.10210087466E+02  0.19734817903E+00  0.10494073821E+02  0.00000000000E+00 0. -1.
         -3    1    3    3    0  502 -0.49555792546E+03  0.35510797059E+03 -0.12106263673E+03  0.62155891939E+03  0.00000000000E+00 0.  1.
         11    1    5    5    0    0 -0.49457959646E+02 -0.67159447213E+02  0.21389101249E+03  0.22957753885E+03  0.00000000000E+00 0. -1.
        -11    1    5    5    0    0 -0.26352255751E+02 -0.29959642391E+03  0.61750114153E+03  0.68684795871E+03  0.00000000000E+00 0.  1.
          3    1    6    6  503    0  0.25081957513E+03 -0.33359592507E+02  0.17783091981E+03  0.30926874676E+03  0.00000000000E+00 0. -1.
         -3    1    6    6    0  503  0.31813180075E+03  0.34797405572E+02  0.14924633465E+03  0.35311920153E+03  0.00000000000E+00 0.  1.
<mgrwt>
<rscale>  0 0.19522572E+04</rscale>
<asrwt>0</asrwt>
<pdfrwt beam="1">  1        2 0.24988235E+00 0.19522572E+04</pdfrwt>
<pdfrwt beam="2">  1       -2 0.90250949E-01 0.19522572E+04</pdfrwt>
<totfact> 0.10585629E+01</totfact>
</mgrwt>
</event>
<event>
12    2  0.3552864E-008  0.1744220E+04  0.7818608E-02  0.8736538E-01
          2   -1    0    0  501    0  0.00000000000E+00  0.00000000000E+00  0.18360683328E+04  0.18360683328E+04  0.00000000000E+00 0. -1.
         -2   -1    0    0    0  501 -0.00000000000E+00 -0.00000000000E+00 -0.41424146778E+03  0.41424146778E+03  0.00000000000E+00 0.  1.
         23    2    1    2    0    0  0.35281517519E+03  0.39787563910E+03  0.98053033985E+03  0.11189873292E+04  0.88934377599E+02 0.  0.
        254    2    1    2    0    0 -0.35281517519E+03 -0.39787563910E+03  0.44129652514E+03  0.11313224713E+04  0.89574792160E+03 0.  0.
         23    2    4    4    0    0 -0.54381431536E+03 -0.36244726078E+03  0.21171414285E+02  0.65940374805E+03  0.85223516283E+02 0.  0.
         23    2    4    4    0    0  0.19099914017E+03 -0.35428378317E+02  0.42012511086E+03  0.47191872330E+03  0.92012668100E+02 0.  0.
          2    1    3    3  502    0  0.30246606481E+03  0.28527551233E+03  0.75033488415E+03  0.85782881548E+03  0.00000000000E+00 0. -1.
         -2    1    3    3    0  502  0.50349110375E+02  0.11260012677E+03  0.23019545570E+03  0.26115851372E+03  0.00000000000E+00 0.  1.
         11    1    5    5    0    0 -0.64050864135E+02 -0.19690609998E+02 -0.15017502107E+02  0.68671381871E+02  0.00000000000E+00 0.  1.
        -11    1    5    5    0    0 -0.47976345122E+03 -0.34275665078E+03  0.36188916392E+02  0.59073236618E+03  0.00000000000E+00 0. -1.
          2    1    6    6  503    0  0.14163846467E+03 -0.57348138826E+02  0.24587539890E+03  0.28949089016E+03  0.00000000000E+00 0. -1.
         -2    1    6    6    0  503  0.49360675501E+02  0.21919760509E+02  0.17424971196E+03  0.18242783314E+03  0.00000000000E+00 0.  1.
<mgrwt>
<rscale>  0 0.17442198E+04</rscale>
<asrwt>0</asrwt>
<pdfrwt beam="1">  1        2 0.28247205E+00 0.17442198E+04</pdfrwt>
<pdfrwt beam="2">  1       -2 0.63729457E-01 0.17442198E+04</pdfrwt>
<totfact> 0.17795654E+01</totfact>
</mgrwt>
</event>
<event>
12    2  0.3552864E-008  0.1813298E+04  0.7818608E-02  0.8699259E-01
         -2   -1    0    0    0  501 -0.00000000000E+00  0.00000000000E+00  0.27718346841E+03  0.27718346841E+03  0.00000000000E+00 0.  1.
          2   -1    0    0  501    0  0.00000000000E+00 -0.00000000000E+00 -0.29655899564E+04  0.29655899564E+04  0.00000000000E+00 0. -1.
         23    2    1    2    0    0 -0.40393725472E+03 -0.28496747612E+03 -0.18248372882E+03  0.53450532059E+03  0.89575991532E+02 0.  0.
        254    2    1    2    0    0  0.40393725472E+03  0.28496747612E+03 -0.25059227592E+04  0.27082681043E+04  0.90038629555E+03 0.  0.
         23    2    4    4    0    0  0.51867521114E+02  0.52399622559E+03 -0.18141296599E+04  0.18913949246E+04  0.95110744114E+02 0.  0.
         23    2    4    4    0    0  0.35206973361E+03 -0.23902874948E+03 -0.69179309928E+03  0.81687317965E+03  0.87271180845E+02 0.  0.
          2    1    3    3  502    0 -0.19927747456E+02 -0.40710214560E+02 -0.34843338294E+01  0.45459622419E+02  0.00000000000E+00 0. -1.
         -2    1    3    3    0  502 -0.38400950727E+03 -0.24425726156E+03 -0.17899939499E+03  0.48904569817E+03  0.00000000000E+00 0.  1.
         11    1    5    5    0    0 -0.22710400949E+02  0.62216085719E+02 -0.26751135120E+03  0.27558832823E+03  0.00000000000E+00 0. -1.
        -11    1    5    5    0    0  0.74577922062E+02  0.46178013987E+03 -0.15466183087E+04  0.16158065964E+04  0.00000000000E+00 0.  1.
          1    1    6    6  503    0  0.14027448810E+03 -0.79136116829E+02 -0.18875537552E+03  0.24812909702E+03  0.00000000000E+00 0. -1.
         -1    1    6    6    0  503  0.21179524551E+03 -0.15989263265E+03 -0.50303772376E+03  0.56874408263E+03  0.00000000000E+00 0.  1.
<mgrwt>
<rscale>  0 0.18132981E+04</rscale>
<asrwt>0</asrwt>
<pdfrwt beam="1">  1        2 0.45624461E+00 0.18132981E+04</pdfrwt>
<pdfrwt beam="2">  1       -2 0.42643610E-01 0.18132981E+04</pdfrwt>
<totfact> 0.90264288E+00</totfact>
</mgrwt>
</event>
<event>
12    2  0.3552864E-008  0.1592575E+04  0.7818608E-02  0.8825123E-01
          2   -1    0    0  501    0  0.00000000000E+00  0.00000000000E+00  0.19062125025E+04  0.19062125025E+04  0.00000000000E+00 0. -1.
         -2   -1    0    0    0  501 -0.00000000000E+00 -0.00000000000E+00 -0.33263523785E+03  0.33263523785E+03  0.00000000000E+00 0.  1.
         23    2    1    2    0    0  0.39493438747E+03 -0.34561667374E+03  0.54861147643E+03  0.76447737264E+03  0.89593781249E+02 0.  0.
        254    2    1    2    0    0 -0.39493438747E+03  0.34561667374E+03  0.10249657882E+04  0.14743703677E+04  0.92075461365E+03 0.  0.
         23    2    4    4    0    0 -0.68560921921E+03  0.26182670925E+03  0.77590940796E+03  0.10718227689E+04  0.90307316912E+02 0.  0.
         23    2    4    4    0    0  0.29067483174E+03  0.83789964491E+02  0.24905638023E+03  0.40254759875E+03  0.92211023067E+02 0.  0.
          2    1    3    3  502    0  0.26864387971E+03 -0.24431123514E+03  0.43525313525E+03  0.56683578350E+03  0.00000000000E+00 0. -1.
         -2    1    3    3    0  502  0.12629050776E+03 -0.10130543860E+03  0.11335834118E+03  0.19764158914E+03  0.00000000000E+00 0.  1.
         11    1    5    5    0    0 -0.15592188231E+03  0.98525694112E+02  0.21438661059E+03  0.28280835310E+03  0.00000000000E+00 0. -1.
        -11    1    5    5    0    0 -0.52968733689E+03  0.16330101514E+03  0.56152279738E+03  0.78901441583E+03  0.00000000000E+00 0.  1.
          2    1    6    6  503    0  0.12187169951E+03  0.87335528189E+01  0.53052562996E+02  0.13320495684E+03  0.00000000000E+00 0. -1.
         -2    1    6    6    0  503  0.16880313222E+03  0.75056411672E+02  0.19600381723E+03  0.26934264191E+03  0.00000000000E+00 0.  1.
<mgrwt>
<rscale>  0 0.15925746E+04</rscale>
<asrwt>0</asrwt>
<pdfrwt beam="1">  1        2 0.29326345E+00 0.15925746E+04</pdfrwt>
<pdfrwt beam="2">  1       -2 0.51174653E-01 0.15925746E+04</pdfrwt>
<totfact> 0.26084411E+01</totfact>
</mgrwt>
</event>
<event>
12    2  0.3552864E-008  0.1127154E+04  0.7818608E-02  0.9179123E-01
          1   -1    0    0  501    0  0.00000000000E+00  0.00000000000E+00  0.49149663338E+03  0.49149663338E+03  0.00000000000E+00 0. -1.
         -1   -1    0    0    0  501 -0.00000000000E+00 -0.00000000000E+00 -0.64622790378E+03  0.64622790378E+03  0.00000000000E+00 0.  1.
         23    2    1    2    0    0 -0.13902141465E+03  0.78597266213E+02  0.73293339874E+02  0.19807204860E+03  0.91411918164E+02 0.  0.
        254    2    1    2    0    0  0.13902141465E+03 -0.78597266213E+02 -0.22802461027E+03  0.93965248855E+03  0.89746704249E+03 0.  0.
         23    2    4    4    0    0 -0.29093596724E+03 -0.49964147835E+02 -0.36521766270E+03  0.47848440160E+03  0.91778147343E+02 0.  0.
         23    2    4    4    0    0  0.42995738188E+03 -0.28633118378E+02  0.13719305242E+03  0.46116808694E+03  0.90392837541E+02 0.  0.
          3    1    3    3  502    0 -0.12849595667E+03  0.53985867312E+02  0.90565026678E+02  0.16621585005E+03  0.00000000000E+00 0. -1.
         -3    1    3    3    0  502 -0.10525457978E+02  0.24611398901E+02 -0.17271686805E+02  0.31856198558E+02  0.00000000000E+00 0.  1.
         11    1    5    5    0    0 -0.15197218512E+03  0.19696105915E+02 -0.19412674002E+03  0.24732301314E+03  0.00000000000E+00 0.  1.
        -11    1    5    5    0    0 -0.13896378211E+03 -0.69660253750E+02 -0.17109092268E+03  0.23116138846E+03  0.00000000000E+00 0. -1.
          2    1    6    6  503    0  0.35155727241E+03 -0.82278564651E+01  0.76334424185E+02  0.35984324048E+03  0.00000000000E+00 0. -1.
         -2    1    6    6    0  503  0.78400109474E+02 -0.20405261913E+02  0.60858628239E+02  0.10132484646E+03  0.00000000000E+00 0.  1.
<mgrwt>
<rscale>  0 0.11271537E+04</rscale>
<asrwt>0</asrwt>
<pdfrwt beam="1">  1        1 0.75614867E-01 0.11271537E+04</pdfrwt>
<pdfrwt beam="2">  1       -1 0.99419677E-01 0.11271537E+04</pdfrwt>
<totfact> 0.43629904E+01</totfact>
</mgrwt>
</event>
<event>
12    2  0.3552864E-008  0.1533340E+04  0.7818608E-02  0.8862580E-01
         -2   -1    0    0    0  501 -0.00000000000E+00  0.00000000000E+00  0.63127466429E+03  0.63127466429E+03  0.00000000000E+00 0.  1.
          2   -1    0    0  501    0  0.00000000000E+00 -0.00000000000E+00 -0.93110466461E+03  0.93110466461E+03  0.00000000000E+00 0. -1.
         23    2    1    2    0    0  0.11840208257E+03 -0.46813001935E+03  0.20015734033E+02  0.49185284862E+03  0.91399271972E+02 0.  0.
        254    2    1    2    0    0 -0.11840208257E+03  0.46813001935E+03 -0.31984573435E+03  0.10705264803E+04  0.90031154775E+03 0.  0.
         23    2    4    4    0    0  0.14244904894E+01  0.62985727818E+03  0.50988755088E+02  0.63863377365E+03  0.92363540691E+02 0.  0.
         23    2    4    4    0    0 -0.11982657306E+03 -0.16172725883E+03 -0.37083448944E+03  0.43189270663E+03  0.92189899795E+02 0.  0.
          1    1    3    3  502    0 -0.54415524914E+01  0.14325135980E+01 -0.12649332778E+01  0.57673776469E+01  0.00000000000E+00 0. -1.
         -1    1    3    3    0  502  0.12384363506E+03 -0.46956253295E+03  0.21280667311E+02  0.48608547098E+03  0.00000000000E+00 0.  1.
         11    1    5    5    0    0 -0.13649124525E+00  0.59564255899E+03  0.69529778044E+02  0.59968697397E+03  0.00000000000E+00 0.  1.
        -11    1    5    5    0    0  0.15609817346E+01  0.34214719190E+02 -0.18541022955E+02  0.38946799682E+02  0.00000000000E+00 0. -1.
          1    1    6    6  503    0  0.56215346739E+01 -0.22404983306E+02 -0.98180146154E+01  0.25099369315E+02  0.00000000000E+00 0. -1.
         -1    1    6    6    0  503 -0.12544810773E+03 -0.13932227552E+03 -0.36101647482E+03  0.40679333731E+03  0.00000000000E+00 0.  1.
<mgrwt>
<rscale>  0 0.15333399E+04</rscale>
<asrwt>0</asrwt>
<pdfrwt beam="1">  1        2 0.14324687E+00 0.15333399E+04</pdfrwt>
<pdfrwt beam="2">  1       -2 0.97119180E-01 0.15333399E+04</pdfrwt>
<totfact> 0.23840423E+01</totfact>
</mgrwt>
</event>
<event>
12    2  0.3552864E-008  0.1422205E+04  0.7818608E-02  0.8937900E-01
         -2   -1    0    0    0  501 -0.00000000000E+00  0.00000000000E+00  0.46184031260E+03  0.46184031260E+03  0.00000000000E+00 0.  1.
          2   -1    0    0  501    0  0.00000000000E+00 -0.00000000000E+00 -0.10948956620E+04  0.10948956620E+04  0.00000000000E+00 0. -1.
         23    2    1    2    0    0  0.49555073917E+02  0.25844797851E+03  0.16826619679E+03  0.32296712759E+03  0.82116926239E+02 0.  0.
        254    2    1    2    0    0 -0.49555073917E+02 -0.25844797851E+03 -0.80132154621E+03  0.12337688470E+04  0.90045448776E+03 0.  0.
         23    2    4    4    0    0 -0.23884310710E+02 -0.22227775624E+03 -0.99046741281E+03  0.10193636861E+04  0.89993152468E+02 0.  0.
         23    2    4    4    0    0 -0.25670763207E+02 -0.36170222279E+02  0.18914586660E+03  0.21440516092E+03  0.90698076691E+02 0.  0.
          4    1    3    3  502    0  0.41785740295E+02  0.26037310143E+03  0.17124320006E+03  0.31442715151E+03  0.00000000000E+00 0.  1.
         -4    1    3    3    0  502  0.77693336216E+01 -0.19251229115E+01 -0.29770032662E+01  0.85399760887E+01  0.00000000000E+00 0. -1.
         11    1    5    5    0    0 -0.35979818278E+02 -0.21642872649E+03 -0.97242541307E+03  0.99686865983E+03  0.00000000000E+00 0.  1.
        -11    1    5    5    0    0  0.12095507568E+02 -0.58490297470E+01 -0.18041999748E+02  0.22495026278E+02  0.00000000000E+00 0. -1.
          2    1    6    6  503    0 -0.50240915469E+02  0.32341791238E+01  0.12858792115E+03  0.13809222631E+03  0.00000000000E+00 0. -1.
         -2    1    6    6    0  503  0.24570152262E+02 -0.39404401403E+02  0.60557945448E+02  0.76312934612E+02  0.00000000000E+00 0.  1.
<mgrwt>
<rscale>  0 0.14222053E+04</rscale>
<asrwt>0</asrwt>
<pdfrwt beam="1">  1        2 0.16844549E+00 0.14222053E+04</pdfrwt>
<pdfrwt beam="2">  1       -2 0.71052356E-01 0.14222053E+04</pdfrwt>
<totfact> 0.38373516E+01</totfact>
</mgrwt>
</event>
<event>
12    2  0.3552864E-008  0.1465572E+04  0.7818608E-02  0.8907675E-01
         -1   -1    0    0    0  501 -0.00000000000E+00  0.00000000000E+00  0.85569240310E+03  0.85569240310E+03  0.00000000000E+00 0.  1.
          1   -1    0    0  501    0  0.00000000000E+00 -0.00000000000E+00 -0.62753349269E+03  0.62753349269E+03  0.00000000000E+00 0. -1.
         23    2    1    2    0    0  0.21286997606E+03 -0.25549075657E+03  0.37081144766E+03  0.50726765638E+03  0.96073888688E+02 0.  0.
        254    2    1    2    0    0 -0.21286997606E+03  0.25549075657E+03 -0.14265253726E+03  0.97595823941E+03  0.90639703513E+03 0.  0.
         23    2    4    4    0    0 -0.17642663017E+03 -0.12990643988E+03 -0.42531828288E+03  0.48768851240E+03  0.94564287213E+02 0.  0.
         23    2    4    4    0    0 -0.36443345887E+02  0.38539719645E+03  0.28266574562E+03  0.48826972701E+03  0.92996161594E+02 0.  0.
          4    1    3    3  502    0  0.11778161401E+03 -0.14135377937E+03  0.27366688331E+03  0.32976804357E+03  0.00000000000E+00 0.  1.
         -4    1    3    3    0  502  0.95088362052E+02 -0.11413697721E+03  0.97144564353E+02  0.17749961281E+03  0.00000000000E+00 0. -1.
         11    1    5    5    0    0 -0.70175871867E+02 -0.39583240635E+02 -0.25575304424E+03  0.26814381509E+03  0.00000000000E+00 0. -1.
        -11    1    5    5    0    0 -0.10625075830E+03 -0.90323199246E+02 -0.16956523864E+03  0.21954469731E+03  0.00000000000E+00 0.  1.
          1    1    6    6  503    0 -0.53148624415E+02  0.34597266563E+03  0.27415256300E+03  0.44461386555E+03  0.00000000000E+00 0. -1.
         -1    1    6    6    0  503  0.16705278528E+02  0.39424530821E+02  0.85131826234E+01  0.43655861457E+02  0.00000000000E+00 0.  1.
<mgrwt>
<rscale>  0 0.14655724E+04</rscale>
<asrwt>0</asrwt>
<pdfrwt beam="1">  1        1 0.96543614E-01 0.14655724E+04</pdfrwt>
<pdfrwt beam="2">  1       -1 0.13164499E+00 0.14655724E+04</pdfrwt>
<totfact> 0.15289888E+01</totfact>
</mgrwt>
</event>
<event>
12    2  0.3552864E-008  0.4447881E+04  0.7818608E-02  0.7919825E-01
         -1   -1    0    0    0  501 -0.00000000000E+00  0.00000000000E+00  0.24027615631E+04  0.24027615631E+04  0.00000000000E+00 0.  1.
          1   -1    0    0  501    0  0.00000000000E+00 -0.00000000000E+00 -0.20584277940E+04  0.20584277940E+04  0.00000000000E+00 0. -1.
         23    2    1    2    0    0  0.15607741702E+04 -0.10009157784E+04  0.12228246541E+04  0.22229866220E+04  0.92309160777E+02 0.  0.
        254    2    1    2    0    0 -0.15607741702E+04  0.10009157784E+04 -0.87849088506E+03  0.22382027350E+04  0.89440306465E+03 0.  0.
         23    2    4    4    0    0 -0.15024932922E+03 -0.18219264944E+02 -0.39064708610E+03  0.42866668352E+03  0.90791944209E+02 0.  0.
         23    2    4    4    0    0 -0.14105248410E+04  0.10191350433E+04 -0.48784379896E+03  0.18095360515E+04  0.90623318591E+02 0.  0.
          3    1    3    3  502    0  0.17495666719E+03 -0.82762426389E+02  0.11172092194E+03  0.22347487334E+03  0.00000000000E+00 0. -1.
         -3    1    3    3    0  502  0.13858175030E+04 -0.91815335198E+03  0.11111037322E+04  0.19995117487E+04  0.00000000000E+00 0.  1.
         11    1    5    5    0    0 -0.27026305111E+01  0.23110218535E+02 -0.51418433043E+02  0.56437945294E+02  0.00000000000E+00 0. -1.
        -11    1    5    5    0    0 -0.14754669871E+03 -0.41329483479E+02 -0.33922865306E+03  0.37222873823E+03  0.00000000000E+00 0.  1.
          1    1    6    6  503    0 -0.17911865095E+03  0.12120391644E+03 -0.91413598473E+02  0.23479848054E+03  0.00000000000E+00 0. -1.
         -1    1    6    6    0  503 -0.12314061901E+04  0.89793112687E+03 -0.39643020048E+03  0.15747375710E+04  0.00000000000E+00 0.  1.
<mgrwt>
<rscale>  0 0.44478809E+04</rscale>
<asrwt>0</asrwt>
<pdfrwt beam="1">  1        1 0.31668120E+00 0.44478809E+04</pdfrwt>
<pdfrwt beam="2">  1       -1 0.36965563E+00 0.44478809E+04</pdfrwt>
<totfact> 0.23571543E-02</totfact>
</mgrwt>
</event>
<event>
12    2  0.3552864E-008  0.1846380E+04  0.7818608E-02  0.8682017E-01
         -1   -1    0    0    0  501 -0.00000000000E+00  0.00000000000E+00  0.12007242924E+04  0.12007242924E+04  0.00000000000E+00 0.  1.
          1   -1    0    0  501    0  0.00000000000E+00 -0.00000000000E+00 -0.70980489026E+03  0.70980489026E+03  0.00000000000E+00 0. -1.
         23    2    1    2    0    0  0.44943592705E+03  0.28193402514E+03 -0.27593985819E+03  0.60491469718E+03  0.91101802806E+02 0.  0.
        254    2    1    2    0    0 -0.44943592705E+03 -0.28193402514E+03  0.76685926038E+03  0.13056144855E+04  0.91382526366E+03 0.  0.
         23    2    4    4    0    0  0.14638808499E+03 -0.17118989938E+03  0.63293853843E+03  0.67804981199E+03  0.91678247374E+02 0.  0.
         23    2    4    4    0    0 -0.59582401204E+03 -0.11074412575E+03  0.13392072195E+03  0.62756467352E+03  0.92909337401E+02 0.  0.
          4    1    3    3  502    0  0.42415663826E+03  0.25596581708E+03 -0.27896181854E+03  0.56854819452E+03  0.00000000000E+00 0. -1.
         -4    1    3    3    0  502  0.25279288788E+02  0.25968208052E+02  0.30219603451E+01  0.36366502656E+02  0.00000000000E+00 0.  1.
         11    1    5    5    0    0  0.62509269077E+02 -0.31375797410E+02  0.11063302811E+03  0.13088741839E+03  0.00000000000E+00 0. -1.
        -11    1    5    5    0    0  0.83878815914E+02 -0.13981410197E+03  0.52230551031E+03  0.54716239360E+03  0.00000000000E+00 0.  1.
          2    1    6    6  503    0 -0.35283516898E+03 -0.70982109254E+02  0.12564268686E+03  0.38120493316E+03  0.00000000000E+00 0. -1.
         -2    1    6    6    0  503 -0.24298884306E+03 -0.39762016500E+02  0.82780350869E+01  0.24635974036E+03  0.00000000000E+00 0.  1.
<mgrwt>
<rscale>  0 0.18463802E+04</rscale>
<asrwt>0</asrwt>
<pdfrwt beam="1">  1        1 0.10920075E+00 0.18463802E+04</pdfrwt>
<pdfrwt beam="2">  1       -1 0.18472681E+00 0.18463802E+04</pdfrwt>
<totfact> 0.48258269E+00</totfact>
</mgrwt>
</event>
<event>
12    2  0.3552864E-008  0.1482930E+04  0.7818608E-02  0.8895884E-01
         -1   -1    0    0    0  501 -0.00000000000E+00  0.00000000000E+00  0.29826072493E+03  0.29826072493E+03  0.00000000000E+00 0. -1.
          1   -1    0    0  501    0  0.00000000000E+00 -0.00000000000E+00 -0.18432534104E+04  0.18432534104E+04  0.00000000000E+00 0.  1.
         23    2    1    2    0    0  0.27969631780E+03 -0.27442856857E+03 -0.29991191806E+03  0.50233801704E+03  0.94102366265E+02 0.  0.
        254    2    1    2    0    0 -0.27969631780E+03  0.27442856857E+03 -0.12450807674E+04  0.16391761182E+04  0.99152970704E+03 0.  0.
         23    2    4    4    0    0 -0.44873481885E+03 -0.23773440097E+03 -0.54479571989E+03  0.74976677724E+03  0.86413313757E+02 0.  0.
         23    2    4    4    0    0  0.16903850105E+03  0.51216296953E+03 -0.70028504747E+03  0.88940934100E+03  0.98817538721E+02 0.  0.
          4    1    3    3  502    0  0.65599525622E+02 -0.22204970831E+02 -0.76156102460E+02  0.10293741027E+03  0.00000000000E+00 0.  1.
         -4    1    3    3    0  502  0.21409679218E+03 -0.25222359773E+03 -0.22375581560E+03  0.39940060677E+03  0.00000000000E+00 0. -1.
         11    1    5    5    0    0 -0.40506574459E+03 -0.18786383627E+03 -0.44856944566E+03  0.63291834070E+03  0.00000000000E+00 0. -1.
        -11    1    5    5    0    0 -0.43669074261E+02 -0.49870564691E+02 -0.96226274225E+02  0.11684843654E+03  0.00000000000E+00 0.  1.
          4    1    6    6  503    0  0.13180582844E+03  0.31643306329E+03 -0.50557573738E+03  0.61082688724E+03  0.00000000000E+00 0. -1.
         -4    1    6    6    0  503  0.37232672607E+02  0.19572990624E+03 -0.19470931009E+03  0.27858245376E+03  0.00000000000E+00 0.  1.
<mgrwt>
<rscale>  0 0.14829297E+04</rscale>
<asrwt>0</asrwt>
<pdfrwt beam="1">  1        1 0.28357745E+00 0.14829297E+04</pdfrwt>
<pdfrwt beam="2">  1       -1 0.45886265E-01 0.14829297E+04</pdfrwt>
<totfact> 0.17419515E+01</totfact>
</mgrwt>
</event>
<event>
12    2  0.3552864E-008  0.1848056E+04  0.7818608E-02  0.8681153E-01
         -2   -1    0    0    0  501 -0.00000000000E+00  0.00000000000E+00  0.25118008462E+03  0.25118008462E+03  0.00000000000E+00 0.  1.
          2   -1    0    0  501    0  0.00000000000E+00 -0.00000000000E+00 -0.33992651890E+04  0.33992651890E+04  0.00000000000E+00 0. -1.
         23    2    1    2    0    0  0.19457438271E+03 -0.66152211683E+03 -0.14978637631E+04  0.16521665853E+04  0.10289738218E+03 0.  0.
        254    2    1    2    0    0 -0.19457438271E+03  0.66152211683E+03 -0.16502213413E+04  0.19982786883E+04  0.89130047659E+03 0.  0.
         23    2    4    4    0    0 -0.48427168817E+03  0.18180910130E+03 -0.55232464444E+03  0.76220832492E+03  0.91243632371E+02 0.  0.
         23    2    4    4    0    0  0.28969730546E+03  0.47971301554E+03 -0.10978966968E+04  0.12360703634E+04  0.91889500533E+02 0.  0.
          3    1    3    3  502    0  0.92207695398E+02 -0.23984639362E+03 -0.66768648518E+03  0.71542560348E+03  0.00000000000E+00 0. -1.
         -3    1    3    3    0  502  0.10236668732E+03 -0.42167572322E+03 -0.83017727793E+03  0.93674098182E+03  0.00000000000E+00 0.  1.
         11    1    5    5    0    0 -0.29043684204E+03  0.11095352702E+03 -0.26546010735E+03  0.40881941364E+03  0.00000000000E+00 0.  1.
        -11    1    5    5    0    0 -0.19383484613E+03  0.70855574277E+02 -0.28686453709E+03  0.35338891128E+03  0.00000000000E+00 0. -1.
          2    1    6    6  503    0  0.11217122995E+03  0.12480511017E+03 -0.26842917554E+03  0.31656424725E+03  0.00000000000E+00 0. -1.
         -2    1    6    6    0  503  0.17752607551E+03  0.35490790537E+03 -0.82946752128E+03  0.91950611615E+03  0.00000000000E+00 0.  1.
<mgrwt>
<rscale>  0 0.18480560E+04</rscale>
<asrwt>0</asrwt>
<pdfrwt beam="1">  1        2 0.52296380E+00 0.18480560E+04</pdfrwt>
<pdfrwt beam="2">  1       -2 0.38643095E-01 0.18480560E+04</pdfrwt>
<totfact> 0.57168019E+00</totfact>
</mgrwt>
</event>
<event>
12    2  0.3552864E-008  0.1734453E+04  0.7818608E-02  0.8741955E-01
          2   -1    0    0  501    0  0.00000000000E+00  0.00000000000E+00  0.17848077086E+04  0.17848077086E+04  0.00000000000E+00 0.  1.
         -2   -1    0    0    0  501 -0.00000000000E+00 -0.00000000000E+00 -0.42137985613E+03  0.42137985613E+03  0.00000000000E+00 0. -1.
         23    2    1    2    0    0  0.15667417979E+03 -0.11826449646E+03  0.12830091422E+04  0.13012165314E+04  0.92296874359E+02 0.  0.
        254    2    1    2    0    0 -0.15667417979E+03  0.11826449646E+03  0.80418710294E+02  0.90497103330E+03  0.87975684846E+03 0.  0.
         23    2    4    4    0    0 -0.16143989921E+03  0.48425932418E+03 -0.10454291130E+02  0.51953479439E+03  0.96110229778E+02 0.  0.
         23    2    4    4    0    0  0.47657194107E+01 -0.36599482772E+03  0.90873001424E+02  0.38543623891E+03  0.79550398322E+02 0.  0.
          3    1    3    3  502    0  0.42616823984E+02 -0.84810697304E+02  0.46214468464E+03  0.47179101052E+03  0.00000000000E+00 0. -1.
         -3    1    3    3    0  502  0.11405735581E+03 -0.33453799157E+02  0.82086445752E+03  0.82942552089E+03  0.00000000000E+00 0.  1.
         11    1    5    5    0    0 -0.16368703267E+03  0.48688016808E+03 -0.57395534364E+01  0.51369123528E+03  0.00000000000E+00 0. -1.
        -11    1    5    5    0    0  0.22471334686E+01 -0.26208438951E+01 -0.47147376932E+01  0.58435591093E+01  0.00000000000E+00 0.  1.
          4    1    6    6  503    0  0.25837331545E+01 -0.25617393561E+03  0.25115820568E+02  0.25741516157E+03  0.00000000000E+00 0. -1.
         -4    1    6    6    0  503  0.21819862562E+01 -0.10982089211E+03  0.65757180856E+02  0.12802107734E+03  0.00000000000E+00 0.  1.
<mgrwt>
<rscale>  0 0.17344532E+04</rscale>
<asrwt>0</asrwt>
<pdfrwt beam="1">  1        2 0.27458580E+00 0.17344532E+04</pdfrwt>
<pdfrwt beam="2">  1       -2 0.64827671E-01 0.17344532E+04</pdfrwt>
<totfact> 0.18330123E+01</totfact>
</mgrwt>
</event>
<event>
12    2  0.3552864E-008  0.2178222E+04  0.7818608E-02  0.8527548E-01
          1   -1    0    0  501    0  0.00000000000E+00  0.00000000000E+00  0.20446673795E+04  0.20446673795E+04  0.00000000000E+00 0. -1.
         -1   -1    0    0    0  501 -0.00000000000E+00 -0.00000000000E+00 -0.58012480290E+03  0.58012480290E+03  0.00000000000E+00 0.  1.
         23    2    1    2    0    0 -0.53429413644E+03  0.42103249219E+03 -0.93282883708E+02  0.69263657651E+03  0.91132579295E+02 0.  0.
        254    2    1    2    0    0  0.53429413644E+03 -0.42103249219E+03  0.15578254603E+04  0.19321556058E+04  0.91851322083E+03 0.  0.
         23    2    4    4    0    0  0.76818208673E+03 -0.37960783060E+03  0.13507269507E+04  0.16020405803E+04  0.88684283225E+02 0.  0.
         23    2    4    4    0    0 -0.23388795029E+03 -0.41424661593E+02  0.20709850960E+03  0.33011502560E+03  0.98318673535E+02 0.  0.
          3    1    3    3  502    0 -0.30913835130E+02  0.57882809760E+02 -0.96766811774E+01  0.66330408010E+02  0.00000000000E+00 0. -1.
         -3    1    3    3    0  502 -0.50338030131E+03  0.36314968243E+03 -0.83606202531E+02  0.62630616850E+03  0.00000000000E+00 0.  1.
         11    1    5    5    0    0  0.26672199814E+03 -0.11255648366E+03  0.38675816381E+03  0.48310605831E+03  0.00000000000E+00 0. -1.
        -11    1    5    5    0    0  0.50146008859E+03 -0.26705134694E+03  0.96396878686E+03  0.11189345219E+04  0.00000000000E+00 0.  1.
          4    1    6    6  503    0 -0.12176215304E+03 -0.66849510757E+02  0.13889536888E+03  0.19643523742E+03  0.00000000000E+00 0. -1.
         -4    1    6    6    0  503 -0.11212579725E+03  0.25424849164E+02  0.68203140717E+02  0.13367978818E+03  0.00000000000E+00 0.  1.
<mgrwt>
<rscale>  0 0.21782215E+04</rscale>
<asrwt>0</asrwt>
<pdfrwt beam="1">  1        1 0.31456421E+00 0.21782215E+04</pdfrwt>
<pdfrwt beam="2">  1       -1 0.89249971E-01 0.21782215E+04</pdfrwt>
<totfact> 0.31229752E+00</totfact>
</mgrwt>
</event>
<event>
12    2  0.3552864E-008  0.2885857E+04  0.7818608E-02  0.8277098E-01
          2   -1    0    0  501    0  0.00000000000E+00  0.00000000000E+00  0.17312912232E+04  0.17312912232E+04  0.00000000000E+00 0. -1.
         -2   -1    0    0    0  501 -0.00000000000E+00 -0.00000000000E+00 -0.12025952882E+04  0.12025952882E+04  0.00000000000E+00 0.  1.
         23    2    1    2    0    0 -0.10306887483E+04 -0.32289795169E+03 -0.49590249615E+03  0.11924668028E+04  0.97341701420E+02 0.  0.
        254    2    1    2    0    0  0.10306887483E+04  0.32289795169E+03  0.10245984311E+04  0.17414197086E+04  0.90341478466E+03 0.  0.
         23    2    4    4    0    0 -0.14399530967E+03  0.64640764325E+02  0.24529959870E+03  0.30552914628E+03  0.90901531785E+02 0.  0.
         23    2    4    4    0    0  0.11746840580E+04  0.25825718737E+03  0.77929883243E+03  0.14358905623E+04  0.88857333302E+02 0.  0.
          2    1    3    3  502    0 -0.30744477491E+03 -0.11309268730E+03 -0.19698046687E+03  0.38224802141E+03  0.00000000000E+00 0. -1.
         -2    1    3    3    0  502 -0.72324397343E+03 -0.20980526440E+03 -0.29892202927E+03  0.81021878135E+03  0.00000000000E+00 0.  1.
         11    1    5    5    0    0 -0.11645072097E+03  0.77822338110E+02  0.14895844998E+03  0.20446443834E+03  0.00000000000E+00 0. -1.
        -11    1    5    5    0    0 -0.27544588703E+02 -0.13181573786E+02  0.96341148720E+02  0.10106470794E+03  0.00000000000E+00 0.  1.
          1    1    6    6  503    0  0.56319087919E+03  0.98485911661E+02  0.41406447639E+03  0.70592693093E+03  0.00000000000E+00 0. -1.
         -1    1    6    6    0  503  0.61149317881E+03  0.15977127571E+03  0.36523435604E+03  0.72996363136E+03  0.00000000000E+00 0.  1.
<mgrwt>
<rscale>  0 0.28858570E+04</rscale>
<asrwt>0</asrwt>
<pdfrwt beam="1">  1        2 0.26635250E+00 0.28858570E+04</pdfrwt>
<pdfrwt beam="2">  1       -2 0.18501466E+00 0.28858570E+04</pdfrwt>
<totfact> 0.13638834E+00</totfact>
</mgrwt>
</event>
<event>
12    2  0.3552864E-008  0.2097695E+04  0.7818608E-02  0.8562260E-01
         -2   -1    0    0    0  501 -0.00000000000E+00  0.00000000000E+00  0.17761624186E+04  0.17761624186E+04  0.00000000000E+00 0. -1.
          2   -1    0    0  501    0  0.00000000000E+00 -0.00000000000E+00 -0.61935813060E+03  0.61935813060E+03  0.00000000000E+00 0.  1.
         23    2    1    2    0    0  0.45162614631E+03  0.31740787809E+03 -0.28718649613E+03  0.62928112773E+03  0.93833453805E+02 0.  0.
        254    2    1    2    0    0 -0.45162614631E+03 -0.31740787809E+03  0.14439907842E+04  0.17662394215E+04  0.85427066682E+03 0.  0.
         23    2    4    4    0    0 -0.66187531910E+03 -0.38804283627E+03  0.10322439423E+04  0.12897268169E+04  0.95976689918E+02 0.  0.
         23    2    4    4    0    0  0.21024917278E+03  0.70634958183E+02  0.41174684185E+03  0.47651260458E+03  0.91295063277E+02 0.  0.
          4    1    3    3  502    0  0.24862987829E+03  0.11895919699E+03 -0.15368275281E+03  0.31557328061E+03  0.00000000000E+00 0.  1.
         -4    1    3    3    0  502  0.20299626802E+03  0.19844868110E+03 -0.13350374333E+03  0.31370784712E+03  0.00000000000E+00 0. -1.
         11    1    5    5    0    0 -0.65819538969E+03 -0.38970562492E+03  0.10091584963E+04  0.12662908496E+04  0.00000000000E+00 0.  1.
        -11    1    5    5    0    0 -0.36799294063E+01  0.16627886426E+01  0.23085446035E+02  0.23435967340E+02  0.00000000000E+00 0. -1.
          1    1    6    6  503    0  0.32729018684E+02 -0.59209942866E+01  0.13428085013E+03  0.13833869143E+03  0.00000000000E+00 0. -1.
         -1    1    6    6    0  503  0.17752015410E+03  0.76555952470E+02  0.27746599172E+03  0.33817391315E+03  0.00000000000E+00 0.  1.
<mgrwt>
<rscale>  0 0.20976946E+04</rscale>
<asrwt>0</asrwt>
<pdfrwt beam="1">  1        2 0.95285867E-01 0.20976946E+04</pdfrwt>
<pdfrwt beam="2">  1       -2 0.27325575E+00 0.20976946E+04</pdfrwt>
<totfact> 0.20366154E+00</totfact>
</mgrwt>
</event>
<event>
12    2  0.3552864E-008  0.1390862E+04  0.7818608E-02  0.8960459E-01
         -2   -1    0    0    0  501 -0.00000000000E+00  0.00000000000E+00  0.68862357819E+03  0.68862357819E+03  0.00000000000E+00 0.  1.
          2   -1    0    0  501    0  0.00000000000E+00 -0.00000000000E+00 -0.70230615324E+03  0.70230615324E+03  0.00000000000E+00 0. -1.
         23    2    1    2    0    0  0.74651682291E+02 -0.13869318478E+03  0.35819156971E+03  0.40227118097E+03  0.93339323204E+02 0.  0.
        254    2    1    2    0    0 -0.74651682291E+02  0.13869318478E+03 -0.37187414477E+03  0.98865855046E+03  0.90241158940E+03 0.  0.
         23    2    4    4    0    0  0.48457638989E+02  0.38355208529E+03 -0.52733016794E+03  0.66035547049E+03  0.92368265598E+02 0.  0.
         23    2    4    4    0    0 -0.12310932128E+03 -0.24485890051E+03  0.15545602317E+03  0.32830307997E+03  0.92220122715E+02 0.  0.
          3    1    3    3  502    0  0.47173100436E+02 -0.59594067577E+02  0.74302702545E+02  0.10629038480E+03  0.00000000000E+00 0. -1.
         -3    1    3    3    0  502  0.27478581855E+02 -0.79099117198E+02  0.28388886717E+03  0.29598079617E+03  0.00000000000E+00 0.  1.
         11    1    5    5    0    0  0.28787514445E+02  0.29485394755E+02 -0.75190726965E+02  0.85742375249E+02  0.00000000000E+00 0.  1.
        -11    1    5    5    0    0  0.19670124544E+02  0.35406669053E+03 -0.45213944097E+03  0.57461309524E+03  0.00000000000E+00 0. -1.
          3    1    6    6  503    0 -0.82866120276E+02 -0.22841638949E+03  0.14708087892E+03  0.28403102968E+03  0.00000000000E+00 0. -1.
         -3    1    6    6    0  503 -0.40243201004E+02 -0.16442511017E+02  0.83751442514E+01  0.44272050289E+02  0.00000000000E+00 0.  1.
<mgrwt>
<rscale>  0 0.13908624E+04</rscale>
<asrwt>0</asrwt>
<pdfrwt beam="1">  1        2 0.10804710E+00 0.13908624E+04</pdfrwt>
<pdfrwt beam="2">  1       -2 0.10594209E+00 0.13908624E+04</pdfrwt>
<totfact> 0.28594792E+01</totfact>
</mgrwt>
</event>
<event>
12    2  0.3552864E-008  0.1357336E+04  0.7818608E-02  0.8985294E-01
         -1   -1    0    0    0  501 -0.00000000000E+00  0.00000000000E+00  0.15298020313E+03  0.15298020313E+03  0.00000000000E+00 0.  1.
          1   -1    0    0  501    0  0.00000000000E+00 -0.00000000000E+00 -0.30107823406E+04  0.30107823406E+04  0.00000000000E+00 0. -1.
         23    2    1    2    0    0 -0.10519483849E+03 -0.21967065435E+03 -0.17061592119E+03  0.31053476324E+03  0.89447728789E+02 0.  0.
        254    2    1    2    0    0  0.10519483849E+03  0.21967065435E+03 -0.26871862163E+04  0.28532277805E+04  0.92769491537E+03 0.  0.
         23    2    4    4    0    0 -0.14990401592E+03 -0.31215647059E+03 -0.90011093815E+03  0.96857876166E+03  0.89622767376E+02 0.  0.
         23    2    4    4    0    0  0.25509885441E+03  0.53182712494E+03 -0.17870752781E+04  0.18846490189E+04  0.10172688035E+03 0.  0.
          4    1    3    3  502    0 -0.54962028942E+02 -0.29489777022E+02 -0.33944787445E+02  0.71012112832E+02  0.00000000000E+00 0. -1.
         -4    1    3    3    0  502 -0.50232809553E+02 -0.19018087733E+03 -0.13667113375E+03  0.23952265040E+03  0.00000000000E+00 0.  1.
         11    1    5    5    0    0 -0.11994908511E+03 -0.19579169541E+03 -0.48822157000E+03  0.53952059499E+03  0.00000000000E+00 0.  1.
        -11    1    5    5    0    0 -0.29954930808E+02 -0.11636477518E+03 -0.41188936816E+03  0.42905816667E+03  0.00000000000E+00 0. -1.
          4    1    6    6  503    0  0.25341476150E+03  0.46167856968E+03 -0.16192985423E+04  0.17027900376E+04  0.00000000000E+00 0.  1.
         -4    1    6    6    0  503  0.16840929114E+01  0.70148555261E+02 -0.16777673581E+03  0.18185898122E+03  0.00000000000E+00 0. -1.
<mgrwt>
<rscale>  0 0.13573358E+04</rscale>
<asrwt>0</asrwt>
<pdfrwt beam="1">  1        1 0.46319728E+00 0.13573358E+04</pdfrwt>
<pdfrwt beam="2">  1       -1 0.23535416E-01 0.13573358E+04</pdfrwt>
<totfact> 0.89993011E+00</totfact>
</mgrwt>
</event>
<event>
12    2  0.3552864E-008  0.2954811E+04  0.7818608E-02  0.8256754E-01
         -1   -1    0    0    0  501 -0.00000000000E+00  0.00000000000E+00  0.87603107259E+03  0.87603107259E+03  0.00000000000E+00 0.  1.
          1   -1    0    0  501    0  0.00000000000E+00 -0.00000000000E+00 -0.24916087993E+04  0.24916087993E+04  0.00000000000E+00 0. -1.
         23    2    1    2    0    0  0.34199833390E+03  0.81472889827E+03 -0.18751689305E+04  0.20748153791E+04  0.88624498068E+02 0.  0.
        254    2    1    2    0    0 -0.34199833390E+03 -0.81472889827E+03  0.25959120380E+03  0.12928244927E+04  0.90733760960E+03 0.  0.
         23    2    4    4    0    0 -0.12094852520E+03 -0.17627898940E+02  0.41828285314E+03  0.44599262553E+03  0.94918850735E+02 0.  0.
         23    2    4    4    0    0 -0.22104980870E+03 -0.79710099933E+03 -0.15869164934E+03  0.84683186718E+03  0.87796074175E+02 0.  0.
          1    1    3    3  502    0  0.23469441293E+03  0.65277532446E+03 -0.14757549889E+04  0.16306593387E+04  0.00000000000E+00 0. -1.
         -1    1    3    3    0  502  0.10730392096E+03  0.16195357380E+03 -0.39941394159E+03  0.44415604044E+03  0.00000000000E+00 0.  1.
         11    1    5    5    0    0 -0.43020232571E+02  0.10553260679E+01  0.38163412875E+02  0.57517825114E+02  0.00000000000E+00 0. -1.
        -11    1    5    5    0    0 -0.77928292625E+02 -0.18683225008E+02  0.38011944027E+03  0.38847480041E+03  0.00000000000E+00 0.  1.
          1    1    6    6  503    0  0.16515791479E+01 -0.88087121498E+02 -0.73224098691E+01  0.88406370663E+02  0.00000000000E+00 0. -1.
         -1    1    6    6    0  503 -0.22270138785E+03 -0.70901387783E+03 -0.15136923947E+03  0.75842549652E+03  0.00000000000E+00 0.  1.
<mgrwt>
<rscale>  0 0.29548108E+04</rscale>
<asrwt>0</asrwt>
<pdfrwt beam="1">  1        1 0.38332443E+00 0.29548108E+04</pdfrwt>
<pdfrwt beam="2">  1       -1 0.13477401E+00 0.29548108E+04</pdfrwt>
<totfact> 0.54246694E-01</totfact>
</mgrwt>
</event>
<event>
12    2  0.3552864E-008  0.1290155E+04  0.7818608E-02  0.9037409E-01
          1   -1    0    0  501    0  0.00000000000E+00  0.00000000000E+00  0.12363104121E+04  0.12363104121E+04  0.00000000000E+00 0. -1.
         -1   -1    0    0    0  501 -0.00000000000E+00 -0.00000000000E+00 -0.33658641010E+03  0.33658641010E+03  0.00000000000E+00 0.  1.
         23    2    1    2    0    0 -0.28060937091E+02 -0.50887855717E+02  0.60712102903E+03  0.61708623869E+03  0.93928121623E+02 0.  0.
        254    2    1    2    0    0  0.28060937091E+02  0.50887855717E+02  0.29260297295E+03  0.95581058350E+03  0.90806408457E+03 0.  0.
         23    2    4    4    0    0 -0.20895007003E+03  0.38897101013E+03  0.13729283860E+02  0.44946809247E+03  0.82912571006E+02 0.  0.
         23    2    4    4    0    0  0.23701100713E+03 -0.33808315441E+03  0.27887368909E+03  0.50634249102E+03  0.90209461566E+02 0.  0.
          1    1    3    3  502    0  0.33593523775E+02 -0.27942123015E+02  0.28335846546E+03  0.28670770312E+03  0.00000000000E+00 0. -1.
         -1    1    3    3    0  502 -0.61654460866E+02 -0.22945732703E+02  0.32376256357E+03  0.33037853557E+03  0.00000000000E+00 0.  1.
         11    1    5    5    0    0 -0.63387891980E+01 -0.14063302347E+01  0.70614519031E+01  0.95928158642E+01  0.00000000000E+00 0.  1.
        -11    1    5    5    0    0 -0.20261128084E+03  0.39037734036E+03  0.66678319565E+01  0.43987527661E+03  0.00000000000E+00 0. -1.
          1    1    6    6  503    0  0.22057005025E+03 -0.32804484110E+03  0.28359551481E+03  0.48650897306E+03  0.00000000000E+00 0. -1.
         -1    1    6    6    0  503  0.16440956872E+02 -0.10038313304E+02 -0.47218257193E+01  0.19833517967E+02  0.00000000000E+00 0.  1.
<mgrwt>
<rscale>  0 0.12901555E+04</rscale>
<asrwt>0</asrwt>
<pdfrwt beam="1">  1        1 0.19020160E+00 0.12901555E+04</pdfrwt>
<pdfrwt beam="2">  1       -1 0.51782525E-01 0.12901555E+04</pdfrwt>
<totfact> 0.37099287E+01</totfact>
</mgrwt>
</event>
<event>
12    2  0.3552864E-008  0.1246824E+04  0.7818608E-02  0.9072831E-01
          2   -1    0    0  501    0  0.00000000000E+00  0.00000000000E+00  0.13455144896E+04  0.13455144896E+04  0.00000000000E+00 0. -1.
         -2   -1    0    0    0  501 -0.00000000000E+00 -0.00000000000E+00 -0.28884287555E+03  0.28884287555E+03  0.00000000000E+00 0.  1.
         23    2    1    2    0    0 -0.57257016453E+02  0.15058243338E+03 -0.65878995664E+02  0.19647849049E+03  0.91160956436E+02 0.  0.
        254    2    1    2    0    0  0.57257016453E+02 -0.15058243338E+03  0.11225506097E+04  0.14378788747E+04  0.88398096794E+03 0.  0.
         23    2    4    4    0    0 -0.28791319873E+03  0.20850630730E+03  0.64442505293E+03  0.74163498311E+03  0.91487207550E+02 0.  0.
         23    2    4    4    0    0  0.34517021518E+03 -0.35908874068E+03  0.47812555680E+03  0.69624389157E+03  0.89801488607E+02 0.  0.
          4    1    3    3  502    0 -0.87108377847E+01 -0.11487402877E+01 -0.32558292466E+02  0.33722999680E+02  0.00000000000E+00 0. -1.
         -4    1    3    3    0  502 -0.48546178668E+02  0.15173117367E+03 -0.33320703199E+02  0.16275549081E+03  0.00000000000E+00 0.  1.
         11    1    5    5    0    0 -0.10642333153E+03  0.61904696774E+02  0.31286673865E+03  0.33621973935E+03  0.00000000000E+00 0. -1.
        -11    1    5    5    0    0 -0.18148986720E+03  0.14660161052E+03  0.33155831428E+03  0.40541524376E+03  0.00000000000E+00 0.  1.
          4    1    6    6  503    0  0.12579992231E+03 -0.14846361200E+03  0.13016510898E+03  0.23411539919E+03  0.00000000000E+00 0. -1.
         -4    1    6    6    0  503  0.21937029287E+03 -0.21062512867E+03  0.34796044782E+03  0.46212849239E+03  0.00000000000E+00 0.  1.
<mgrwt>
<rscale>  0 0.12468236E+04</rscale>
<asrwt>0</asrwt>
<pdfrwt beam="1">  1        2 0.20700223E+00 0.12468236E+04</pdfrwt>
<pdfrwt beam="2">  1       -2 0.44437366E-01 0.12468236E+04</pdfrwt>
<totfact> 0.73451376E+01</totfact>
</mgrwt>
</event>
<event>
12    2  0.3552864E-008  0.2886778E+04  0.7818608E-02  0.8276822E-01
          1   -1    0    0  501    0  0.00000000000E+00  0.00000000000E+00  0.21094841279E+04  0.21094841279E+04  0.00000000000E+00 0. -1.
         -1   -1    0    0    0  501 -0.00000000000E+00 -0.00000000000E+00 -0.98762151071E+03  0.98762151071E+03  0.00000000000E+00 0.  1.
         23    2    1    2    0    0 -0.26951680899E+03 -0.77269431321E+03  0.16083762103E+04  0.18069696152E+04  0.92570753880E+02 0.  0.
        254    2    1    2    0    0  0.26951680899E+03  0.77269431321E+03 -0.48651359309E+03  0.12901360234E+04  0.87066622231E+03 0.  0.
         23    2    4    4    0    0  0.13325898874E+03  0.11877539120E+03  0.23090729256E+03  0.30537558224E+03  0.89836055334E+02 0.  0.
         23    2    4    4    0    0  0.13625782025E+03  0.65391892201E+03 -0.71742088565E+03  0.98476044118E+03  0.94256295325E+02 0.  0.
          1    1    3    3  502    0 -0.25783934820E+03 -0.66620610214E+03  0.14389951721E+04  0.16065549493E+04  0.00000000000E+00 0. -1.
         -1    1    3    3    0  502 -0.11677460782E+02 -0.10648821107E+03  0.16938103823E+03  0.20041466588E+03  0.00000000000E+00 0.  1.
         11    1    5    5    0    0  0.91978045167E+02  0.11149228629E+03  0.21791318954E+03  0.26148929016E+03  0.00000000000E+00 0. -1.
        -11    1    5    5    0    0  0.41280943570E+02  0.72831049165E+01  0.12994103020E+02  0.43886292081E+02  0.00000000000E+00 0.  1.
          2    1    6    6  503    0  0.88818806430E+02  0.32948404034E+03 -0.30330020956E+03  0.45655178275E+03  0.00000000000E+00 0. -1.
         -2    1    6    6    0  503  0.47439013820E+02  0.32443488167E+03 -0.41412067609E+03  0.52820865843E+03  0.00000000000E+00 0.  1.
<mgrwt>
<rscale>  0 0.28867781E+04</rscale>
<asrwt>0</asrwt>
<pdfrwt beam="1">  1        1 0.32453602E+00 0.28867781E+04</pdfrwt>
<pdfrwt beam="2">  1       -1 0.15194177E+00 0.28867781E+04</pdfrwt>
<totfact> 0.72695031E-01</totfact>
</mgrwt>
</event>
<event>
12    2  0.3552864E-008  0.1673349E+04  0.7818608E-02  0.8776712E-01
         -1   -1    0    0    0  501 -0.00000000000E+00  0.00000000000E+00  0.70737001564E+03  0.70737001564E+03  0.00000000000E+00 0.  1.
          1   -1    0    0  501    0  0.00000000000E+00 -0.00000000000E+00 -0.98961480569E+03  0.98961480569E+03  0.00000000000E+00 0. -1.
         23    2    1    2    0    0 -0.85122600744E+02 -0.66626847131E+01 -0.68946267112E+03  0.70067333857E+03  0.91071971503E+02 0.  0.
        254    2    1    2    0    0  0.85122600744E+02  0.66626847131E+01  0.40721788107E+03  0.99631148276E+03  0.90527339488E+03 0.  0.
         23    2    4    4    0    0  0.45311202877E+02 -0.41736812213E+03  0.35525980571E+03  0.55762701687E+03  0.92136344146E+02 0.  0.
         23    2    4    4    0    0  0.39811397867E+02  0.42403080685E+03  0.51958075366E+02  0.43868446589E+03  0.91418523610E+02 0.  0.
          4    1    3    3  502    0 -0.45602695241E+02  0.41597297543E+02 -0.38092518156E+03  0.38589368344E+03  0.00000000000E+00 0. -1.
         -4    1    3    3    0  502 -0.39519905503E+02 -0.48259982256E+02 -0.30853748956E+03  0.31477965513E+03  0.00000000000E+00 0.  1.
         11    1    5    5    0    0 -0.36055417910E+00 -0.33976030348E+03  0.28010642307E+03  0.44033714591E+03  0.00000000000E+00 0. -1.
        -11    1    5    5    0    0  0.45671757056E+02 -0.77607818654E+02  0.75153382634E+02  0.11728987096E+03  0.00000000000E+00 0.  1.
          2    1    6    6  503    0  0.59245061507E+02  0.38598918537E+03  0.60363575973E+02  0.39514730145E+03  0.00000000000E+00 0. -1.
         -2    1    6    6    0  503 -0.19433663640E+02  0.38041621474E+02 -0.84055006071E+01  0.43537164438E+02  0.00000000000E+00 0.  1.
<mgrwt>
<rscale>  0 0.16733485E+04</rscale>
<asrwt>0</asrwt>
<pdfrwt beam="1">  1        1 0.15224843E+00 0.16733485E+04</pdfrwt>
<pdfrwt beam="2">  1       -1 0.10882616E+00 0.16733485E+04</pdfrwt>
<totfact> 0.11512775E+01</totfact>
</mgrwt>
</event>
<event>
12    2  0.3552864E-008  0.1508759E+04  0.7818608E-02  0.8878649E-01
         -2   -1    0    0    0  501 -0.00000000000E+00  0.00000000000E+00  0.68123884962E+03  0.68123884962E+03  0.00000000000E+00 0.  1.
          2   -1    0    0  501    0  0.00000000000E+00 -0.00000000000E+00 -0.83537311886E+03  0.83537311886E+03  0.00000000000E+00 0. -1.
         23    2    1    2    0    0  0.41236282891E+03 -0.59536963093E+02  0.19030126326E+03  0.46478286988E+03  0.78872001998E+02 0.  0.
        254    2    1    2    0    0 -0.41236282891E+03  0.59536963093E+02 -0.34443553249E+03  0.10518290986E+04  0.90228646448E+03 0.  0.
         23    2    4    4    0    0 -0.46077411516E+03  0.33320714968E+02 -0.60709980865E+03  0.76839762771E+03  0.91878622998E+02 0.  0.
         23    2    4    4    0    0  0.48411286252E+02  0.26216248125E+02  0.26266427616E+03  0.28343147089E+03  0.91158830719E+02 0.  0.
          2    1    3    3  502    0  0.20974289350E+03 -0.18334806769E+02  0.54750109829E+02  0.21754498625E+03  0.00000000000E+00 0. -1.
         -2    1    3    3    0  502  0.20261993540E+03 -0.41202156324E+02  0.13555115343E+03  0.24723788363E+03  0.00000000000E+00 0.  1.
         11    1    5    5    0    0 -0.18376257771E+03 -0.30334522021E+02 -0.25854330256E+03  0.31864322916E+03  0.00000000000E+00 0. -1.
        -11    1    5    5    0    0 -0.27701153745E+03  0.63655236989E+02 -0.34855650609E+03  0.44975439855E+03  0.00000000000E+00 0.  1.
          3    1    6    6  503    0 -0.59662967430E+01  0.40426128723E+02  0.56405648547E+02  0.69652464194E+02  0.00000000000E+00 0. -1.
         -3    1    6    6    0  503  0.54377582995E+02 -0.14209880599E+02  0.20625862761E+03  0.21377900669E+03  0.00000000000E+00 0.  1.
<mgrwt>
<rscale>  0 0.15087593E+04</rscale>
<asrwt>0</asrwt>
<pdfrwt beam="1">  1        2 0.12851894E+00 0.15087593E+04</pdfrwt>
<pdfrwt beam="2">  1       -2 0.10480598E+00 0.15087593E+04</pdfrwt>
<totfact> 0.23172875E+01</totfact>
</mgrwt>
</event>
<event>
12    2  0.3552864E-008  0.2709147E+04  0.7818608E-02  0.8332043E-01
         -2   -1    0    0    0  501 -0.00000000000E+00  0.00000000000E+00  0.14134266705E+04  0.14134266705E+04  0.00000000000E+00 0.  1.
          2   -1    0    0  501    0  0.00000000000E+00 -0.00000000000E+00 -0.12981704201E+04  0.12981704201E+04  0.00000000000E+00 0. -1.
         23    2    1    2    0    0 -0.42751015137E+03  0.10395074784E+04 -0.38996103336E+03  0.11931371324E+04  0.90365269274E+02 0.  0.
        254    2    1    2    0    0  0.42751015137E+03 -0.10395074784E+04  0.50521728383E+03  0.15184599582E+04  0.88720652254E+03 0.  0.
         23    2    4    4    0    0 -0.47084807206E+02 -0.92602984589E+03  0.38248327302E+03  0.10071826556E+04  0.91516080790E+02 0.  0.
         23    2    4    4    0    0  0.47459495857E+03 -0.11347763254E+03  0.12273401081E+03  0.51127730264E+03  0.90682385249E+02 0.  0.
          3    1    3    3  502    0 -0.32940101690E+03  0.88581643475E+03 -0.31866681817E+03  0.99735867521E+03  0.00000000000E+00 0. -1.
         -3    1    3    3    0  502 -0.98109134471E+02  0.15369104368E+03 -0.71294215190E+02  0.19577845718E+03  0.00000000000E+00 0.  1.
         11    1    5    5    0    0 -0.13391261495E+02 -0.43960976294E+03  0.22992369307E+03  0.49628718923E+03  0.00000000000E+00 0. -1.
        -11    1    5    5    0    0 -0.33693545711E+02 -0.48642008295E+03  0.15255957994E+03  0.51089546636E+03  0.00000000000E+00 0.  1.
          4    1    6    6  503    0  0.41088754759E+03 -0.64967940548E+02  0.10898583334E+03  0.43003176851E+03  0.00000000000E+00 0. -1.
         -4    1    6    6    0  503  0.63707410985E+02 -0.48509691992E+02  0.13748177470E+02  0.81245534125E+02  0.00000000000E+00 0.  1.
<mgrwt>
<rscale>  0 0.27091465E+04</rscale>
<asrwt>0</asrwt>
<pdfrwt beam="1">  1        2 0.19971853E+00 0.27091465E+04</pdfrwt>
<pdfrwt beam="2">  1       -2 0.21745026E+00 0.27091465E+04</pdfrwt>
<totfact> 0.14904645E+00</totfact>
</mgrwt>
</event>
<event>
12    2  0.3552864E-008  0.1372384E+04  0.7818608E-02  0.8974055E-01
          2   -1    0    0  501    0  0.00000000000E+00  0.00000000000E+00  0.38205875806E+04  0.38205875806E+04  0.00000000000E+00 0. -1.
         -2   -1    0    0    0  501 -0.00000000000E+00 -0.00000000000E+00 -0.12324266061E+03  0.12324266061E+03  0.00000000000E+00 0.  1.
         23    2    1    2    0    0 -0.31072227751E+03  0.62669329765E+02  0.17763066678E+04  0.18069560879E+04  0.96690986149E+02 0.  0.
        254    2    1    2    0    0  0.31072227751E+03 -0.62669329765E+02  0.19210382522E+04  0.21368741534E+04  0.88054948876E+03 0.  0.
         23    2    4    4    0    0  0.37810667089E+03 -0.21606021632E+03  0.38283737269E+03  0.58684162551E+03  0.90398937284E+02 0.  0.
         23    2    4    4    0    0 -0.67384393371E+02  0.15339088655E+03  0.15382008795E+04  0.15500325278E+04  0.92029729075E+02 0.  0.
          1    1    3    3  502    0 -0.28943277283E+03  0.60437342610E+02  0.17388910083E+04  0.17638497501E+04  0.00000000000E+00 0. -1.
         -1    1    3    3    0  502 -0.21289504687E+02  0.22319871551E+01  0.37415659545E+02  0.43106337766E+02  0.00000000000E+00 0.  1.
         11    1    5    5    0    0  0.36609116017E+03 -0.20426836217E+03  0.38582336448E+03  0.56974377568E+03  0.00000000000E+00 0. -1.
        -11    1    5    5    0    0  0.12015510717E+02 -0.11791854144E+02 -0.29859917981E+01  0.17097849834E+02  0.00000000000E+00 0.  1.
          1    1    6    6  503    0 -0.85062955370E+01  0.10948777529E+03  0.69307849303E+03  0.70172482321E+03  0.00000000000E+00 0. -1.
         -1    1    6    6    0  503 -0.58878097834E+02  0.43903111267E+02  0.84512238650E+03  0.84830770464E+03  0.00000000000E+00 0.  1.
<mgrwt>
<rscale>  0 0.13723839E+04</rscale>
<asrwt>0</asrwt>
<pdfrwt beam="1">  1        2 0.58778261E+00 0.13723839E+04</pdfrwt>
<pdfrwt beam="2">  1       -2 0.18960412E-01 0.13723839E+04</pdfrwt>
<totfact> 0.11118228E+01</totfact>
</mgrwt>
</event>
<event>
12    2  0.3552864E-008  0.1182232E+04  0.7818608E-02  0.9128553E-01
          1   -1    0    0  501    0  0.00000000000E+00  0.00000000000E+00  0.17786594126E+04  0.17786594126E+04  0.00000000000E+00 0. -1.
         -1   -1    0    0    0  501 -0.00000000000E+00 -0.00000000000E+00 -0.19645024132E+03  0.19645024132E+03  0.00000000000E+00 0.  1.
         23    2    1    2    0    0  0.16256507110E+03 -0.10138744785E+03  0.94163288632E+02  0.23196608780E+03  0.90745380259E+02 0.  0.
        254    2    1    2    0    0 -0.16256507110E+03  0.10138744785E+03  0.14880458826E+04  0.17431435661E+04  0.88744697098E+03 0.  0.
         23    2    4    4    0    0  0.16918475799E+03  0.14609177704E+03  0.29379921882E+02  0.24371667354E+03  0.92565368778E+02 0.  0.
         23    2    4    4    0    0 -0.33174982909E+03 -0.44704329191E+02  0.14586659607E+04  0.14994268925E+04  0.92294067739E+02 0.  0.
          4    1    3    3  502    0  0.61826450986E+02 -0.83301272764E+02  0.74568714160E+02  0.12775799473E+03  0.00000000000E+00 0. -1.
         -4    1    3    3    0  502  0.10073862012E+03 -0.18086175084E+02  0.19594574472E+02  0.10420809307E+03  0.00000000000E+00 0.  1.
         11    1    5    5    0    0  0.78487672750E+02  0.14090989980E+02  0.24742350973E+02  0.83492842232E+02  0.00000000000E+00 0. -1.
        -11    1    5    5    0    0  0.90697085242E+02  0.13200078706E+03  0.46375709089E+01  0.16022383131E+03  0.00000000000E+00 0.  1.
          2    1    6    6  503    0 -0.20865083687E+03 -0.42635673405E+02  0.10940997587E+04  0.11146332376E+04  0.00000000000E+00 0.  1.
         -2    1    6    6    0  503 -0.12309899223E+03 -0.20686557860E+01  0.36456620204E+03  0.38479365495E+03  0.00000000000E+00 0. -1.
<mgrwt>
<rscale>  0 0.11822319E+04</rscale>
<asrwt>0</asrwt>
<pdfrwt beam="1">  1        1 0.27363990E+00 0.11822319E+04</pdfrwt>
<pdfrwt beam="2">  1       -1 0.30223115E-01 0.11822319E+04</pdfrwt>
<totfact> 0.42074663E+01</totfact>
</mgrwt>
</event>
<event>
12    2  0.3552864E-008  0.1628505E+04  0.7818608E-02  0.8803225E-01
          1   -1    0    0  501    0  0.00000000000E+00  0.00000000000E+00  0.11835616269E+04  0.11835616269E+04  0.00000000000E+00 0. -1.
         -1   -1    0    0    0  501 -0.00000000000E+00 -0.00000000000E+00 -0.56017962375E+03  0.56017962375E+03  0.00000000000E+00 0.  1.
         23    2    1    2    0    0  0.38257566109E+03 -0.29986446171E+03 -0.95966546522E+02  0.50416666260E+03  0.93228824795E+02 0.  0.
        254    2    1    2    0    0 -0.38257566109E+03  0.29986446171E+03  0.71934854972E+03  0.12395745881E+04  0.88475984969E+03 0.  0.
         23    2    4    4    0    0 -0.47376169626E+02  0.14660849789E+03  0.82645586950E+03  0.84558373807E+03  0.90796479926E+02 0.  0.
         23    2    4    4    0    0 -0.33519949146E+03  0.15325596382E+03 -0.10710731978E+03  0.39399085002E+03  0.88942242095E+02 0.  0.
          4    1    3    3  502    0  0.35869210392E+03 -0.25065898638E+03 -0.10143573014E+03  0.44919835287E+03  0.00000000000E+00 0.  1.
         -4    1    3    3    0  502  0.23883557165E+02 -0.49205475332E+02  0.54691836204E+01  0.54968309733E+02  0.00000000000E+00 0. -1.
         11    1    5    5    0    0 -0.27432198652E+02  0.13053466052E+03  0.48018654577E+03  0.49836827934E+03  0.00000000000E+00 0. -1.
        -11    1    5    5    0    0 -0.19943970974E+02  0.16073837377E+02  0.34626932373E+03  0.34721545873E+03  0.00000000000E+00 0.  1.
          2    1    6    6  503    0 -0.86373041728E+02  0.17534171605E+01 -0.39156859281E+02  0.94850600619E+02  0.00000000000E+00 0. -1.
         -2    1    6    6    0  503 -0.24882644973E+03  0.15150254666E+03 -0.67950460501E+02  0.29914024940E+03  0.00000000000E+00 0.  1.
<mgrwt>
<rscale>  0 0.16285050E+04</rscale>
<asrwt>0</asrwt>
<pdfrwt beam="1">  1        1 0.18208640E+00 0.16285050E+04</pdfrwt>
<pdfrwt beam="2">  1       -1 0.86181481E-01 0.16285050E+04</pdfrwt>
<totfact> 0.13974646E+01</totfact>
</mgrwt>
</event>
<event>
12    2  0.3552864E-008  0.2604887E+04  0.7818608E-02  0.8366543E-01
         -2   -1    0    0    0  501 -0.00000000000E+00  0.00000000000E+00  0.63083306108E+03  0.63083306108E+03  0.00000000000E+00 0.  1.
          2   -1    0    0  501    0  0.00000000000E+00 -0.00000000000E+00 -0.26890770662E+04  0.26890770662E+04  0.00000000000E+00 0. -1.
         23    2    1    2    0    0 -0.84219484349E+03 -0.13683452729E+03 -0.18867753405E+04  0.20726845599E+04  0.89912498379E+02 0.  0.
        254    2    1    2    0    0  0.84219484349E+03  0.13683452729E+03 -0.17146866468E+03  0.12472255674E+04  0.89339480111E+03 0.  0.
         23    2    4    4    0    0 -0.13454090123E+03 -0.13437212785E+03  0.26157700311E+02  0.20968448187E+03  0.84417023208E+02 0.  0.
         23    2    4    4    0    0  0.97673574472E+03  0.27120665514E+03 -0.19762636499E+03  0.10375410855E+04  0.99345654791E+02 0.  0.
          2    1    3    3  502    0 -0.23130015053E+03 -0.38478956359E+02 -0.42608921524E+03  0.48634597671E+03  0.00000000000E+00 0. -1.
         -2    1    3    3    0  502 -0.61089469296E+03 -0.98355570931E+02 -0.14606861252E+04  0.15863385832E+04  0.00000000000E+00 0.  1.
         11    1    5    5    0    0 -0.28387075381E+01 -0.51412118056E+02 -0.18882947920E+01  0.51525040521E+02  0.00000000000E+00 0.  1.
        -11    1    5    5    0    0 -0.13170219369E+03 -0.82960009792E+02  0.28045995103E+02  0.15815944135E+03  0.00000000000E+00 0. -1.
          3    1    6    6  503    0  0.80716409075E+03  0.22875407877E+03 -0.12485138113E+03  0.84819229265E+03  0.00000000000E+00 0. -1.
         -3    1    6    6    0  503  0.16957165397E+03  0.42452576370E+02 -0.72774983859E+02  0.18934879283E+03  0.00000000000E+00 0.  1.
<mgrwt>
<rscale>  0 0.26048867E+04</rscale>
<asrwt>0</asrwt>
<pdfrwt beam="1">  1        2 0.41370416E+00 0.26048867E+04</pdfrwt>
<pdfrwt beam="2">  1       -2 0.97051242E-01 0.26048867E+04</pdfrwt>
<totfact> 0.21123736E+00</totfact>
</mgrwt>
</event>
<event>
12    2  0.3552864E-008  0.1247930E+04  0.7818608E-02  0.9071907E-01
         -1   -1    0    0    0  501 -0.00000000000E+00  0.00000000000E+00  0.42888613597E+03  0.42888613597E+03  0.00000000000E+00 0.  1.
          1   -1    0    0  501    0  0.00000000000E+00 -0.00000000000E+00 -0.90777618187E+03  0.90777618187E+03  0.00000000000E+00 0. -1.
         23    2    1    2    0    0 -0.31464538078E+02 -0.16226403939E+03  0.13358956519E+03  0.23310520940E+03  0.95771765622E+02 0.  0.
        254    2    1    2    0    0  0.31464538078E+02  0.16226403939E+03 -0.61247961108E+03  0.11035571084E+04  0.90298802979E+03 0.  0.
         23    2    4    4    0    0  0.27256670805E+02  0.47509551153E+03 -0.61246255862E+03  0.78085624082E+03  0.90373734779E+02 0.  0.
         23    2    4    4    0    0  0.42078672723E+01 -0.31283147215E+03 -0.17052458343E-01  0.32270086761E+03  0.79086114787E+02 0.  0.
          1    1    3    3  502    0 -0.47885620964E+02 -0.74238491377E+02  0.10888575073E+03  0.14021588002E+03  0.00000000000E+00 0. -1.
         -1    1    3    3    0  502  0.16421082886E+02 -0.88025548009E+02  0.24703814460E+02  0.92889329389E+02  0.00000000000E+00 0.  1.
         11    1    5    5    0    0 -0.33433952360E+02  0.18510987293E+03 -0.23557466092E+03  0.30146129950E+03  0.00000000000E+00 0.  1.
        -11    1    5    5    0    0  0.60690623165E+02  0.28998563860E+03 -0.37688789770E+03  0.47939494132E+03  0.00000000000E+00 0. -1.
          2    1    6    6  503    0 -0.10493191439E+02 -0.61560087146E+01 -0.96407040893E+01  0.15522457447E+02  0.00000000000E+00 0. -1.
         -2    1    6    6    0  503  0.14701058711E+02 -0.30667546343E+03  0.96236516309E+01  0.30717841016E+03  0.00000000000E+00 0.  1.
<mgrwt>
<rscale>  0 0.12479305E+04</rscale>
<asrwt>0</asrwt>
<pdfrwt beam="1">  1        1 0.13965787E+00 0.12479305E+04</pdfrwt>
<pdfrwt beam="2">  1       -1 0.65982483E-01 0.12479305E+04</pdfrwt>
<totfact> 0.41178663E+01</totfact>
</mgrwt>
</event>
<event>
12    2  0.3552864E-008  0.1784949E+04  0.7818608E-02  0.8714344E-01
          2   -1    0    0  501    0  0.00000000000E+00  0.00000000000E+00  0.10002405507E+04  0.10002405507E+04  0.00000000000E+00 0. -1.
         -2   -1    0    0    0  501 -0.00000000000E+00 -0.00000000000E+00 -0.79631951967E+03  0.79631951967E+03  0.00000000000E+00 0.  1.
         23    2    1    2    0    0  0.22986712206E+03  0.58119354394E+01  0.71054527701E+03  0.75275690777E+03  0.94317013908E+02 0.  0.
        254    2    1    2    0    0 -0.22986712206E+03 -0.58119354394E+01 -0.50662424599E+03  0.10438031626E+04  0.88316716606E+03 0.  0.
         23    2    4    4    0    0 -0.52517842683E+03  0.17501497782E+02 -0.50435785998E+03  0.73382368275E+03  0.89452020746E+02 0.  0.
         23    2    4    4    0    0  0.29531130476E+03 -0.23313433221E+02 -0.22663860151E+01  0.30997947984E+03  0.91268058641E+02 0.  0.
          1    1    3    3  502    0  0.74143305421E+02  0.43840109251E+02  0.20357327213E+03  0.22104583697E+03  0.00000000000E+00 0.  1.
         -1    1    3    3    0  502  0.15572381664E+03 -0.38028173812E+02  0.50697200488E+03  0.53171107079E+03  0.00000000000E+00 0. -1.
         11    1    5    5    0    0 -0.31639898529E+03  0.36057237273E+02 -0.25420879744E+03  0.40746847111E+03  0.00000000000E+00 0. -1.
        -11    1    5    5    0    0 -0.20877944154E+03 -0.18555739492E+02 -0.25014906254E+03  0.32635521164E+03  0.00000000000E+00 0.  1.
          3    1    6    6  503    0 -0.45296711073E+01 -0.83794531568E+01 -0.21581124449E+01  0.97668113974E+01  0.00000000000E+00 0. -1.
         -3    1    6    6    0  503  0.29984097587E+03 -0.14933980064E+02 -0.10827357019E+00  0.30021266845E+03  0.00000000000E+00 0.  1.
<mgrwt>
<rscale>  0 0.17849494E+04</rscale>
<asrwt>0</asrwt>
<pdfrwt beam="1">  1        2 0.15388316E+00 0.17849494E+04</pdfrwt>
<pdfrwt beam="2">  1       -2 0.12251070E+00 0.17849494E+04</pdfrwt>
<totfact> 0.12002136E+01</totfact>
</mgrwt>
</event>
<event>
12    2  0.3552864E-008  0.1527360E+04  0.7818608E-02  0.8866460E-01
          1   -1    0    0  501    0  0.00000000000E+00  0.00000000000E+00  0.69004285439E+03  0.69004285439E+03  0.00000000000E+00 0. -1.
         -1   -1    0    0    0  501 -0.00000000000E+00 -0.00000000000E+00 -0.84517506339E+03  0.84517506339E+03  0.00000000000E+00 0.  1.
         23    2    1    2    0    0  0.24694285817E+03 -0.42030522455E+02 -0.47740630771E+03  0.54699387803E+03  0.92402272431E+02 0.  0.
        254    2    1    2    0    0 -0.24694285817E+03  0.42030522455E+02  0.32227409870E+03  0.98822403975E+03  0.89998823217E+03 0.  0.
         23    2    4    4    0    0  0.12625188209E+03 -0.35130939168E+03  0.13879434708E+03  0.40882326860E+03  0.92275499200E+02 0.  0.
         23    2    4    4    0    0 -0.37319474026E+03  0.39333991413E+03  0.18347975162E+03  0.57940077116E+03  0.89720856878E+02 0.  0.
          4    1    3    3  502    0  0.16691561005E+03 -0.46431038359E+02 -0.39844886899E+03  0.43448609115E+03  0.00000000000E+00 0.  1.
         -4    1    3    3    0  502  0.80027248114E+02  0.44005159037E+01 -0.78957438716E+02  0.11250778688E+03  0.00000000000E+00 0. -1.
         11    1    5    5    0    0  0.12326198605E+03 -0.22123839253E+03  0.10670022978E+03  0.27481790803E+03  0.00000000000E+00 0.  1.
        -11    1    5    5    0    0  0.29898960397E+01 -0.13007099914E+03  0.32094117298E+02  0.13400536057E+03  0.00000000000E+00 0. -1.
          4    1    6    6  503    0 -0.31628619010E+03  0.36454194221E+03  0.14111703998E+03  0.50283377039E+03  0.00000000000E+00 0.  1.
         -4    1    6    6    0  503 -0.56908550160E+02  0.28797971920E+02  0.42362711645E+02  0.76567000764E+02  0.00000000000E+00 0. -1.
<mgrwt>
<rscale>  0 0.15273598E+04</rscale>
<asrwt>0</asrwt>
<pdfrwt beam="1">  1        1 0.10616044E+00 0.15273598E+04</pdfrwt>
<pdfrwt beam="2">  1       -1 0.13002693E+00 0.15273598E+04</pdfrwt>
<totfact> 0.13625669E+01</totfact>
</mgrwt>
</event>
<event>
12    2  0.3552864E-008  0.3394122E+04  0.7818608E-02  0.8139350E-01
         -1   -1    0    0    0  501 -0.00000000000E+00  0.00000000000E+00  0.21039788342E+04  0.21039788342E+04  0.00000000000E+00 0.  1.
          1   -1    0    0  501    0  0.00000000000E+00 -0.00000000000E+00 -0.13688427552E+04  0.13688427552E+04  0.00000000000E+00 0. -1.
         23    2    1    2    0    0 -0.24751477590E+03  0.15600209720E+04  0.46316664785E+03  0.16483934331E+04  0.88025957356E+02 0.  0.
        254    2    1    2    0    0  0.24751477590E+03 -0.15600209720E+04  0.27196943116E+03  0.18244281563E+04  0.87157428176E+03 0.  0.
         23    2    4    4    0    0  0.35339850653E+03 -0.23004172471E+03  0.22387492972E+03  0.48626841498E+03  0.92343314461E+02 0.  0.
         23    2    4    4    0    0 -0.10588373063E+03 -0.13299792473E+04  0.48094501443E+02  0.13381597413E+04  0.91116681004E+02 0.  0.
          1    1    3    3  502    0 -0.51858106406E+02  0.48294351838E+03  0.17631072483E+03  0.51672930712E+03  0.00000000000E+00 0. -1.
         -1    1    3    3    0  502 -0.19565666949E+03  0.10770774537E+04  0.28685592303E+03  0.11316641260E+04  0.00000000000E+00 0.  1.
         11    1    5    5    0    0  0.20020076500E+02 -0.76945061670E+01 -0.84683645735E+01  0.23059099869E+02  0.00000000000E+00 0. -1.
        -11    1    5    5    0    0  0.33337843003E+03 -0.22234721854E+03  0.23234329430E+03  0.46320931511E+03  0.00000000000E+00 0.  1.
          2    1    6    6  503    0 -0.41749335605E+02 -0.95522023743E+03  0.11569727813E+02  0.95620215835E+03  0.00000000000E+00 0. -1.
         -2    1    6    6    0  503 -0.64134395025E+02 -0.37475900989E+03  0.36524773630E+02  0.38195758300E+03  0.00000000000E+00 0.  1.
<mgrwt>
<rscale>  0 0.33941221E+04</rscale>
<asrwt>0</asrwt>
<pdfrwt beam="1">  1        1 0.21059119E+00 0.33941221E+04</pdfrwt>
<pdfrwt beam="2">  1       -1 0.32368905E+00 0.33941221E+04</pdfrwt>
<totfact> 0.15397205E-01</totfact>
</mgrwt>
</event>
<event>
12    2  0.3552864E-008  0.1723301E+04  0.7818608E-02  0.8748185E-01
         -2   -1    0    0    0  501 -0.00000000000E+00  0.00000000000E+00  0.95830460589E+03  0.95830460589E+03  0.00000000000E+00 0.  1.
          2   -1    0    0  501    0  0.00000000000E+00 -0.00000000000E+00 -0.77474486566E+03  0.77474486566E+03  0.00000000000E+00 0. -1.
         23    2    1    2    0    0  0.59163762921E+03  0.14818007575E+03 -0.32244558442E+02  0.61834222650E+03  0.96514135626E+02 0.  0.
        254    2    1    2    0    0 -0.59163762921E+03 -0.14818007575E+03  0.21580429868E+03  0.11147072450E+04  0.90774904444E+03 0.  0.
         23    2    4    4    0    0 -0.13814929142E+03 -0.38148360591E+03 -0.18896380377E+03  0.45727869487E+03  0.93709750564E+02 0.  0.
         23    2    4    4    0    0 -0.45348833779E+03  0.23330353015E+03  0.40476810245E+03  0.65742855018E+03  0.91065208123E+02 0.  0.
          3    1    3    3  502    0  0.57069302967E+03  0.14690607226E+03 -0.49223339378E+02  0.59135003621E+03  0.00000000000E+00 0. -1.
         -3    1    3    3    0  502  0.20944599542E+02  0.12740034946E+01  0.16978780937E+02  0.26992190296E+02  0.00000000000E+00 0.  1.
         11    1    5    5    0    0 -0.74833094300E+02 -0.12730782888E+03 -0.10852803063E+03  0.18326376819E+03  0.00000000000E+00 0.  1.
        -11    1    5    5    0    0 -0.63316197121E+02 -0.25417577703E+03 -0.80435773132E+02  0.27401492668E+03  0.00000000000E+00 0. -1.
          3    1    6    6  503    0 -0.43839636869E+03  0.22024086200E+03  0.36033735649E+03  0.60872031661E+03  0.00000000000E+00 0. -1.
         -3    1    6    6    0  503 -0.15091969108E+02  0.13062668158E+02  0.44430745957E+02  0.48708233567E+02  0.00000000000E+00 0.  1.
<mgrwt>
<rscale>  0 0.17233010E+04</rscale>
<asrwt>0</asrwt>
<pdfrwt beam="1">  1        2 0.11919152E+00 0.17233010E+04</pdfrwt>
<pdfrwt beam="2">  1       -2 0.14743148E+00 0.17233010E+04</pdfrwt>
<totfact> 0.10702365E+01</totfact>
</mgrwt>
</event>
<event>
12    2  0.3552864E-008  0.3180036E+04  0.7818608E-02  0.8194110E-01
          2   -1    0    0  501    0  0.00000000000E+00  0.00000000000E+00  0.13528635258E+04  0.13528635258E+04  0.00000000000E+00 0. -1.
         -2   -1    0    0    0  501 -0.00000000000E+00 -0.00000000000E+00 -0.18687455972E+04  0.18687455972E+04  0.00000000000E+00 0.  1.
         23    2    1    2    0    0  0.11836140455E+04  0.79410373961E+03  0.85296872423E+02  0.14308440018E+04  0.92173982198E+02 0.  0.
        254    2    1    2    0    0 -0.11836140455E+04 -0.79410373961E+03 -0.60117894387E+03  0.17907651211E+04  0.90215333422E+03 0.  0.
         23    2    4    4    0    0 -0.57215610477E+03  0.10218040498E+03 -0.11878537300E+03  0.59997606693E+03  0.89765654132E+02 0.  0.
         23    2    4    4    0    0 -0.61145794077E+03 -0.89628414459E+03 -0.48239357087E+03  0.11907890542E+04  0.89827241020E+02 0.  0.
          3    1    3    3  502    0  0.20522313005E+02  0.13473408655E+02 -0.10710041200E+02  0.26784380791E+02  0.00000000000E+00 0. -1.
         -3    1    3    3    0  502  0.11630917325E+04  0.78063033096E+03  0.96006913623E+02  0.14040596210E+04  0.00000000000E+00 0.  1.
         11    1    5    5    0    0 -0.17169416886E+03  0.66999308308E+02 -0.59211708612E+02  0.19358156258E+03  0.00000000000E+00 0. -1.
        -11    1    5    5    0    0 -0.40046193592E+03  0.35181096668E+02 -0.59573664389E+02  0.40639450436E+03  0.00000000000E+00 0.  1.
          3    1    6    6  503    0 -0.22747385718E+03 -0.26157306359E+03 -0.16511895389E+03  0.38396496225E+03  0.00000000000E+00 0. -1.
         -3    1    6    6    0  503 -0.38398408359E+03 -0.63471108100E+03 -0.31727461697E+03  0.80682409196E+03  0.00000000000E+00 0.  1.
<mgrwt>
<rscale>  0 0.31800363E+04</rscale>
<asrwt>0</asrwt>
<pdfrwt beam="1">  1        2 0.20813285E+00 0.31800363E+04</pdfrwt>
<pdfrwt beam="2">  1       -2 0.28749932E+00 0.31800363E+04</pdfrwt>
<totfact> 0.49235043E-01</totfact>
</mgrwt>
</event>
<event>
12    2  0.3552864E-008  0.1867315E+04  0.7818608E-02  0.8671299E-01
          1   -1    0    0  501    0  0.00000000000E+00  0.00000000000E+00  0.17464230941E+04  0.17464230941E+04  0.00000000000E+00 0. -1.
         -1   -1    0    0    0  501 -0.00000000000E+00 -0.00000000000E+00 -0.49914388250E+03  0.49914388250E+03  0.00000000000E+00 0.  1.
         23    2    1    2    0    0 -0.34779773645E+03  0.30104116148E+03  0.11356052230E+04  0.12286279804E+04  0.91315088307E+02 0.  0.
        254    2    1    2    0    0  0.34779773645E+03 -0.30104116148E+03  0.11167398854E+03  0.10169389961E+04  0.90005821798E+03 0.  0.
         23    2    4    4    0    0  0.49713079251E+03 -0.57846670518E+02  0.36440155094E+03  0.62516579776E+03  0.86939761915E+02 0.  0.
         23    2    4    4    0    0 -0.14933305606E+03 -0.24319449096E+03 -0.25272756240E+03  0.39177319838E+03  0.90394115432E+02 0.  0.
          3    1    3    3  502    0 -0.22094068231E+03  0.24081306582E+03  0.74433996729E+03  0.81292539921E+03  0.00000000000E+00 0. -1.
         -3    1    3    3    0  502 -0.12685705415E+03  0.60228095660E+02  0.39126525572E+03  0.41570258122E+03  0.00000000000E+00 0.  1.
         11    1    5    5    0    0  0.10205169744E+02  0.12322902889E+02  0.12567483416E+02  0.20345541638E+02  0.00000000000E+00 0.  1.
        -11    1    5    5    0    0  0.48692562277E+03 -0.70169573406E+02  0.35183406752E+03  0.60482025612E+03  0.00000000000E+00 0. -1.
          1    1    6    6  503    0 -0.15389785556E+03 -0.21660568839E+03 -0.20008594550E+03  0.33262134594E+03  0.00000000000E+00 0. -1.
         -1    1    6    6    0  503  0.45647995054E+01 -0.26588802578E+02 -0.52641616902E+02  0.59151852441E+02  0.00000000000E+00 0.  1.
<mgrwt>
<rscale>  0 0.18673151E+04</rscale>
<asrwt>0</asrwt>
<pdfrwt beam="1">  1        1 0.26868047E+00 0.18673151E+04</pdfrwt>
<pdfrwt beam="2">  1       -1 0.76791368E-01 0.18673151E+04</pdfrwt>
<totfact> 0.70722185E+00</totfact>
</mgrwt>
</event>
<event>
12    2  0.3552864E-008  0.1737955E+04  0.7818608E-02  0.8740008E-01
          1   -1    0    0  501    0  0.00000000000E+00  0.00000000000E+00  0.26505099774E+04  0.26505099774E+04  0.00000000000E+00 0. -1.
         -1   -1    0    0    0  501 -0.00000000000E+00 -0.00000000000E+00 -0.28489691929E+03  0.28489691929E+03  0.00000000000E+00 0.  1.
         23    2    1    2    0    0  0.50469622477E+02  0.42355773320E+03  0.80259962005E+02  0.44325699341E+03  0.89926439732E+02 0.  0.
        254    2    1    2    0    0 -0.50469622477E+02 -0.42355773320E+03  0.22853530961E+04  0.24921499033E+04  0.89778841071E+03 0.  0.
         23    2    4    4    0    0  0.18879268187E+03  0.17683085101E+03  0.11506269185E+04  0.11831298818E+04  0.94563127057E+02 0.  0.
         23    2    4    4    0    0 -0.23926230435E+03 -0.60038858421E+03  0.11347261776E+04  0.13090200215E+04  0.90647758951E+02 0.  0.
          3    1    3    3  502    0  0.52295479023E+01  0.15471327068E+03  0.71437284411E+02  0.17048997008E+03  0.00000000000E+00 0. -1.
         -3    1    3    3    0  502  0.45240074575E+02  0.26884446253E+03  0.88226775933E+01  0.27276702333E+03  0.00000000000E+00 0.  1.
         11    1    5    5    0    0  0.39651768226E+00  0.42535854861E+02  0.13792126941E+03  0.14433202254E+03  0.00000000000E+00 0. -1.
        -11    1    5    5    0    0  0.18839616419E+03  0.13429499615E+03  0.10127056491E+04  0.10387978592E+04  0.00000000000E+00 0.  1.
          4    1    6    6  503    0 -0.10361172174E+02 -0.17291235650E+02  0.78147106627E+02  0.80705086539E+02  0.00000000000E+00 0. -1.
         -4    1    6    6    0  503 -0.22890113217E+03 -0.58309734856E+03  0.10565790710E+04  0.12283149349E+04  0.00000000000E+00 0.  1.
<mgrwt>
<rscale>  0 0.17379553E+04</rscale>
<asrwt>0</asrwt>
<pdfrwt beam="1">  1        1 0.40777075E+00 0.17379553E+04</pdfrwt>
<pdfrwt beam="2">  1       -1 0.43830297E-01 0.17379553E+04</pdfrwt>
<totfact> 0.51992077E+00</totfact>
</mgrwt>
</event>
<event>
12    2  0.3552864E-008  0.2500352E+04  0.7818608E-02  0.8402860E-01
         -2   -1    0    0    0  501 -0.00000000000E+00  0.00000000000E+00  0.57064703395E+03  0.57064703395E+03  0.00000000000E+00 0.  1.
          2   -1    0    0  501    0  0.00000000000E+00 -0.00000000000E+00 -0.27388905675E+04  0.27388905675E+04  0.00000000000E+00 0. -1.
         23    2    1    2    0    0 -0.97598734639E+03 -0.12684282594E+03 -0.30520839369E+03  0.10354255828E+04  0.10155575395E+03 0.  0.
        254    2    1    2    0    0  0.97598734639E+03  0.12684282594E+03 -0.18630351399E+04  0.22741120186E+04  0.85559636405E+03 0.  0.
         23    2    4    4    0    0  0.95091454940E+03 -0.13305393817E+03 -0.16950685706E+04  0.19506379138E+04  0.98939280766E+02 0.  0.
         23    2    4    4    0    0  0.25072796987E+02  0.25989676411E+03 -0.16796656930E+03  0.32347410480E+03  0.90817151093E+02 0.  0.
          3    1    3    3  502    0 -0.55755817765E+03 -0.92304214482E+02 -0.22327427584E+03  0.60765334832E+03  0.00000000000E+00 0.  1.
         -3    1    3    3    0  502 -0.41842916875E+03 -0.34538611458E+02 -0.81934117855E+02  0.42777223450E+03  0.00000000000E+00 0. -1.
         11    1    5    5    0    0  0.88599092276E+03 -0.12709740951E+03 -0.16230690056E+04  0.18535065858E+04  0.00000000000E+00 0.  1.
        -11    1    5    5    0    0  0.64923626647E+02 -0.59565286603E+01 -0.71999564991E+02  0.97131328054E+02  0.00000000000E+00 0. -1.
          3    1    6    6  503    0  0.31919133228E+02  0.16829350575E+03 -0.15441740068E+03  0.23062148377E+03  0.00000000000E+00 0. -1.
         -3    1    6    6    0  503 -0.68463362407E+01  0.91603258358E+02 -0.13549168614E+02  0.92852621029E+02  0.00000000000E+00 0.  1.
<mgrwt>
<rscale>  0 0.25003518E+04</rscale>
<asrwt>0</asrwt>
<pdfrwt beam="1">  1        2 0.42136777E+00 0.25003518E+04</pdfrwt>
<pdfrwt beam="2">  1       -2 0.87791853E-01 0.25003518E+04</pdfrwt>
<totfact> 0.25118230E+00</totfact>
</mgrwt>
</event>
<event>
12    2  0.3552864E-008  0.1689991E+04  0.7818608E-02  0.8767094E-01
          1   -1    0    0  501    0  0.00000000000E+00  0.00000000000E+00  0.57559300540E+03  0.57559300540E+03  0.00000000000E+00 0. -1.
         -1   -1    0    0    0  501 -0.00000000000E+00 -0.00000000000E+00 -0.12404894198E+04  0.12404894198E+04  0.00000000000E+00 0.  1.
         23    2    1    2    0    0 -0.53490166030E+02 -0.41620595034E+03 -0.69344579459E+03  0.81622288429E+03  0.96250381013E+02 0.  0.
        254    2    1    2    0    0  0.53490166030E+02  0.41620595034E+03  0.28549380175E+02  0.99985954093E+03  0.90709175033E+03 0.  0.
         23    2    4    4    0    0 -0.38283400072E+03  0.26308851903E+03  0.17741252587E+03  0.50557060609E+03  0.91372821204E+02 0.  0.
         23    2    4    4    0    0  0.43632416675E+03  0.15311743131E+03 -0.14886314570E+03  0.49428893484E+03  0.91310397573E+02 0.  0.
          1    1    3    3  502    0 -0.37134748286E+02 -0.47378293049E+02 -0.77877560219E+02  0.98430719636E+02  0.00000000000E+00 0. -1.
         -1    1    3    3    0  502 -0.16355417744E+02 -0.36882765729E+03 -0.61556823438E+03  0.71779216466E+03  0.00000000000E+00 0.  1.
         11    1    5    5    0    0 -0.15787665889E+03  0.11795900963E+03  0.28195167676E+02  0.19908373829E+03  0.00000000000E+00 0. -1.
        -11    1    5    5    0    0 -0.22495734183E+03  0.14512950940E+03  0.14921735820E+03  0.30648686779E+03  0.00000000000E+00 0.  1.
          1    1    6    6  503    0  0.29161957409E+03  0.64217219717E+02 -0.68300193575E+02  0.30631804345E+03  0.00000000000E+00 0. -1.
         -1    1    6    6    0  503  0.14470459266E+03  0.88900211595E+02 -0.80562952123E+02  0.18797089140E+03  0.00000000000E+00 0.  1.
<mgrwt>
<rscale>  0 0.16899906E+04</rscale>
<asrwt>0</asrwt>
<pdfrwt beam="1">  1        1 0.88552771E-01 0.16899906E+04</pdfrwt>
<pdfrwt beam="2">  1       -1 0.19084452E+00 0.16899906E+04</pdfrwt>
<totfact> 0.60348685E+00</totfact>
</mgrwt>
</event>
<event>
12    2  0.3552864E-008  0.2016699E+04  0.7818608E-02  0.8598853E-01
         -2   -1    0    0    0  501 -0.00000000000E+00  0.00000000000E+00  0.70539635145E+03  0.70539635145E+03  0.00000000000E+00 0.  1.
          2   -1    0    0  501    0  0.00000000000E+00 -0.00000000000E+00 -0.14414145723E+04  0.14414145723E+04  0.00000000000E+00 0. -1.
         23    2    1    2    0    0  0.16358144494E+03 -0.51559734069E+03  0.33965585287E+03  0.64512733386E+03  0.90684462038E+02 0.  0.
        254    2    1    2    0    0 -0.16358144494E+03  0.51559734069E+03 -0.10756740737E+04  0.15016835898E+04  0.89742931998E+03 0.  0.
         23    2    4    4    0    0 -0.33109339156E+03  0.60521955761E+03 -0.42063305740E+03  0.81345636878E+03  0.94157039458E+02 0.  0.
         23    2    4    4    0    0  0.16751194663E+03 -0.89622216916E+02 -0.65504101629E+03  0.68822722107E+03  0.92117212125E+02 0.  0.
          1    1    3    3  502    0  0.36252201239E+02 -0.11136099694E+03  0.31965167790E+02  0.12139714036E+03  0.00000000000E+00 0. -1.
         -1    1    3    3    0  502  0.12732924370E+03 -0.40423634375E+03  0.30769068508E+03  0.52373019351E+03  0.00000000000E+00 0.  1.
         11    1    5    5    0    0  0.89843892198E+00  0.44790753716E+02 -0.24108429105E+02  0.50874700636E+02  0.00000000000E+00 0. -1.
        -11    1    5    5    0    0 -0.33199183049E+03  0.56042880389E+03 -0.39652462829E+03  0.76258166814E+03  0.00000000000E+00 0.  1.
          2    1    6    6  503    0  0.14464400302E+02 -0.51384131342E+02 -0.16438846616E+03  0.17283840903E+03  0.00000000000E+00 0. -1.
         -2    1    6    6    0  503  0.15304754632E+03 -0.38238085573E+02 -0.49065255014E+03  0.51538881204E+03  0.00000000000E+00 0.  1.
<mgrwt>
<rscale>  0 0.20166989E+04</rscale>
<asrwt>0</asrwt>
<pdfrwt beam="1">  1        2 0.22175609E+00 0.20166989E+04</pdfrwt>
<pdfrwt beam="2">  1       -2 0.10852252E+00 0.20166989E+04</pdfrwt>
<totfact> 0.86327334E+00</totfact>
</mgrwt>
</event>
<event>
12    2  0.3552864E-008  0.1519161E+04  0.7818608E-02  0.8871810E-01
         -2   -1    0    0    0  501 -0.00000000000E+00  0.00000000000E+00  0.59399657747E+03  0.59399657747E+03  0.00000000000E+00 0. -1.
          2   -1    0    0  501    0  0.00000000000E+00 -0.00000000000E+00 -0.97132282550E+03  0.97132282550E+03  0.00000000000E+00 0.  1.
         23    2    1    2    0    0 -0.46312572002E+03  0.70036474016E+02  0.14648553582E+02  0.47739755800E+03  0.91122489149E+02 0.  0.
        254    2    1    2    0    0  0.46312572002E+03 -0.70036474016E+02 -0.39197480160E+03  0.10879218450E+04  0.90029948097E+03 0.  0.
         23    2    4    4    0    0 -0.45615243837E+02 -0.26734284619E+03 -0.44805418771E+03  0.53160386860E+03  0.91088803414E+02 0.  0.
         23    2    4    4    0    0  0.50874096386E+03  0.19730637217E+03  0.56079386110E+02  0.55631797637E+03  0.92723354532E+02 0.  0.
          1    1    3    3  502    0 -0.27274578194E+03  0.33739935120E+01  0.33447796093E+02  0.27480975321E+03  0.00000000000E+00 0. -1.
         -1    1    3    3    0  502 -0.19037993808E+03  0.66662480504E+02 -0.18799242511E+02  0.20258780479E+03  0.00000000000E+00 0.  1.
         11    1    5    5    0    0 -0.59112432430E+02 -0.26539105630E+03 -0.41869093596E+03  0.49922819661E+03  0.00000000000E+00 0.  1.
        -11    1    5    5    0    0  0.13497188592E+02 -0.19517898876E+01 -0.29363251753E+02  0.32375671995E+02  0.00000000000E+00 0. -1.
          2    1    6    6  503    0  0.33782541208E+03  0.13143887657E+03  0.81079709213E+02  0.37145135155E+03  0.00000000000E+00 0. -1.
         -2    1    6    6    0  503  0.17091555178E+03  0.65867495603E+02 -0.25000323104E+02  0.18486662482E+03  0.00000000000E+00 0.  1.
<mgrwt>
<rscale>  0 0.15191609E+04</rscale>
<asrwt>0</asrwt>
<pdfrwt beam="1">  1        2 0.14943428E+00 0.15191609E+04</pdfrwt>
<pdfrwt beam="2">  1       -2 0.91384091E-01 0.15191609E+04</pdfrwt>
<totfact> 0.25881567E+01</totfact>
</mgrwt>
</event>
<event>
12    2  0.3552864E-008  0.1487781E+04  0.7818608E-02  0.8892619E-01
         -1   -1    0    0    0  501 -0.00000000000E+00  0.00000000000E+00  0.40078026067E+03  0.40078026067E+03  0.00000000000E+00 0.  1.
          1   -1    0    0  501    0  0.00000000000E+00 -0.00000000000E+00 -0.13807392674E+04  0.13807392674E+04  0.00000000000E+00 0. -1.
         23    2    1    2    0    0 -0.18208451015E+03 -0.38908603574E+03 -0.55870360218E+03  0.71069571743E+03  0.91629556605E+02 0.  0.
        254    2    1    2    0    0  0.18208451015E+03  0.38908603574E+03 -0.42125540455E+03  0.10708238106E+04  0.88581307595E+03 0.  0.
         23    2    4    4    0    0  0.35392239455E+03 -0.82795745708E+02 -0.41619646999E+03  0.56041459633E+03  0.93428161036E+02 0.  0.
         23    2    4    4    0    0 -0.17183788440E+03  0.47188178145E+03 -0.50589345574E+01  0.51040921431E+03  0.91056570603E+02 0.  0.
          3    1    3    3  502    0 -0.18792035784E+03 -0.38930709567E+03 -0.54380034411E+03  0.69468905986E+03  0.00000000000E+00 0. -1.
         -3    1    3    3    0  502  0.58358476905E+01  0.22105992599E+00 -0.14903258065E+02  0.16006657575E+02  0.00000000000E+00 0.  1.
         11    1    5    5    0    0  0.14754766897E+03  0.47191631357E+01 -0.12864265679E+03  0.19580990339E+03  0.00000000000E+00 0. -1.
        -11    1    5    5    0    0  0.20637472558E+03 -0.87514908844E+02 -0.28755381320E+03  0.36460469294E+03  0.00000000000E+00 0.  1.
          2    1    6    6  503    0 -0.54829700650E+02  0.73058522478E+02 -0.23663223996E+02  0.94359906474E+02  0.00000000000E+00 0. -1.
         -2    1    6    6    0  503 -0.11700818375E+03  0.39882325897E+03  0.18604289438E+02  0.41604930783E+03  0.00000000000E+00 0.  1.
<mgrwt>
<rscale>  0 0.14877810E+04</rscale>
<asrwt>0</asrwt>
<pdfrwt beam="1">  1        1 0.21242142E+00 0.14877810E+04</pdfrwt>
<pdfrwt beam="2">  1       -1 0.61658502E-01 0.14877810E+04</pdfrwt>
<totfact> 0.20475743E+01</totfact>
</mgrwt>
</event>
<event>
12    2  0.3552864E-008  0.4185385E+04  0.7818608E-02  0.7968158E-01
         -2   -1    0    0    0  501 -0.00000000000E+00  0.00000000000E+00  0.24230830012E+04  0.24230830012E+04  0.00000000000E+00 0.  1.
          2   -1    0    0  501    0  0.00000000000E+00 -0.00000000000E+00 -0.18073511463E+04  0.18073511463E+04  0.00000000000E+00 0. -1.
         23    2    1    2    0    0 -0.11473470251E+04  0.15809414283E+04  0.70612938925E+03  0.20792371338E+04  0.93953971256E+02 0.  0.
        254    2    1    2    0    0  0.11473470251E+04 -0.15809414283E+04 -0.90397534398E+02  0.21511970137E+04  0.89649087121E+03 0.  0.
         23    2    4    4    0    0  0.99642238308E+03 -0.16653834069E+04 -0.16065631004E+02  0.19433049351E+04  0.99078296173E+02 0.  0.
         23    2    4    4    0    0  0.15092464199E+03  0.84441978696E+02 -0.74331903394E+02  0.20789207860E+03  0.88233718930E+02 0.  0.
          2    1    3    3  502    0 -0.29926205872E+03  0.37380869460E+03  0.20891317059E+03  0.52243222795E+03  0.00000000000E+00 0. -1.
         -2    1    3    3    0  502 -0.84808496635E+03  0.12071327337E+04  0.49721621865E+03  0.15568049059E+04  0.00000000000E+00 0.  1.
         11    1    5    5    0    0  0.16689892268E+03 -0.21305956158E+03  0.31673307508E+01  0.27066521600E+03  0.00000000000E+00 0. -1.
        -11    1    5    5    0    0  0.82952346040E+03 -0.14523238454E+04 -0.19232961755E+02  0.16726397191E+04  0.00000000000E+00 0.  1.
          1    1    6    6  503    0  0.21787505948E+02 -0.74464104873E+01 -0.39340161717E+02  0.45582812205E+02  0.00000000000E+00 0. -1.
         -1    1    6    6    0  503  0.12913713604E+03  0.91888389183E+02 -0.34991741677E+02  0.16230926640E+03  0.00000000000E+00 0.  1.
<mgrwt>
<rscale>  0 0.41853850E+04</rscale>
<asrwt>0</asrwt>
<pdfrwt beam="1">  1        2 0.27805402E+00 0.41853850E+04</pdfrwt>
<pdfrwt beam="2">  1       -2 0.37278200E+00 0.41853850E+04</pdfrwt>
<totfact> 0.74006787E-02</totfact>
</mgrwt>
</event>
<event>
12    2  0.3552864E-008  0.1254757E+04  0.7818608E-02  0.9066233E-01
         -1   -1    0    0    0  501 -0.00000000000E+00  0.00000000000E+00  0.34711636703E+03  0.34711636703E+03  0.00000000000E+00 0.  1.
          1   -1    0    0  501    0  0.00000000000E+00 -0.00000000000E+00 -0.11339251465E+04  0.11339251465E+04  0.00000000000E+00 0. -1.
         23    2    1    2    0    0  0.17220304369E+03 -0.23743418837E+03 -0.23583950994E+03  0.38724737775E+03  0.91166743187E+02 0.  0.
        254    2    1    2    0    0 -0.17220304369E+03  0.23743418837E+03 -0.55096926949E+03  0.10937941357E+04  0.89821466999E+03 0.  0.
         23    2    4    4    0    0 -0.42402877060E+03  0.37550278104E+03 -0.54697749350E+03  0.79266334510E+03  0.91258223702E+02 0.  0.
         23    2    4    4    0    0  0.25182572692E+03 -0.13806859266E+03 -0.39917759901E+01  0.30113079065E+03  0.90469253240E+02 0.  0.
          1    1    3    3  502    0  0.68189905370E+02 -0.61245328859E+02 -0.28570804697E+02  0.96005960141E+02  0.00000000000E+00 0.  1.
         -1    1    3    3    0  502  0.10401313832E+03 -0.17618885951E+03 -0.20726870524E+03  0.29124141761E+03  0.00000000000E+00 0. -1.
         11    1    5    5    0    0 -0.34413680831E+03  0.31903618608E+03 -0.49419472960E+03  0.68150030200E+03  0.00000000000E+00 0. -1.
        -11    1    5    5    0    0 -0.79891962293E+02  0.56466594957E+02 -0.52782763906E+02  0.11116304310E+03  0.00000000000E+00 0.  1.
          4    1    6    6  503    0  0.22486885993E+03 -0.10819212264E+03 -0.32733197504E+02  0.25168035638E+03  0.00000000000E+00 0. -1.
         -4    1    6    6    0  503  0.26956866991E+02 -0.29876470018E+02  0.28741421514E+02  0.49450434269E+02  0.00000000000E+00 0.  1.
<mgrwt>
<rscale>  0 0.12547573E+04</rscale>
<asrwt>0</asrwt>
<pdfrwt beam="1">  1        1 0.17445002E+00 0.12547573E+04</pdfrwt>
<pdfrwt beam="2">  1       -1 0.53402518E-01 0.12547573E+04</pdfrwt>
<totfact> 0.41690701E+01</totfact>
</mgrwt>
</event>
<event>
12    2  0.3552864E-008  0.3546896E+04  0.7818608E-02  0.8102765E-01
         -2   -1    0    0    0  501 -0.00000000000E+00  0.00000000000E+00  0.13338570516E+04  0.13338570516E+04  0.00000000000E+00 0.  1.
          2   -1    0    0  501    0  0.00000000000E+00 -0.00000000000E+00 -0.23579127464E+04  0.23579127464E+04  0.00000000000E+00 0. -1.
         23    2    1    2    0    0  0.14132247835E+04 -0.85341527186E+03 -0.33800725390E+03  0.16876068593E+04  0.90807999408E+02 0.  0.
        254    2    1    2    0    0 -0.14132247835E+04  0.85341527186E+03 -0.68604844083E+03  0.20041629387E+04  0.90580610882E+03 0.  0.
         23    2    4    4    0    0 -0.13152192023E+04  0.55577056855E+03 -0.82248972520E+03  0.16502273432E+04  0.89880260767E+02 0.  0.
         23    2    4    4    0    0 -0.98005581170E+02  0.29764470331E+03  0.13644128436E+03  0.35393559547E+03  0.91960417088E+02 0.  0.
          3    1    3    3  502    0  0.19689143835E+03 -0.13145458293E+03 -0.18168863733E+02  0.23743768336E+03  0.00000000000E+00 0. -1.
         -3    1    3    3    0  502  0.12163333452E+04 -0.72196068893E+03 -0.31983839016E+03  0.14501691759E+04  0.00000000000E+00 0.  1.
         11    1    5    5    0    0 -0.85470216148E+03  0.37673264928E+03 -0.58395881702E+03  0.11015675984E+04  0.00000000000E+00 0. -1.
        -11    1    5    5    0    0 -0.46051704086E+03  0.17903791928E+03 -0.23853090818E+03  0.54865974486E+03  0.00000000000E+00 0.  1.
          3    1    6    6  503    0 -0.71203706577E+02  0.25437218126E+03  0.14649335836E+03  0.30205211218E+03  0.00000000000E+00 0. -1.
         -3    1    6    6    0  503 -0.26801874593E+02  0.43272522054E+02 -0.10052073997E+02  0.51883483289E+02  0.00000000000E+00 0.  1.
<mgrwt>
<rscale>  0 0.35468964E+04</rscale>
<asrwt>0</asrwt>
<pdfrwt beam="1">  1        2 0.36275580E+00 0.35468964E+04</pdfrwt>
<pdfrwt beam="2">  1       -2 0.20520878E+00 0.35468964E+04</pdfrwt>
<totfact> 0.42299973E-01</totfact>
</mgrwt>
</event>
<event>
12    2  0.3552864E-008  0.1263792E+04  0.7818608E-02  0.9058782E-01
          4   -1    0    0  501    0  0.00000000000E+00  0.00000000000E+00  0.69575944820E+03  0.69575944820E+03  0.00000000000E+00 0. -1.
         -4   -1    0    0    0  501 -0.00000000000E+00 -0.00000000000E+00 -0.57389420227E+03  0.57389420227E+03  0.00000000000E+00 0.  1.
         23    2    1    2    0    0  0.75028144744E+01 -0.64871473876E+02  0.32520314407E+03  0.34465842768E+03  0.93636245713E+02 0.  0.
        254    2    1    2    0    0 -0.75028144744E+01  0.64871473876E+02 -0.20333789815E+03  0.92499522279E+03  0.90000292278E+03 0.  0.
         23    2    4    4    0    0  0.22260841729E+01 -0.40840449652E+03 -0.68322205775E+02  0.42400382975E+03  0.91170914272E+02 0.  0.
         23    2    4    4    0    0 -0.97288986473E+01  0.47327597040E+03 -0.13501569237E+03  0.50099139304E+03  0.93157624957E+02 0.  0.
          1    1    3    3  502    0  0.11160394940E+02 -0.79467954933E+02  0.16223440179E+03  0.18099644030E+03  0.00000000000E+00 0. -1.
         -1    1    3    3    0  502 -0.36575804651E+01  0.14596481056E+02  0.16296874228E+03  0.16366198739E+03  0.00000000000E+00 0.  1.
         11    1    5    5    0    0 -0.19754136540E+02 -0.33891886663E+03 -0.27834156621E+02  0.34063318150E+03  0.00000000000E+00 0. -1.
        -11    1    5    5    0    0  0.21980220713E+02 -0.69485629895E+02 -0.40488049155E+02  0.83370648245E+02  0.00000000000E+00 0.  1.
          1    1    6    6  503    0  0.14803006603E+02  0.44220623882E+03 -0.12954080517E+03  0.46102744697E+03  0.00000000000E+00 0. -1.
         -1    1    6    6    0  503 -0.24531905250E+02  0.31069731582E+02 -0.54748871986E+01  0.39963946072E+02  0.00000000000E+00 0.  1.
<mgrwt>
<rscale>  0 0.12637916E+04</rscale>
<asrwt>0</asrwt>
<pdfrwt beam="1">  1        4 0.10703991E+00 0.12637916E+04</pdfrwt>
<pdfrwt beam="2">  1       -4 0.88291416E-01 0.12637916E+04</pdfrwt>
<totfact> 0.15206551E+00</totfact>
</mgrwt>
</event>
<event>
12    2  0.3552864E-008  0.1794647E+04  0.7818608E-02  0.8709151E-01
          2   -1    0    0  501    0  0.00000000000E+00  0.00000000000E+00  0.61969077847E+03  0.61969077847E+03  0.00000000000E+00 0. -1.
         -2   -1    0    0    0  501 -0.00000000000E+00 -0.00000000000E+00 -0.12993405025E+04  0.12993405025E+04  0.00000000000E+00 0.  1.
         23    2    1    2    0    0 -0.49109284116E+03 -0.29413791182E+03 -0.62606963698E+03  0.85425560452E+03  0.10049954083E+03 0.  0.
        254    2    1    2    0    0  0.49109284116E+03  0.29413791182E+03 -0.53580087090E+02  0.10647756765E+04  0.89620707746E+03 0.  0.
         23    2    4    4    0    0 -0.11553278115E+03 -0.39044992120E+01  0.27228478617E+03  0.30972298777E+03  0.91794638919E+02 0.  0.
         23    2    4    4    0    0  0.60662562231E+03  0.29804241103E+03 -0.32586487326E+03  0.75505268871E+03  0.84218303744E+02 0.  0.
          1    1    3    3  502    0 -0.82482167252E+02 -0.94390624429E+02 -0.11500598270E+03  0.17011547240E+03  0.00000000000E+00 0. -1.
         -1    1    3    3    0  502 -0.40861067391E+03 -0.19974728739E+03 -0.51106365428E+03  0.68414013212E+03  0.00000000000E+00 0.  1.
         11    1    5    5    0    0 -0.11448212829E+03 -0.16976562662E+02  0.27307213890E+03  0.29658515543E+03  0.00000000000E+00 0.  1.
        -11    1    5    5    0    0 -0.10506528609E+01  0.13072063450E+02 -0.78735272310E+00  0.13137832339E+02  0.00000000000E+00 0. -1.
          2    1    6    6  503    0  0.30020339498E+03  0.11047690802E+03 -0.18209088346E+03  0.36808194115E+03  0.00000000000E+00 0. -1.
         -2    1    6    6    0  503  0.30642222733E+03  0.18756550301E+03 -0.14377398980E+03  0.38697074756E+03  0.00000000000E+00 0.  1.
<mgrwt>
<rscale>  0 0.17946468E+04</rscale>
<asrwt>0</asrwt>
<pdfrwt beam="1">  1        2 0.95337044E-01 0.17946468E+04</pdfrwt>
<pdfrwt beam="2">  1       -2 0.19989854E+00 0.17946468E+04</pdfrwt>
<totfact> 0.59941534E+00</totfact>
</mgrwt>
</event>
<event>
12    2  0.3552864E-008  0.1576312E+04  0.7818608E-02  0.8835234E-01
          1   -1    0    0  501    0  0.00000000000E+00  0.00000000000E+00  0.91463300732E+03  0.91463300732E+03  0.00000000000E+00 0. -1.
         -1   -1    0    0    0  501 -0.00000000000E+00 -0.00000000000E+00 -0.67916802687E+03  0.67916802687E+03  0.00000000000E+00 0.  1.
         23    2    1    2    0    0  0.19910938957E+03  0.21572007692E+02  0.57019405983E+03  0.61252117196E+03  0.99754797926E+02 0.  0.
        254    2    1    2    0    0 -0.19910938957E+03 -0.21572007692E+02 -0.33472907937E+03  0.98127986223E+03  0.90042029681E+03 0.  0.
         23    2    4    4    0    0  0.14138015458E+03  0.53298115921E+00 -0.54420832084E+03  0.56954030689E+03  0.90690862426E+02 0.  0.
         23    2    4    4    0    0 -0.34048954415E+03 -0.22104988851E+02  0.20947924147E+03  0.41173955533E+03  0.96052842817E+02 0.  0.
          1    1    3    3  502    0  0.18525224543E+03  0.47294902101E+02  0.52473782599E+03  0.55848454610E+03  0.00000000000E+00 0. -1.
         -1    1    3    3    0  502  0.13857144136E+02 -0.25722894409E+02  0.45456233836E+02  0.54036625866E+02  0.00000000000E+00 0.  1.
         11    1    5    5    0    0 -0.57004515157E+01 -0.47522529128E+01 -0.12549664969E+03  0.12571590248E+03  0.00000000000E+00 0. -1.
        -11    1    5    5    0    0  0.14708060609E+03  0.52852340720E+01 -0.41871167115E+03  0.44382440441E+03  0.00000000000E+00 0.  1.
          1    1    6    6  503    0 -0.78209728217E+02 -0.46589087109E+02  0.52222491947E+02  0.10494995612E+03  0.00000000000E+00 0. -1.
         -1    1    6    6    0  503 -0.26227981593E+03  0.24484098258E+02  0.15725674952E+03  0.30678959921E+03  0.00000000000E+00 0.  1.
<mgrwt>
<rscale>  0 0.15763115E+04</rscale>
<asrwt>0</asrwt>
<pdfrwt beam="1">  1        1 0.14071277E+00 0.15763115E+04</pdfrwt>
<pdfrwt beam="2">  1       -1 0.10448739E+00 0.15763115E+04</pdfrwt>
<totfact> 0.14659126E+01</totfact>
</mgrwt>
</event>
<event>
12    2  0.3552864E-008  0.1449719E+04  0.7818608E-02  0.8918596E-01
         -4   -1    0    0    0  501 -0.00000000000E+00  0.00000000000E+00  0.14723409905E+04  0.14723409905E+04  0.00000000000E+00 0. -1.
          4   -1    0    0  501    0  0.00000000000E+00 -0.00000000000E+00 -0.35686101840E+03  0.35686101840E+03  0.00000000000E+00 0.  1.
         23    2    1    2    0    0  0.84878008252E+02 -0.23445385659E+03 -0.12535714784E+03  0.29308032632E+03  0.89491765017E+02 0.  0.
        254    2    1    2    0    0 -0.84878008252E+02  0.23445385659E+03  0.12408371199E+04  0.15361216826E+04  0.87052867748E+03 0.  0.
         23    2    4    4    0    0  0.21307283556E+03 -0.12774494932E+03  0.73537488805E+02  0.27456167793E+03  0.90871048204E+02 0.  0.
         23    2    4    4    0    0 -0.29795084381E+03  0.36219880591E+03  0.11672996311E+04  0.12615600046E+04  0.94776242563E+02 0.  0.
          1    1    3    3  502    0 -0.78459129259E+00  0.57390618001E+01 -0.13355004454E+02  0.14557079302E+02  0.00000000000E+00 0. -1.
         -1    1    3    3    0  502  0.85662599544E+02 -0.24019291839E+03 -0.11200214339E+03  0.27852324702E+03  0.00000000000E+00 0.  1.
         11    1    5    5    0    0 -0.21542978876E+01  0.81002456841E+00 -0.10039579806E+02  0.10300014654E+02  0.00000000000E+00 0.  1.
        -11    1    5    5    0    0  0.21522713345E+03 -0.12855497388E+03  0.83577068611E+02  0.26426166328E+03  0.00000000000E+00 0. -1.
          1    1    6    6  503    0 -0.30294981965E+03  0.36227214249E+03  0.11423818224E+04  0.12361455928E+04  0.00000000000E+00 0. -1.
         -1    1    6    6    0  503  0.49989758376E+01 -0.73336578957E-01  0.24917808684E+02  0.25414411803E+02  0.00000000000E+00 0.  1.
<mgrwt>
<rscale>  0 0.14497187E+04</rscale>
<asrwt>0</asrwt>
<pdfrwt beam="1">  1        4 0.54901696E-01 0.14497187E+04</pdfrwt>
<pdfrwt beam="2">  1       -4 0.22651399E+00 0.14497187E+04</pdfrwt>
<totfact> 0.54573919E-01</totfact>
</mgrwt>
</event>
<event>
12    2  0.3552864E-008  0.1307279E+04  0.7818608E-02  0.9023812E-01
         -1   -1    0    0    0  501 -0.00000000000E+00  0.00000000000E+00  0.10488474519E+04  0.10488474519E+04  0.00000000000E+00 0.  1.
          1   -1    0    0  501    0  0.00000000000E+00 -0.00000000000E+00 -0.40734702281E+03  0.40734702281E+03  0.00000000000E+00 0. -1.
         23    2    1    2    0    0 -0.21233663403E+03  0.13270722309E+03  0.42579209542E+03  0.50192136364E+03  0.89039842428E+02 0.  0.
        254    2    1    2    0    0  0.21233663403E+03 -0.13270722309E+03  0.21570833367E+03  0.95427311108E+03  0.89521451737E+03 0.  0.
         23    2    4    4    0    0 -0.20438505511E+03 -0.23454877834E+03  0.36872250827E+03  0.49066759829E+03  0.89509908584E+02 0.  0.
         23    2    4    4    0    0  0.41672168914E+03  0.10184155526E+03 -0.15301417460E+03  0.46360551279E+03  0.86533607841E+02 0.  0.
          4    1    3    3  502    0 -0.12278921634E+03  0.10115901972E+03  0.19048962820E+03  0.24818669861E+03  0.00000000000E+00 0. -1.
         -4    1    3    3    0  502 -0.89547417691E+02  0.31548203374E+02  0.23530246723E+03  0.25373466502E+03  0.00000000000E+00 0.  1.
         11    1    5    5    0    0 -0.20496192278E+03 -0.24106379938E+03  0.35553850418E+03  0.47595038934E+03  0.00000000000E+00 0. -1.
        -11    1    5    5    0    0  0.57686766485E+00  0.65150210398E+01  0.13184004087E+02  0.14717208948E+02  0.00000000000E+00 0.  1.
          1    1    6    6  503    0  0.24383044271E+03  0.59745088824E+02 -0.13422551651E+03  0.28467393579E+03  0.00000000000E+00 0. -1.
         -1    1    6    6    0  503  0.17289124642E+03  0.42096466431E+02 -0.18788658083E+02  0.17893157700E+03  0.00000000000E+00 0.  1.
<mgrwt>
<rscale>  0 0.13072794E+04</rscale>
<asrwt>0</asrwt>
<pdfrwt beam="1">  1        1 0.62668773E-01 0.13072794E+04</pdfrwt>
<pdfrwt beam="2">  1       -1 0.16136115E+00 0.13072794E+04</pdfrwt>
<totfact> 0.16409688E+01</totfact>
</mgrwt>
</event>
<event>
12    2  0.3552864E-008  0.1525790E+04  0.7818608E-02  0.8867482E-01
         -2   -1    0    0    0  501 -0.00000000000E+00  0.00000000000E+00  0.38732388445E+03  0.38732388445E+03  0.00000000000E+00 0.  1.
          2   -1    0    0  501    0  0.00000000000E+00 -0.00000000000E+00 -0.15026402336E+04  0.15026402336E+04  0.00000000000E+00 0. -1.
         23    2    1    2    0    0 -0.24001315096E+03  0.10323199298E+03 -0.88437934465E+03  0.92657880341E+03  0.90323289701E+02 0.  0.
        254    2    1    2    0    0  0.24001315096E+03 -0.10323199298E+03 -0.23093700447E+03  0.96338531462E+03  0.89806247410E+03 0.  0.
         23    2    4    4    0    0  0.28262702076E+03  0.14390953980E+03  0.24944501059E+03  0.41396686686E+03  0.92508189035E+02 0.  0.
         23    2    4    4    0    0 -0.42613869797E+02 -0.24714153278E+03 -0.48038201505E+03  0.54941844776E+03  0.90547618596E+02 0.  0.
          3    1    3    3  502    0 -0.23359524446E+03  0.11588676760E+03 -0.81271870640E+03  0.85352690459E+03  0.00000000000E+00 0. -1.
         -3    1    3    3    0  502 -0.64179065032E+01 -0.12654774623E+02 -0.71660638257E+02  0.73051898812E+02  0.00000000000E+00 0.  1.
         11    1    5    5    0    0  0.70653512110E+02 -0.56027143416E+01  0.49389898435E+02  0.86386753897E+02  0.00000000000E+00 0. -1.
        -11    1    5    5    0    0  0.21197350865E+03  0.14951225414E+03  0.20005511215E+03  0.32758011296E+03  0.00000000000E+00 0.  1.
          1    1    6    6  503    0  0.10316728158E+02 -0.16043718399E+01 -0.50208069042E+02  0.51282151728E+02  0.00000000000E+00 0. -1.
         -1    1    6    6    0  503 -0.52930597956E+02 -0.24553716094E+03 -0.43017394601E+03  0.49813629604E+03  0.00000000000E+00 0.  1.
<mgrwt>
<rscale>  0 0.15257896E+04</rscale>
<asrwt>0</asrwt>
<pdfrwt beam="1">  1        2 0.23117542E+00 0.15257896E+04</pdfrwt>
<pdfrwt beam="2">  1       -2 0.59588289E-01 0.15257896E+04</pdfrwt>
<totfact> 0.32053877E+01</totfact>
</mgrwt>
</event>
<event>
12    2  0.3552864E-008  0.2380720E+04  0.7818608E-02  0.8446757E-01
         -2   -1    0    0    0  501 -0.00000000000E+00  0.00000000000E+00  0.16219800985E+04  0.16219800985E+04  0.00000000000E+00 0.  1.
          2   -1    0    0  501    0  0.00000000000E+00 -0.00000000000E+00 -0.87359681409E+03  0.87359681409E+03  0.00000000000E+00 0. -1.
         23    2    1    2    0    0 -0.94464037118E+03 -0.48717746583E+02  0.72228051751E+03  0.11938435285E+04  0.94097687511E+02 0.  0.
        254    2    1    2    0    0  0.94464037118E+03  0.48717746583E+02  0.26102766896E+02  0.13017333841E+04  0.89392930325E+03 0.  0.
         23    2    4    4    0    0  0.22032620175E+03  0.14102064912E+03  0.39206002182E+03  0.47998479900E+03  0.90795858447E+02 0.  0.
         23    2    4    4    0    0  0.72431416943E+03 -0.92302902537E+02 -0.36595725492E+03  0.82174858512E+03  0.90527249298E+02 0.  0.
          3    1    3    3  502    0 -0.69559752907E+03 -0.35107686565E+02  0.47801942542E+03  0.84474318179E+03  0.00000000000E+00 0. -1.
         -3    1    3    3    0  502 -0.24904284210E+03 -0.13610060018E+02  0.24426109210E+03  0.34910034668E+03  0.00000000000E+00 0.  1.
         11    1    5    5    0    0  0.18903296456E+03  0.94846142834E+02  0.25055445293E+03  0.32788227519E+03  0.00000000000E+00 0.  1.
        -11    1    5    5    0    0  0.31293237194E+02  0.46174506287E+02  0.14150556889E+03  0.15210252382E+03  0.00000000000E+00 0. -1.
          1    1    6    6  503    0  0.53241278574E+03 -0.32169316352E+02 -0.24389069897E+03  0.58649885966E+03  0.00000000000E+00 0. -1.
         -1    1    6    6    0  503  0.19190138369E+03 -0.60133586186E+02 -0.12206655595E+03  0.23524972546E+03  0.00000000000E+00 0.  1.
<mgrwt>
<rscale>  0 0.23807198E+04</rscale>
<asrwt>0</asrwt>
<pdfrwt beam="1">  1        2 0.13439951E+00 0.23807198E+04</pdfrwt>
<pdfrwt beam="2">  1       -2 0.24953540E+00 0.23807198E+04</pdfrwt>
<totfact> 0.17804153E+00</totfact>
</mgrwt>
</event>
<event>
12    2  0.3552864E-008  0.2219584E+04  0.7818608E-02  0.8510321E-01
         -1   -1    0    0    0  501 -0.00000000000E+00  0.00000000000E+00  0.31350823547E+03  0.31350823547E+03  0.00000000000E+00 0.  1.
          1   -1    0    0  501    0  0.00000000000E+00 -0.00000000000E+00 -0.39285685933E+04  0.39285685933E+04  0.00000000000E+00 0. -1.
         23    2    1    2    0    0 -0.81919214265E+03  0.28703410005E+03 -0.21398938411E+04  0.23110873041E+04  0.92274238358E+02 0.  0.
        254    2    1    2    0    0  0.81919214265E+03 -0.28703410005E+03 -0.14751665168E+04  0.19309895247E+04  0.89394627971E+03 0.  0.
         23    2    4    4    0    0  0.64384780370E+03 -0.17073042937E+03 -0.30475175500E+03  0.73821587396E+03  0.91652444350E+02 0.  0.
         23    2    4    4    0    0  0.17534433895E+03 -0.11630367069E+03 -0.11704147618E+04  0.11927736507E+04  0.92553153449E+02 0.  0.
          2    1    3    3  502    0 -0.50022869755E+03  0.19357885570E+03 -0.14284091164E+04  0.15257962272E+04  0.00000000000E+00 0. -1.
         -2    1    3    3    0  502 -0.31896344510E+03  0.93455244356E+02 -0.71148472470E+03  0.78529107692E+03  0.00000000000E+00 0.  1.
         11    1    5    5    0    0  0.58275594290E+02 -0.25441893970E+02 -0.30543349408E+01  0.63660535818E+02  0.00000000000E+00 0.  1.
        -11    1    5    5    0    0  0.58557220941E+03 -0.14528853540E+03 -0.30169742006E+03  0.67455533815E+03  0.00000000000E+00 0. -1.
          3    1    6    6  503    0  0.15626441812E+03 -0.13245751516E+03 -0.10474136314E+04  0.10672576432E+04  0.00000000000E+00 0. -1.
         -3    1    6    6    0  503  0.19079920836E+02  0.16153844469E+02 -0.12300113042E+03  0.12551600757E+03  0.00000000000E+00 0.  1.
<mgrwt>
<rscale>  0 0.22195843E+04</rscale>
<asrwt>0</asrwt>
<pdfrwt beam="1">  1        1 0.60439516E+00 0.22195843E+04</pdfrwt>
<pdfrwt beam="2">  1       -1 0.48232037E-01 0.22195843E+04</pdfrwt>
<totfact> 0.43540687E-01</totfact>
</mgrwt>
</event>
<event>
12    2  0.3552864E-008  0.1393268E+04  0.7818608E-02  0.8958706E-01
         -1   -1    0    0    0  501 -0.00000000000E+00  0.00000000000E+00  0.26939600875E+03  0.26939600875E+03  0.00000000000E+00 0.  1.
          1   -1    0    0  501    0  0.00000000000E+00 -0.00000000000E+00 -0.18014345197E+04  0.18014345197E+04  0.00000000000E+00 0. -1.
         23    2    1    2    0    0  0.11441588808E+03  0.41300155523E+03 -0.62193426614E+03  0.76065149344E+03  0.90150890188E+02 0.  0.
        254    2    1    2    0    0 -0.11441588808E+03 -0.41300155523E+03 -0.91010424484E+03  0.13101790350E+04  0.83941532470E+03 0.  0.
         23    2    4    4    0    0 -0.30169689549E+03  0.10577499706E+03 -0.14426082906E+03  0.36200114717E+03  0.89578328842E+02 0.  0.
         23    2    4    4    0    0  0.18728100741E+03 -0.51877655229E+03 -0.76584341578E+03  0.94817788788E+03  0.91224353348E+02 0.  0.
          4    1    3    3  502    0  0.99902805063E+02  0.39748600118E+03 -0.61347206051E+03  0.73778293598E+03  0.00000000000E+00 0. -1.
         -4    1    3    3    0  502  0.14513083018E+02  0.15515554041E+02 -0.84622056280E+01  0.22868557453E+02  0.00000000000E+00 0.  1.
         11    1    5    5    0    0 -0.27669124019E+03  0.67568803301E+02 -0.11180673095E+03  0.30598093186E+03  0.00000000000E+00 0. -1.
        -11    1    5    5    0    0 -0.25005655296E+02  0.38206193760E+02 -0.32454098109E+02  0.56020215302E+02  0.00000000000E+00 0.  1.
          1    1    6    6  503    0  0.74599367038E+02 -0.13615585231E+03 -0.27400043564E+03  0.31492811944E+03  0.00000000000E+00 0. -1.
         -1    1    6    6    0  503  0.11268164037E+03 -0.38262069998E+03 -0.49184298013E+03  0.63324976845E+03  0.00000000000E+00 0.  1.
<mgrwt>
<rscale>  0 0.13932685E+04</rscale>
<asrwt>0</asrwt>
<pdfrwt beam="1">  1        1 0.27714377E+00 0.13932685E+04</pdfrwt>
<pdfrwt beam="2">  1       -1 0.41445540E-01 0.13932685E+04</pdfrwt>
<totfact> 0.22635488E+01</totfact>
</mgrwt>
</event>
<event>
12    2  0.3552864E-008  0.1559472E+04  0.7818608E-02  0.8845840E-01
          1   -1    0    0  501    0  0.00000000000E+00  0.00000000000E+00  0.68550623841E+03  0.68550623841E+03  0.00000000000E+00 0. -1.
         -1   -1    0    0    0  501 -0.00000000000E+00 -0.00000000000E+00 -0.88691832763E+03  0.88691832763E+03  0.00000000000E+00 0.  1.
         23    2    1    2    0    0  0.33222178142E+03 -0.38750228348E+03 -0.15036082029E+03  0.53989107132E+03  0.91349115247E+02 0.  0.
        254    2    1    2    0    0 -0.33222178142E+03  0.38750228348E+03 -0.51051268936E+02  0.10325334947E+04  0.89609701144E+03 0.  0.
         23    2    4    4    0    0  0.29232193327E+03  0.11218518338E+03 -0.10306434506E+03  0.34202096642E+03  0.91205560151E+02 0.  0.
         23    2    4    4    0    0 -0.62454371470E+03  0.27531710010E+03  0.52013076123E+02  0.69051252831E+03  0.90817589066E+02 0.  0.
          3    1    3    3  502    0  0.25871782473E+03 -0.28993602323E+03 -0.73235423773E+02  0.39542538828E+03  0.00000000000E+00 0. -1.
         -3    1    3    3    0  502  0.73503956693E+02 -0.97566260253E+02 -0.77125396513E+02  0.14446568304E+03  0.00000000000E+00 0.  1.
         11    1    5    5    0    0  0.63623892960E+02  0.57848763304E+02 -0.16342102434E+01  0.86006684707E+02  0.00000000000E+00 0. -1.
        -11    1    5    5    0    0  0.22869804032E+03  0.54336420076E+02 -0.10143013482E+03  0.25601428171E+03  0.00000000000E+00 0.  1.
          1    1    6    6  503    0 -0.10230088381E+03  0.10192770245E+02  0.46016301333E+01  0.10291034153E+03  0.00000000000E+00 0. -1.
         -1    1    6    6    0  503 -0.52224283089E+03  0.26512432986E+03  0.47411445989E+02  0.58760218678E+03  0.00000000000E+00 0.  1.
<mgrwt>
<rscale>  0 0.15594718E+04</rscale>
<asrwt>0</asrwt>
<pdfrwt beam="1">  1        1 0.10546250E+00 0.15594718E+04</pdfrwt>
<pdfrwt beam="2">  1       -1 0.13644897E+00 0.15594718E+04</pdfrwt>
<totfact> 0.12135866E+01</totfact>
</mgrwt>
</event>
<event>
12    2  0.3552864E-008  0.1468923E+04  0.7818608E-02  0.8905386E-01
          1   -1    0    0  501    0  0.00000000000E+00  0.00000000000E+00  0.93577497053E+03  0.93577497053E+03  0.00000000000E+00 0. -1.
         -1   -1    0    0    0  501 -0.00000000000E+00 -0.00000000000E+00 -0.57645675849E+03  0.57645675849E+03  0.00000000000E+00 0.  1.
         23    2    1    2    0    0  0.20847816177E+03 -0.32581225766E+03  0.35431352061E+03  0.53167785193E+03  0.86755381199E+02 0.  0.
        254    2    1    2    0    0 -0.20847816177E+03  0.32581225766E+03  0.50046914313E+01  0.98055387710E+03  0.90102391077E+03 0.  0.
         23    2    4    4    0    0  0.23422257199E+02  0.47211961198E+03  0.29885518937E+03  0.56672079488E+03  0.91719708855E+02 0.  0.
         23    2    4    4    0    0 -0.23190041897E+03 -0.14630735432E+03 -0.29385049794E+03  0.41383308221E+03  0.98620781528E+02 0.  0.
          3    1    3    3  502    0  0.73911330447E+02 -0.17059439262E+03  0.21086631040E+03  0.28112262880E+03  0.00000000000E+00 0. -1.
         -3    1    3    3    0  502  0.13456683132E+03 -0.15521786504E+03  0.14344721021E+03  0.25055522313E+03  0.00000000000E+00 0.  1.
         11    1    5    5    0    0  0.19172892045E+02  0.39570988989E+03  0.28716967605E+03  0.48930597747E+03  0.00000000000E+00 0. -1.
        -11    1    5    5    0    0  0.42493651540E+01  0.76409722086E+02  0.11685513326E+02  0.77414817413E+02  0.00000000000E+00 0.  1.
          2    1    6    6  503    0 -0.21136639466E+03 -0.97429364676E+02 -0.26767099384E+03  0.35470550438E+03  0.00000000000E+00 0. -1.
         -2    1    6    6    0  503 -0.20534024305E+02 -0.48877989644E+02 -0.26179504105E+02  0.59127577838E+02  0.00000000000E+00 0.  1.
<mgrwt>
<rscale>  0 0.14689232E+04</rscale>
<asrwt>0</asrwt>
<pdfrwt beam="1">  1        1 0.14396538E+00 0.14689232E+04</pdfrwt>
<pdfrwt beam="2">  1       -1 0.88685655E-01 0.14689232E+04</pdfrwt>
<totfact> 0.20597411E+01</totfact>
</mgrwt>
</event>
<event>
12    2  0.3552864E-008  0.1887924E+04  0.7818608E-02  0.8660891E-01
          1   -1    0    0  501    0  0.00000000000E+00  0.00000000000E+00  0.12903873027E+04  0.12903873027E+04  0.00000000000E+00 0. -1.
         -1   -1    0    0    0  501 -0.00000000000E+00 -0.00000000000E+00 -0.69053989073E+03  0.69053989073E+03  0.00000000000E+00 0.  1.
         23    2    1    2    0    0  0.33482856626E+02  0.35027476954E+03 -0.43500395831E+03  0.56685171822E+03  0.90988520389E+02 0.  0.
        254    2    1    2    0    0 -0.33482856626E+02 -0.35027476954E+03  0.10348513702E+04  0.14140754752E+04  0.89715025224E+03 0.  0.
         23    2    4    4    0    0 -0.16550492062E+03 -0.66481564542E+01  0.10160763311E+04  0.10340814396E+04  0.97351098475E+02 0.  0.
         23    2    4    4    0    0  0.13202206400E+03 -0.34362661308E+03  0.18775039117E+02  0.37999403553E+03  0.92379057940E+02 0.  0.
          4    1    3    3  502    0 -0.12396427233E+02  0.27839468238E+01 -0.19224937673E+02  0.23043871129E+02  0.00000000000E+00 0. -1.
         -4    1    3    3    0  502  0.45879283859E+02  0.34749082271E+03 -0.41577902064E+03  0.54380784709E+03  0.00000000000E+00 0.  1.
         11    1    5    5    0    0 -0.64316019039E+02 -0.25391068490E+02  0.65458863914E+03  0.65823061548E+03  0.00000000000E+00 0.  1.
        -11    1    5    5    0    0 -0.10118890159E+03  0.18742912036E+02  0.36148769199E+03  0.37585082415E+03  0.00000000000E+00 0. -1.
          4    1    6    6  503    0  0.11944293031E+03 -0.26786360777E+03  0.49202448062E+02  0.29738595607E+03  0.00000000000E+00 0. -1.
         -4    1    6    6    0  503  0.12579133685E+02 -0.75763005306E+02 -0.30427408946E+02  0.82608079462E+02  0.00000000000E+00 0.  1.
<mgrwt>
<rscale>  0 0.18879236E+04</rscale>
<asrwt>0</asrwt>
<pdfrwt beam="1">  1        1 0.19852112E+00 0.18879236E+04</pdfrwt>
<pdfrwt beam="2">  1       -1 0.10623691E+00 0.18879236E+04</pdfrwt>
<totfact> 0.71305221E+00</totfact>
</mgrwt>
</event>
<event>
12    2  0.3552864E-008  0.1686061E+04  0.7818608E-02  0.8769354E-01
          1   -1    0    0  501    0  0.00000000000E+00  0.00000000000E+00  0.24735966637E+04  0.24735966637E+04  0.00000000000E+00 0. -1.
         -1   -1    0    0    0  501 -0.00000000000E+00 -0.00000000000E+00 -0.28731470781E+03  0.28731470781E+03  0.00000000000E+00 0.  1.
         23    2    1    2    0    0 -0.19209329221E+03 -0.46228160748E+03  0.25557284926E+03  0.57102974586E+03  0.10076394123E+03 0.  0.
        254    2    1    2    0    0  0.19209329221E+03  0.46228160748E+03  0.19307091066E+04  0.21898816256E+04  0.90406845006E+03 0.  0.
         23    2    4    4    0    0 -0.10175615865E+03  0.63277157973E+03  0.15005432263E+04  0.16343349989E+04  0.93095255888E+02 0.  0.
         23    2    4    4    0    0  0.29384945086E+03 -0.17048997225E+03  0.43016588029E+03  0.55554662672E+03  0.90415924933E+02 0.  0.
          4    1    3    3  502    0 -0.14237135833E+03 -0.27699664178E+03  0.20424417352E+03  0.37244117072E+03  0.00000000000E+00 0.  1.
         -4    1    3    3    0  502 -0.49721933877E+02 -0.18528496570E+03  0.51328675744E+02  0.19858857514E+03  0.00000000000E+00 0. -1.
         11    1    5    5    0    0  0.13949279344E+02  0.31088266493E+02  0.62059300456E+02  0.70798442644E+02  0.00000000000E+00 0.  1.
        -11    1    5    5    0    0 -0.11570543800E+03  0.60168331324E+03  0.14384839258E+04  0.15635365562E+04  0.00000000000E+00 0. -1.
          3    1    6    6  503    0  0.27761570412E+03 -0.12980312238E+03  0.35942410539E+03  0.47233993828E+03  0.00000000000E+00 0. -1.
         -3    1    6    6    0  503  0.16233746741E+02 -0.40686849871E+02  0.70741774894E+02  0.83206688438E+02  0.00000000000E+00 0.  1.
<mgrwt>
<rscale>  0 0.16860613E+04</rscale>
<asrwt>0</asrwt>
<pdfrwt beam="1">  1        1 0.38055332E+00 0.16860613E+04</pdfrwt>
<pdfrwt beam="2">  1       -1 0.44202264E-01 0.16860613E+04</pdfrwt>
<totfact> 0.68275182E+00</totfact>
</mgrwt>
</event>
<event>
12    2  0.3552864E-008  0.2011905E+04  0.7818608E-02  0.8601075E-01
         -2   -1    0    0    0  501 -0.00000000000E+00  0.00000000000E+00  0.27171174888E+03  0.27171174888E+03  0.00000000000E+00 0.  1.
          2   -1    0    0  501    0  0.00000000000E+00 -0.00000000000E+00 -0.37243150646E+04  0.37243150646E+04  0.00000000000E+00 0. -1.
         23    2    1    2    0    0 -0.22038475668E+03 -0.75734292808E+03 -0.10596628768E+04  0.13240690327E+04  0.90197778344E+02 0.  0.
        254    2    1    2    0    0  0.22038475668E+03  0.75734292808E+03 -0.23929404389E+04  0.26719577808E+04  0.88941367562E+03 0.  0.
         23    2    4    4    0    0  0.29708147037E+02  0.84616992483E+03 -0.22304195999E+04  0.23874977860E+04  0.92130183022E+02 0.  0.
         23    2    4    4    0    0  0.19067660964E+03 -0.88826996758E+02 -0.16252083902E+03  0.28445999482E+03  0.10127517327E+03 0.  0.
          3    1    3    3  502    0 -0.42413336788E+02 -0.12907228098E+03 -0.24343590314E+03  0.27878232331E+03  0.00000000000E+00 0. -1.
         -3    1    3    3    0  502 -0.17797141989E+03 -0.62827064709E+03 -0.81622697365E+03  0.10452867094E+04  0.00000000000E+00 0.  1.
         11    1    5    5    0    0  0.35760190967E+01  0.89622875154E+02 -0.16633022896E+03  0.18897299471E+03  0.00000000000E+00 0.  1.
        -11    1    5    5    0    0  0.26132127941E+02  0.75654704968E+03 -0.20640893710E+04  0.21985247913E+04  0.00000000000E+00 0. -1.
          1    1    6    6  503    0  0.16328007557E+03 -0.52481892651E+02 -0.77887496498E+02  0.18836452491E+03  0.00000000000E+00 0. -1.
         -1    1    6    6    0  503  0.27396534077E+02 -0.36345104107E+02 -0.84633342521E+02  0.96095469915E+02  0.00000000000E+00 0.  1.
<mgrwt>
<rscale>  0 0.20119047E+04</rscale>
<asrwt>0</asrwt>
<pdfrwt beam="1">  1        2 0.57297149E+00 0.20119047E+04</pdfrwt>
<pdfrwt beam="2">  1       -2 0.41801812E-01 0.20119047E+04</pdfrwt>
<totfact> 0.28395917E+00</totfact>
</mgrwt>
</event>
<event>
12    2  0.3552864E-008  0.1618954E+04  0.7818608E-02  0.8808988E-01
          2   -1    0    0  501    0  0.00000000000E+00  0.00000000000E+00  0.40529068180E+04  0.40529068180E+04  0.00000000000E+00 0.  1.
         -2   -1    0    0    0  501 -0.00000000000E+00 -0.00000000000E+00 -0.16167486485E+03  0.16167486485E+03  0.00000000000E+00 0. -1.
         23    2    1    2    0    0 -0.24677004131E+03  0.26124476196E+02  0.41637840141E+02  0.26802560245E+03  0.92336733182E+02 0.  0.
        254    2    1    2    0    0  0.24677004131E+03 -0.26124476196E+02  0.38495941130E+04  0.39465560803E+04  0.83327793636E+03 0.  0.
         23    2    4    4    0    0  0.21381226913E+03 -0.40407691555E+03  0.17513155578E+04  0.18123705662E+04  0.92666315367E+02 0.  0.
         23    2    4    4    0    0  0.32957772181E+02  0.37795243935E+03  0.20982785551E+04  0.21341855141E+04  0.89669686815E+02 0.  0.
          1    1    3    3  502    0 -0.18362856996E+03  0.27650905960E+02 -0.10688306403E+02  0.18600608646E+03  0.00000000000E+00 0. -1.
         -1    1    3    3    0  502 -0.63141471351E+02 -0.15264297643E+01  0.52326146544E+02  0.82019515996E+02  0.00000000000E+00 0.  1.
         11    1    5    5    0    0  0.80051004360E+02 -0.72120632001E+02  0.36168313600E+03  0.37739136149E+03  0.00000000000E+00 0. -1.
        -11    1    5    5    0    0  0.13376126477E+03 -0.33195628355E+03  0.13896324218E+04  0.14349792047E+04  0.00000000000E+00 0.  1.
          2    1    6    6  503    0  0.64071024524E+01 -0.21220757102E+01  0.16461203323E+02  0.17791160220E+02  0.00000000000E+00 0. -1.
         -2    1    6    6    0  503  0.26550669729E+02  0.38007451506E+03  0.20818173518E+04  0.21163943539E+04  0.00000000000E+00 0.  1.
<mgrwt>
<rscale>  0 0.16189542E+04</rscale>
<asrwt>0</asrwt>
<pdfrwt beam="1">  1        2 0.62352405E+00 0.16189542E+04</pdfrwt>
<pdfrwt beam="2">  1       -2 0.24873059E-01 0.16189542E+04</pdfrwt>
<totfact> 0.43832293E+00</totfact>
</mgrwt>
</event>
<event>
12    2  0.3552864E-008  0.1983159E+04  0.7818608E-02  0.8614535E-01
          1   -1    0    0  501    0  0.00000000000E+00  0.00000000000E+00  0.80650559294E+03  0.80650559294E+03  0.00000000000E+00 0. -1.
         -1   -1    0    0    0  501 -0.00000000000E+00 -0.00000000000E+00 -0.12191233171E+04  0.12191233171E+04  0.00000000000E+00 0.  1.
         23    2    1    2    0    0 -0.62435151136E+03  0.25596337095E+03  0.24081971430E+03  0.72293952163E+03  0.96516113298E+02 0.  0.
        254    2    1    2    0    0  0.62435151136E+03 -0.25596337095E+03 -0.65343743850E+03  0.13026893885E+04  0.90260018821E+03 0.  0.
         23    2    4    4    0    0  0.45058671925E+03  0.20548179475E+03 -0.31217037916E+02  0.50394233191E+03  0.87932990966E+02 0.  0.
         23    2    4    4    0    0  0.17376479212E+03 -0.46144516571E+03 -0.62222040058E+03  0.79874705655E+03  0.87822488605E+02 0.  0.
          4    1    3    3  502    0 -0.58983729525E+02  0.56006217310E+02  0.18865677782E+02  0.83496649778E+02  0.00000000000E+00 0.  1.
         -4    1    3    3    0  502 -0.56536778184E+03  0.19995715364E+03  0.22195403651E+03  0.63944287185E+03  0.00000000000E+00 0. -1.
         11    1    5    5    0    0  0.42253605842E+02  0.51141459963E+02 -0.76525046714E+01  0.66778566633E+02  0.00000000000E+00 0. -1.
        -11    1    5    5    0    0  0.40833311340E+03  0.15434033479E+03 -0.23564533245E+02  0.43716376528E+03  0.00000000000E+00 0.  1.
          1    1    6    6  503    0  0.31619063929E+02 -0.87167248025E+02 -0.17820267664E+03  0.20088327032E+03  0.00000000000E+00 0. -1.
         -1    1    6    6    0  503  0.14214572819E+03 -0.37427791768E+03 -0.44401772394E+03  0.59786378623E+03  0.00000000000E+00 0.  1.
<mgrwt>
<rscale>  0 0.19831589E+04</rscale>
<asrwt>0</asrwt>
<pdfrwt beam="1">  1        1 0.12407778E+00 0.19831589E+04</pdfrwt>
<pdfrwt beam="2">  1       -1 0.18755743E+00 0.19831589E+04</pdfrwt>
<totfact> 0.37267295E+00</totfact>
</mgrwt>
</event>
<event>
12    2  0.3552864E-008  0.1330651E+04  0.7818608E-02  0.9005605E-01
          1   -1    0    0  501    0  0.00000000000E+00  0.00000000000E+00  0.11603516650E+04  0.11603516650E+04  0.00000000000E+00 0. -1.
         -1   -1    0    0    0  501 -0.00000000000E+00 -0.00000000000E+00 -0.38148629964E+03  0.38148629964E+03  0.00000000000E+00 0.  1.
         23    2    1    2    0    0 -0.57064132211E+02  0.36198694340E+03  0.39356336471E+03  0.54522371144E+03  0.89921694270E+02 0.  0.
        254    2    1    2    0    0  0.57064132211E+02 -0.36198694340E+03  0.38530200060E+03  0.99661425315E+03  0.84290656395E+03 0.  0.
         23    2    4    4    0    0 -0.24167984157E+03  0.10331496491E+03  0.33271852166E+03  0.43377753042E+03  0.91532526712E+02 0.  0.
         23    2    4    4    0    0  0.29874397378E+03 -0.46530190831E+03  0.52583478937E+02  0.56283672273E+03  0.90919340359E+02 0.  0.
          4    1    3    3  502    0  0.23445453488E+02  0.74355629321E+02  0.95124431053E+02  0.12299230173E+03  0.00000000000E+00 0. -1.
         -4    1    3    3    0  502 -0.80509585699E+02  0.28763131408E+03  0.29843893366E+03  0.42223140972E+03  0.00000000000E+00 0.  1.
         11    1    5    5    0    0 -0.11220582894E+03  0.80454620752E+02  0.22418648316E+03  0.26329199244E+03  0.00000000000E+00 0. -1.
        -11    1    5    5    0    0 -0.12947401263E+03  0.22860344159E+02  0.10853203850E+03  0.17048553798E+03  0.00000000000E+00 0.  1.
          4    1    6    6  503    0  0.15670955014E+03 -0.16705987372E+03  0.37928466163E+02  0.23217547902E+03  0.00000000000E+00 0.  1.
         -4    1    6    6    0  503  0.14203442364E+03 -0.29824203459E+03  0.14655012773E+02  0.33066124371E+03  0.00000000000E+00 0. -1.
<mgrwt>
<rscale>  0 0.13306514E+04</rscale>
<asrwt>0</asrwt>
<pdfrwt beam="1">  1        1 0.17851564E+00 0.13306514E+04</pdfrwt>
<pdfrwt beam="2">  1       -1 0.58690201E-01 0.13306514E+04</pdfrwt>
<totfact> 0.32959675E+01</totfact>
</mgrwt>
</event>
<event>
12    2  0.3552864E-008  0.2783624E+04  0.7818608E-02  0.8308371E-01
         -2   -1    0    0    0  501 -0.00000000000E+00  0.00000000000E+00  0.52869093864E+03  0.52869093864E+03  0.00000000000E+00 0. -1.
          2   -1    0    0  501    0  0.00000000000E+00 -0.00000000000E+00 -0.36640319371E+04  0.36640319371E+04  0.00000000000E+00 0.  1.
         23    2    1    2    0    0  0.60948390859E+03  0.10087849377E+04 -0.80556010813E+03  0.14304598766E+04  0.90391844146E+02 0.  0.
        254    2    1    2    0    0 -0.60948390859E+03 -0.10087849377E+04 -0.23297808903E+04  0.27622629991E+04  0.90172068514E+03 0.  0.
         23    2    4    4    0    0 -0.51786922760E+03 -0.48938038384E+03 -0.55280844551E+03  0.90645529140E+03  0.91555015723E+02 0.  0.
         23    2    4    4    0    0 -0.91614680994E+02 -0.51940455384E+03 -0.17769724448E+04  0.18558077077E+04  0.90646776144E+02 0.  0.
          3    1    3    3  502    0  0.49562301655E+03  0.75877830721E+03 -0.64329792939E+03  0.11114040309E+04  0.00000000000E+00 0. -1.
         -3    1    3    3    0  502  0.11386089204E+03  0.25000663046E+03 -0.16226217875E+03  0.31905584568E+03  0.00000000000E+00 0.  1.
         11    1    5    5    0    0 -0.47122262803E+03 -0.46997778355E+03 -0.53110088421E+03  0.85146816230E+03  0.00000000000E+00 0.  1.
        -11    1    5    5    0    0 -0.46646599572E+02 -0.19402600288E+02 -0.21707561294E+02  0.54987129102E+02  0.00000000000E+00 0. -1.
          4    1    6    6  503    0  0.66742132040E+01 -0.95088212424E+02 -0.23772229721E+03  0.25612146309E+03  0.00000000000E+00 0. -1.
         -4    1    6    6    0  503 -0.98288894198E+02 -0.42431634141E+03 -0.15392501476E+04  0.15996862446E+04  0.00000000000E+00 0.  1.
<mgrwt>
<rscale>  0 0.27836239E+04</rscale>
<asrwt>0</asrwt>
<pdfrwt beam="1">  1        2 0.56369722E+00 0.27836239E+04</pdfrwt>
<pdfrwt beam="2">  1       -2 0.81337068E-01 0.27836239E+04</pdfrwt>
<totfact> 0.71985701E-01</totfact>
</mgrwt>
</event>
<event>
12    2  0.3552864E-008  0.1278461E+04  0.7818608E-02  0.9046822E-01
          1   -1    0    0  501    0  0.00000000000E+00  0.00000000000E+00  0.57776200297E+03  0.57776200297E+03  0.00000000000E+00 0. -1.
         -1   -1    0    0    0  501 -0.00000000000E+00 -0.00000000000E+00 -0.70723848073E+03  0.70723848073E+03  0.00000000000E+00 0.  1.
         23    2    1    2    0    0 -0.19632850198E+03 -0.22557854951E+03  0.11365661070E+03  0.33049204405E+03  0.82925287687E+02 0.  0.
        254    2    1    2    0    0  0.19632850198E+03  0.22557854951E+03 -0.24313308846E+03  0.95450843964E+03  0.87323656586E+03 0.  0.
         23    2    4    4    0    0  0.51120999221E+02  0.37673773218E+03 -0.48328959748E+03  0.62197386983E+03  0.93477186059E+02 0.  0.
         23    2    4    4    0    0  0.14520750276E+03 -0.15115918266E+03  0.24015650902E+03  0.33253456981E+03  0.94708890453E+02 0.  0.
          2    1    3    3  502    0 -0.10053764125E+03 -0.17509637965E+03  0.78824971151E+02  0.21674855374E+03  0.00000000000E+00 0. -1.
         -2    1    3    3    0  502 -0.95790860734E+02 -0.50482169864E+02  0.34831639547E+02  0.11374349031E+03  0.00000000000E+00 0.  1.
         11    1    5    5    0    0  0.39405844856E+01  0.18252296510E+02 -0.35028123509E+00  0.18676113914E+02  0.00000000000E+00 0. -1.
        -11    1    5    5    0    0  0.47180414736E+02  0.35848543567E+03 -0.48293931624E+03  0.60329775592E+03  0.00000000000E+00 0.  1.
          3    1    6    6  503    0  0.66774049957E+02 -0.13364850120E+03  0.16337601742E+03  0.22138748539E+03  0.00000000000E+00 0. -1.
         -3    1    6    6    0  503  0.78433452801E+02 -0.17510681468E+02  0.76780491600E+02  0.11114708442E+03  0.00000000000E+00 0.  1.
<mgrwt>
<rscale>  0 0.12784608E+04</rscale>
<asrwt>0</asrwt>
<pdfrwt beam="1">  1        1 0.88886461E-01 0.12784608E+04</pdfrwt>
<pdfrwt beam="2">  1       -1 0.10880592E+00 0.12784608E+04</pdfrwt>
<totfact> 0.27884122E+01</totfact>
</mgrwt>
</event>
<event>
12    2  0.3552864E-008  0.1325565E+04  0.7818608E-02  0.9009534E-01
         -2   -1    0    0    0  501 -0.00000000000E+00  0.00000000000E+00  0.80380684872E+03  0.80380684872E+03  0.00000000000E+00 0.  1.
          2   -1    0    0  501    0  0.00000000000E+00 -0.00000000000E+00 -0.54649999824E+03  0.54649999824E+03  0.00000000000E+00 0. -1.
         23    2    1    2    0    0  0.16956425125E+03 -0.17925794481E+03 -0.17848529467E+03  0.31801280718E+03  0.91595300263E+02 0.  0.
        254    2    1    2    0    0 -0.16956425125E+03  0.17925794481E+03  0.43579214516E+03  0.10322940398E+04  0.90267975756E+03 0.  0.
         23    2    4    4    0    0 -0.43656506037E+03  0.37940440741E+03  0.22820652311E+03  0.63017808656E+03  0.10251559536E+03 0.  0.
         23    2    4    4    0    0  0.26700080912E+03 -0.20014646259E+03  0.20758562204E+03  0.40211595322E+03  0.85190438432E+02 0.  0.
          4    1    3    3  502    0  0.17110005578E+03 -0.15307988978E+03 -0.18001793554E+03  0.29174498944E+03  0.00000000000E+00 0. -1.
         -4    1    3    3    0  502 -0.15358045254E+01 -0.26178055030E+02  0.15326408699E+01  0.26267817738E+02  0.00000000000E+00 0.  1.
         11    1    5    5    0    0 -0.34307639815E+03  0.31711123086E+03  0.14111226045E+03  0.48803034512E+03  0.00000000000E+00 0. -1.
        -11    1    5    5    0    0 -0.93488662221E+02  0.62293176547E+02  0.87094262667E+02  0.14214774144E+03  0.00000000000E+00 0.  1.
          2    1    6    6  503    0  0.11541801360E+01 -0.14027020139E+02 -0.40950991914E+01  0.14658078426E+02  0.00000000000E+00 0.  1.
         -2    1    6    6    0  503  0.26584662898E+03 -0.18611944245E+03  0.21168072123E+03  0.38745787480E+03  0.00000000000E+00 0. -1.
<mgrwt>
<rscale>  0 0.13255647E+04</rscale>
<asrwt>0</asrwt>
<pdfrwt beam="1">  1        2 0.84076923E-01 0.13255647E+04</pdfrwt>
<pdfrwt beam="2">  1       -2 0.12366259E+00 0.13255647E+04</pdfrwt>
<totfact> 0.26726580E+01</totfact>
</mgrwt>
</event>
<event>
12    2  0.3552864E-008  0.2924182E+04  0.7818608E-02  0.8265719E-01
         -2   -1    0    0    0  501 -0.00000000000E+00  0.00000000000E+00  0.57161929672E+03  0.57161929672E+03  0.00000000000E+00 0.  1.
          2   -1    0    0  501    0  0.00000000000E+00 -0.00000000000E+00 -0.37397442241E+04  0.37397442241E+04  0.00000000000E+00 0. -1.
         23    2    1    2    0    0 -0.76983115361E+03 -0.56286871244E+03 -0.84973683847E+02  0.96180018241E+03  0.91530712944E+02 0.  0.
        254    2    1    2    0    0  0.76983115361E+03  0.56286871244E+03 -0.30831512435E+04  0.33495633384E+04  0.89682315705E+03 0.  0.
         23    2    4    4    0    0  0.70021254283E+03  0.24165122644E+03 -0.28251087834E+04  0.29220070380E+04  0.90512826106E+02 0.  0.
         23    2    4    4    0    0  0.69618610785E+02  0.32121748600E+03 -0.25804246010E+03  0.42755630039E+03  0.90504444670E+02 0.  0.
          3    1    3    3  502    0 -0.59994589396E+01  0.31725921024E+01  0.21284135193E+01  0.71125939238E+01  0.00000000000E+00 0. -1.
         -3    1    3    3    0  502 -0.76383169468E+03 -0.56604130454E+03 -0.87102097366E+02  0.95468758848E+03  0.00000000000E+00 0.  1.
         11    1    5    5    0    0  0.56132123808E+02  0.35444278513E+02 -0.34595459833E+03  0.35226651318E+03  0.00000000000E+00 0. -1.
        -11    1    5    5    0    0  0.64408041902E+03  0.20620694793E+03 -0.24791541851E+04  0.25697405248E+04  0.00000000000E+00 0.  1.
          4    1    6    6  503    0  0.56485063397E+02  0.10102319012E+03 -0.56641317948E+02  0.12885839603E+03  0.00000000000E+00 0. -1.
         -4    1    6    6    0  503  0.13133547389E+02  0.22019429588E+03 -0.20140114215E+03  0.29869790435E+03  0.00000000000E+00 0.  1.
<mgrwt>
<rscale>  0 0.29241819E+04</rscale>
<asrwt>0</asrwt>
<pdfrwt beam="1">  1        2 0.57534528E+00 0.29241819E+04</pdfrwt>
<pdfrwt beam="2">  1       -2 0.87941429E-01 0.29241819E+04</pdfrwt>
<totfact> 0.52334179E-01</totfact>
</mgrwt>
</event>
<event>
12    2  0.3552864E-008  0.1475410E+04  0.7818608E-02  0.8900972E-01
         -2   -1    0    0    0  501 -0.00000000000E+00  0.00000000000E+00  0.44799596918E+03  0.44799596918E+03  0.00000000000E+00 0.  1.
          2   -1    0    0  501    0  0.00000000000E+00 -0.00000000000E+00 -0.12147616006E+04  0.12147616006E+04  0.00000000000E+00 0. -1.
         23    2    1    2    0    0  0.30412033243E+03 -0.11965933349E+03 -0.56648616106E+03  0.66042406568E+03  0.91901268550E+02 0.  0.
        254    2    1    2    0    0 -0.30412033243E+03  0.11965933349E+03 -0.20027947038E+03  0.10023335041E+04  0.92614958540E+03 0.  0.
         23    2    4    4    0    0 -0.15834508240E+03 -0.39226816199E+03 -0.22799960099E+02  0.43367674826E+03  0.92780427718E+02 0.  0.
         23    2    4    4    0    0 -0.14577525003E+03  0.51192749548E+03 -0.17747951028E+03  0.56865675587E+03  0.92473484169E+02 0.  0.
          2    1    3    3  502    0  0.21594596312E+03 -0.46638924354E+02 -0.41945048780E+03  0.47407442451E+03  0.00000000000E+00 0. -1.
         -2    1    3    3    0  502  0.88174369307E+02 -0.73020409136E+02 -0.14703567326E+03  0.18634964117E+03  0.00000000000E+00 0.  1.
         11    1    5    5    0    0 -0.10878955787E+03 -0.35368905371E+03 -0.14471964537E+02  0.37032492810E+03  0.00000000000E+00 0.  1.
        -11    1    5    5    0    0 -0.49555524527E+02 -0.38579108279E+02 -0.83279955621E+01  0.63351820154E+02  0.00000000000E+00 0. -1.
          2    1    6    6  503    0 -0.12403437236E+02  0.31176265602E+02  0.11034264339E+02  0.35320812302E+02  0.00000000000E+00 0. -1.
         -2    1    6    6    0  503 -0.13337181280E+03  0.48075122988E+03 -0.18851377462E+03  0.53333594357E+03  0.00000000000E+00 0.  1.
<mgrwt>
<rscale>  0 0.14754095E+04</rscale>
<asrwt>0</asrwt>
<pdfrwt beam="1">  1        2 0.18688640E+00 0.14754095E+04</pdfrwt>
<pdfrwt beam="2">  1       -2 0.68922457E-01 0.14754095E+04</pdfrwt>
<totfact> 0.34549218E+01</totfact>
</mgrwt>
</event>
<event>
12    2  0.3552864E-008  0.2150307E+04  0.7818608E-02  0.8539401E-01
          1   -1    0    0  501    0  0.00000000000E+00  0.00000000000E+00  0.32053077139E+04  0.32053077139E+04  0.00000000000E+00 0. -1.
         -1   -1    0    0    0  501 -0.00000000000E+00 -0.00000000000E+00 -0.36063763839E+03  0.36063763839E+03  0.00000000000E+00 0.  1.
         23    2    1    2    0    0 -0.49866292720E+03  0.64811930296E+03  0.75834774701E+03  0.11190401986E+04  0.91849414031E+02 0.  0.
        254    2    1    2    0    0  0.49866292720E+03 -0.64811930296E+03  0.20863223286E+04  0.24469051537E+04  0.98279226032E+03 0.  0.
         23    2    4    4    0    0  0.31212573239E+03 -0.89731493900E+03  0.15854431789E+04  0.18506237320E+04  0.92636662251E+02 0.  0.
         23    2    4    4    0    0  0.18653719481E+03  0.24919563604E+03  0.50087914963E+03  0.59628142176E+03  0.88187421616E+02 0.  0.
          1    1    3    3  502    0 -0.35494471400E+03  0.52178767451E+03  0.56554121749E+03  0.84739895914E+03  0.00000000000E+00 0. -1.
         -1    1    3    3    0  502 -0.14371821320E+03  0.12633162845E+03  0.19280652952E+03  0.27164123946E+03  0.00000000000E+00 0.  1.
         11    1    5    5    0    0  0.39441758986E+02 -0.12429701390E+03  0.28468068274E+03  0.31312695691E+03  0.00000000000E+00 0. -1.
        -11    1    5    5    0    0  0.27268397340E+03 -0.77301792510E+03  0.13007624962E+04  0.15374967751E+04  0.00000000000E+00 0.  1.
          2    1    6    6  503    0  0.11132081708E+03  0.17365361958E+03  0.25285405897E+03  0.32631745134E+03  0.00000000000E+00 0. -1.
         -2    1    6    6    0  503  0.75216377734E+02  0.75542016461E+02  0.24802509066E+03  0.26996397042E+03  0.00000000000E+00 0.  1.
<mgrwt>
<rscale>  0 0.21503066E+04</rscale>
<asrwt>0</asrwt>
<pdfrwt beam="1">  1        1 0.49312424E+00 0.21503066E+04</pdfrwt>
<pdfrwt beam="2">  1       -1 0.55482716E-01 0.21503066E+04</pdfrwt>
<totfact> 0.12691672E+00</totfact>
</mgrwt>
</event>
<event>
12    2  0.3552864E-008  0.1889603E+04  0.7818608E-02  0.8660049E-01
         -1   -1    0    0    0  501 -0.00000000000E+00  0.00000000000E+00  0.15097413652E+04  0.15097413652E+04  0.00000000000E+00 0.  1.
          1   -1    0    0  501    0  0.00000000000E+00 -0.00000000000E+00 -0.59126028214E+03  0.59126028214E+03  0.00000000000E+00 0. -1.
         23    2    1    2    0    0 -0.33717004584E+03  0.33697053006E+03  0.91127582565E+03  0.10325609751E+04  0.92335036020E+02 0.  0.
        254    2    1    2    0    0  0.33717004584E+03 -0.33697053006E+03  0.72052574600E+01  0.10684406723E+04  0.95618030548E+03 0.  0.
         23    2    4    4    0    0 -0.16264289793E+03  0.92544560537E+02 -0.27473644395E+03  0.34623097324E+03  0.96842992873E+02 0.  0.
         23    2    4    4    0    0  0.49981294377E+03 -0.42951509059E+03  0.28194170141E+03  0.72220969908E+03  0.88314974036E+02 0.  0.
          2    1    3    3  502    0 -0.10570353400E+03  0.14917461559E+03  0.27926256659E+03  0.33378718390E+03  0.00000000000E+00 0. -1.
         -2    1    3    3    0  502 -0.23146651184E+03  0.18779591446E+03  0.63201325906E+03  0.69877379117E+03  0.00000000000E+00 0.  1.
         11    1    5    5    0    0 -0.59818489472E+01 -0.58619032777E+01 -0.69162875984E+02  0.69668126437E+02  0.00000000000E+00 0.  1.
        -11    1    5    5    0    0 -0.15666104898E+03  0.98406463814E+02 -0.20557356796E+03  0.27656284681E+03  0.00000000000E+00 0. -1.
          2    1    6    6  503    0  0.29624205308E+03 -0.30342097158E+03  0.15762999182E+03  0.45240563030E+03  0.00000000000E+00 0. -1.
         -2    1    6    6    0  503  0.20357089069E+03 -0.12609411901E+03  0.12431170959E+03  0.26980406878E+03  0.00000000000E+00 0.  1.
<mgrwt>
<rscale>  0 0.18896032E+04</rscale>
<asrwt>0</asrwt>
<pdfrwt beam="1">  1        1 0.90963121E-01 0.18896032E+04</pdfrwt>
<pdfrwt beam="2">  1       -1 0.23226790E+00 0.18896032E+04</pdfrwt>
<totfact> 0.29866829E+00</totfact>
</mgrwt>
</event>
<event>
12    2  0.3552864E-008  0.1644509E+04  0.7818608E-02  0.8793661E-01
          1   -1    0    0  501    0  0.00000000000E+00  0.00000000000E+00  0.84819292502E+03  0.84819292502E+03  0.00000000000E+00 0. -1.
         -1   -1    0    0    0  501 -0.00000000000E+00 -0.00000000000E+00 -0.79710937627E+03  0.79710937627E+03  0.00000000000E+00 0.  1.
         23    2    1    2    0    0 -0.82567155086E+01 -0.50748307438E+03 -0.24573942401E+03  0.57125525273E+03  0.91309666121E+02 0.  0.
        254    2    1    2    0    0  0.82567155086E+01  0.50748307438E+03  0.29682297276E+03  0.10740470486E+04  0.89881362987E+03 0.  0.
         23    2    4    4    0    0  0.42136081649E+03  0.21838705785E+03  0.28556955414E+03  0.56165323215E+03  0.93094243785E+02 0.  0.
         23    2    4    4    0    0 -0.41310410098E+03  0.28909601653E+03  0.11253418617E+02  0.51239381641E+03  0.90494633248E+02 0.  0.
          3    1    3    3  502    0 -0.24075667859E+02 -0.38201698771E+02 -0.32024642225E+02  0.55358696530E+02  0.00000000000E+00 0. -1.
         -3    1    3    3    0  502  0.15818952351E+02 -0.46928137561E+03 -0.21371478178E+03  0.51589655620E+03  0.00000000000E+00 0.  1.
         11    1    5    5    0    0  0.24455459235E+03  0.16626739703E+03  0.14221192157E+03  0.32814025445E+03  0.00000000000E+00 0.  1.
        -11    1    5    5    0    0  0.17680622414E+03  0.52119660818E+02  0.14335763257E+03  0.23351297770E+03  0.00000000000E+00 0. -1.
          1    1    6    6  503    0 -0.29058851636E+01  0.23260216246E+02 -0.50500699568E+00  0.23446467974E+02  0.00000000000E+00 0. -1.
         -1    1    6    6    0  503 -0.41019821581E+03  0.26583580029E+03  0.11758425613E+02  0.48894734844E+03  0.00000000000E+00 0.  1.
<mgrwt>
<rscale>  0 0.16445091E+04</rscale>
<asrwt>0</asrwt>
<pdfrwt beam="1">  1        1 0.13049122E+00 0.16445091E+04</pdfrwt>
<pdfrwt beam="2">  1       -1 0.12263221E+00 0.16445091E+04</pdfrwt>
<totfact> 0.11278600E+01</totfact>
</mgrwt>
</event>
<event>
12    2  0.3552864E-008  0.1966965E+04  0.7818608E-02  0.8622223E-01
         -2   -1    0    0    0  501 -0.00000000000E+00  0.00000000000E+00  0.47080770282E+03  0.47080770282E+03  0.00000000000E+00 0.  1.
          2   -1    0    0  501    0  0.00000000000E+00 -0.00000000000E+00 -0.20544221224E+04  0.20544221224E+04  0.00000000000E+00 0. -1.
         23    2    1    2    0    0 -0.37224901524E+03  0.61669806890E+03 -0.99625502371E+03  0.12327328582E+04  0.90666365313E+02 0.  0.
        254    2    1    2    0    0  0.37224901524E+03 -0.61669806890E+03 -0.58735939589E+03  0.12924969671E+04  0.89814893667E+03 0.  0.
         23    2    4    4    0    0 -0.59589381367E+02 -0.68809184285E+03 -0.28693719936E+03  0.75355162815E+03  0.92118517932E+02 0.  0.
         23    2    4    4    0    0  0.43183839660E+03  0.71393773942E+02 -0.30042219653E+03  0.53894533893E+03  0.92882239692E+02 0.  0.
          4    1    3    3  502    0 -0.22068760556E+02  0.78838463964E+02 -0.14668009860E+03  0.16798090641E+03  0.00000000000E+00 0. -1.
         -4    1    3    3    0  502 -0.35018025468E+03  0.53785960494E+03 -0.84957492512E+03  0.10647519518E+04  0.00000000000E+00 0.  1.
         11    1    5    5    0    0 -0.51208502192E+01 -0.20578926361E+01  0.35508722976E+01  0.65625241442E+01  0.00000000000E+00 0.  1.
        -11    1    5    5    0    0 -0.54468531148E+02 -0.68603395021E+03 -0.29048807166E+03  0.74698910400E+03  0.00000000000E+00 0. -1.
          3    1    6    6  503    0  0.17799533976E+03  0.68074266197E+02 -0.16001202270E+03  0.24883788719E+03  0.00000000000E+00 0. -1.
         -3    1    6    6    0  503  0.25384305685E+03  0.33195077448E+01 -0.14041017384E+03  0.29010745174E+03  0.00000000000E+00 0.  1.
<mgrwt>
<rscale>  0 0.19669649E+04</rscale>
<asrwt>0</asrwt>
<pdfrwt beam="1">  1        2 0.31606494E+00 0.19669649E+04</pdfrwt>
<pdfrwt beam="2">  1       -2 0.72431954E-01 0.19669649E+04</pdfrwt>
<totfact> 0.10009582E+01</totfact>
</mgrwt>
</event>
<event>
12    2  0.3552864E-008  0.1963119E+04  0.7818608E-02  0.8624061E-01
         -2   -1    0    0    0  501 -0.00000000000E+00  0.00000000000E+00  0.13148990828E+04  0.13148990828E+04  0.00000000000E+00 0. -1.
          2   -1    0    0  501    0  0.00000000000E+00 -0.00000000000E+00 -0.73272469062E+03  0.73272469062E+03  0.00000000000E+00 0.  1.
         23    2    1    2    0    0  0.64580998144E+03 -0.27400354183E+03  0.54784508893E+03  0.89508596493E+03  0.94319510718E+02 0.  0.
        254    2    1    2    0    0 -0.64580998144E+03  0.27400354183E+03  0.34329303276E+02  0.11525378085E+04  0.91379233194E+03 0.  0.
         23    2    4    4    0    0 -0.82297252327E+03  0.18385813183E+03 -0.15630048106E+03  0.86263332148E+03  0.92837601458E+02 0.  0.
         23    2    4    4    0    0  0.17716254183E+03  0.90145409999E+02  0.19062978433E+03  0.28990448703E+03  0.90510417932E+02 0.  0.
          2    1    3    3  502    0  0.37536584850E+03 -0.20864219336E+03  0.32312583567E+03  0.53743966243E+03  0.00000000000E+00 0. -1.
         -2    1    3    3    0  502  0.27044413293E+03 -0.65361348465E+02  0.22471925326E+03  0.35764630251E+03  0.00000000000E+00 0.  1.
         11    1    5    5    0    0 -0.23874420106E+03  0.14372443959E+02 -0.26668890744E+02  0.24065865955E+03  0.00000000000E+00 0. -1.
        -11    1    5    5    0    0 -0.58422832222E+03  0.16948568787E+03 -0.12963159031E+03  0.62197466193E+03  0.00000000000E+00 0.  1.
          2    1    6    6  503    0  0.15063268619E+03  0.93611104109E+02  0.11935367112E+03  0.21377217726E+03  0.00000000000E+00 0. -1.
         -2    1    6    6    0  503  0.26529855640E+02 -0.34656941097E+01  0.71276113215E+02  0.76132309771E+02  0.00000000000E+00 0.  1.
<mgrwt>
<rscale>  0 0.19631190E+04</rscale>
<asrwt>0</asrwt>
<pdfrwt beam="1">  1        2 0.11272688E+00 0.19631190E+04</pdfrwt>
<pdfrwt beam="2">  1       -2 0.20229217E+00 0.19631190E+04</pdfrwt>
<totfact> 0.46240826E+00</totfact>
</mgrwt>
</event>
<event>
12    2  0.3552864E-008  0.1468423E+04  0.7818608E-02  0.8905727E-01
          2   -1    0    0  501    0  0.00000000000E+00  0.00000000000E+00  0.80701238265E+03  0.80701238265E+03  0.00000000000E+00 0. -1.
         -2   -1    0    0    0  501 -0.00000000000E+00 -0.00000000000E+00 -0.66797763156E+03  0.66797763156E+03  0.00000000000E+00 0.  1.
         23    2    1    2    0    0  0.89071611703E+02 -0.44150007325E+03  0.24017433477E+01  0.45950354267E+03  0.91003684879E+02 0.  0.
        254    2    1    2    0    0 -0.89071611703E+02  0.44150007325E+03  0.13663300775E+03  0.10154864715E+04  0.89982672131E+03 0.  0.
         23    2    4    4    0    0  0.22245486676E+03 -0.12116762442E+03 -0.14696932598E+03  0.30675504875E+03  0.91273852793E+02 0.  0.
         23    2    4    4    0    0 -0.31152647847E+03  0.56266769767E+03  0.28360233373E+03  0.70873142279E+03  0.90698738531E+02 0.  0.
          2    1    3    3  502    0  0.98454986926E+02 -0.41804221769E+03 -0.13427488457E+02  0.42968939674E+03  0.00000000000E+00 0. -1.
         -2    1    3    3    0  502 -0.93833752225E+01 -0.23457855559E+02  0.15829231804E+02  0.29814145930E+02  0.00000000000E+00 0.  1.
         11    1    5    5    0    0  0.21497602787E+03 -0.13477385486E+03 -0.13845313885E+03  0.28904663321E+03  0.00000000000E+00 0.  1.
        -11    1    5    5    0    0  0.74788388905E+01  0.13606230438E+02 -0.85161871234E+01  0.17708415542E+02  0.00000000000E+00 0. -1.
          1    1    6    6  503    0 -0.25373912496E+02  0.41111058626E+02  0.50238405490E+02  0.69698292396E+02  0.00000000000E+00 0. -1.
         -1    1    6    6    0  503 -0.28615256597E+03  0.52155663904E+03  0.23336392824E+03  0.63903313039E+03  0.00000000000E+00 0.  1.
<mgrwt>
<rscale>  0 0.14684226E+04</rscale>
<asrwt>0</asrwt>
<pdfrwt beam="1">  1        2 0.12415575E+00 0.14684226E+04</pdfrwt>
<pdfrwt beam="2">  1       -2 0.10276579E+00 0.14684226E+04</pdfrwt>
<totfact> 0.25525471E+01</totfact>
</mgrwt>
</event>
<event>
12    2  0.3552864E-008  0.1056714E+04  0.7818608E-02  0.9248439E-01
          2   -1    0    0  501    0  0.00000000000E+00  0.00000000000E+00  0.22168250316E+04  0.22168250316E+04  0.00000000000E+00 0. -1.
         -2   -1    0    0    0  501 -0.00000000000E+00 -0.00000000000E+00 -0.12592842237E+03  0.12592842237E+03  0.00000000000E+00 0.  1.
         23    2    1    2    0    0 -0.46743660971E+02 -0.20102960441E+02  0.64862763291E+02  0.12121488570E+03  0.88863781118E+02 0.  0.
        254    2    1    2    0    0  0.46743660971E+02  0.20102960441E+02  0.20260338460E+04  0.22215385683E+04  0.90985238722E+03 0.  0.
         23    2    4    4    0    0  0.10638577540E+03  0.61009300763E+02 -0.33832034316E+02  0.15830032686E+03  0.94203603699E+02 0.  0.
         23    2    4    4    0    0 -0.59642114433E+02 -0.40906340321E+02  0.20598658803E+04  0.20632382414E+04  0.93134771418E+02 0.  0.
          2    1    3    3  502    0  0.47833428000E+01  0.25621615582E+02  0.40464668777E+02  0.48132493937E+02  0.00000000000E+00 0. -1.
         -2    1    3    3    0  502 -0.51527003771E+02 -0.45724576024E+02  0.24398094514E+02  0.73082391765E+02  0.00000000000E+00 0.  1.
         11    1    5    5    0    0  0.43854620766E+02  0.91835300105E+01 -0.58253681661E+02  0.73491879913E+02  0.00000000000E+00 0. -1.
        -11    1    5    5    0    0  0.62531154638E+02  0.51825770752E+02  0.24421647345E+02  0.84808446946E+02  0.00000000000E+00 0.  1.
          1    1    6    6  503    0 -0.12981932444E+02  0.17548371101E+02  0.11791924477E+04  0.11793944652E+04  0.00000000000E+00 0. -1.
         -1    1    6    6    0  503 -0.46660181989E+02 -0.58454711422E+02  0.88067343257E+03  0.88384377619E+03  0.00000000000E+00 0.  1.
<mgrwt>
<rscale>  0 0.10567143E+04</rscale>
<asrwt>0</asrwt>
<pdfrwt beam="1">  1        2 0.34104998E+00 0.10567143E+04</pdfrwt>
<pdfrwt beam="2">  1       -2 0.19373605E-01 0.10567143E+04</pdfrwt>
<totfact> 0.11428831E+02</totfact>
</mgrwt>
</event>
<event>
12    2  0.3552864E-008  0.1537591E+04  0.7818608E-02  0.8859833E-01
          1   -1    0    0  501    0  0.00000000000E+00  0.00000000000E+00  0.27555427614E+04  0.27555427614E+04  0.00000000000E+00 0. -1.
         -1   -1    0    0    0  501 -0.00000000000E+00 -0.00000000000E+00 -0.21449375897E+03  0.21449375897E+03  0.00000000000E+00 0.  1.
         23    2    1    2    0    0  0.57345052034E+02 -0.89678909656E+02  0.16135586847E+04  0.16195857860E+04  0.90309065977E+02 0.  0.
        254    2    1    2    0    0 -0.57345052034E+02  0.89678909656E+02  0.92749031774E+03  0.13504507344E+04  0.97578078207E+03 0.  0.
         23    2    4    4    0    0 -0.56360446429E+01 -0.35047459327E+03  0.80243253796E+03  0.88037608756E+03  0.91103633523E+02 0.  0.
         23    2    4    4    0    0 -0.51709007391E+02  0.44015350293E+03  0.12505777978E+03  0.47007464682E+03  0.94455268320E+02 0.  0.
          4    1    3    3  502    0  0.27357097649E+02 -0.53618621588E+02  0.13827857623E+04  0.13840953117E+04  0.00000000000E+00 0. -1.
         -4    1    3    3    0  502  0.29987954385E+02 -0.36060288068E+02  0.23077292237E+03  0.23549047429E+03  0.00000000000E+00 0.  1.
         11    1    5    5    0    0 -0.32047714279E+02 -0.44350350758E+02  0.11145452293E+03  0.12416166995E+03  0.00000000000E+00 0.  1.
        -11    1    5    5    0    0  0.26411669636E+02 -0.30612424251E+03  0.69097801502E+03  0.75621441760E+03  0.00000000000E+00 0. -1.
          3    1    6    6  503    0 -0.78314874760E+02  0.32514174810E+03  0.81333143744E+02  0.34418811171E+03  0.00000000000E+00 0. -1.
         -3    1    6    6    0  503  0.26605867369E+02  0.11501175482E+03  0.43724636035E+02  0.12588653511E+03  0.00000000000E+00 0.  1.
<mgrwt>
<rscale>  0 0.15375913E+04</rscale>
<asrwt>0</asrwt>
<pdfrwt beam="1">  1        1 0.42392963E+00 0.15375913E+04</pdfrwt>
<pdfrwt beam="2">  1       -1 0.32999042E-01 0.15375913E+04</pdfrwt>
<totfact> 0.74817646E+00</totfact>
</mgrwt>
</event>
<event>
12    2  0.3552864E-008  0.1677261E+04  0.7818608E-02  0.8774440E-01
         -1   -1    0    0    0  501 -0.00000000000E+00  0.00000000000E+00  0.24035147331E+03  0.24035147331E+03  0.00000000000E+00 0.  1.
          1   -1    0    0  501    0  0.00000000000E+00 -0.00000000000E+00 -0.29261367313E+04  0.29261367313E+04  0.00000000000E+00 0. -1.
         23    2    1    2    0    0 -0.31803875526E+03  0.16490670665E+02 -0.15057922543E+02  0.33183990661E+03  0.92034724532E+02 0.  0.
        254    2    1    2    0    0  0.31803875526E+03 -0.16490670665E+02 -0.26707273354E+04  0.28346482980E+04  0.89500049220E+03 0.  0.
         23    2    4    4    0    0  0.50503224827E+03 -0.29936413382E+03 -0.18140956697E+04  0.19088843271E+04  0.90663217185E+02 0.  0.
         23    2    4    4    0    0 -0.18699349301E+03  0.28287346315E+03 -0.85663166568E+03  0.92576397086E+03  0.90758782038E+02 0.  0.
          3    1    3    3  502    0 -0.87766582424E+02  0.33067845094E+02 -0.35011267734E+02  0.10011115941E+03  0.00000000000E+00 0. -1.
         -3    1    3    3    0  502 -0.23027217284E+03 -0.16577174430E+02  0.19953345190E+02  0.23172874720E+03  0.00000000000E+00 0.  1.
         11    1    5    5    0    0  0.16013449815E+02 -0.20399308597E+01 -0.11176433554E+03  0.11292412759E+03  0.00000000000E+00 0.  1.
        -11    1    5    5    0    0  0.48901879846E+03 -0.29732420296E+03 -0.17023313342E+04  0.17959601995E+04  0.00000000000E+00 0. -1.
          3    1    6    6  503    0 -0.12673123974E+03  0.25298100616E+03 -0.71568142564E+03  0.76958436810E+03  0.00000000000E+00 0. -1.
         -3    1    6    6    0  503 -0.60262253269E+02  0.29892456986E+02 -0.14095024003E+03  0.15617960276E+03  0.00000000000E+00 0.  1.
<mgrwt>
<rscale>  0 0.16772612E+04</rscale>
<asrwt>0</asrwt>
<pdfrwt beam="1">  1        1 0.45017488E+00 0.16772612E+04</pdfrwt>
<pdfrwt beam="2">  1       -1 0.36977150E-01 0.16772612E+04</pdfrwt>
<totfact> 0.45494737E+00</totfact>
</mgrwt>
</event>
<event>
12    2  0.3552864E-008  0.1193264E+04  0.7818608E-02  0.9118773E-01
          2   -1    0    0  501    0  0.00000000000E+00  0.00000000000E+00  0.78650585071E+03  0.78650585071E+03  0.00000000000E+00 0. -1.
         -2   -1    0    0    0  501 -0.00000000000E+00 -0.00000000000E+00 -0.45259626030E+03  0.45259626030E+03  0.00000000000E+00 0.  1.
         23    2    1    2    0    0 -0.13747971277E+03  0.14383696072E+03  0.22327568659E+03  0.31170158619E+03  0.87841356525E+02 0.  0.
        254    2    1    2    0    0  0.13747971277E+03 -0.14383696072E+03  0.11063390381E+03  0.92740052482E+03  0.89902287516E+03 0.  0.
         23    2    4    4    0    0  0.43577406483E+03 -0.29093129699E+03  0.20196802170E+03  0.56965106488E+03  0.95766376066E+02 0.  0.
         23    2    4    4    0    0 -0.29829435206E+03  0.14709433627E+03 -0.91334117893E+02  0.35774945993E+03  0.95007845783E+02 0.  0.
          3    1    3    3  502    0 -0.11524615609E+03  0.66865825520E+02  0.10903143329E+03  0.17216436495E+03  0.00000000000E+00 0. -1.
         -3    1    3    3    0  502 -0.22233556688E+02  0.76971135199E+02  0.11424425331E+03  0.13953722124E+03  0.00000000000E+00 0.  1.
         11    1    5    5    0    0  0.25434860889E+02 -0.47902356910E+01  0.32335194660E+02  0.41417910619E+02  0.00000000000E+00 0. -1.
        -11    1    5    5    0    0  0.41033920394E+03 -0.28614106130E+03  0.16963282704E+03  0.52823315426E+03  0.00000000000E+00 0.  1.
          3    1    6    6  503    0 -0.15334585198E+02  0.39900547388E+02 -0.18162857617E+02  0.46444510783E+02  0.00000000000E+00 0. -1.
         -3    1    6    6    0  503 -0.28295976686E+03  0.10719378888E+03 -0.73171260277E+02  0.31130494915E+03  0.00000000000E+00 0.  1.
<mgrwt>
<rscale>  0 0.11932638E+04</rscale>
<asrwt>0</asrwt>
<pdfrwt beam="1">  1        2 0.12100090E+00 0.11932638E+04</pdfrwt>
<pdfrwt beam="2">  1       -2 0.69630194E-01 0.11932638E+04</pdfrwt>
<totfact> 0.65438720E+01</totfact>
</mgrwt>
</event>
<event>
12    2  0.3552864E-008  0.2165636E+04  0.7818608E-02  0.8532869E-01
          2   -1    0    0  501    0  0.00000000000E+00  0.00000000000E+00  0.38158539795E+03  0.38158539795E+03  0.00000000000E+00 0. -1.
         -2   -1    0    0    0  501 -0.00000000000E+00 -0.00000000000E+00 -0.30726935196E+04  0.30726935196E+04  0.00000000000E+00 0.  1.
         23    2    1    2    0    0 -0.59233049321E+03  0.22823226355E+03 -0.84618223359E+02  0.64281803432E+03  0.55762014028E+02 0.  0.
        254    2    1    2    0    0  0.59233049321E+03 -0.22823226355E+03 -0.26064898983E+04  0.28114608832E+04  0.84117615799E+03 0.  0.
         23    2    4    4    0    0  0.15678116942E+03 -0.32090957855E+03 -0.34640958094E+03  0.50590051909E+03  0.91501064250E+02 0.  0.
         23    2    4    4    0    0  0.43554932379E+03  0.92677314997E+02 -0.22600803174E+04  0.23055603642E+04  0.96712220960E+02 0.  0.
          3    1    3    3  502    0 -0.49805296404E+03  0.21287532164E+03 -0.75212622994E+02  0.54683598657E+03  0.00000000000E+00 0. -1.
         -3    1    3    3    0  502 -0.94277529169E+02  0.15356941908E+02 -0.94056003648E+01  0.95982047744E+02  0.00000000000E+00 0.  1.
         11    1    5    5    0    0  0.16817126579E+03 -0.29374257411E+03 -0.30922054581E+03  0.45845787204E+03  0.00000000000E+00 0. -1.
        -11    1    5    5    0    0 -0.11390096368E+02 -0.27167004441E+02 -0.37189035130E+02  0.47442647054E+02  0.00000000000E+00 0.  1.
          2    1    6    6  503    0  0.23848590673E+03  0.81981651859E+02 -0.14514787196E+04  0.14732233342E+04  0.00000000000E+00 0. -1.
         -2    1    6    6    0  503  0.19706341705E+03  0.10695663139E+02 -0.80860159772E+03  0.83233702992E+03  0.00000000000E+00 0.  1.
<mgrwt>
<rscale>  0 0.21656361E+04</rscale>
<asrwt>0</asrwt>
<pdfrwt beam="1">  1        2 0.58705445E-01 0.21656361E+04</pdfrwt>
<pdfrwt beam="2">  1       -2 0.47272208E+00 0.21656361E+04</pdfrwt>
<totfact> 0.18900837E-01</totfact>
</mgrwt>
</event>
<event>
12    2  0.3552864E-008  0.1671295E+04  0.7818608E-02  0.8777907E-01
         -2   -1    0    0    0  501 -0.00000000000E+00  0.00000000000E+00  0.11130910296E+04  0.11130910296E+04  0.00000000000E+00 0.  1.
          2   -1    0    0  501    0  0.00000000000E+00 -0.00000000000E+00 -0.62735805858E+03  0.62735805858E+03  0.00000000000E+00 0. -1.
         23    2    1    2    0    0 -0.50449645010E+03  0.92817654632E+02  0.47805520667E+03  0.70697354438E+03  0.90238720414E+02 0.  0.
        254    2    1    2    0    0  0.50449645010E+03 -0.92817654632E+02  0.76777643075E+01  0.10334755437E+04  0.89715158490E+03 0.  0.
         23    2    4    4    0    0 -0.23809704592E+03  0.74738658346E+02 -0.22591001483E+02  0.26637776580E+03  0.90391871542E+02 0.  0.
         23    2    4    4    0    0  0.74259349602E+03 -0.16755631298E+03  0.30268765790E+02  0.76709777794E+03  0.89457165154E+02 0.  0.
          2    1    3    3  502    0 -0.88139882769E+02  0.11737039784E+02  0.40978335599E+02  0.97906184820E+02  0.00000000000E+00 0. -1.
         -2    1    3    3    0  502 -0.41635656733E+03  0.81080614848E+02  0.43707687107E+03  0.60906735956E+03  0.00000000000E+00 0.  1.
         11    1    5    5    0    0 -0.11515356521E+03  0.41695142653E+02 -0.56141316615E+02  0.13472444445E+03  0.00000000000E+00 0. -1.
        -11    1    5    5    0    0 -0.12294348071E+03  0.33043515693E+02  0.33550315132E+02  0.13165332135E+03  0.00000000000E+00 0.  1.
          1    1    6    6  503    0  0.30063322776E+03 -0.10024385353E+03  0.43305887968E+02  0.31985085233E+03  0.00000000000E+00 0. -1.
         -1    1    6    6    0  503  0.44196026825E+03 -0.67312459444E+02 -0.13037122178E+02  0.44724692561E+03  0.00000000000E+00 0.  1.
<mgrwt>
<rscale>  0 0.16712949E+04</rscale>
<asrwt>0</asrwt>
<pdfrwt beam="1">  1        2 0.96516624E-01 0.16712949E+04</pdfrwt>
<pdfrwt beam="2">  1       -2 0.17124477E+00 0.16712949E+04</pdfrwt>
<totfact> 0.93471450E+00</totfact>
</mgrwt>
</event>
<event>
12    2  0.3552864E-008  0.1098513E+04  0.7818608E-02  0.9206643E-01
         -1   -1    0    0    0  501 -0.00000000000E+00  0.00000000000E+00  0.23458339688E+03  0.23458339688E+03  0.00000000000E+00 0.  1.
          1   -1    0    0  501    0  0.00000000000E+00 -0.00000000000E+00 -0.12860351304E+04  0.12860351304E+04  0.00000000000E+00 0. -1.
         23    2    1    2    0    0  0.12339838801E+03 -0.94245989281E+01 -0.37365185248E+02  0.15902013353E+03  0.92602702830E+02 0.  0.
        254    2    1    2    0    0 -0.12339838801E+03  0.94245989281E+01 -0.10140865483E+04  0.13615983937E+04  0.90014591774E+03 0.  0.
         23    2    4    4    0    0 -0.26684975536E+03  0.26252226943E+03 -0.99066395608E+02  0.39718733007E+03  0.88413180850E+02 0.  0.
         23    2    4    4    0    0  0.14345136735E+03 -0.25309767051E+03 -0.91502015267E+03  0.96441106367E+03  0.90499139980E+02 0.  0.
          3    1    3    3  502    0  0.90123780947E+01 -0.73672593398E+01 -0.42930203009E+02  0.44480352961E+02  0.00000000000E+00 0. -1.
         -3    1    3    3    0  502  0.11438600992E+03 -0.20573395884E+01  0.55650177617E+01  0.11453978057E+03  0.00000000000E+00 0.  1.
         11    1    5    5    0    0 -0.18755695110E+03  0.17330870815E+03 -0.10848659045E+03  0.27745785001E+03  0.00000000000E+00 0.  1.
        -11    1    5    5    0    0 -0.79292804261E+02  0.89213561283E+02  0.94201948456E+01  0.11972948006E+03  0.00000000000E+00 0. -1.
          3    1    6    6  503    0  0.12304403341E+03 -0.23742799533E+03 -0.72670218243E+03  0.77434356011E+03  0.00000000000E+00 0.  1.
         -3    1    6    6    0  503  0.20407333938E+02 -0.15669675171E+02 -0.18831797023E+03  0.19006750356E+03  0.00000000000E+00 0. -1.
<mgrwt>
<rscale>  0 0.10985126E+04</rscale>
<asrwt>0</asrwt>
<pdfrwt beam="1">  1        1 0.19785155E+00 0.10985126E+04</pdfrwt>
<pdfrwt beam="2">  1       -1 0.36089754E-01 0.10985126E+04</pdfrwt>
<totfact> 0.67693599E+01</totfact>
</mgrwt>
</event>
<event>
12    2  0.3552864E-008  0.1411859E+04  0.7818608E-02  0.8945279E-01
         -2   -1    0    0    0  501 -0.00000000000E+00  0.00000000000E+00  0.14461923006E+04  0.14461923006E+04  0.00000000000E+00 0.  1.
          2   -1    0    0  501    0  0.00000000000E+00 -0.00000000000E+00 -0.34458498384E+03  0.34458498384E+03  0.00000000000E+00 0. -1.
         23    2    1    2    0    0 -0.24519008822E+01 -0.58948146177E+02  0.84249957644E+03  0.84919043908E+03  0.88532309136E+02 0.  0.
        254    2    1    2    0    0  0.24519008822E+01  0.58948146177E+02  0.25910774033E+03  0.94158684536E+03  0.90330950981E+03 0.  0.
         23    2    4    4    0    0 -0.94583228254E+02  0.16218440169E+03  0.55950051110E+03  0.59727301978E+03  0.91893802949E+02 0.  0.
         23    2    4    4    0    0  0.97035129137E+02 -0.10323625552E+03 -0.30039277077E+03  0.34431382558E+03  0.90789057808E+02 0.  0.
          4    1    3    3  502    0 -0.78678909048E+01 -0.41410722304E+02  0.13444210272E+03  0.14089510500E+03  0.00000000000E+00 0. -1.
         -4    1    3    3    0  502  0.54159900227E+01 -0.17537423873E+02  0.70805747372E+03  0.70829533408E+03  0.00000000000E+00 0.  1.
         11    1    5    5    0    0 -0.54702751989E+02  0.52286189137E+02  0.34274120737E+03  0.35099540151E+03  0.00000000000E+00 0. -1.
        -11    1    5    5    0    0 -0.39880476265E+02  0.10989821256E+03  0.21675930373E+03  0.24627761827E+03  0.00000000000E+00 0.  1.
          2    1    6    6  503    0  0.10105080894E+03 -0.10522276590E+03 -0.30487152576E+03  0.33797891010E+03  0.00000000000E+00 0. -1.
         -2    1    6    6    0  503 -0.40156798082E+01  0.19865103857E+01  0.44787549951E+01  0.63349154801E+01  0.00000000000E+00 0.  1.
<mgrwt>
<rscale>  0 0.14118586E+04</rscale>
<asrwt>0</asrwt>
<pdfrwt beam="1">  1        2 0.53013075E-01 0.14118586E+04</pdfrwt>
<pdfrwt beam="2">  1       -2 0.22249112E+00 0.14118586E+04</pdfrwt>
<totfact> 0.87135113E+00</totfact>
</mgrwt>
</event>
<event>
12    2  0.3552864E-008  0.2547696E+04  0.7818608E-02  0.8386188E-01
         -1   -1    0    0    0  501 -0.00000000000E+00  0.00000000000E+00  0.10678438893E+04  0.10678438893E+04  0.00000000000E+00 0.  1.
          1   -1    0    0  501    0  0.00000000000E+00 -0.00000000000E+00 -0.15195935951E+04  0.15195935951E+04  0.00000000000E+00 0. -1.
         23    2    1    2    0    0 -0.33325521084E+03 -0.82904051301E+03  0.47323167583E+03  0.10150654401E+04  0.89679545731E+02 0.  0.
        254    2    1    2    0    0  0.33325521084E+03  0.82904051301E+03 -0.92498138166E+03  0.15723720443E+04  0.90465246448E+03 0.  0.
         23    2    4    4    0    0  0.19687728506E+03 -0.66446820953E+02 -0.53658840791E+03  0.58261095389E+03  0.91282849951E+02 0.  0.
         23    2    4    4    0    0  0.13637792578E+03  0.89548733396E+03 -0.38839297374E+03  0.98976109040E+03  0.91002253212E+02 0.  0.
          4    1    3    3  502    0  0.34868946929E+01 -0.16065033947E+02  0.11638558588E+01  0.16480240010E+02  0.00000000000E+00 0. -1.
         -4    1    3    3    0  502 -0.33674210554E+03 -0.81297547906E+03  0.47206781997E+03  0.99858520010E+03  0.00000000000E+00 0.  1.
         11    1    5    5    0    0  0.39471489289E+02 -0.58641664665E+01 -0.22300536693E+03  0.22654752392E+03  0.00000000000E+00 0. -1.
        -11    1    5    5    0    0  0.15740579577E+03 -0.60582654486E+02 -0.31358304098E+03  0.35606342996E+03  0.00000000000E+00 0.  1.
          1    1    6    6  503    0  0.13932990823E+03  0.73960032624E+03 -0.29742178796E+03  0.80924729586E+03  0.00000000000E+00 0. -1.
         -1    1    6    6    0  503 -0.29519824500E+01  0.15588700773E+03 -0.90971185781E+02  0.18051379455E+03  0.00000000000E+00 0.  1.
<mgrwt>
<rscale>  0 0.25476960E+04</rscale>
<asrwt>0</asrwt>
<pdfrwt beam="1">  1        1 0.23378363E+00 0.25476960E+04</pdfrwt>
<pdfrwt beam="2">  1       -1 0.16428368E+00 0.25476960E+04</pdfrwt>
<totfact> 0.15219875E+00</totfact>
</mgrwt>
</event>
<event>
12    2  0.3552864E-008  0.1227381E+04  0.7818608E-02  0.9089222E-01
         -2   -1    0    0    0  501 -0.00000000000E+00  0.00000000000E+00  0.48894940106E+03  0.48894940106E+03  0.00000000000E+00 0.  1.
          2   -1    0    0  501    0  0.00000000000E+00 -0.00000000000E+00 -0.77025507896E+03  0.77025507896E+03  0.00000000000E+00 0. -1.
         23    2    1    2    0    0  0.25975261675E+03 -0.57376943517E+02 -0.10519718904E+02  0.28150376787E+03  0.91488640171E+02 0.  0.
        254    2    1    2    0    0 -0.25975261675E+03  0.57376943517E+02 -0.27078595900E+03  0.97770071215E+03  0.90100505625E+03 0.  0.
         23    2    4    4    0    0  0.96140467595E+02 -0.35651875182E+03 -0.53451252241E+02  0.38276600957E+03  0.85464447643E+02 0.  0.
         23    2    4    4    0    0 -0.35589308435E+03  0.41389569534E+03 -0.21733470676E+03  0.59493470258E+03  0.93506103906E+02 0.  0.
          2    1    3    3  502    0  0.59697827534E+02 -0.25288034365E+01 -0.40111540818E+02  0.71966389140E+02  0.00000000000E+00 0. -1.
         -2    1    3    3    0  502  0.20005478922E+03 -0.54848140080E+02  0.29591821914E+02  0.20953737873E+03  0.00000000000E+00 0.  1.
         11    1    5    5    0    0 -0.10978629780E+02 -0.80437513925E+02  0.32684975850E+01  0.81249043285E+02  0.00000000000E+00 0.  1.
        -11    1    5    5    0    0  0.10711909738E+03 -0.27608123789E+03 -0.56719749827E+02  0.30151696629E+03  0.00000000000E+00 0. -1.
          4    1    6    6  503    0 -0.17488724872E+02  0.15735695631E+02 -0.33631531806E+02  0.41043239958E+02  0.00000000000E+00 0.  1.
         -4    1    6    6    0  503 -0.33840435948E+03  0.39815999970E+03 -0.18370317495E+03  0.55389146262E+03  0.00000000000E+00 0. -1.
<mgrwt>
<rscale>  0 0.12273806E+04</rscale>
<asrwt>0</asrwt>
<pdfrwt beam="1">  1        2 0.11850078E+00 0.12273806E+04</pdfrwt>
<pdfrwt beam="2">  1       -2 0.75222985E-01 0.12273806E+04</pdfrwt>
<totfact> 0.56615648E+01</totfact>
</mgrwt>
</event>
<event>
12    2  0.3552864E-008  0.1711294E+04  0.7818608E-02  0.8754949E-01
          1   -1    0    0  501    0  0.00000000000E+00  0.00000000000E+00  0.11271956262E+04  0.11271956262E+04  0.00000000000E+00 0. -1.
         -1   -1    0    0    0  501 -0.00000000000E+00 -0.00000000000E+00 -0.64951633725E+03  0.64951633725E+03  0.00000000000E+00 0.  1.
         23    2    1    2    0    0  0.30041368446E+02  0.16058617767E+03  0.78563732041E+03  0.80777765006E+03  0.92673234796E+02 0.  0.
        254    2    1    2    0    0 -0.30041368446E+02 -0.16058617767E+03 -0.30795803148E+03  0.96893431336E+03  0.90404930739E+03 0.  0.
         23    2    4    4    0    0  0.24739814000E+03 -0.43995792755E+03 -0.20364981845E+03  0.55181933515E+03  0.90898362977E+02 0.  0.
         23    2    4    4    0    0 -0.27743950845E+03  0.27937174989E+03 -0.10430821302E+03  0.41711497822E+03  0.89907987775E+02 0.  0.
          4    1    3    3  502    0  0.26042311509E+02  0.16626046240E+03  0.78207269716E+03  0.79997402894E+03  0.00000000000E+00 0. -1.
         -4    1    3    3    0  502  0.39990569371E+01 -0.56742847349E+01  0.35646232504E+01  0.78036211182E+01  0.00000000000E+00 0.  1.
         11    1    5    5    0    0  0.23876821675E+03 -0.39602157096E+03 -0.16011235598E+03  0.48936623559E+03  0.00000000000E+00 0.  1.
        -11    1    5    5    0    0  0.86299232537E+01 -0.43936356589E+02 -0.43537462471E+02  0.62453099556E+02  0.00000000000E+00 0. -1.
          2    1    6    6  503    0 -0.26648646887E+03  0.22823885248E+03 -0.82368517065E+02  0.36040613823E+03  0.00000000000E+00 0.  1.
         -2    1    6    6    0  503 -0.10953039574E+02  0.51132897412E+02 -0.21939695958E+02  0.56708839984E+02  0.00000000000E+00 0. -1.
<mgrwt>
<rscale>  0 0.17112942E+04</rscale>
<asrwt>0</asrwt>
<pdfrwt beam="1">  1        1 0.17341471E+00 0.17112942E+04</pdfrwt>
<pdfrwt beam="2">  1       -1 0.99925590E-01 0.17112942E+04</pdfrwt>
<totfact> 0.10981537E+01</totfact>
</mgrwt>
</event>
<event>
12    2  0.3552864E-008  0.2262395E+04  0.7818608E-02  0.8492897E-01
         -2   -1    0    0    0  501 -0.00000000000E+00  0.00000000000E+00  0.72923535541E+03  0.72923535541E+03  0.00000000000E+00 0.  1.
          2   -1    0    0  501    0  0.00000000000E+00 -0.00000000000E+00 -0.17547258251E+04  0.17547258251E+04  0.00000000000E+00 0. -1.
         23    2    1    2    0    0  0.90954832528E+03 -0.10645092708E+03 -0.72047387332E+03  0.11691799384E+04  0.96380341633E+02 0.  0.
        254    2    1    2    0    0 -0.90954832528E+03  0.10645092708E+03 -0.30501659641E+03  0.13147812422E+04  0.89275116062E+03 0.  0.
         23    2    4    4    0    0 -0.56335462368E+03  0.41990986124E+03  0.67182264423E+02  0.71051571899E+03  0.81402743743E+02 0.  0.
         23    2    4    4    0    0 -0.34619370160E+03 -0.31345893416E+03 -0.37219886084E+03  0.60426552318E+03  0.92185942908E+02 0.  0.
          4    1    3    3  502    0  0.70244400191E+03 -0.10688355146E+03 -0.59715224552E+03  0.92813925341E+03  0.00000000000E+00 0. -1.
         -4    1    3    3    0  502  0.20710432337E+03  0.43262437899E+00 -0.12332162780E+03  0.24104068496E+03  0.00000000000E+00 0.  1.
         11    1    5    5    0    0 -0.24909429762E+03  0.17723615236E+03 -0.10687779398E+02  0.30590006773E+03  0.00000000000E+00 0. -1.
        -11    1    5    5    0    0 -0.31426032606E+03  0.24267370889E+03  0.77870043821E+02  0.40461565126E+03  0.00000000000E+00 0.  1.
          2    1    6    6  503    0 -0.16330459769E+03 -0.15352726856E+03 -0.23710318114E+03  0.32627738555E+03  0.00000000000E+00 0.  1.
         -2    1    6    6    0  503 -0.18288910391E+03 -0.15993166560E+03 -0.13509567970E+03  0.27798813763E+03  0.00000000000E+00 0. -1.
<mgrwt>
<rscale>  0 0.22623953E+04</rscale>
<asrwt>0</asrwt>
<pdfrwt beam="1">  1        2 0.26995781E+00 0.22623953E+04</pdfrwt>
<pdfrwt beam="2">  1       -2 0.11219006E+00 0.22623953E+04</pdfrwt>
<totfact> 0.52079517E+00</totfact>
</mgrwt>
</event>
<event>
12    2  0.3552864E-008  0.1424295E+04  0.7818608E-02  0.8936418E-01
         -1   -1    0    0    0  501 -0.00000000000E+00  0.00000000000E+00  0.61186630926E+03  0.61186630926E+03  0.00000000000E+00 0.  1.
          1   -1    0    0  501    0  0.00000000000E+00 -0.00000000000E+00 -0.82886461508E+03  0.82886461508E+03  0.00000000000E+00 0. -1.
         23    2    1    2    0    0  0.42357800669E+02 -0.60222155232E+01  0.36052459331E+03  0.37427998793E+03  0.90978440433E+02 0.  0.
        254    2    1    2    0    0 -0.42357800669E+02  0.60222155232E+01 -0.57752289912E+03  0.10664509364E+04  0.89551909550E+03 0.  0.
         23    2    4    4    0    0  0.29854658817E+02 -0.37415739552E+03 -0.54376490301E+03  0.66693442740E+03  0.90753531223E+02 0.  0.
         23    2    4    4    0    0 -0.72212459486E+02  0.38017961105E+03 -0.33757996110E+02  0.39951650901E+03  0.93395196411E+02 0.  0.
          3    1    3    3  502    0  0.10109535697E+02  0.24647211981E+01 -0.16827891064E+01  0.10540841607E+02  0.00000000000E+00 0. -1.
         -3    1    3    3    0  502  0.32248264972E+02 -0.84869367212E+01  0.36220738242E+03  0.36373914632E+03  0.00000000000E+00 0.  1.
         11    1    5    5    0    0  0.41200265003E+02 -0.35113922437E+03 -0.53185295761E+03  0.63864214178E+03  0.00000000000E+00 0.  1.
        -11    1    5    5    0    0 -0.11345606186E+02 -0.23018171148E+02 -0.11911945397E+02  0.28292285625E+02  0.00000000000E+00 0. -1.
          3    1    6    6  503    0 -0.34778250312E+02  0.65591622232E+02 -0.36430026797E+02  0.82697850360E+02  0.00000000000E+00 0. -1.
         -3    1    6    6    0  503 -0.37434209175E+02  0.31458798881E+03  0.26720306869E+01  0.31681865865E+03  0.00000000000E+00 0.  1.
<mgrwt>
<rscale>  0 0.14242954E+04</rscale>
<asrwt>0</asrwt>
<pdfrwt beam="1">  1        1 0.12751763E+00 0.14242954E+04</pdfrwt>
<pdfrwt beam="2">  1       -1 0.94133279E-01 0.14242954E+04</pdfrwt>
<totfact> 0.22213647E+01</totfact>
</mgrwt>
</event>
<event>
12    2  0.3552864E-008  0.2503361E+04  0.7818608E-02  0.8401789E-01
         -2   -1    0    0    0  501 -0.00000000000E+00  0.00000000000E+00  0.58696367091E+03  0.58696367091E+03  0.00000000000E+00 0.  1.
          2   -1    0    0  501    0  0.00000000000E+00 -0.00000000000E+00 -0.26691674579E+04  0.26691674579E+04  0.00000000000E+00 0. -1.
         23    2    1    2    0    0 -0.32739210120E+03 -0.16104538164E+03 -0.21282171792E+04  0.21611933140E+04  0.91252264996E+02 0.  0.
        254    2    1    2    0    0  0.32739210120E+03  0.16104538164E+03  0.46013392219E+02  0.10949378148E+04  0.10313342732E+04 0.  0.
         23    2    4    4    0    0  0.34579774353E+03  0.36301585226E+03  0.41978778338E+03  0.66006373536E+03  0.90032012311E+02 0.  0.
         23    2    4    4    0    0 -0.18405642324E+02 -0.20197047062E+03 -0.37377439116E+03  0.43487407943E+03  0.90979837331E+02 0.  0.
          2    1    3    3  502    0 -0.21895097727E+03 -0.87791335035E+02 -0.15836474729E+04  0.16011202851E+04  0.00000000000E+00 0. -1.
         -2    1    3    3    0  502 -0.10844112393E+03 -0.73254046601E+02 -0.54456970630E+03  0.56007302892E+03  0.00000000000E+00 0.  1.
         11    1    5    5    0    0  0.48776153314E+02  0.45097138444E+02  0.10020199217E+03  0.12022189594E+03  0.00000000000E+00 0. -1.
        -11    1    5    5    0    0  0.29702159021E+03  0.31791871381E+03  0.31958579121E+03  0.53984183942E+03  0.00000000000E+00 0.  1.
          4    1    6    6  503    0  0.36519222711E+02 -0.67798812521E+02 -0.14042829831E+03  0.16015754610E+03  0.00000000000E+00 0. -1.
         -4    1    6    6    0  503 -0.54924865035E+02 -0.13417165810E+03 -0.23334609285E+03  0.27471653333E+03  0.00000000000E+00 0.  1.
<mgrwt>
<rscale>  0 0.25033612E+04</rscale>
<asrwt>0</asrwt>
<pdfrwt beam="1">  1        2 0.41064115E+00 0.25033612E+04</pdfrwt>
<pdfrwt beam="2">  1       -2 0.90302102E-01 0.25033612E+04</pdfrwt>
<totfact> 0.25897044E+00</totfact>
</mgrwt>
</event>
<event>
12    2  0.3552864E-008  0.1687111E+04  0.7818608E-02  0.8768750E-01
         -2   -1    0    0    0  501 -0.00000000000E+00  0.00000000000E+00  0.23206838046E+03  0.23206838046E+03  0.00000000000E+00 0.  1.
          2   -1    0    0  501    0  0.00000000000E+00 -0.00000000000E+00 -0.30662781049E+04  0.30662781049E+04  0.00000000000E+00 0. -1.
         23    2    1    2    0    0  0.21346810560E+03  0.10409239183E+02 -0.21127438429E+04  0.21253641703E+04  0.88370393493E+02 0.  0.
        254    2    1    2    0    0 -0.21346810560E+03 -0.10409239183E+02 -0.72146588149E+03  0.11729823150E+04  0.89983193359E+03 0.  0.
         23    2    4    4    0    0 -0.15079054191E+03 -0.12202181305E+03  0.16659683501E+03  0.27117234850E+03  0.90293005086E+02 0.  0.
         23    2    4    4    0    0 -0.62677563687E+02  0.11161257387E+03 -0.88806271650E+03  0.90180996647E+03  0.90664124939E+02 0.  0.
          4    1    3    3  502    0  0.12431193221E+03 -0.21539947195E+02 -0.88144655128E+03  0.89042992345E+03  0.00000000000E+00 0. -1.
         -4    1    3    3    0  502  0.89156173383E+02  0.31949186378E+02 -0.12312972916E+04  0.12349342469E+04  0.00000000000E+00 0.  1.
         11    1    5    5    0    0  0.66432113860E+01  0.12595174985E+01 -0.44012137328E+01  0.80677954963E+01  0.00000000000E+00 0. -1.
        -11    1    5    5    0    0 -0.15743375329E+03 -0.12328133055E+03  0.17099804874E+03  0.26310455301E+03  0.00000000000E+00 0.  1.
          1    1    6    6  503    0 -0.28437699270E+02  0.30638020566E+02 -0.93756649323E+02  0.10265330163E+03  0.00000000000E+00 0. -1.
         -1    1    6    6    0  503 -0.34239864417E+02  0.80974553305E+02 -0.79430606718E+03  0.79915666484E+03  0.00000000000E+00 0.  1.
<mgrwt>
<rscale>  0 0.16871114E+04</rscale>
<asrwt>0</asrwt>
<pdfrwt beam="1">  1        2 0.47173505E+00 0.16871114E+04</pdfrwt>
<pdfrwt beam="2">  1       -2 0.35702831E-01 0.16871114E+04</pdfrwt>
<totfact> 0.11168147E+01</totfact>
</mgrwt>
</event>
<event>
12    2  0.3552864E-008  0.1698031E+04  0.7818608E-02  0.8762488E-01
         -1   -1    0    0    0  501 -0.00000000000E+00  0.00000000000E+00  0.27251284643E+03  0.27251284643E+03  0.00000000000E+00 0.  1.
          1   -1    0    0  501    0  0.00000000000E+00 -0.00000000000E+00 -0.26451143516E+04  0.26451143516E+04  0.00000000000E+00 0. -1.
         23    2    1    2    0    0 -0.58686405610E+03 -0.15898571342E+03 -0.10273130982E+04  0.11972285463E+04  0.91093978160E+02 0.  0.
        254    2    1    2    0    0  0.58686405610E+03  0.15898571342E+03 -0.13452884069E+04  0.17203986517E+04  0.88333727740E+03 0.  0.
         23    2    4    4    0    0  0.60547595867E+03  0.40330564853E+03 -0.12378458465E+04  0.14386424717E+04  0.90405967976E+02 0.  0.
         23    2    4    4    0    0 -0.18611902574E+02 -0.24431993510E+03 -0.10744256042E+03  0.28175618001E+03  0.88340294197E+02 0.  0.
          2    1    3    3  502    0 -0.35876334445E+03 -0.63739705230E+02 -0.55085234487E+03  0.66046361989E+03  0.00000000000E+00 0.  1.
         -2    1    3    3    0  502 -0.22810071164E+03 -0.95246008195E+02 -0.47646075334E+03  0.53676492639E+03  0.00000000000E+00 0. -1.
         11    1    5    5    0    0  0.29840318504E+03  0.24364139925E+03 -0.70162393295E+03  0.80042597132E+03  0.00000000000E+00 0. -1.
        -11    1    5    5    0    0  0.30707277363E+03  0.15966424928E+03 -0.53622191357E+03  0.63821650041E+03  0.00000000000E+00 0.  1.
          4    1    6    6  503    0 -0.13339463115E+02  0.64074138148E+00  0.18240851297E+01  0.13478839427E+02  0.00000000000E+00 0. -1.
         -4    1    6    6    0  503 -0.52724394585E+01 -0.24496067648E+03 -0.10926664555E+03  0.26827734059E+03  0.00000000000E+00 0.  1.
<mgrwt>
<rscale>  0 0.16980314E+04</rscale>
<asrwt>0</asrwt>
<pdfrwt beam="1">  1        1 0.40694067E+00 0.16980314E+04</pdfrwt>
<pdfrwt beam="2">  1       -1 0.41925053E-01 0.16980314E+04</pdfrwt>
<totfact> 0.57157344E+00</totfact>
</mgrwt>
</event>
<event>
12    2  0.3552864E-008  0.1532820E+04  0.7818608E-02  0.8862917E-01
          2   -1    0    0  501    0  0.00000000000E+00  0.00000000000E+00  0.62357557746E+03  0.62357557746E+03  0.00000000000E+00 0. -1.
         -2   -1    0    0    0  501 -0.00000000000E+00 -0.00000000000E+00 -0.94196116085E+03  0.94196116085E+03  0.00000000000E+00 0.  1.
         23    2    1    2    0    0  0.46868772260E+03 -0.96714237798E+02 -0.23161025172E+03  0.53978167228E+03  0.93269072666E+02 0.  0.
        254    2    1    2    0    0 -0.46868772260E+03  0.96714237798E+02 -0.86775331665E+02  0.10257550660E+04  0.90311775102E+03 0.  0.
         23    2    4    4    0    0 -0.68232043677E+02  0.95832418389E+02 -0.45175615447E+03  0.47567814791E+03  0.91359800234E+02 0.  0.
         23    2    4    4    0    0 -0.40045567893E+03  0.88181940884E+00  0.36498082281E+03  0.55007691812E+03  0.94910939545E+02 0.  0.
          3    1    3    3  502    0  0.17137902275E+03 -0.26970791675E+02 -0.13389882382E+03  0.21915083404E+03  0.00000000000E+00 0. -1.
         -3    1    3    3    0  502  0.29730869986E+03 -0.69743446123E+02 -0.97711427906E+02  0.32063083824E+03  0.00000000000E+00 0.  1.
         11    1    5    5    0    0  0.19969215065E+02  0.12582063115E+02 -0.40137990692E+02  0.46563249020E+02  0.00000000000E+00 0. -1.
        -11    1    5    5    0    0 -0.88201258742E+02  0.83250355274E+02 -0.41161816378E+03  0.42911489889E+03  0.00000000000E+00 0.  1.
          3    1    6    6  503    0 -0.30408345415E+03  0.17975037327E+02  0.22251963448E+03  0.37723313319E+03  0.00000000000E+00 0. -1.
         -3    1    6    6    0  503 -0.96372224781E+02 -0.17093217918E+02  0.14246118833E+03  0.17284378493E+03  0.00000000000E+00 0.  1.
<mgrwt>
<rscale>  0 0.15328196E+04</rscale>
<asrwt>0</asrwt>
<pdfrwt beam="1">  1        2 0.95934705E-01 0.15328196E+04</pdfrwt>
<pdfrwt beam="2">  1       -2 0.14491710E+00 0.15328196E+04</pdfrwt>
<totfact> 0.14958225E+01</totfact>
</mgrwt>
</event>
<event>
12    2  0.3552864E-008  0.2172218E+04  0.7818608E-02  0.8530081E-01
          1   -1    0    0  501    0  0.00000000000E+00  0.00000000000E+00  0.99400901139E+03  0.99400901139E+03  0.00000000000E+00 0. -1.
         -1   -1    0    0    0  501 -0.00000000000E+00 -0.00000000000E+00 -0.11867422904E+04  0.11867422904E+04  0.00000000000E+00 0.  1.
         23    2    1    2    0    0 -0.14247704282E+03  0.58198816035E+03  0.59092444898E+03  0.84658893654E+03  0.92256146332E+02 0.  0.
        254    2    1    2    0    0  0.14247704282E+03 -0.58198816035E+03 -0.78365772795E+03  0.13341623652E+04  0.89825378131E+03 0.  0.
         23    2    4    4    0    0 -0.99143972899E+02 -0.24308160066E+02 -0.70072628414E+03  0.71390002342E+03  0.90639418242E+02 0.  0.
         23    2    4    4    0    0  0.24162101572E+03 -0.55768000029E+03 -0.82931443812E+02  0.62026234180E+03  0.91978531838E+02 0.  0.
          2    1    3    3  502    0 -0.33811094217E+02  0.32918819007E+03  0.33199143861E+03  0.46874979454E+03  0.00000000000E+00 0. -1.
         -2    1    3    3    0  502 -0.10866594860E+03  0.25279997028E+03  0.25893301038E+03  0.37783914200E+03  0.00000000000E+00 0.  1.
         11    1    5    5    0    0 -0.78212888819E+02 -0.54540245172E+02 -0.57699220994E+03  0.58481783886E+03  0.00000000000E+00 0.  1.
        -11    1    5    5    0    0 -0.20931084081E+02  0.30232085106E+02 -0.12373407420E+03  0.12908218455E+03  0.00000000000E+00 0. -1.
          1    1    6    6  503    0  0.22585356384E+03 -0.48607360622E+03 -0.45424025301E+02  0.53790401099E+03  0.00000000000E+00 0.  1.
         -1    1    6    6    0  503  0.15767451882E+02 -0.71606394069E+02 -0.37507418510E+02  0.82358330809E+02  0.00000000000E+00 0. -1.
<mgrwt>
<rscale>  0 0.21722178E+04</rscale>
<asrwt>0</asrwt>
<pdfrwt beam="1">  1        1 0.15292446E+00 0.21722178E+04</pdfrwt>
<pdfrwt beam="2">  1       -1 0.18257574E+00 0.21722178E+04</pdfrwt>
<totfact> 0.27881125E+00</totfact>
</mgrwt>
</event>
<event>
12    2  0.3552864E-008  0.2835073E+04  0.7818608E-02  0.8292462E-01
          2   -1    0    0  501    0  0.00000000000E+00  0.00000000000E+00  0.18001507343E+04  0.18001507343E+04  0.00000000000E+00 0.  1.
         -2   -1    0    0    0  501 -0.00000000000E+00 -0.00000000000E+00 -0.11162451421E+04  0.11162451421E+04  0.00000000000E+00 0. -1.
         23    2    1    2    0    0  0.57649134286E+03 -0.32145598921E+02  0.14739631545E+04  0.15856788705E+04  0.91839487936E+02 0.  0.
        254    2    1    2    0    0 -0.57649134286E+03  0.32145598921E+02 -0.79005756234E+03  0.13307170058E+04  0.90179886334E+03 0.  0.
         23    2    4    4    0    0  0.18917959197E+03 -0.15658213599E+03 -0.29452277534E+03  0.39485147885E+03  0.94112389365E+02 0.  0.
         23    2    4    4    0    0 -0.76567093483E+03  0.18872773491E+03 -0.49553478700E+03  0.93586552699E+03  0.91757403632E+02 0.  0.
          2    1    3    3  502    0  0.12549853638E+03 -0.26368834978E+02  0.24438094399E+03  0.27598413700E+03  0.00000000000E+00 0. -1.
         -2    1    3    3    0  502  0.45099280648E+03 -0.57767639430E+01  0.12295822105E+04  0.13096947335E+04  0.00000000000E+00 0.  1.
         11    1    5    5    0    0  0.18193617144E+03 -0.13934547626E+03 -0.29790340239E+03  0.37585152572E+03  0.00000000000E+00 0.  1.
        -11    1    5    5    0    0  0.72434205294E+01 -0.17236659732E+02  0.33806270547E+01  0.18999953131E+02  0.00000000000E+00 0. -1.
          4    1    6    6  503    0 -0.11709626676E+03 -0.43866955782E+01 -0.71103939297E+02  0.13706403237E+03  0.00000000000E+00 0. -1.
         -4    1    6    6    0  503 -0.64857466807E+03  0.19311443049E+03 -0.42443084770E+03  0.79880149462E+03  0.00000000000E+00 0.  1.
<mgrwt>
<rscale>  0 0.28350728E+04</rscale>
<asrwt>0</asrwt>
<pdfrwt beam="1">  1        2 0.27694627E+00 0.28350728E+04</pdfrwt>
<pdfrwt beam="2">  1       -2 0.17173002E+00 0.28350728E+04</pdfrwt>
<totfact> 0.15511328E+00</totfact>
</mgrwt>
</event>
<event>
12    2  0.3552864E-008  0.2874807E+04  0.7818608E-02  0.8280413E-01
         -1   -1    0    0    0  501 -0.00000000000E+00  0.00000000000E+00  0.64034430110E+03  0.64034430110E+03  0.00000000000E+00 0.  1.
          1   -1    0    0  501    0  0.00000000000E+00 -0.00000000000E+00 -0.32265914562E+04  0.32265914562E+04  0.00000000000E+00 0. -1.
         23    2    1    2    0    0 -0.35776106197E+03 -0.57110690454E+02 -0.28149930455E+04  0.28395808090E+04  0.88197032363E+02 0.  0.
        254    2    1    2    0    0  0.35776106197E+03  0.57110690454E+02  0.22874589039E+03  0.10273549483E+04  0.93374455763E+03 0.  0.
         23    2    4    4    0    0  0.39973766133E+03 -0.36973560173E+03  0.53228577261E+02  0.55531403848E+03  0.95109341411E+02 0.  0.
         23    2    4    4    0    0 -0.41976599362E+02  0.42684629218E+03  0.17551731313E+03  0.47204090977E+03  0.89758014952E+02 0.  0.
          4    1    3    3  502    0 -0.35353389191E+02 -0.31002276671E+02 -0.47832519032E+03  0.48063082608E+03  0.00000000000E+00 0.  1.
         -4    1    3    3    0  502 -0.32240767278E+03 -0.26108413783E+02 -0.23366678551E+04  0.23589499829E+04  0.00000000000E+00 0. -1.
         11    1    5    5    0    0  0.32203510507E+03 -0.33211161803E+03  0.68472043156E+02  0.46764640106E+03  0.00000000000E+00 0.  1.
        -11    1    5    5    0    0  0.77702556262E+02 -0.37623983702E+02 -0.15243465896E+02  0.87667637425E+02  0.00000000000E+00 0. -1.
          3    1    6    6  503    0 -0.44792193760E+02  0.98130363909E+02  0.61085823655E+02  0.12396526447E+03  0.00000000000E+00 0. -1.
         -3    1    6    6    0  503  0.28155943980E+01  0.32871592827E+03  0.11443148947E+03  0.34807564531E+03  0.00000000000E+00 0.  1.
<mgrwt>
<rscale>  0 0.28748074E+04</rscale>
<asrwt>0</asrwt>
<pdfrwt beam="1">  1        1 0.49639869E+00 0.28748074E+04</pdfrwt>
<pdfrwt beam="2">  1       -1 0.98514506E-01 0.28748074E+04</pdfrwt>
<totfact> 0.34417033E-01</totfact>
</mgrwt>
</event>
<event>
12    2  0.3552864E-008  0.1179630E+04  0.7818608E-02  0.9130876E-01
          2   -1    0    0  501    0  0.00000000000E+00  0.00000000000E+00  0.15772298805E+04  0.15772298805E+04  0.00000000000E+00 0. -1.
         -2   -1    0    0    0  501 -0.00000000000E+00 -0.00000000000E+00 -0.22056503215E+03  0.22056503215E+03  0.00000000000E+00 0.  1.
         23    2    1    2    0    0 -0.41801940419E+02  0.13056827433E+03 -0.27887754977E+00  0.16431624606E+03  0.90577450073E+02 0.  0.
        254    2    1    2    0    0  0.41801940419E+02 -0.13056827433E+03  0.13569437259E+04  0.16334786666E+04  0.89897764292E+03 0.  0.
         23    2    4    4    0    0  0.10059455875E+03  0.55637612127E+02  0.14049655475E+04  0.14125938991E+04  0.90986400457E+02 0.  0.
         23    2    4    4    0    0 -0.58792618329E+02 -0.18620588646E+03 -0.48021821631E+02  0.22088476744E+03  0.91404491204E+02 0.  0.
          3    1    3    3  502    0 -0.44221972898E+02  0.12135790000E+02 -0.42736131763E+00  0.45858945949E+02  0.00000000000E+00 0. -1.
         -3    1    3    3    0  502  0.24200324790E+01  0.11843248433E+03  0.14848376786E+00  0.11845730011E+03  0.00000000000E+00 0.  1.
         11    1    5    5    0    0  0.12338215735E+01  0.44615552230E+02  0.33319580023E+03  0.33617184758E+03  0.00000000000E+00 0.  1.
        -11    1    5    5    0    0  0.99360737174E+02  0.11022059897E+02  0.10717697473E+04  0.10764220515E+04  0.00000000000E+00 0. -1.
          2    1    6    6  503    0 -0.28741780997E+02 -0.15141382977E+03 -0.70771982425E+02  0.16959042224E+03  0.00000000000E+00 0. -1.
         -2    1    6    6    0  503 -0.30050837332E+02 -0.34792056691E+02  0.22750160794E+02  0.51294345198E+02  0.00000000000E+00 0.  1.
<mgrwt>
<rscale>  0 0.11796300E+04</rscale>
<asrwt>0</asrwt>
<pdfrwt beam="1">  1        2 0.24265074E+00 0.11796300E+04</pdfrwt>
<pdfrwt beam="2">  1       -2 0.33933083E-01 0.11796300E+04</pdfrwt>
<totfact> 0.92179934E+01</totfact>
</mgrwt>
</event>
<event>
12    2  0.3552864E-008  0.1383667E+04  0.7818608E-02  0.8965727E-01
         -2   -1    0    0    0  501 -0.00000000000E+00  0.00000000000E+00  0.21180054746E+04  0.21180054746E+04  0.00000000000E+00 0.  1.
          2   -1    0    0  501    0  0.00000000000E+00 -0.00000000000E+00 -0.22598325695E+03  0.22598325695E+03  0.00000000000E+00 0. -1.
         23    2    1    2    0    0  0.23605732481E+03 -0.31291506948E+02  0.25556128085E+02  0.25616821148E+03  0.90922042906E+02 0.  0.
        254    2    1    2    0    0 -0.23605732481E+03  0.31291506948E+02  0.18664660895E+04  0.20878205200E+04  0.90476330689E+03 0.  0.
         23    2    4    4    0    0 -0.23498400192E+03 -0.28388812022E+03  0.16532486893E+04  0.16963165141E+04  0.91915947647E+02 0.  0.
         23    2    4    4    0    0 -0.10733228876E+01  0.31517962716E+03  0.21321740021E+03  0.39150400590E+03  0.92056382063E+02 0.  0.
          2    1    3    3  502    0  0.51156422996E+02 -0.24760487298E+02  0.41638380905E+02  0.70454354793E+02  0.00000000000E+00 0.  1.
         -2    1    3    3    0  502  0.18490090181E+03 -0.65310196506E+01 -0.16082252820E+02  0.18571385669E+03  0.00000000000E+00 0. -1.
         11    1    5    5    0    0 -0.25890145129E+02 -0.43805640226E+02  0.11966022019E+03  0.13003000433E+03  0.00000000000E+00 0.  1.
        -11    1    5    5    0    0 -0.20909385679E+03 -0.24008247999E+03  0.15335884691E+04  0.15662865098E+04  0.00000000000E+00 0. -1.
          3    1    6    6  503    0 -0.39227731018E+02  0.24040323462E+03  0.14623289686E+03  0.28410665290E+03  0.00000000000E+00 0. -1.
         -3    1    6    6    0  503  0.38154408130E+02  0.74776392539E+02  0.66984503353E+02  0.10739735300E+03  0.00000000000E+00 0.  1.
<mgrwt>
<rscale>  0 0.13836673E+04</rscale>
<asrwt>0</asrwt>
<pdfrwt beam="1">  1        2 0.34766656E-01 0.13836673E+04</pdfrwt>
<pdfrwt beam="2">  1       -2 0.32584698E+00 0.13836673E+04</pdfrwt>
<totfact> 0.32598734E+00</totfact>
</mgrwt>
</event>
<event>
12    2  0.3552864E-008  0.1805533E+04  0.7818608E-02  0.8703363E-01
         -2   -1    0    0    0  501 -0.00000000000E+00  0.00000000000E+00  0.91887375478E+03  0.91887375478E+03  0.00000000000E+00 0.  1.
          2   -1    0    0  501    0  0.00000000000E+00 -0.00000000000E+00 -0.88694157950E+03  0.88694157950E+03  0.00000000000E+00 0. -1.
         23    2    1    2    0    0 -0.24048179305E+02  0.38192423942E+03  0.57904751096E+03  0.69992445007E+03  0.90298262813E+02 0.  0.
        254    2    1    2    0    0  0.24048179305E+02 -0.38192423942E+03 -0.54711533567E+03  0.11058908842E+04  0.88159799097E+03 0.  0.
         23    2    4    4    0    0  0.12113682073E+03  0.23130537242E+03 -0.49177902067E+01  0.27685784858E+03  0.91922679538E+02 0.  0.
         23    2    4    4    0    0 -0.97088641426E+02 -0.61322961184E+03 -0.54219754547E+03  0.82903303564E+03  0.88548488080E+02 0.  0.
          4    1    3    3  502    0  0.13645418114E+02  0.20850016342E+02  0.72917816386E+02  0.77057955874E+02  0.00000000000E+00 0. -1.
         -4    1    3    3    0  502 -0.37693597419E+02  0.36107422308E+03  0.50612969457E+03  0.62286649419E+03  0.00000000000E+00 0.  1.
         11    1    5    5    0    0  0.57193810085E+02  0.33737382135E+02 -0.17965890896E+02  0.68790377969E+02  0.00000000000E+00 0. -1.
        -11    1    5    5    0    0  0.63943010646E+02  0.19756799028E+03  0.13048100689E+02  0.20806747061E+03  0.00000000000E+00 0.  1.
          3    1    6    6  503    0 -0.45112612358E+02 -0.50459334262E+03 -0.44424408193E+03  0.67379699728E+03  0.00000000000E+00 0. -1.
         -3    1    6    6    0  503 -0.51976029068E+02 -0.10863626921E+03 -0.97953463541E+02  0.15523603836E+03  0.00000000000E+00 0.  1.
<mgrwt>
<rscale>  0 0.18055330E+04</rscale>
<asrwt>0</asrwt>
<pdfrwt beam="1">  1        2 0.13645255E+00 0.18055330E+04</pdfrwt>
<pdfrwt beam="2">  1       -2 0.14136519E+00 0.18055330E+04</pdfrwt>
<totfact> 0.98880292E+00</totfact>
</mgrwt>
</event>
<event>
12    2  0.3552864E-008  0.3508521E+04  0.7818608E-02  0.8111774E-01
          1   -1    0    0  501    0  0.00000000000E+00  0.00000000000E+00  0.30864638140E+04  0.30864638140E+04  0.00000000000E+00 0. -1.
         -1   -1    0    0    0  501 -0.00000000000E+00 -0.00000000000E+00 -0.99707304839E+03  0.99707304839E+03  0.00000000000E+00 0.  1.
         23    2    1    2    0    0 -0.13212171203E+04  0.92499789213E+03  0.63683734523E+03  0.17362584948E+04  0.88294831215E+02 0.  0.
        254    2    1    2    0    0  0.13212171203E+04 -0.92499789213E+03  0.14525534204E+04  0.23472783676E+04  0.89362660908E+03 0.  0.
         23    2    4    4    0    0  0.12660784568E+04 -0.51576747661E+03  0.13187885043E+04  0.19017025400E+04  0.91097105327E+02 0.  0.
         23    2    4    4    0    0  0.55138663471E+02 -0.40923041551E+03  0.13376491607E+03  0.44557582763E+03  0.10067253947E+03 0.  0.
          2    1    3    3  502    0 -0.96599705536E+03  0.67341703338E+03  0.50659707707E+03  0.12819053827E+04  0.00000000000E+00 0. -1.
         -2    1    3    3    0  502 -0.35522006492E+03  0.25158085875E+03  0.13024026816E+03  0.45435311208E+03  0.00000000000E+00 0.  1.
         11    1    5    5    0    0  0.66646719361E+03 -0.22480228011E+03  0.69690298995E+03  0.99014562702E+03  0.00000000000E+00 0. -1.
        -11    1    5    5    0    0  0.59961126319E+03 -0.29096519651E+03  0.62188551437E+03  0.91155691293E+03  0.00000000000E+00 0.  1.
          3    1    6    6  503    0  0.46259634487E+01 -0.22499210151E+02 -0.15784706975E+02  0.27870611215E+02  0.00000000000E+00 0. -1.
         -3    1    6    6    0  503  0.50512700022E+02 -0.38673120536E+03  0.14954962305E+03  0.41770521641E+03  0.00000000000E+00 0.  1.
<mgrwt>
<rscale>  0 0.35085210E+04</rscale>
<asrwt>0</asrwt>
<pdfrwt beam="1">  1        1 0.47484058E+00 0.35085210E+04</pdfrwt>
<pdfrwt beam="2">  1       -1 0.15339586E+00 0.35085210E+04</pdfrwt>
<totfact> 0.13811468E-01</totfact>
</mgrwt>
</event>
<event>
12    2  0.3552864E-008  0.1531262E+04  0.7818608E-02  0.8863926E-01
          1   -1    0    0  501    0  0.00000000000E+00  0.00000000000E+00  0.76796901862E+03  0.76796901862E+03  0.00000000000E+00 0. -1.
         -1   -1    0    0    0  501 -0.00000000000E+00 -0.00000000000E+00 -0.76330028362E+03  0.76330028362E+03  0.00000000000E+00 0.  1.
         23    2    1    2    0    0  0.19295241155E+03  0.36705436395E+03  0.20562103251E+03  0.47188716560E+03  0.91858308437E+02 0.  0.
        254    2    1    2    0    0 -0.19295241155E+03 -0.36705436395E+03 -0.20095229751E+03  0.10593821366E+04  0.95391254649E+03 0.  0.
         23    2    4    4    0    0  0.29536128223E+03 -0.32483881974E+02  0.17044584063E+03  0.35465190336E+03  0.91829724718E+02 0.  0.
         23    2    4    4    0    0 -0.48831369378E+03 -0.33457048198E+03 -0.37139813814E+03  0.70473023328E+03  0.91216521273E+02 0.  0.
          4    1    3    3  502    0  0.48805224628E+02  0.31647124202E+02  0.15114542936E+02  0.60099416215E+02  0.00000000000E+00 0.  1.
         -4    1    3    3    0  502  0.14414718692E+03  0.33540723975E+03  0.19050648958E+03  0.41178774938E+03  0.00000000000E+00 0. -1.
         11    1    5    5    0    0  0.29127851990E+03 -0.47635144101E+02  0.16432152515E+03  0.33780741072E+03  0.00000000000E+00 0.  1.
        -11    1    5    5    0    0  0.40827623291E+01  0.15151262127E+02  0.61243154741E+01  0.16844492640E+02  0.00000000000E+00 0. -1.
          2    1    6    6  503    0 -0.29366299139E+03 -0.23131922306E+03 -0.19007453681E+03  0.41937437334E+03  0.00000000000E+00 0. -1.
         -2    1    6    6    0  503 -0.19465070238E+03 -0.10325125892E+03 -0.18132360133E+03  0.28535585995E+03  0.00000000000E+00 0.  1.
<mgrwt>
<rscale>  0 0.15312622E+04</rscale>
<asrwt>0</asrwt>
<pdfrwt beam="1">  1        1 0.11814908E+00 0.15312622E+04</pdfrwt>
<pdfrwt beam="2">  1       -1 0.11743081E+00 0.15312622E+04</pdfrwt>
<totfact> 0.14865115E+01</totfact>
</mgrwt>
</event>
<event>
12    2  0.3552864E-008  0.1315343E+04  0.7818608E-02  0.9017486E-01
         -2   -1    0    0    0  501 -0.00000000000E+00  0.00000000000E+00  0.85469550659E+03  0.85469550659E+03  0.00000000000E+00 0. -1.
          2   -1    0    0  501    0  0.00000000000E+00 -0.00000000000E+00 -0.50606557982E+03  0.50606557982E+03  0.00000000000E+00 0.  1.
         23    2    1    2    0    0  0.19415078833E+03 -0.25615711652E+03  0.21169854505E+03  0.39627922039E+03  0.94392529282E+02 0.  0.
        254    2    1    2    0    0 -0.19415078833E+03  0.25615711652E+03  0.13693138172E+03  0.96448186602E+03  0.89897946007E+03 0.  0.
         23    2    4    4    0    0 -0.51306991143E+03  0.27315339424E+03 -0.35131955950E+02  0.59015934684E+03  0.95918139797E+02 0.  0.
         23    2    4    4    0    0  0.31891912310E+03 -0.16996277725E+02  0.17206333767E+03  0.37432251918E+03  0.92267413854E+02 0.  0.
          3    1    3    3  502    0  0.50410588790E+02 -0.67609751611E+02  0.98560507738E+01  0.84908466668E+02  0.00000000000E+00 0. -1.
         -3    1    3    3    0  502  0.14374019954E+03 -0.18854736491E+03  0.20184249428E+03  0.31137075372E+03  0.00000000000E+00 0.  1.
         11    1    5    5    0    0 -0.48078830858E+02  0.23628667871E+02 -0.32074211880E+02  0.62439114262E+02  0.00000000000E+00 0. -1.
        -11    1    5    5    0    0 -0.46499108057E+03  0.24952472637E+03 -0.30577440701E+01  0.52772023258E+03  0.00000000000E+00 0.  1.
          3    1    6    6  503    0  0.11879056704E+03 -0.23072115845E+02  0.11301151334E+03  0.16557512945E+03  0.00000000000E+00 0. -1.
         -3    1    6    6    0  503  0.20012855606E+03  0.60758381199E+01  0.59051824333E+02  0.20874738973E+03  0.00000000000E+00 0.  1.
<mgrwt>
<rscale>  0 0.13153433E+04</rscale>
<asrwt>0</asrwt>
<pdfrwt beam="1">  1        2 0.77856243E-01 0.13153433E+04</pdfrwt>
<pdfrwt beam="2">  1       -2 0.13149162E+00 0.13153433E+04</pdfrwt>
<totfact> 0.25069790E+01</totfact>
</mgrwt>
</event>
<event>
12    2  0.3552864E-008  0.1079778E+04  0.7818608E-02  0.9225129E-01
          1   -1    0    0  501    0  0.00000000000E+00  0.00000000000E+00  0.82453388098E+03  0.82453388098E+03  0.00000000000E+00 0. -1.
         -1   -1    0    0    0  501 -0.00000000000E+00 -0.00000000000E+00 -0.35350895431E+03  0.35350895431E+03  0.00000000000E+00 0.  1.
         23    2    1    2    0    0  0.76065260041E+02  0.45689143561E+02  0.22559408544E+03  0.25627369481E+03  0.83126973008E+02 0.  0.
        254    2    1    2    0    0 -0.76065260041E+02 -0.45689143561E+02  0.24543084123E+03  0.92176914048E+03  0.88405239035E+03 0.  0.
         23    2    4    4    0    0  0.23039677826E+03  0.14716888270E+03 -0.19236494754E+03  0.34621914525E+03  0.90122516780E+02 0.  0.
         23    2    4    4    0    0 -0.30646203830E+03 -0.19285802626E+03  0.43779578876E+03  0.57554999523E+03  0.92083902718E+02 0.  0.
          3    1    3    3  502    0  0.85509242575E+02  0.47565769727E+02  0.22637138461E+03  0.24661374006E+03  0.00000000000E+00 0. -1.
         -3    1    3    3    0  502 -0.94439825341E+01 -0.18766261655E+01 -0.77729916605E+00  0.96599547547E+01  0.00000000000E+00 0.  1.
         11    1    5    5    0    0  0.39800594193E+02  0.35471548249E+02 -0.35615532216E-01  0.53313406399E+02  0.00000000000E+00 0. -1.
        -11    1    5    5    0    0  0.19059618406E+03  0.11169733445E+03 -0.19232933200E+03  0.29290573885E+03  0.00000000000E+00 0.  1.
          2    1    6    6  503    0  0.42531360741E+01 -0.18234292037E+01  0.21842746734E+02  0.22327553503E+02  0.00000000000E+00 0. -1.
         -2    1    6    6    0  503 -0.31071517437E+03 -0.19103459706E+03  0.41595304203E+03  0.55322244173E+03  0.00000000000E+00 0.  1.
<mgrwt>
<rscale>  0 0.10797780E+04</rscale>
<asrwt>0</asrwt>
<pdfrwt beam="1">  1        1 0.12685137E+00 0.10797780E+04</pdfrwt>
<pdfrwt beam="2">  1       -1 0.54385993E-01 0.10797780E+04</pdfrwt>
<totfact> 0.71722497E+01</totfact>
</mgrwt>
</event>
<event>
12    2  0.3552864E-008  0.1969464E+04  0.7818608E-02  0.8621032E-01
          2   -1    0    0  501    0  0.00000000000E+00  0.00000000000E+00  0.22981422333E+04  0.22981422333E+04  0.00000000000E+00 0. -1.
         -2   -1    0    0    0  501 -0.00000000000E+00 -0.00000000000E+00 -0.42194835947E+03  0.42194835947E+03  0.00000000000E+00 0.  1.
         23    2    1    2    0    0  0.29555247404E+03 -0.69826090908E+03  0.50523805269E+03  0.91584658578E+03  0.92681803643E+02 0.  0.
        254    2    1    2    0    0 -0.29555247404E+03  0.69826090908E+03  0.13709558211E+04  0.18042440070E+04  0.89490614660E+03 0.  0.
         23    2    4    4    0    0 -0.39324845228E+02  0.66160620106E+03  0.13751709196E+04  0.15293976038E+04  0.93234990985E+02 0.  0.
         23    2    4    4    0    0 -0.25622762881E+03  0.36654708020E+02 -0.42150985222E+01  0.27484640319E+03  0.92339660505E+02 0.  0.
          2    1    3    3  502    0  0.10697525228E+02 -0.10933353978E+01  0.66287012367E+01  0.12632185416E+02  0.00000000000E+00 0. -1.
         -2    1    3    3    0  502  0.28485494881E+03 -0.69716757368E+03  0.49860935146E+03  0.90321440036E+03  0.00000000000E+00 0.  1.
         11    1    5    5    0    0  0.22997944963E+02  0.27276230393E+03  0.61911727429E+03  0.67693011400E+03  0.00000000000E+00 0. -1.
        -11    1    5    5    0    0 -0.62322790191E+02  0.38884389712E+03  0.75605364535E+03  0.85246748980E+03  0.00000000000E+00 0.  1.
          3    1    6    6  503    0 -0.17322055247E+03  0.59941913095E+02  0.22297896458E+02  0.18464990910E+03  0.00000000000E+00 0. -1.
         -3    1    6    6    0  503 -0.83007076346E+02 -0.23287205075E+02 -0.26512994980E+02  0.90196494092E+02  0.00000000000E+00 0.  1.
<mgrwt>
<rscale>  0 0.19694642E+04</rscale>
<asrwt>0</asrwt>
<pdfrwt beam="1">  1        2 0.35356034E+00 0.19694642E+04</pdfrwt>
<pdfrwt beam="2">  1       -2 0.64915134E-01 0.19694642E+04</pdfrwt>
<totfact> 0.92683579E+00</totfact>
</mgrwt>
</event>
<event>
12    2  0.3552864E-008  0.1744345E+04  0.7818608E-02  0.8736469E-01
          2   -1    0    0  501    0  0.00000000000E+00  0.00000000000E+00  0.49441658281E+03  0.49441658281E+03  0.00000000000E+00 0.  1.
         -2   -1    0    0    0  501 -0.00000000000E+00 -0.00000000000E+00 -0.15385511099E+04  0.15385511099E+04  0.00000000000E+00 0. -1.
         23    2    1    2    0    0 -0.52701851284E+03  0.18443734668E+03 -0.73251270867E+03  0.92560477444E+03  0.91671600719E+02 0.  0.
        254    2    1    2    0    0  0.52701851284E+03 -0.18443734668E+03 -0.31162181839E+03  0.11073629182E+04  0.90409005483E+03 0.  0.
         23    2    4    4    0    0  0.37984958957E+03 -0.46986672587E+03  0.51537484451E+02  0.61365186994E+03  0.94085356995E+02 0.  0.
         23    2    4    4    0    0  0.14716892327E+03  0.28542937920E+03 -0.36315930284E+03  0.49371104829E+03  0.93473512166E+02 0.  0.
          3    1    3    3  502    0 -0.46101181110E+03  0.13276946339E+03 -0.65104039918E+03  0.80871083939E+03  0.00000000000E+00 0. -1.
         -3    1    3    3    0  502 -0.66006701747E+02  0.51667883284E+02 -0.81472309484E+02  0.11689393505E+03  0.00000000000E+00 0.  1.
         11    1    5    5    0    0  0.19329481273E+03 -0.22977068196E+03  0.72450865736E+02  0.30887955397E+03  0.00000000000E+00 0. -1.
        -11    1    5    5    0    0  0.18655477684E+03 -0.24009604391E+03 -0.20913381284E+02  0.30477231597E+03  0.00000000000E+00 0.  1.
          3    1    6    6  503    0  0.14180896997E+03  0.24727712568E+03 -0.35327347135E+03  0.45393601577E+03  0.00000000000E+00 0. -1.
         -3    1    6    6    0  503  0.53599533004E+01  0.38152253518E+02 -0.98858314877E+01  0.39775032522E+02  0.00000000000E+00 0.  1.
<mgrwt>
<rscale>  0 0.17443454E+04</rscale>
<asrwt>0</asrwt>
<pdfrwt beam="1">  1        2 0.76064091E-01 0.17443454E+04</pdfrwt>
<pdfrwt beam="2">  1       -2 0.23670017E+00 0.17443454E+04</pdfrwt>
<totfact> 0.45922766E+00</totfact>
</mgrwt>
</event>
<event>
12    2  0.3552864E-008  0.1645454E+04  0.7818608E-02  0.8793101E-01
         -2   -1    0    0    0  501 -0.00000000000E+00  0.00000000000E+00  0.36290126950E+03  0.36290126950E+03  0.00000000000E+00 0.  1.
          2   -1    0    0  501    0  0.00000000000E+00 -0.00000000000E+00 -0.18651885956E+04  0.18651885956E+04  0.00000000000E+00 0. -1.
         23    2    1    2    0    0  0.39170977386E+03 -0.35946348204E+03 -0.81466189941E+03  0.97671861115E+03  0.87491103337E+02 0.  0.
        254    2    1    2    0    0 -0.39170977386E+03  0.35946348204E+03 -0.68762542671E+03  0.12513712540E+04  0.90025037957E+03 0.  0.
         23    2    4    4    0    0  0.81221558869E+02  0.52020775426E+03 -0.30910697823E+03  0.61763723414E+03  0.93357269624E+02 0.  0.
         23    2    4    4    0    0 -0.47293133273E+03 -0.16074427222E+03 -0.37851844848E+03  0.63373401982E+03  0.94020346197E+02 0.  0.
          3    1    3    3  502    0  0.99779102621E+02 -0.13710839977E+03 -0.30030537029E+03  0.34487374216E+03  0.00000000000E+00 0. -1.
         -3    1    3    3    0  502  0.29193067124E+03 -0.22235508227E+03 -0.51435652912E+03  0.63184486899E+03  0.00000000000E+00 0.  1.
         11    1    5    5    0    0  0.62555559420E+02  0.35443806711E+03 -0.15993573912E+03  0.39385147211E+03  0.00000000000E+00 0.  1.
        -11    1    5    5    0    0  0.18665999449E+02  0.16576968715E+03 -0.14917123911E+03  0.22378576204E+03  0.00000000000E+00 0. -1.
          3    1    6    6  503    0 -0.15030090236E+03 -0.33505371194E+02 -0.68436742715E+02  0.16851278557E+03  0.00000000000E+00 0. -1.
         -3    1    6    6    0  503 -0.32263043038E+03 -0.12723890103E+03 -0.31008170577E+03  0.46522123424E+03  0.00000000000E+00 0.  1.
<mgrwt>
<rscale>  0 0.16454535E+04</rscale>
<asrwt>0</asrwt>
<pdfrwt beam="1">  1        2 0.28695208E+00 0.16454535E+04</pdfrwt>
<pdfrwt beam="2">  1       -2 0.55830966E-01 0.16454535E+04</pdfrwt>
<totfact> 0.22859634E+01</totfact>
</mgrwt>
</event>
<event>
12    2  0.3552864E-008  0.1430969E+04  0.7818608E-02  0.8931702E-01
          2   -1    0    0  501    0  0.00000000000E+00  0.00000000000E+00  0.91644058030E+03  0.91644058030E+03  0.00000000000E+00 0. -1.
         -2   -1    0    0    0  501 -0.00000000000E+00 -0.00000000000E+00 -0.55859381324E+03  0.55859381324E+03  0.00000000000E+00 0.  1.
         23    2    1    2    0    0 -0.13423346418E+03  0.61206744244E+02 -0.30171969801E+03  0.34766508821E+03  0.89840686443E+02 0.  0.
        254    2    1    2    0    0  0.13423346418E+03 -0.61206744244E+02  0.65956646508E+03  0.11273693053E+04  0.90231299464E+03 0.  0.
         23    2    4    4    0    0  0.36843666667E+03  0.29298689125E+03  0.31580934643E+03  0.57382382328E+03  0.89170292570E+02 0.  0.
         23    2    4    4    0    0 -0.23420320249E+03 -0.35419363549E+03  0.34375711865E+03  0.55354548205E+03  0.89103157062E+02 0.  0.
          1    1    3    3  502    0 -0.25785952706E+02 -0.15366939189E+02 -0.19542903297E+02  0.35818755509E+02  0.00000000000E+00 0. -1.
         -1    1    3    3    0  502 -0.10844751148E+03  0.76573683432E+02 -0.28217679472E+03  0.31184633270E+03  0.00000000000E+00 0.  1.
         11    1    5    5    0    0  0.17796299151E+02  0.14506157639E+01  0.32193684529E+02  0.36813664218E+02  0.00000000000E+00 0. -1.
        -11    1    5    5    0    0  0.35064036752E+03  0.29153627549E+03  0.28361566190E+03  0.53701015906E+03  0.00000000000E+00 0.  1.
          4    1    6    6  503    0 -0.17244974911E+03 -0.30607253481E+03  0.30907944099E+03  0.46792030665E+03  0.00000000000E+00 0.  1.
         -4    1    6    6    0  503 -0.61753453375E+02 -0.48121100685E+02  0.34677677663E+02  0.85625175405E+02  0.00000000000E+00 0. -1.
<mgrwt>
<rscale>  0 0.14309690E+04</rscale>
<asrwt>0</asrwt>
<pdfrwt beam="1">  1        2 0.14099086E+00 0.14309690E+04</pdfrwt>
<pdfrwt beam="2">  1       -2 0.85937510E-01 0.14309690E+04</pdfrwt>
<totfact> 0.32627483E+01</totfact>
</mgrwt>
</event>
<event>
12    2  0.3552864E-008  0.1748740E+04  0.7818608E-02  0.8734044E-01
         -2   -1    0    0    0  501 -0.00000000000E+00  0.00000000000E+00  0.31980821953E+03  0.31980821953E+03  0.00000000000E+00 0.  1.
          2   -1    0    0  501    0  0.00000000000E+00 -0.00000000000E+00 -0.23905681151E+04  0.23905681151E+04  0.00000000000E+00 0. -1.
         23    2    1    2    0    0  0.27235463552E+03 -0.23116302394E+03 -0.15890923913E+04  0.16305896077E+04  0.77423830211E+02 0.  0.
        254    2    1    2    0    0 -0.27235463552E+03  0.23116302394E+03 -0.48166750422E+03  0.10797867269E+04  0.89795456446E+03 0.  0.
         23    2    4    4    0    0 -0.35486871528E+03  0.29601017847E+03  0.98675657314E+02  0.48123690743E+03  0.91094702819E+02 0.  0.
         23    2    4    4    0    0  0.82514079760E+02 -0.64847154527E+02 -0.58034316154E+03  0.59854981947E+03  0.10222511645E+03 0.  0.
          1    1    3    3  502    0  0.18822191153E+03 -0.13925546434E+03 -0.11774251713E+04  0.12004789070E+04  0.00000000000E+00 0. -1.
         -1    1    3    3    0  502  0.84132723994E+02 -0.91907559597E+02 -0.41166722007E+03  0.43011070068E+03  0.00000000000E+00 0.  1.
         11    1    5    5    0    0 -0.18068757962E+03  0.20904069340E+03  0.59937292602E+02  0.28273395970E+03  0.00000000000E+00 0.  1.
        -11    1    5    5    0    0 -0.17418113566E+03  0.86969485065E+02  0.38738364712E+02  0.19850294772E+03  0.00000000000E+00 0. -1.
          3    1    6    6  503    0  0.53289448346E+02  0.50707072250E+01 -0.39032199035E+03  0.39397554940E+03  0.00000000000E+00 0. -1.
         -3    1    6    6    0  503  0.29224631414E+02 -0.69917861752E+02 -0.19002117119E+03  0.20457427006E+03  0.00000000000E+00 0.  1.
<mgrwt>
<rscale>  0 0.17487405E+04</rscale>
<asrwt>0</asrwt>
<pdfrwt beam="1">  1        2 0.36777969E+00 0.17487405E+04</pdfrwt>
<pdfrwt beam="2">  1       -2 0.49201267E-01 0.17487405E+04</pdfrwt>
<totfact> 0.14936099E+01</totfact>
</mgrwt>
</event>
<event>
12    2  0.3552864E-008  0.1525597E+04  0.7818608E-02  0.8867607E-01
          1   -1    0    0  501    0  0.00000000000E+00  0.00000000000E+00  0.23072830774E+04  0.23072830774E+04  0.00000000000E+00 0. -1.
         -1   -1    0    0    0  501 -0.00000000000E+00 -0.00000000000E+00 -0.25218470888E+03  0.25218470888E+03  0.00000000000E+00 0.  1.
         23    2    1    2    0    0 -0.32673542918E+03  0.33829385245E+03  0.43581007980E+03  0.64766333420E+03  0.91315921517E+02 0.  0.
        254    2    1    2    0    0  0.32673542918E+03 -0.33829385245E+03  0.16192882887E+04  0.19118044521E+04  0.90094557537E+03 0.  0.
         23    2    4    4    0    0  0.21577927043E+02 -0.59316906728E+03  0.10880227088E+04  0.12422058116E+04  0.83466845150E+02 0.  0.
         23    2    4    4    0    0  0.30515750214E+03  0.25487521483E+03  0.53126557991E+03  0.66959864046E+03  0.89647903886E+02 0.  0.
          1    1    3    3  502    0 -0.10911604566E+03  0.76510953286E+02  0.80996502360E+02  0.15595086017E+03  0.00000000000E+00 0. -1.
         -1    1    3    3    0  502 -0.21761938352E+03  0.26178289916E+03  0.35481357744E+03  0.49171247403E+03  0.00000000000E+00 0.  1.
         11    1    5    5    0    0  0.68227287785E+01 -0.38879928944E+03  0.62849474790E+03  0.73906500745E+03  0.00000000000E+00 0. -1.
        -11    1    5    5    0    0  0.14755198264E+02 -0.20436977784E+03  0.45952796093E+03  0.50314080420E+03  0.00000000000E+00 0.  1.
          3    1    6    6  503    0  0.13486209239E+03  0.16904536722E+03  0.30075579718E+03  0.37042970950E+03  0.00000000000E+00 0. -1.
         -3    1    6    6    0  503  0.17029540975E+03  0.85829847613E+02  0.23050978272E+03  0.29916893096E+03  0.00000000000E+00 0.  1.
<mgrwt>
<rscale>  0 0.15255969E+04</rscale>
<asrwt>0</asrwt>
<pdfrwt beam="1">  1        1 0.35496661E+00 0.15255969E+04</pdfrwt>
<pdfrwt beam="2">  1       -1 0.38797649E-01 0.15255969E+04</pdfrwt>
<totfact> 0.11456880E+01</totfact>
</mgrwt>
</event>
<event>
12    2  0.3552864E-008  0.1961097E+04  0.7818608E-02  0.8625028E-01
          1   -1    0    0  501    0  0.00000000000E+00  0.00000000000E+00  0.17286069059E+04  0.17286069059E+04  0.00000000000E+00 0. -1.
         -1   -1    0    0    0  501 -0.00000000000E+00 -0.00000000000E+00 -0.55621384703E+03  0.55621384703E+03  0.00000000000E+00 0.  1.
         23    2    1    2    0    0  0.24407566368E+03  0.42332448512E+02 -0.38677214021E+03  0.46748949757E+03  0.87113581590E+02 0.  0.
        254    2    1    2    0    0 -0.24407566368E+03 -0.42332448512E+02  0.15591651990E+04  0.18173312553E+04  0.90018431882E+03 0.  0.
         23    2    4    4    0    0  0.29606990705E+03  0.15130466555E+03  0.47960871581E+03  0.59102724896E+03  0.93478323988E+02 0.  0.
         23    2    4    4    0    0 -0.54014557073E+03 -0.19363711407E+03  0.10795564832E+04  0.12263040064E+04  0.95534004342E+02 0.  0.
          3    1    3    3  502    0  0.50971788512E+02  0.17069686797E+02 -0.31400636735E+02  0.62253493226E+02  0.00000000000E+00 0. -1.
         -3    1    3    3    0  502  0.19310387517E+03  0.25262761715E+02 -0.35537150348E+03  0.40523600434E+03  0.00000000000E+00 0.  1.
         11    1    5    5    0    0  0.19960758763E+03  0.11135368201E+03  0.39616031387E+03  0.45736836994E+03  0.00000000000E+00 0. -1.
        -11    1    5    5    0    0  0.96462319428E+02  0.39950983548E+02  0.83448401937E+02  0.13365887902E+03  0.00000000000E+00 0.  1.
          3    1    6    6  503    0 -0.14711328251E+03 -0.61235712288E+02  0.21702482693E+03  0.26924320948E+03  0.00000000000E+00 0. -1.
         -3    1    6    6    0  503 -0.39303228822E+03 -0.13240140178E+03  0.86253165631E+03  0.95706079687E+03  0.00000000000E+00 0.  1.
<mgrwt>
<rscale>  0 0.19610967E+04</rscale>
<asrwt>0</asrwt>
<pdfrwt beam="1">  1        1 0.26593952E+00 0.19610967E+04</pdfrwt>
<pdfrwt beam="2">  1       -1 0.85571362E-01 0.19610967E+04</pdfrwt>
<totfact> 0.57217664E+00</totfact>
</mgrwt>
</event>
<event>
12    2  0.3552864E-008  0.3305110E+04  0.7818608E-02  0.8161596E-01
          1   -1    0    0  501    0  0.00000000000E+00  0.00000000000E+00  0.18548428157E+04  0.18548428157E+04  0.00000000000E+00 0.  1.
         -1   -1    0    0    0  501 -0.00000000000E+00 -0.00000000000E+00 -0.14723288357E+04  0.14723288357E+04  0.00000000000E+00 0. -1.
         23    2    1    2    0    0 -0.13514140816E+03  0.25933064207E+03  0.16855598650E+04  0.17132582072E+04  0.92876498892E+02 0.  0.
        254    2    1    2    0    0  0.13514140816E+03 -0.25933064207E+03 -0.13030458850E+04  0.16139134442E+04  0.90624083166E+03 0.  0.
         23    2    4    4    0    0  0.26359944659E+03  0.25574689550E+03 -0.33449920307E+03  0.50567134017E+03  0.94459751287E+02 0.  0.
         23    2    4    4    0    0 -0.12845803843E+03 -0.51507753757E+03 -0.96854668189E+03  0.11082421040E+04  0.91167696182E+02 0.  0.
          4    1    3    3  502    0 -0.42414954736E+02  0.16155787812E+02  0.30852039759E+03  0.31184110311E+03  0.00000000000E+00 0. -1.
         -4    1    3    3    0  502 -0.92726453426E+02  0.24317485426E+03  0.13770394674E+04  0.14014171041E+04  0.00000000000E+00 0.  1.
         11    1    5    5    0    0  0.10352522254E+03  0.16618063273E+03 -0.17082889554E+03  0.25983838428E+03  0.00000000000E+00 0.  1.
        -11    1    5    5    0    0  0.16007422405E+03  0.89566262774E+02 -0.16367030753E+03  0.24583295588E+03  0.00000000000E+00 0. -1.
          1    1    6    6  503    0 -0.13163660117E+03 -0.42704326389E+03 -0.75653815132E+03  0.87866041131E+03  0.00000000000E+00 0. -1.
         -1    1    6    6    0  503  0.31785627416E+01 -0.88034273682E+02 -0.21200853057E+03  0.22958169274E+03  0.00000000000E+00 0.  1.
<mgrwt>
<rscale>  0 0.33051103E+04</rscale>
<asrwt>0</asrwt>
<pdfrwt beam="1">  1        1 0.28536043E+00 0.33051103E+04</pdfrwt>
<pdfrwt beam="2">  1       -1 0.22651213E+00 0.33051103E+04</pdfrwt>
<totfact> 0.30873279E-01</totfact>
</mgrwt>
</event>
<event>
12    2  0.3552864E-008  0.1627261E+04  0.7818608E-02  0.8803973E-01
         -1   -1    0    0    0  501 -0.00000000000E+00  0.00000000000E+00  0.76914796548E+03  0.76914796548E+03  0.00000000000E+00 0.  1.
          1   -1    0    0  501    0  0.00000000000E+00 -0.00000000000E+00 -0.86068552922E+03  0.86068552922E+03  0.00000000000E+00 0. -1.
         23    2    1    2    0    0  0.25245283887E+03 -0.52552643647E+01 -0.54360494566E+03  0.60684409198E+03  0.94833334686E+02 0.  0.
        254    2    1    2    0    0 -0.25245283887E+03  0.52552643647E+01  0.45206738192E+03  0.10229894027E+04  0.88225979543E+03 0.  0.
         23    2    4    4    0    0 -0.37682966731E+03 -0.30272687779E+03  0.46636710291E+03  0.67795733586E+03  0.92107078289E+02 0.  0.
         23    2    4    4    0    0  0.12437682843E+03  0.30798214216E+03 -0.14299720982E+02  0.34503206687E+03  0.92304115879E+02 0.  0.
          1    1    3    3  502    0  0.25290859687E+03  0.54261460595E+01 -0.53858212536E+03  0.59503185393E+03  0.00000000000E+00 0. -1.
         -1    1    3    3    0  502 -0.45575800155E+00 -0.10681410424E+02 -0.50228203000E+01  0.11812238051E+02  0.00000000000E+00 0.  1.
         11    1    5    5    0    0 -0.21356721778E+02 -0.54402876557E+02  0.55006154341E+02  0.80258703940E+02  0.00000000000E+00 0.  1.
        -11    1    5    5    0    0 -0.35547294553E+03 -0.24832400123E+03  0.41136094856E+03  0.59769863192E+03  0.00000000000E+00 0. -1.
          1    1    6    6  503    0  0.11737176910E+03  0.17063125952E+03 -0.44341492544E+01  0.20714927126E+03  0.00000000000E+00 0. -1.
         -1    1    6    6    0  503  0.70050593376E+01  0.13735088264E+03 -0.98655717279E+01  0.13788279561E+03  0.00000000000E+00 0.  1.
<mgrwt>
<rscale>  0 0.16272609E+04</rscale>
<asrwt>0</asrwt>
<pdfrwt beam="1">  1        1 0.13241316E+00 0.16272609E+04</pdfrwt>
<pdfrwt beam="2">  1       -1 0.11833046E+00 0.16272609E+04</pdfrwt>
<totfact> 0.12035547E+01</totfact>
</mgrwt>
</event>
<event>
12    2  0.3552864E-008  0.1948208E+04  0.7818608E-02  0.8631225E-01
          2   -1    0    0  501    0  0.00000000000E+00  0.00000000000E+00  0.18849989718E+04  0.18849989718E+04  0.00000000000E+00 0. -1.
         -2   -1    0    0    0  501 -0.00000000000E+00 -0.00000000000E+00 -0.50338432193E+03  0.50338432193E+03  0.00000000000E+00 0.  1.
         23    2    1    2    0    0 -0.41971665579E+03  0.55016005325E+03  0.14982536275E+03  0.71389722439E+03  0.91451912693E+02 0.  0.
        254    2    1    2    0    0  0.41971665579E+03 -0.55016005325E+03  0.12317892871E+04  0.16744860693E+04  0.89875502401E+03 0.  0.
         23    2    4    4    0    0  0.39948870520E+03 -0.97772916464E+02  0.11225882067E+04  0.11997235409E+04  0.99907576899E+02 0.  0.
         23    2    4    4    0    0  0.20227950584E+02 -0.45238713679E+03  0.10920108036E+03  0.47476252841E+03  0.91713090196E+02 0.  0.
          1    1    3    3  502    0 -0.11177056517E+03  0.13063831596E+03 -0.14857593545E+01  0.17193381377E+03  0.00000000000E+00 0. -1.
         -1    1    3    3    0  502 -0.30794609061E+03  0.41952173729E+03  0.15131112211E+03  0.54196341062E+03  0.00000000000E+00 0.  1.
         11    1    5    5    0    0  0.35892923029E+03 -0.11664316797E+03  0.97462307131E+03  0.10451439863E+04  0.00000000000E+00 0. -1.
        -11    1    5    5    0    0  0.40559474908E+02  0.18870251508E+02  0.14796513541E+03  0.15457955458E+03  0.00000000000E+00 0.  1.
          1    1    6    6  503    0 -0.33724256679E+02 -0.23462298910E+03  0.43508592537E+02  0.24099433630E+03  0.00000000000E+00 0. -1.
         -1    1    6    6    0  503  0.53952207263E+02 -0.21776414768E+03  0.65692487818E+02  0.23376819211E+03  0.00000000000E+00 0.  1.
<mgrwt>
<rscale>  0 0.19482083E+04</rscale>
<asrwt>0</asrwt>
<pdfrwt beam="1">  1        2 0.28999984E+00 0.19482083E+04</pdfrwt>
<pdfrwt beam="2">  1       -2 0.77443743E-01 0.19482083E+04</pdfrwt>
<totfact> 0.10735545E+01</totfact>
</mgrwt>
</event>
<event>
12    2  0.3552864E-008  0.2179926E+04  0.7818608E-02  0.8526830E-01
         -2   -1    0    0    0  501 -0.00000000000E+00  0.00000000000E+00  0.44156055047E+03  0.44156055047E+03  0.00000000000E+00 0.  1.
          2   -1    0    0  501    0  0.00000000000E+00 -0.00000000000E+00 -0.26905021899E+04  0.26905021899E+04  0.00000000000E+00 0. -1.
         23    2    1    2    0    0 -0.59087944162E+03 -0.44506523137E+03 -0.20031510522E+03  0.77185766109E+03  0.91741663947E+02 0.  0.
        254    2    1    2    0    0  0.59087944162E+03  0.44506523137E+03 -0.20486265342E+04  0.23602050792E+04  0.90910712505E+03 0.  0.
         23    2    4    4    0    0  0.68070487960E+03  0.12353571943E+02 -0.94825401036E+03  0.11708709211E+04  0.90781616614E+02 0.  0.
         23    2    4    4    0    0 -0.89825437980E+02  0.43271165943E+03 -0.11003725238E+04  0.11893341581E+04  0.91586347090E+02 0.  0.
          2    1    3    3  502    0 -0.27781417540E+03 -0.21530813996E+03 -0.48068358316E+02  0.35475185448E+03  0.00000000000E+00 0.  1.
         -2    1    3    3    0  502 -0.31306526622E+03 -0.22975709141E+03 -0.15224674690E+03  0.41710580661E+03  0.00000000000E+00 0. -1.
         11    1    5    5    0    0  0.59249858727E+03 -0.78796316902E+01 -0.77684183561E+03  0.97703628492E+03  0.00000000000E+00 0.  1.
        -11    1    5    5    0    0  0.88206292330E+02  0.20233203633E+02 -0.17141217475E+03  0.19383463620E+03  0.00000000000E+00 0. -1.
          4    1    6    6  503    0 -0.78361709774E+02  0.18367530070E+03 -0.55006166371E+03  0.58518801041E+03  0.00000000000E+00 0. -1.
         -4    1    6    6    0  503 -0.11463728206E+02  0.24903635873E+03 -0.55031086010E+03  0.60414614770E+03  0.00000000000E+00 0.  1.
<mgrwt>
<rscale>  0 0.21799263E+04</rscale>
<asrwt>0</asrwt>
<pdfrwt beam="1">  1        2 0.41392340E+00 0.21799263E+04</pdfrwt>
<pdfrwt beam="2">  1       -2 0.67932395E-01 0.21799263E+04</pdfrwt>
<totfact> 0.48902797E+00</totfact>
</mgrwt>
</event>
<event>
12    2  0.3552864E-008  0.2488512E+04  0.7818608E-02  0.8407090E-01
         -1   -1    0    0    0  501 -0.00000000000E+00  0.00000000000E+00  0.17244364760E+04  0.17244364760E+04  0.00000000000E+00 0. -1.
          1   -1    0    0  501    0  0.00000000000E+00 -0.00000000000E+00 -0.89778511759E+03  0.89778511759E+03  0.00000000000E+00 0.  1.
         23    2    1    2    0    0 -0.84918969526E+03  0.49588592601E+03 -0.10903339196E+03  0.99322514537E+03  0.87074213720E+02 0.  0.
        254    2    1    2    0    0  0.84918969526E+03 -0.49588592601E+03  0.93568475036E+03  0.16289964482E+04  0.90060950811E+03 0.  0.
         23    2    4    4    0    0  0.56104758514E+03 -0.34832806652E+03  0.10752716872E+04  0.12651190084E+04  0.90609433352E+02 0.  0.
         23    2    4    4    0    0  0.28814211011E+03 -0.14755785949E+03 -0.13958693680E+03  0.36387743984E+03  0.90128135359E+02 0.  0.
          2    1    3    3  502    0 -0.23329196924E+03  0.11421096271E+03 -0.62485971819E+02  0.26715872359E+03  0.00000000000E+00 0. -1.
         -2    1    3    3    0  502 -0.61589772602E+03  0.38167496330E+03 -0.46547420139E+02  0.72606642179E+03  0.00000000000E+00 0.  1.
         11    1    5    5    0    0  0.43157358322E+03 -0.31044869440E+03  0.85231153108E+03  0.10045243131E+04  0.00000000000E+00 0.  1.
        -11    1    5    5    0    0  0.12947400193E+03 -0.37879372119E+02  0.22296015608E+03  0.26059469528E+03  0.00000000000E+00 0. -1.
          1    1    6    6  503    0  0.92802479756E+02 -0.61025052488E+02 -0.46123508382E+01  0.11116488232E+03  0.00000000000E+00 0. -1.
         -1    1    6    6    0  503  0.19533963035E+03 -0.86532807000E+02 -0.13497458597E+03  0.25271255753E+03  0.00000000000E+00 0.  1.
<mgrwt>
<rscale>  0 0.24885123E+04</rscale>
<asrwt>0</asrwt>
<pdfrwt beam="1">  1        1 0.13812079E+00 0.24885123E+04</pdfrwt>
<pdfrwt beam="2">  1       -1 0.26529792E+00 0.24885123E+04</pdfrwt>
<totfact> 0.90073177E-01</totfact>
</mgrwt>
</event>
<event>
12    2  0.3552864E-008  0.2272749E+04  0.7818608E-02  0.8488744E-01
         -1   -1    0    0    0  501 -0.00000000000E+00  0.00000000000E+00  0.10481148130E+04  0.10481148130E+04  0.00000000000E+00 0.  1.
          1   -1    0    0  501    0  0.00000000000E+00 -0.00000000000E+00 -0.12320660236E+04  0.12320660236E+04  0.00000000000E+00 0. -1.
         23    2    1    2    0    0 -0.94541543878E+02  0.29282349698E+02  0.87403389822E+03  0.88433982935E+03  0.91247569969E+02 0.  0.
        254    2    1    2    0    0  0.94541543878E+02 -0.29282349698E+02 -0.10579851088E+04  0.13958410072E+04  0.90512102372E+03 0.  0.
         23    2    4    4    0    0  0.26612030269E+03 -0.39538784988E+03 -0.67707802983E+03  0.83309507137E+03  0.91984629854E+02 0.  0.
         23    2    4    4    0    0 -0.17157875881E+03  0.36610550018E+03 -0.38090707893E+03  0.56274593586E+03  0.90112584062E+02 0.  0.
          1    1    3    3  502    0 -0.34755536677E+02  0.30347432486E+02  0.13070824157E+03  0.13861298064E+03  0.00000000000E+00 0. -1.
         -1    1    3    3    0  502 -0.59786007201E+02 -0.10650827885E+01  0.74332565665E+03  0.74572684871E+03  0.00000000000E+00 0.  1.
         11    1    5    5    0    0  0.14700299030E+03 -0.29334904938E+03 -0.47432247239E+03  0.57675415191E+03  0.00000000000E+00 0. -1.
        -11    1    5    5    0    0  0.11911731239E+03 -0.10203880050E+03 -0.20275555743E+03  0.25634091946E+03  0.00000000000E+00 0.  1.
          3    1    6    6  503    0 -0.10541524149E+03  0.28661545243E+03 -0.24245219718E+03  0.38992801723E+03  0.00000000000E+00 0. -1.
         -3    1    6    6    0  503 -0.66163517319E+02  0.79490047759E+02 -0.13845488175E+03  0.17281791862E+03  0.00000000000E+00 0.  1.
<mgrwt>
<rscale>  0 0.22727487E+04</rscale>
<asrwt>0</asrwt>
<pdfrwt beam="1">  1        1 0.18954862E+00 0.22727487E+04</pdfrwt>
<pdfrwt beam="2">  1       -1 0.16124843E+00 0.22727487E+04</pdfrwt>
<totfact> 0.26234308E+00</totfact>
</mgrwt>
</event>
<event>
12    2  0.3552864E-008  0.1445584E+04  0.7818608E-02  0.8921468E-01
          2   -1    0    0  501    0  0.00000000000E+00  0.00000000000E+00  0.32505874966E+04  0.32505874966E+04  0.00000000000E+00 0.  1.
         -2   -1    0    0    0  501 -0.00000000000E+00 -0.00000000000E+00 -0.16071812669E+03  0.16071812669E+03  0.00000000000E+00 0. -1.
         23    2    1    2    0    0 -0.42512063511E+03 -0.59229339393E+02  0.78468688255E+03  0.89925302457E+03  0.93203162544E+02 0.  0.
        254    2    1    2    0    0  0.42512063511E+03  0.59229339393E+02  0.23051824873E+04  0.25120525987E+04  0.90128036128E+03 0.  0.
         23    2    4    4    0    0 -0.62258056742E+02 -0.29729987195E+03  0.12810763453E+04  0.13198211554E+04  0.92238822424E+02 0.  0.
         23    2    4    4    0    0  0.48737869185E+03  0.35652921134E+03  0.10241061420E+04  0.11922314433E+04  0.89282452447E+02 0.  0.
          1    1    3    3  502    0 -0.43068537548E+02  0.21614503578E+02  0.10075913579E+03  0.11168925256E+03  0.00000000000E+00 0. -1.
         -1    1    3    3    0  502 -0.38205209756E+03 -0.80843842971E+02  0.68392774676E+03  0.78756377201E+03  0.00000000000E+00 0.  1.
         11    1    5    5    0    0 -0.78988440012E+02 -0.28728405495E+03  0.12018199709E+04  0.12382013343E+04  0.00000000000E+00 0.  1.
        -11    1    5    5    0    0  0.16730383269E+02 -0.10015817002E+02  0.79256374429E+02  0.81619821135E+02  0.00000000000E+00 0. -1.
          3    1    6    6  503    0  0.10742802693E+03  0.45157166859E+02  0.15524494061E+03  0.19411579605E+03  0.00000000000E+00 0. -1.
         -3    1    6    6    0  503  0.37995066492E+03  0.31137204448E+03  0.86886120143E+03  0.99811564721E+03  0.00000000000E+00 0.  1.
<mgrwt>
<rscale>  0 0.14455841E+04</rscale>
<asrwt>0</asrwt>
<pdfrwt beam="1">  1        2 0.50009033E+00 0.14455841E+04</pdfrwt>
<pdfrwt beam="2">  1       -2 0.24725868E-01 0.14455841E+04</pdfrwt>
<totfact> 0.17256878E+01</totfact>
</mgrwt>
</event>
<event>
12    2  0.3552864E-008  0.1265236E+04  0.7818608E-02  0.9057597E-01
          1   -1    0    0  501    0  0.00000000000E+00  0.00000000000E+00  0.49076384043E+03  0.49076384043E+03  0.00000000000E+00 0. -1.
         -1   -1    0    0    0  501 -0.00000000000E+00 -0.00000000000E+00 -0.81547528151E+03  0.81547528151E+03  0.00000000000E+00 0.  1.
         23    2    1    2    0    0  0.30493008400E+03 -0.27916582061E+02 -0.36860431503E+02  0.32148349365E+03  0.90726256355E+02 0.  0.
        254    2    1    2    0    0 -0.30493008400E+03  0.27916582061E+02 -0.28785100958E+03  0.98475562829E+03  0.89057495589E+03 0.  0.
         23    2    4    4    0    0 -0.60145210610E+03  0.19822271856E+02 -0.29377796784E+03  0.67599033197E+03  0.92303175087E+02 0.  0.
         23    2    4    4    0    0  0.29652202210E+03  0.80943102042E+01  0.59269582585E+01  0.30876529633E+03  0.85498841722E+02 0.  0.
          1    1    3    3  502    0  0.22112618378E+03 -0.10963101709E+02  0.14274915182E+02  0.22185750372E+03  0.00000000000E+00 0. -1.
         -1    1    3    3    0  502  0.83803900222E+02 -0.16953480352E+02 -0.51135346685E+02  0.99625989928E+02  0.00000000000E+00 0.  1.
         11    1    5    5    0    0 -0.21292833358E+03 -0.10789433326E+02 -0.14958589914E+03  0.26044352235E+03  0.00000000000E+00 0.  1.
        -11    1    5    5    0    0 -0.38852377252E+03  0.30611705182E+02 -0.14419206870E+03  0.41554680962E+03  0.00000000000E+00 0. -1.
          4    1    6    6  503    0  0.26680805901E+03  0.27808187627E+02 -0.12662133865E+02  0.26855197874E+03  0.00000000000E+00 0. -1.
         -4    1    6    6    0  503  0.29713963089E+02 -0.19713877423E+02  0.18589092123E+02  0.40213317589E+02  0.00000000000E+00 0.  1.
<mgrwt>
<rscale>  0 0.12652364E+04</rscale>
<asrwt>0</asrwt>
<pdfrwt beam="1">  1        1 0.75502131E-01 0.12652364E+04</pdfrwt>
<pdfrwt beam="2">  1       -1 0.12545773E+00 0.12652364E+04</pdfrwt>
<totfact> 0.24851494E+01</totfact>
</mgrwt>
</event>
<event>
12    2  0.3552864E-008  0.1272758E+04  0.7818608E-02  0.9051452E-01
          1   -1    0    0  501    0  0.00000000000E+00  0.00000000000E+00  0.15333900492E+04  0.15333900492E+04  0.00000000000E+00 0. -1.
         -1   -1    0    0    0  501 -0.00000000000E+00 -0.00000000000E+00 -0.26410641737E+03  0.26410641737E+03  0.00000000000E+00 0.  1.
         23    2    1    2    0    0 -0.70798194190E+02 -0.28609851441E+03  0.25438185575E+03  0.40810039537E+03  0.12235628272E+03 0.  0.
        254    2    1    2    0    0  0.70798194190E+02  0.28609851441E+03  0.10149017761E+04  0.13893960712E+04  0.90195957968E+03 0.  0.
         23    2    4    4    0    0 -0.26679828764E+03  0.19146247791E+03  0.33903228662E+02  0.34321088743E+03  0.93835375029E+02 0.  0.
         23    2    4    4    0    0  0.33759648183E+03  0.94636036501E+02  0.98099854746E+03  0.10461851838E+04  0.96010024291E+02 0.  0.
          2    1    3    3  502    0 -0.47139728049E+02 -0.23987364477E+03  0.25877678200E+03  0.35598727831E+03  0.00000000000E+00 0. -1.
         -2    1    3    3    0  502 -0.23658466141E+02 -0.46224869636E+02 -0.43949262535E+01  0.52113117061E+02  0.00000000000E+00 0.  1.
         11    1    5    5    0    0 -0.16497511721E+03  0.13734060114E+03 -0.20636202554E+02  0.21565037184E+03  0.00000000000E+00 0. -1.
        -11    1    5    5    0    0 -0.10182317042E+03  0.54121876768E+02  0.54539431216E+02  0.12756051559E+03  0.00000000000E+00 0.  1.
          3    1    6    6  503    0  0.21189874686E+03  0.31611985118E+02  0.69863728908E+03  0.73074924442E+03  0.00000000000E+00 0. -1.
         -3    1    6    6    0  503  0.12569773496E+03  0.63024051383E+02  0.28236125838E+03  0.31543593940E+03  0.00000000000E+00 0.  1.
<mgrwt>
<rscale>  0 0.12727579E+04</rscale>
<asrwt>0</asrwt>
<pdfrwt beam="1">  1        1 0.23590616E+00 0.12727579E+04</pdfrwt>
<pdfrwt beam="2">  1       -1 0.40631757E-01 0.12727579E+04</pdfrwt>
<totfact> 0.36133526E+01</totfact>
</mgrwt>
</event>
<event>
12    2  0.3552864E-008  0.2130477E+04  0.7818608E-02  0.8547935E-01
          2   -1    0    0  501    0  0.00000000000E+00  0.00000000000E+00  0.86804983218E+03  0.86804983218E+03  0.00000000000E+00 0. -1.
         -2   -1    0    0    0  501 -0.00000000000E+00 -0.00000000000E+00 -0.13072215162E+04  0.13072215162E+04  0.00000000000E+00 0.  1.
         23    2    1    2    0    0  0.73387441522E+02  0.60308140166E+03 -0.81666487942E+03  0.10218823572E+04  0.90604266299E+02 0.  0.
        254    2    1    2    0    0 -0.73387441522E+02 -0.60308140166E+03  0.37749319542E+03  0.11533889912E+04  0.90482714302E+03 0.  0.
         23    2    4    4    0    0 -0.11506936359E+03  0.21352676583E+03  0.34716552995E+02  0.26205348933E+03  0.92909386269E+02 0.  0.
         23    2    4    4    0    0  0.41681922066E+02 -0.81660816749E+03  0.34277664242E+03  0.89133550183E+03  0.91634428048E+02 0.  0.
          3    1    3    3  502    0 -0.62196816461E+01  0.24611997529E+03 -0.28565265233E+03  0.37710895569E+03  0.00000000000E+00 0. -1.
         -3    1    3    3    0  502  0.79607123168E+02  0.35696142637E+03 -0.53101222709E+03  0.64477340151E+03  0.00000000000E+00 0.  1.
         11    1    5    5    0    0 -0.10996482758E+03  0.21716370348E+03  0.47322549490E+02  0.24797532358E+03  0.00000000000E+00 0. -1.
        -11    1    5    5    0    0 -0.51045360068E+01 -0.36369376500E+01 -0.12605996495E+02  0.14078165752E+02  0.00000000000E+00 0.  1.
          3    1    6    6  503    0  0.43239992763E+01 -0.70394733448E+03  0.28758430704E+03  0.76043755848E+03  0.00000000000E+00 0. -1.
         -3    1    6    6    0  503  0.37357922790E+02 -0.11266083301E+03  0.55192335383E+02  0.13089794335E+03  0.00000000000E+00 0.  1.
<mgrwt>
<rscale>  0 0.21304773E+04</rscale>
<asrwt>0</asrwt>
<pdfrwt beam="1">  1        2 0.13354613E+00 0.21304773E+04</pdfrwt>
<pdfrwt beam="2">  1       -2 0.20111100E+00 0.21304773E+04</pdfrwt>
<totfact> 0.37057058E+00</totfact>
</mgrwt>
</event>
<event>
12    2  0.3552864E-008  0.1900894E+04  0.7818608E-02  0.8654411E-01
          1   -1    0    0  501    0  0.00000000000E+00  0.00000000000E+00  0.16367985250E+04  0.16367985250E+04  0.00000000000E+00 0. -1.
         -1   -1    0    0    0  501 -0.00000000000E+00 -0.00000000000E+00 -0.55190030891E+03  0.55190030891E+03  0.00000000000E+00 0.  1.
         23    2    1    2    0    0 -0.17875464011E+03  0.47223002063E+02  0.12605073819E+04  0.12773493427E+04  0.92516214538E+02 0.  0.
        254    2    1    2    0    0  0.17875464011E+03 -0.47223002063E+02 -0.17560916586E+03  0.91134949125E+03  0.87494918869E+03 0.  0.
         23    2    4    4    0    0  0.39819174995E+03 -0.13420200921E+03 -0.38982914845E+03  0.58036637268E+03  0.91057742911E+02 0.  0.
         23    2    4    4    0    0 -0.21943710985E+03  0.86979007147E+02  0.21421998259E+03  0.33098311858E+03  0.89115828998E+02 0.  0.
          2    1    3    3  502    0 -0.13163593164E+03  0.73614401590E+02  0.99928788195E+03  0.10106054471E+04  0.00000000000E+00 0. -1.
         -2    1    3    3    0  502 -0.47118708473E+02 -0.26391399527E+02  0.26121950000E+03  0.26674389559E+03  0.00000000000E+00 0.  1.
         11    1    5    5    0    0  0.34890147902E+03 -0.14390513027E+03 -0.36189873827E+03  0.52288777509E+03  0.00000000000E+00 0. -1.
        -11    1    5    5    0    0  0.49290270935E+02  0.97031210635E+01 -0.27930410180E+02  0.57478597582E+02  0.00000000000E+00 0.  1.
          3    1    6    6  503    0 -0.10564438171E+03  0.71928270050E+02  0.66997012315E+02  0.14430180553E+03  0.00000000000E+00 0. -1.
         -3    1    6    6    0  503 -0.11379272813E+03  0.15050737097E+02  0.14722297028E+03  0.18668131305E+03  0.00000000000E+00 0.  1.
<mgrwt>
<rscale>  0 0.19008941E+04</rscale>
<asrwt>0</asrwt>
<pdfrwt beam="1">  1        1 0.25181515E+00 0.19008941E+04</pdfrwt>
<pdfrwt beam="2">  1       -1 0.84907741E-01 0.19008941E+04</pdfrwt>
<totfact> 0.67588313E+00</totfact>
</mgrwt>
</event>
<event>
12    2  0.3552864E-008  0.1320427E+04  0.7818608E-02  0.9013521E-01
          2   -1    0    0  501    0  0.00000000000E+00  0.00000000000E+00  0.14163507696E+04  0.14163507696E+04  0.00000000000E+00 0. -1.
         -2   -1    0    0    0  501 -0.00000000000E+00 -0.00000000000E+00 -0.30774996698E+03  0.30774996698E+03  0.00000000000E+00 0.  1.
         23    2    1    2    0    0 -0.20094458318E+03  0.10645995232E+03 -0.37377973403E+02  0.24877066313E+03  0.93687154820E+02 0.  0.
        254    2    1    2    0    0  0.20094458318E+03 -0.10645995232E+03  0.11459787761E+04  0.14753300735E+04  0.90089900854E+03 0.  0.
         23    2    4    4    0    0 -0.32815119519E+03  0.90407549953E+02  0.37194063025E+03  0.51310694455E+03  0.95300430828E+02 0.  0.
         23    2    4    4    0    0  0.52909577837E+03 -0.19686750227E+03  0.77403814582E+03  0.96222312895E+03  0.89661265625E+02 0.  0.
          4    1    3    3  502    0 -0.27939788384E+02  0.32186977498E+02  0.26224660613E+02  0.50043642151E+02  0.00000000000E+00 0. -1.
         -4    1    3    3    0  502 -0.17300479480E+03  0.74272974820E+02 -0.63602634016E+02  0.19872702097E+03  0.00000000000E+00 0.  1.
         11    1    5    5    0    0 -0.22015252966E+03  0.13204122928E+02  0.23968831257E+03  0.32571762672E+03  0.00000000000E+00 0.  1.
        -11    1    5    5    0    0 -0.10799866554E+03  0.77203427025E+02  0.13225231768E+03  0.18738931782E+03  0.00000000000E+00 0. -1.
          4    1    6    6  503    0  0.36830635893E+03 -0.16964615528E+03  0.50545269916E+03  0.64800603633E+03  0.00000000000E+00 0. -1.
         -4    1    6    6    0  503  0.16078941944E+03 -0.27221346995E+02  0.26858544666E+03  0.31421709262E+03  0.00000000000E+00 0.  1.
<mgrwt>
<rscale>  0 0.13204271E+04</rscale>
<asrwt>0</asrwt>
<pdfrwt beam="1">  1        2 0.21790012E+00 0.13204271E+04</pdfrwt>
<pdfrwt beam="2">  1       -2 0.47346149E-01 0.13204271E+04</pdfrwt>
<totfact> 0.58587390E+01</totfact>
</mgrwt>
</event>
<event>
12    2  0.3552864E-008  0.1182483E+04  0.7818608E-02  0.9128329E-01
          2   -1    0    0  501    0  0.00000000000E+00  0.00000000000E+00  0.53384975663E+03  0.53384975663E+03  0.00000000000E+00 0. -1.
         -2   -1    0    0    0  501 -0.00000000000E+00 -0.00000000000E+00 -0.65480347870E+03  0.65480347870E+03  0.00000000000E+00 0.  1.
         23    2    1    2    0    0 -0.17367013878E+03 -0.19386199160E+03 -0.75660593011E+02  0.28594285609E+03  0.91076905529E+02 0.  0.
        254    2    1    2    0    0  0.17367013878E+03  0.19386199160E+03 -0.45293129061E+02  0.90271037924E+03  0.86318640649E+03 0.  0.
         23    2    4    4    0    0  0.27923300719E+03  0.39743779885E+03 -0.27526174504E+03  0.56567251104E+03  0.91041118185E+02 0.  0.
         23    2    4    4    0    0 -0.10556286841E+03 -0.20357580725E+03  0.22996861598E+03  0.33703786820E+03  0.90123980042E+02 0.  0.
          3    1    3    3  502    0 -0.70223187402E+02 -0.91415815740E+02  0.12164385702E+02  0.11591427736E+03  0.00000000000E+00 0. -1.
         -3    1    3    3    0  502 -0.10344695138E+03 -0.10244617586E+03 -0.87824978713E+02  0.17002857873E+03  0.00000000000E+00 0.  1.
         11    1    5    5    0    0  0.22559900748E+00  0.28625916268E+02 -0.24233564211E+01  0.28729194792E+02  0.00000000000E+00 0. -1.
        -11    1    5    5    0    0  0.27900740818E+03  0.36881188259E+03 -0.27283838862E+03  0.53694331625E+03  0.00000000000E+00 0.  1.
          1    1    6    6  503    0 -0.64149244657E+01 -0.61429680866E+01  0.53635582783E+02  0.54366010091E+02  0.00000000000E+00 0. -1.
         -1    1    6    6    0  503 -0.99147943944E+02 -0.19743283916E+03  0.17633303320E+03  0.28267185811E+03  0.00000000000E+00 0.  1.
<mgrwt>
<rscale>  0 0.11824833E+04</rscale>
<asrwt>0</asrwt>
<pdfrwt beam="1">  1        2 0.82130732E-01 0.11824833E+04</pdfrwt>
<pdfrwt beam="2">  1       -2 0.10073900E+00 0.11824833E+04</pdfrwt>
<totfact> 0.45735796E+01</totfact>
</mgrwt>
</event>
<event>
12    2  0.3552864E-008  0.1962974E+04  0.7818608E-02  0.8624130E-01
          2   -1    0    0  501    0  0.00000000000E+00  0.00000000000E+00  0.22533081894E+04  0.22533081894E+04  0.00000000000E+00 0. -1.
         -2   -1    0    0    0  501 -0.00000000000E+00 -0.00000000000E+00 -0.42751238639E+03  0.42751238639E+03  0.00000000000E+00 0.  1.
         23    2    1    2    0    0 -0.21231903315E+03  0.51852004607E+03  0.14563149760E+04  0.15629708102E+04  0.89900136231E+02 0.  0.
        254    2    1    2    0    0  0.21231903315E+03 -0.51852004607E+03  0.36948082701E+03  0.11178497655E+04  0.89394049391E+03 0.  0.
         23    2    4    4    0    0 -0.11108060864E+03  0.15436715376E+03  0.29528699656E+03  0.36201841007E+03  0.87720004076E+02 0.  0.
         23    2    4    4    0    0  0.32339964179E+03 -0.67288719983E+03  0.74193830454E+02  0.75583135542E+03  0.91715872974E+02 0.  0.
          3    1    3    3  502    0 -0.20882643151E+03  0.47666331654E+03  0.12804757164E+04  0.13821846679E+04  0.00000000000E+00 0. -1.
         -3    1    3    3    0  502 -0.34926016417E+01  0.41856729531E+02  0.17583925954E+03  0.18078614236E+03  0.00000000000E+00 0.  1.
         11    1    5    5    0    0 -0.11069207494E+03  0.85991137782E+02  0.18238684208E+03  0.23002645804E+03  0.00000000000E+00 0. -1.
        -11    1    5    5    0    0 -0.38853369159E+00  0.68376015979E+02  0.11290015447E+03  0.13199195203E+03  0.00000000000E+00 0.  1.
          2    1    6    6  503    0  0.14357678698E+03 -0.40351127830E+03  0.40880198560E+02  0.43024043988E+03  0.00000000000E+00 0.  1.
         -2    1    6    6    0  503  0.17982285481E+03 -0.26937592153E+03  0.33313631894E+02  0.32559091554E+03  0.00000000000E+00 0. -1.
<mgrwt>
<rscale>  0 0.19629744E+04</rscale>
<asrwt>0</asrwt>
<pdfrwt beam="1">  1        2 0.34666279E+00 0.19629744E+04</pdfrwt>
<pdfrwt beam="2">  1       -2 0.65771138E-01 0.19629744E+04</pdfrwt>
<totfact> 0.95574580E+00</totfact>
</mgrwt>
</event>
<event>
12    2  0.3552864E-008  0.1294123E+04  0.7818608E-02  0.9034238E-01
         -1   -1    0    0    0  501 -0.00000000000E+00  0.00000000000E+00  0.30822316357E+03  0.30822316357E+03  0.00000000000E+00 0.  1.
          1   -1    0    0  501    0  0.00000000000E+00 -0.00000000000E+00 -0.13583951092E+04  0.13583951092E+04  0.00000000000E+00 0. -1.
         23    2    1    2    0    0  0.18889938417E+03  0.60491940274E+02 -0.60528368882E+03  0.64355422515E+03  0.91931738725E+02 0.  0.
        254    2    1    2    0    0 -0.18889938417E+03 -0.60491940274E+02 -0.44488825678E+03  0.10230640476E+04  0.89966228790E+03 0.  0.
         23    2    4    4    0    0 -0.15682582159E+03 -0.33585334403E+03  0.10873377496E+03  0.39731541755E+03  0.92976879919E+02 0.  0.
         23    2    4    4    0    0 -0.32073562581E+02  0.27536140375E+03 -0.55362203174E+03  0.62574863003E+03  0.90616653343E+02 0.  0.
          1    1    3    3  502    0  0.13381474552E+03  0.84718951783E+02 -0.43167677510E+03  0.45981357643E+03  0.00000000000E+00 0. -1.
         -1    1    3    3    0  502  0.55084638650E+02 -0.24227011510E+02 -0.17360691371E+03  0.18374064872E+03  0.00000000000E+00 0.  1.
         11    1    5    5    0    0 -0.99626499181E+02 -0.13222579967E+03  0.79971172318E+02  0.18385997346E+03  0.00000000000E+00 0.  1.
        -11    1    5    5    0    0 -0.57199322404E+02 -0.20362754436E+03  0.28762602643E+02  0.21345544410E+03  0.00000000000E+00 0. -1.
          3    1    6    6  503    0 -0.45529659826E+02  0.26879566793E+03 -0.49356351421E+03  0.56385193410E+03  0.00000000000E+00 0. -1.
         -3    1    6    6    0  503  0.13456097245E+02  0.65657358217E+01 -0.60058517524E+02  0.61896695931E+02  0.00000000000E+00 0.  1.
<mgrwt>
<rscale>  0 0.12941234E+04</rscale>
<asrwt>0</asrwt>
<pdfrwt beam="1">  1        1 0.20898387E+00 0.12941234E+04</pdfrwt>
<pdfrwt beam="2">  1       -1 0.47418947E-01 0.12941234E+04</pdfrwt>
<totfact> 0.35855052E+01</totfact>
</mgrwt>
</event>
<event>
12    2  0.3552864E-008  0.2232965E+04  0.7818608E-02  0.8504831E-01
         -1   -1    0    0    0  501 -0.00000000000E+00  0.00000000000E+00  0.11232755873E+04  0.11232755873E+04  0.00000000000E+00 0.  1.
          1   -1    0    0  501    0  0.00000000000E+00 -0.00000000000E+00 -0.11097303274E+04  0.11097303274E+04  0.00000000000E+00 0. -1.
         23    2    1    2    0    0  0.14556526245E+03  0.39628635497E+03 -0.82355955861E+03  0.92996511687E+03  0.91392840241E+02 0.  0.
        254    2    1    2    0    0 -0.14556526245E+03 -0.39628635497E+03  0.83710481851E+03  0.13030407978E+04  0.90495233181E+03 0.  0.
         23    2    4    4    0    0  0.23094614255E+03 -0.25177605650E+03 -0.17213502937E+02  0.35404308115E+03  0.91229903185E+02 0.  0.
         23    2    4    4    0    0 -0.37651140501E+03 -0.14451029847E+03  0.85431832145E+03  0.94899771668E+03  0.89960032441E+02 0.  0.
          4    1    3    3  502    0  0.11415086597E+03  0.25953845093E+03 -0.46112999878E+03  0.54132384345E+03  0.00000000000E+00 0. -1.
         -4    1    3    3    0  502  0.31414396480E+02  0.13674790404E+03 -0.36242955983E+03  0.38864127342E+03  0.00000000000E+00 0.  1.
         11    1    5    5    0    0  0.22485163461E+03 -0.25197785707E+03 -0.20731480803E+01  0.33772088473E+03  0.00000000000E+00 0.  1.
        -11    1    5    5    0    0  0.60945079401E+01  0.20180056918E+00 -0.15140354856E+02  0.16322196411E+02  0.00000000000E+00 0. -1.
          1    1    6    6  503    0 -0.13478165826E+03 -0.85844544444E+01  0.30848860498E+03  0.33675660003E+03  0.00000000000E+00 0.  1.
         -1    1    6    6    0  503 -0.24172974674E+03 -0.13592584402E+03  0.54582971647E+03  0.61224111665E+03  0.00000000000E+00 0. -1.
<mgrwt>
<rscale>  0 0.22329648E+04</rscale>
<asrwt>0</asrwt>
<pdfrwt beam="1">  1        1 0.17072774E+00 0.22329648E+04</pdfrwt>
<pdfrwt beam="2">  1       -1 0.17281163E+00 0.22329648E+04</pdfrwt>
<totfact> 0.26596609E+00</totfact>
</mgrwt>
</event>
<event>
12    2  0.3552864E-008  0.1955111E+04  0.7818608E-02  0.8627900E-01
         -2   -1    0    0    0  501 -0.00000000000E+00  0.00000000000E+00  0.44529660422E+03  0.44529660422E+03  0.00000000000E+00 0.  1.
          2   -1    0    0  501    0  0.00000000000E+00 -0.00000000000E+00 -0.21460186905E+04  0.21460186905E+04  0.00000000000E+00 0. -1.
         23    2    1    2    0    0  0.50070123777E+03  0.57745208317E+03 -0.64860438267E+03  0.10070205929E+04  0.96177915508E+02 0.  0.
        254    2    1    2    0    0 -0.50070123777E+03 -0.57745208317E+03 -0.10521177036E+04  0.15842947018E+04  0.90492287081E+03 0.  0.
         23    2    4    4    0    0 -0.23446975105E+03 -0.15542895056E+03 -0.10354098950E+04  0.10768122160E+04  0.91195805928E+02 0.  0.
         23    2    4    4    0    0 -0.26623148672E+03 -0.42202313262E+03 -0.16707808604E+02  0.50748248583E+03  0.90975785654E+02 0.  0.
          2    1    3    3  502    0  0.25567746111E+03  0.34128257962E+03 -0.40858040996E+03  0.59057828835E+03  0.00000000000E+00 0. -1.
         -2    1    3    3    0  502  0.24502377666E+03  0.23616950356E+03 -0.24002397271E+03  0.41644230454E+03  0.00000000000E+00 0.  1.
         11    1    5    5    0    0 -0.23090059560E+03 -0.16611921743E+03 -0.99680623163E+03  0.10365970012E+04  0.00000000000E+00 0. -1.
        -11    1    5    5    0    0 -0.35691554510E+01  0.10690266875E+02 -0.38603663360E+02  0.40215214799E+02  0.00000000000E+00 0.  1.
          3    1    6    6  503    0 -0.23479350020E+03 -0.33813639826E+03  0.16372306528E+02  0.41198575702E+03  0.00000000000E+00 0. -1.
         -3    1    6    6    0  503 -0.31437986519E+02 -0.83886734353E+02 -0.33080115132E+02  0.95496728813E+02  0.00000000000E+00 0.  1.
<mgrwt>
<rscale>  0 0.19551111E+04</rscale>
<asrwt>0</asrwt>
<pdfrwt beam="1">  1        2 0.33015672E+00 0.19551111E+04</pdfrwt>
<pdfrwt beam="2">  1       -2 0.68507170E-01 0.19551111E+04</pdfrwt>
<totfact> 0.10060262E+01</totfact>
</mgrwt>
</event>
<event>
12    2  0.3552864E-008  0.1825263E+04  0.7818608E-02  0.8692979E-01
         -3   -1    0    0    0  501 -0.00000000000E+00  0.00000000000E+00  0.13176025263E+04  0.13176025263E+04  0.00000000000E+00 0.  1.
          3   -1    0    0  501    0  0.00000000000E+00 -0.00000000000E+00 -0.63212986903E+03  0.63212986903E+03  0.00000000000E+00 0. -1.
         23    2    1    2    0    0  0.49115481202E+03  0.17646279149E+03 -0.19777269359E+03  0.56580602371E+03  0.93006730847E+02 0.  0.
        254    2    1    2    0    0 -0.49115481202E+03 -0.17646279149E+03  0.88324535084E+03  0.13839263716E+04  0.92884750423E+03 0.  0.
         23    2    4    4    0    0 -0.69795265375E+03 -0.34338875194E+03  0.66836199236E+03  0.10301637842E+04  0.97344376193E+02 0.  0.
         23    2    4    4    0    0  0.20679784173E+03  0.16692596046E+03  0.21488335848E+03  0.35376258743E+03  0.91342689338E+02 0.  0.
          1    1    3    3  502    0  0.26758134134E+03  0.12684031586E+03 -0.14965952883E+03  0.33179242687E+03  0.00000000000E+00 0. -1.
         -1    1    3    3    0  502  0.22357347068E+03  0.49622475631E+02 -0.48113164757E+02  0.23401359684E+03  0.00000000000E+00 0.  1.
         11    1    5    5    0    0 -0.61587876204E+03 -0.32101452632E+03  0.55854321525E+03  0.89125052535E+03  0.00000000000E+00 0.  1.
        -11    1    5    5    0    0 -0.82073891705E+02 -0.22374225620E+02  0.10981877712E+03  0.13891325883E+03  0.00000000000E+00 0. -1.
          4    1    6    6  503    0  0.19709160254E+03  0.11659677263E+03  0.16509317742E+03  0.28230420544E+03  0.00000000000E+00 0.  1.
         -4    1    6    6    0  503  0.97062391900E+01  0.50329187827E+02  0.49790181062E+02  0.71458381991E+02  0.00000000000E+00 0. -1.
<mgrwt>
<rscale>  0 0.18252626E+04</rscale>
<asrwt>0</asrwt>
<pdfrwt beam="1">  1        3 0.97250750E-01 0.18252626E+04</pdfrwt>
<pdfrwt beam="2">  1       -3 0.20270808E+00 0.18252626E+04</pdfrwt>
<totfact> 0.32383964E-01</totfact>
</mgrwt>
</event>
<event>
12    2  0.3552864E-008  0.1253324E+04  0.7818608E-02  0.9067421E-01
          1   -1    0    0  501    0  0.00000000000E+00  0.00000000000E+00  0.49505910731E+03  0.49505910731E+03  0.00000000000E+00 0. -1.
         -1   -1    0    0    0  501 -0.00000000000E+00 -0.00000000000E+00 -0.79324885841E+03  0.79324885841E+03  0.00000000000E+00 0.  1.
         23    2    1    2    0    0  0.40989094497E+02 -0.41771693000E+02  0.22134605878E+03  0.24676603264E+03  0.92056596297E+02 0.  0.
        254    2    1    2    0    0 -0.40989094497E+02  0.41771693000E+02 -0.51953580989E+03  0.10415419331E+04  0.90081472036E+03 0.  0.
         23    2    4    4    0    0  0.91618024147E+02 -0.26257766941E+03 -0.61808043530E+03  0.68373305844E+03  0.90147522937E+02 0.  0.
         23    2    4    4    0    0 -0.13260711864E+03  0.30434936242E+03  0.98544625410E+02  0.35780887464E+03  0.90016472128E+02 0.  0.
          3    1    3    3  502    0  0.30928975790E+02 -0.62034732042E+02  0.21061189299E+03  0.22172568410E+03  0.00000000000E+00 0. -1.
         -3    1    3    3    0  502  0.10060118707E+02  0.20263039042E+02  0.10734165799E+02  0.25040348540E+02  0.00000000000E+00 0.  1.
         11    1    5    5    0    0  0.16792323530E+02 -0.12217767873E+02 -0.11478257332E+03  0.11664602488E+03  0.00000000000E+00 0.  1.
        -11    1    5    5    0    0  0.74825700617E+02 -0.25035990154E+03 -0.50329786197E+03  0.56708703357E+03  0.00000000000E+00 0. -1.
          3    1    6    6  503    0 -0.83878261851E+02  0.22408509095E+03  0.10976039125E+03  0.26324329865E+03  0.00000000000E+00 0. -1.
         -3    1    6    6    0  503 -0.48728856792E+02  0.80264271465E+02 -0.11215765841E+02  0.94565575986E+02  0.00000000000E+00 0.  1.
<mgrwt>
<rscale>  0 0.12533237E+04</rscale>
<asrwt>0</asrwt>
<pdfrwt beam="1">  1        1 0.76162940E-01 0.12533237E+04</pdfrwt>
<pdfrwt beam="2">  1       -1 0.12203828E+00 0.12533237E+04</pdfrwt>
<totfact> 0.26322347E+01</totfact>
</mgrwt>
</event>
<event>
12    2  0.3552864E-008  0.2229179E+04  0.7818608E-02  0.8506381E-01
         -2   -1    0    0    0  501 -0.00000000000E+00  0.00000000000E+00  0.69182464385E+03  0.69182464385E+03  0.00000000000E+00 0.  1.
          2   -1    0    0  501    0  0.00000000000E+00 -0.00000000000E+00 -0.17956996776E+04  0.17956996776E+04  0.00000000000E+00 0. -1.
         23    2    1    2    0    0  0.55645867187E+03 -0.52950032602E+03  0.16273598248E+03  0.79041946761E+03  0.90901518278E+02 0.  0.
        254    2    1    2    0    0 -0.55645867187E+03  0.52950032602E+03 -0.12666110162E+04  0.16971048538E+04  0.82815733394E+03 0.  0.
         23    2    4    4    0    0 -0.40292842410E+03  0.71269943174E+03 -0.71874514019E+03  0.10930163320E+04  0.88308156500E+02 0.  0.
         23    2    4    4    0    0 -0.15353024776E+03 -0.18319910572E+03 -0.54786587604E+03  0.60408852185E+03  0.87364036034E+02 0.  0.
          1    1    3    3  502    0  0.20424338377E+03 -0.14829364197E+03  0.80531227299E+02  0.26493705409E+03  0.00000000000E+00 0. -1.
         -1    1    3    3    0  502  0.35221528810E+03 -0.38120668406E+03  0.82204755176E+02  0.52548241351E+03  0.00000000000E+00 0.  1.
         11    1    5    5    0    0 -0.35171395376E+03  0.64917659137E+03 -0.61423945179E+03  0.96042857943E+03  0.00000000000E+00 0.  1.
        -11    1    5    5    0    0 -0.51214470344E+02  0.63522840368E+02 -0.10450568841E+03  0.13258775257E+03  0.00000000000E+00 0. -1.
          1    1    6    6  503    0 -0.74551039674E+01  0.33614261948E+01 -0.72330721824E+02  0.72791559131E+02  0.00000000000E+00 0. -1.
         -1    1    6    6    0  503 -0.14607514380E+03 -0.18656053191E+03 -0.47553515422E+03  0.53129696272E+03  0.00000000000E+00 0.  1.
<mgrwt>
<rscale>  0 0.22291786E+04</rscale>
<asrwt>0</asrwt>
<pdfrwt beam="1">  1        2 0.27626149E+00 0.22291786E+04</pdfrwt>
<pdfrwt beam="2">  1       -2 0.10643456E+00 0.22291786E+04</pdfrwt>
<totfact> 0.56290558E+00</totfact>
</mgrwt>
</event>
<event>
12    2  0.3552864E-008  0.2636383E+04  0.7818608E-02  0.8355947E-01
          2   -1    0    0  501    0  0.00000000000E+00  0.00000000000E+00  0.43726906580E+04  0.43726906580E+04  0.00000000000E+00 0. -1.
         -2   -1    0    0    0  501 -0.00000000000E+00 -0.00000000000E+00 -0.39738210042E+03  0.39738210042E+03  0.00000000000E+00 0.  1.
         23    2    1    2    0    0 -0.62689383718E+03 -0.86399786628E+03  0.93392432885E+03  0.14211605394E+04  0.89411580371E+02 0.  0.
        254    2    1    2    0    0  0.62689383718E+03  0.86399786628E+03  0.30413842288E+04  0.33489122191E+04  0.90868411892E+03 0.  0.
         23    2    4    4    0    0  0.25485679373E+03  0.42247211365E+03  0.25073415517E+04  0.25569224931E+04  0.87500323002E+02 0.  0.
         23    2    4    4    0    0  0.37203704346E+03  0.44152575263E+03  0.53404267707E+03  0.79198972601E+03  0.93217987676E+02 0.  0.
          1    1    3    3  502    0 -0.42432983347E+03 -0.57163169139E+03  0.67670916655E+03  0.98221886272E+03  0.00000000000E+00 0. -1.
         -1    1    3    3    0  502 -0.20256400371E+03 -0.29236617488E+03  0.25721516230E+03  0.43894167669E+03  0.00000000000E+00 0.  1.
         11    1    5    5    0    0  0.16187530118E+03  0.29463722737E+03  0.18899440759E+04  0.19196101997E+04  0.00000000000E+00 0.  1.
        -11    1    5    5    0    0  0.92981492541E+02  0.12783488628E+03  0.61739747580E+03  0.63731229333E+03  0.00000000000E+00 0. -1.
          1    1    6    6  503    0  0.13334476752E+03  0.99637621501E+02  0.17785845391E+03  0.24360236508E+03  0.00000000000E+00 0. -1.
         -1    1    6    6    0  503  0.23869227594E+03  0.34188813113E+03  0.35618422316E+03  0.54838736093E+03  0.00000000000E+00 0.  1.
<mgrwt>
<rscale>  0 0.26363831E+04</rscale>
<asrwt>0</asrwt>
<pdfrwt beam="1">  1        2 0.67272160E+00 0.26363831E+04</pdfrwt>
<pdfrwt beam="2">  1       -2 0.61135711E-01 0.26363831E+04</pdfrwt>
<totfact> 0.35841054E-01</totfact>
</mgrwt>
</event>
<event>
12    2  0.3552864E-008  0.2278271E+04  0.7818608E-02  0.8486538E-01
         -2   -1    0    0    0  501 -0.00000000000E+00  0.00000000000E+00  0.47236923389E+03  0.47236923389E+03  0.00000000000E+00 0.  1.
          2   -1    0    0  501    0  0.00000000000E+00 -0.00000000000E+00 -0.27470661380E+04  0.27470661380E+04  0.00000000000E+00 0. -1.
         23    2    1    2    0    0 -0.22132329555E+02  0.18763343741E+03  0.36546147056E+03  0.42136380096E+03  0.91045150650E+02 0.  0.
        254    2    1    2    0    0  0.22132329555E+02 -0.18763343741E+03 -0.26401583746E+04  0.27980715709E+04  0.90723322575E+03 0.  0.
         23    2    4    4    0    0 -0.17053289964E+03  0.31422351859E+03 -0.13067006811E+04  0.13573006606E+04  0.83549529217E+02 0.  0.
         23    2    4    4    0    0  0.19266522920E+03 -0.50185695599E+03 -0.13334576935E+04  0.14407709103E+04  0.93440358850E+02 0.  0.
          1    1    3    3  502    0 -0.11821053570E+02  0.29657565523E+02  0.15362256489E+03  0.15690506985E+03  0.00000000000E+00 0. -1.
         -1    1    3    3    0  502 -0.10311275985E+02  0.15797587188E+03  0.21183890566E+03  0.26445873111E+03  0.00000000000E+00 0.  1.
         11    1    5    5    0    0 -0.13264346618E+02  0.10277136724E+03 -0.36950136169E+03  0.38375663265E+03  0.00000000000E+00 0. -1.
        -11    1    5    5    0    0 -0.15726855303E+03  0.21145215134E+03 -0.93719931941E+03  0.97354402796E+03  0.00000000000E+00 0.  1.
          3    1    6    6  503    0  0.15002128830E+03 -0.44578783575E+03 -0.10859946330E+04  0.11834768795E+04  0.00000000000E+00 0. -1.
         -3    1    6    6    0  503  0.42643940901E+02 -0.56069120242E+02 -0.24746306056E+03  0.25729403079E+03  0.00000000000E+00 0.  1.
<mgrwt>
<rscale>  0 0.22782709E+04</rscale>
<asrwt>0</asrwt>
<pdfrwt beam="1">  1        2 0.42262556E+00 0.22782709E+04</pdfrwt>
<pdfrwt beam="2">  1       -2 0.72672190E-01 0.22782709E+04</pdfrwt>
<totfact> 0.38713146E+00</totfact>
</mgrwt>
</event>
<event>
12    2  0.3552864E-008  0.1660239E+04  0.7818608E-02  0.8784372E-01
         -2   -1    0    0    0  501 -0.00000000000E+00  0.00000000000E+00  0.36719238128E+03  0.36719238128E+03  0.00000000000E+00 0.  1.
          2   -1    0    0  501    0  0.00000000000E+00 -0.00000000000E+00 -0.18766677361E+04  0.18766677361E+04  0.00000000000E+00 0. -1.
         23    2    1    2    0    0 -0.34907215548E+03  0.24099801097E+03  0.44545360630E+01  0.43408518786E+03  0.92079837117E+02 0.  0.
        254    2    1    2    0    0  0.34907215548E+03 -0.24099801097E+03 -0.15139298909E+04  0.18097749296E+04  0.89630919331E+03 0.  0.
         23    2    4    4    0    0 -0.23343899351E+03 -0.18941960256E+03 -0.91741347064E+03  0.96948389509E+03  0.88758082484E+02 0.  0.
         23    2    4    4    0    0  0.58251114899E+03 -0.51578408411E+02 -0.59651642027E+03  0.84029103446E+03  0.90981382853E+02 0.  0.
          3    1    3    3  502    0 -0.12757031979E+02  0.56464380560E+01 -0.18251145372E+02  0.22972340652E+02  0.00000000000E+00 0. -1.
         -3    1    3    3    0  502 -0.33631512350E+03  0.23535157292E+03  0.22705681435E+02  0.41111284721E+03  0.00000000000E+00 0.  1.
         11    1    5    5    0    0 -0.22137746818E+03 -0.19219364315E+03 -0.90733969035E+03  0.95352592706E+03  0.00000000000E+00 0. -1.
        -11    1    5    5    0    0 -0.12061525326E+02  0.27740405931E+01 -0.10073780286E+02  0.15957968030E+02  0.00000000000E+00 0.  1.
          2    1    6    6  503    0  0.34159324028E+03  0.13290165282E+02 -0.36139380667E+03  0.49746161038E+03  0.00000000000E+00 0. -1.
         -2    1    6    6    0  503  0.24091790871E+03 -0.64868573693E+02 -0.23512261360E+03  0.34282942408E+03  0.00000000000E+00 0.  1.
<mgrwt>
<rscale>  0 0.16602387E+04</rscale>
<asrwt>0</asrwt>
<pdfrwt beam="1">  1        2 0.28871812E+00 0.16602387E+04</pdfrwt>
<pdfrwt beam="2">  1       -2 0.56491134E-01 0.16602387E+04</pdfrwt>
<totfact> 0.21954860E+01</totfact>
</mgrwt>
</event>
<event>
12    2  0.3552864E-008  0.1355611E+04  0.7818608E-02  0.8986592E-01
          2   -1    0    0  501    0  0.00000000000E+00  0.00000000000E+00  0.38303582603E+03  0.38303582603E+03  0.00000000000E+00 0. -1.
         -2   -1    0    0    0  501 -0.00000000000E+00 -0.00000000000E+00 -0.11994178783E+04  0.11994178783E+04  0.00000000000E+00 0.  1.
         23    2    1    2    0    0 -0.24653411725E+03  0.17578681826E+03 -0.49240863873E+03  0.58506055312E+03  0.90274619236E+02 0.  0.
        254    2    1    2    0    0  0.24653411725E+03 -0.17578681826E+03 -0.32397341353E+03  0.99739315120E+03  0.89339478896E+03 0.  0.
         23    2    4    4    0    0  0.31849903839E+03  0.29705141899E+03 -0.24106553809E+03  0.50400838677E+03  0.78934639437E+02 0.  0.
         23    2    4    4    0    0 -0.71964921144E+02 -0.47283823725E+03 -0.82907875445E+02  0.49338476442E+03  0.88316824386E+02 0.  0.
          1    1    3    3  502    0 -0.15077110436E+03  0.10535637800E+03 -0.21306626316E+03  0.28147668605E+03  0.00000000000E+00 0. -1.
         -1    1    3    3    0  502 -0.95763012888E+02  0.70430440264E+02 -0.27934237558E+03  0.30358386707E+03  0.00000000000E+00 0.  1.
         11    1    5    5    0    0  0.98807295073E+02  0.61251482709E+02 -0.95174692509E+02  0.15024262973E+03  0.00000000000E+00 0. -1.
        -11    1    5    5    0    0  0.21969174332E+03  0.23579993629E+03 -0.14589084558E+03  0.35376575704E+03  0.00000000000E+00 0.  1.
          3    1    6    6  503    0  0.13638763839E+01 -0.62955446805E+02 -0.40432732261E+02  0.74833510403E+02  0.00000000000E+00 0. -1.
         -3    1    6    6    0  503 -0.73328797528E+02 -0.40988279045E+03 -0.42475143184E+02  0.41855125402E+03  0.00000000000E+00 0.  1.
<mgrwt>
<rscale>  0 0.13556106E+04</rscale>
<asrwt>0</asrwt>
<pdfrwt beam="1">  1        2 0.58928590E-01 0.13556106E+04</pdfrwt>
<pdfrwt beam="2">  1       -2 0.18452582E+00 0.13556106E+04</pdfrwt>
<totfact> 0.13746963E+01</totfact>
</mgrwt>
</event>
<event>
12    2  0.3552864E-008  0.1620037E+04  0.7818608E-02  0.8808332E-01
         -2   -1    0    0    0  501 -0.00000000000E+00  0.00000000000E+00  0.30344426219E+03  0.30344426219E+03  0.00000000000E+00 0.  1.
          2   -1    0    0  501    0  0.00000000000E+00 -0.00000000000E+00 -0.21622756899E+04  0.21622756899E+04  0.00000000000E+00 0. -1.
         23    2    1    2    0    0 -0.52614306559E+03 -0.12909990154E+03 -0.77663143883E+03  0.95112005026E+03  0.89328876496E+02 0.  0.
        254    2    1    2    0    0  0.52614306559E+03  0.12909990154E+03 -0.10821999889E+04  0.15145999019E+04  0.91069354707E+03 0.  0.
         23    2    4    4    0    0  0.71965657874E+03  0.23274604773E+03 -0.10116880907E+04  0.12663498877E+04  0.89738124907E+02 0.  0.
         23    2    4    4    0    0 -0.19351351315E+03 -0.10364614619E+03 -0.70511898210E+02  0.24825001420E+03  0.92011620828E+02 0.  0.
          3    1    3    3  502    0 -0.26247282012E+02  0.96585382124E+01 -0.23148039973E+02  0.36304805853E+02  0.00000000000E+00 0. -1.
         -3    1    3    3    0  502 -0.49989578358E+03 -0.13875843976E+03 -0.75348339886E+03  0.91481524441E+03  0.00000000000E+00 0.  1.
         11    1    5    5    0    0  0.63117283162E+03  0.22607381662E+03 -0.92392144367E+03  0.11415425301E+04  0.00000000000E+00 0.  1.
        -11    1    5    5    0    0  0.88483747124E+02  0.66722311085E+01 -0.87766647019E+02  0.12480735756E+03  0.00000000000E+00 0. -1.
          4    1    6    6  503    0 -0.49618346565E+02 -0.48390898851E+02 -0.63423237971E+02  0.93947679706E+02  0.00000000000E+00 0. -1.
         -4    1    6    6    0  503 -0.14389516658E+03 -0.55255247338E+02 -0.70886602388E+01  0.15430233449E+03  0.00000000000E+00 0.  1.
<mgrwt>
<rscale>  0 0.16200372E+04</rscale>
<asrwt>0</asrwt>
<pdfrwt beam="1">  1        2 0.33265779E+00 0.16200372E+04</pdfrwt>
<pdfrwt beam="2">  1       -2 0.46683733E-01 0.16200372E+04</pdfrwt>
<totfact> 0.22596421E+01</totfact>
</mgrwt>
</event>
<event>
12    2  0.3552864E-008  0.2146013E+04  0.7818608E-02  0.8541241E-01
          2   -1    0    0  501    0  0.00000000000E+00  0.00000000000E+00  0.24780012303E+04  0.24780012303E+04  0.00000000000E+00 0. -1.
         -2   -1    0    0    0  501 -0.00000000000E+00 -0.00000000000E+00 -0.46462567562E+03  0.46462567562E+03  0.00000000000E+00 0.  1.
         23    2    1    2    0    0 -0.98250758913E+01 -0.53095872126E+03 -0.12422405850E+03  0.55292793350E+03  0.91016411389E+02 0.  0.
        254    2    1    2    0    0  0.98250758913E+01  0.53095872126E+03  0.21375996131E+04  0.23896989724E+04  0.92699265190E+03 0.  0.
         23    2    4    4    0    0  0.20633938984E+03  0.64597338613E+03  0.19890742919E+04  0.21034706252E+04  0.91184278784E+02 0.  0.
         23    2    4    4    0    0 -0.19651431395E+03 -0.11501466487E+03  0.14852532119E+03  0.28622834720E+03  0.89558064865E+02 0.  0.
          4    1    3    3  502    0 -0.26763415968E+02 -0.28904379000E+03 -0.26557680353E+02  0.29149254426E+03  0.00000000000E+00 0. -1.
         -4    1    3    3    0  502  0.16938340077E+02 -0.24191493126E+03 -0.97666378144E+02  0.26143538924E+03  0.00000000000E+00 0.  1.
         11    1    5    5    0    0  0.16125080700E+03  0.55453139117E+03  0.17701198811E+04  0.18619428777E+04  0.00000000000E+00 0.  1.
        -11    1    5    5    0    0  0.45088582848E+02  0.91441994955E+02  0.21895441086E+03  0.24152774743E+03  0.00000000000E+00 0. -1.
          3    1    6    6  503    0 -0.65953129074E+02 -0.36208502112E+02  0.10207925395E+03  0.12681106003E+03  0.00000000000E+00 0. -1.
         -3    1    6    6    0  503 -0.13056118488E+03 -0.78806162760E+02  0.46446067245E+02  0.15941728717E+03  0.00000000000E+00 0.  1.
<mgrwt>
<rscale>  0 0.21460130E+04</rscale>
<asrwt>0</asrwt>
<pdfrwt beam="1">  1        2 0.38123095E+00 0.21460130E+04</pdfrwt>
<pdfrwt beam="2">  1       -2 0.71480875E-01 0.21460130E+04</pdfrwt>
<totfact> 0.58446875E+00</totfact>
</mgrwt>
</event>
<event>
12    2  0.3552864E-008  0.1565782E+04  0.7818608E-02  0.8841850E-01
         -2   -1    0    0    0  501 -0.00000000000E+00  0.00000000000E+00  0.28322838740E+03  0.28322838740E+03  0.00000000000E+00 0.  1.
          2   -1    0    0  501    0  0.00000000000E+00 -0.00000000000E+00 -0.21640425078E+04  0.21640425078E+04  0.00000000000E+00 0. -1.
         23    2    1    2    0    0  0.13737382693E+03  0.29281431730E+03 -0.35752719440E+00  0.33649745627E+03  0.92836509563E+02 0.  0.
        254    2    1    2    0    0 -0.13737382693E+03 -0.29281431730E+03 -0.18804565932E+04  0.21107734389E+04  0.90257172502E+03 0.  0.
         23    2    4    4    0    0  0.23478237976E+03 -0.31686316049E+03 -0.35824867313E+03  0.54085809064E+03  0.93060915988E+02 0.  0.
         23    2    4    4    0    0 -0.37215620669E+03  0.24048843194E+02 -0.15222079201E+04  0.15699153483E+04  0.91862178337E+02 0.  0.
          1    1    3    3  502    0  0.83342539943E+02  0.13202015151E+03 -0.42309750363E+02  0.16175726984E+03  0.00000000000E+00 0. -1.
         -1    1    3    3    0  502  0.54031286985E+02  0.16079416579E+03  0.41952223169E+02  0.17474018643E+03  0.00000000000E+00 0.  1.
         11    1    5    5    0    0 -0.95013502032E+00 -0.40330981244E+02 -0.50800069736E+02  0.64870161784E+02  0.00000000000E+00 0. -1.
        -11    1    5    5    0    0  0.23573251478E+03 -0.27653217925E+03 -0.30744860340E+03  0.47598792886E+03  0.00000000000E+00 0.  1.
          3    1    6    6  503    0 -0.82284172078E+02  0.41456228313E+02 -0.43011692879E+03  0.43987484160E+03  0.00000000000E+00 0. -1.
         -3    1    6    6    0  503 -0.28987203461E+03 -0.17407385119E+02 -0.10920909913E+04  0.11300405067E+04  0.00000000000E+00 0.  1.
<mgrwt>
<rscale>  0 0.15657819E+04</rscale>
<asrwt>0</asrwt>
<pdfrwt beam="1">  1        2 0.33292961E+00 0.15657819E+04</pdfrwt>
<pdfrwt beam="2">  1       -2 0.43573599E-01 0.15657819E+04</pdfrwt>
<totfact> 0.25995658E+01</totfact>
</mgrwt>
</event>
<event>
12    2  0.3552864E-008  0.1458298E+04  0.7818608E-02  0.8912668E-01
          2   -1    0    0  501    0  0.00000000000E+00  0.00000000000E+00  0.29630971932E+03  0.29630971932E+03  0.00000000000E+00 0. -1.
         -2   -1    0    0    0  501 -0.00000000000E+00 -0.00000000000E+00 -0.17942661735E+04  0.17942661735E+04  0.00000000000E+00 0.  1.
         23    2    1    2    0    0 -0.29064974840E+03 -0.46674300693E+02  0.10115093809E+02  0.30940114203E+03  0.94715283758E+02 0.  0.
        254    2    1    2    0    0  0.29064974840E+03  0.46674300693E+02 -0.15080715480E+04  0.17811747508E+04  0.90091505283E+03 0.  0.
         23    2    4    4    0    0  0.24741630417E+03  0.13232199370E+03 -0.15956563562E+04  0.16226579980E+04  0.90420316569E+02 0.  0.
         23    2    4    4    0    0  0.43233444230E+02 -0.85647693010E+02  0.87584808212E+02  0.15851675284E+03  0.90839442336E+02 0.  0.
          4    1    3    3  502    0 -0.14446058990E+03 -0.32564648965E+02  0.51546925514E+02  0.15680052272E+03  0.00000000000E+00 0. -1.
         -4    1    3    3    0  502 -0.14618915850E+03 -0.14109651729E+02 -0.41431831704E+02  0.15260061931E+03  0.00000000000E+00 0.  1.
         11    1    5    5    0    0  0.88246786019E+02  0.78318001609E+01 -0.61980042181E+03  0.62610014791E+03  0.00000000000E+00 0.  1.
        -11    1    5    5    0    0  0.15916951815E+03  0.12449019354E+03 -0.97585593439E+03  0.99655785005E+03  0.00000000000E+00 0. -1.
          3    1    6    6  503    0  0.54527712913E+02 -0.81219713779E+02  0.33984704955E+02  0.10356096539E+03  0.00000000000E+00 0. -1.
         -3    1    6    6    0  503 -0.11294268683E+02 -0.44279792314E+01  0.53600103256E+02  0.54955787450E+02  0.00000000000E+00 0.  1.
<mgrwt>
<rscale>  0 0.14582983E+04</rscale>
<asrwt>0</asrwt>
<pdfrwt beam="1">  1        2 0.45586111E-01 0.14582983E+04</pdfrwt>
<pdfrwt beam="2">  1       -2 0.27604095E+00 0.14582983E+04</pdfrwt>
<totfact> 0.48149586E+00</totfact>
</mgrwt>
</event>
<event>
12    2  0.3552864E-008  0.1739244E+04  0.7818608E-02  0.8739293E-01
          1   -1    0    0  501    0  0.00000000000E+00  0.00000000000E+00  0.39593442647E+03  0.39593442647E+03  0.00000000000E+00 0. -1.
         -1   -1    0    0    0  501 -0.00000000000E+00 -0.00000000000E+00 -0.19100186469E+04  0.19100186469E+04  0.00000000000E+00 0.  1.
         23    2    1    2    0    0 -0.96274668195E+02 -0.18264097794E+03  0.23586207348E+03  0.32686972897E+03  0.92662632449E+02 0.  0.
        254    2    1    2    0    0  0.96274668195E+02  0.18264097794E+03 -0.17499462940E+04  0.19790833445E+04  0.90101737719E+03 0.  0.
         23    2    4    4    0    0 -0.12317429937E+03 -0.22767015848E+03 -0.15497413511E+03  0.31517802137E+03  0.91184392932E+02 0.  0.
         23    2    4    4    0    0  0.21944896757E+03  0.41031113642E+03 -0.15949721588E+04  0.16639053231E+04  0.90175709848E+02 0.  0.
          2    1    3    3  502    0 -0.46306345108E+02 -0.12726520575E+03  0.88715001970E+02  0.16189830687E+03  0.00000000000E+00 0. -1.
         -2    1    3    3    0  502 -0.49968323087E+02 -0.55375772193E+02  0.14714707151E+03  0.16497142210E+03  0.00000000000E+00 0.  1.
         11    1    5    5    0    0 -0.26703232678E+02 -0.11188083542E+02  0.48003784449E+01  0.29347563477E+02  0.00000000000E+00 0.  1.
        -11    1    5    5    0    0 -0.96471066696E+02 -0.21648207494E+03 -0.15977451355E+03  0.28583045789E+03  0.00000000000E+00 0. -1.
          3    1    6    6  503    0  0.21703957720E+03  0.39949400406E+03 -0.14764072724E+04  0.15448236376E+04  0.00000000000E+00 0. -1.
         -3    1    6    6    0  503  0.24093903679E+01  0.10817132357E+02 -0.11856488644E+03  0.11908168546E+03  0.00000000000E+00 0.  1.
<mgrwt>
<rscale>  0 0.17392437E+04</rscale>
<asrwt>0</asrwt>
<pdfrwt beam="1">  1        1 0.60912991E-01 0.17392437E+04</pdfrwt>
<pdfrwt beam="2">  1       -1 0.29384901E+00 0.17392437E+04</pdfrwt>
<totfact> 0.20907819E+00</totfact>
</mgrwt>
</event>
<event>
12    2  0.3552864E-008  0.2419171E+04  0.7818608E-02  0.8432361E-01
         -2   -1    0    0    0  501 -0.00000000000E+00  0.00000000000E+00  0.42925788925E+03  0.42925788925E+03  0.00000000000E+00 0.  1.
          2   -1    0    0  501    0  0.00000000000E+00 -0.00000000000E+00 -0.34084327920E+04  0.34084327920E+04  0.00000000000E+00 0. -1.
         23    2    1    2    0    0 -0.58722393634E+03 -0.69381370086E+03 -0.48098412549E+03  0.10323067890E+04  0.90012080593E+02 0.  0.
        254    2    1    2    0    0  0.58722393634E+03  0.69381370086E+03 -0.24981907772E+04  0.28053838923E+04  0.89610949144E+03 0.  0.
         23    2    4    4    0    0  0.42999597090E+03  0.59400945890E+03 -0.77843294622E+03  0.10730384659E+04  0.87806180516E+02 0.  0.
         23    2    4    4    0    0  0.15722796544E+03  0.99804241957E+02 -0.17197578310E+04  0.17323454263E+04  0.93659804787E+02 0.  0.
          2    1    3    3  502    0 -0.13560049441E+03 -0.14182486675E+03 -0.65254198342E+02  0.20678466412E+03  0.00000000000E+00 0. -1.
         -2    1    3    3    0  502 -0.45162344193E+03 -0.55198883411E+03 -0.41572992715E+03  0.82552212484E+03  0.00000000000E+00 0.  1.
         11    1    5    5    0    0  0.15073105308E+03  0.25483406323E+03 -0.36238156672E+03  0.46795368365E+03  0.00000000000E+00 0. -1.
        -11    1    5    5    0    0  0.27926491782E+03  0.33917539567E+03 -0.41605137951E+03  0.60508478228E+03  0.00000000000E+00 0.  1.
          3    1    6    6  503    0  0.80950555737E+01 -0.10740197542E+02 -0.32626824161E+03  0.32654532189E+03  0.00000000000E+00 0. -1.
         -3    1    6    6    0  503  0.14913290987E+03  0.11054443950E+03 -0.13934895894E+04  0.14058001044E+04  0.00000000000E+00 0.  1.
<mgrwt>
<rscale>  0 0.24191707E+04</rscale>
<asrwt>0</asrwt>
<pdfrwt beam="1">  1        2 0.52437429E+00 0.24191707E+04</pdfrwt>
<pdfrwt beam="2">  1       -2 0.66039674E-01 0.24191707E+04</pdfrwt>
<totfact> 0.17847097E+00</totfact>
</mgrwt>
</event>
<event>
12    2  0.3552864E-008  0.1553378E+04  0.7818608E-02  0.8849713E-01
          2   -1    0    0  501    0  0.00000000000E+00  0.00000000000E+00  0.13694668348E+04  0.13694668348E+04  0.00000000000E+00 0.  1.
         -2   -1    0    0    0  501 -0.00000000000E+00 -0.00000000000E+00 -0.44049680333E+03  0.44049680333E+03  0.00000000000E+00 0. -1.
         23    2    1    2    0    0  0.25828233420E+03  0.98159303567E+02  0.80294705974E+03  0.85400628932E+03  0.90872154219E+02 0.  0.
        254    2    1    2    0    0 -0.25828233420E+03 -0.98159303567E+02  0.12602297175E+03  0.95595734883E+03  0.90643678783E+03 0.  0.
         23    2    4    4    0    0 -0.48675915986E+02 -0.40645996464E+03 -0.18721354285E+03  0.45873502332E+03  0.88373431200E+02 0.  0.
         23    2    4    4    0    0 -0.20960641821E+03  0.30830066107E+03  0.31323651459E+03  0.49722232551E+03  0.10064183395E+03 0.  0.
          2    1    3    3  502    0  0.17630487404E+02  0.28223430685E+02  0.17049574608E+03  0.17371296888E+03  0.00000000000E+00 0. -1.
         -2    1    3    3    0  502  0.24065184679E+03  0.69935872882E+02  0.63245131366E+03  0.68029332044E+03  0.00000000000E+00 0.  1.
         11    1    5    5    0    0 -0.20594650902E+02 -0.17629430541E+02 -0.23626272478E+02  0.35960217160E+02  0.00000000000E+00 0. -1.
        -11    1    5    5    0    0 -0.28081265084E+02 -0.38883053410E+03 -0.16358727037E+03  0.42277480616E+03  0.00000000000E+00 0.  1.
          4    1    6    6  503    0 -0.34083369673E+02  0.13160588907E+02  0.71755380971E+01  0.37233929898E+02  0.00000000000E+00 0. -1.
         -4    1    6    6    0  503 -0.17552304854E+03  0.29514007216E+03  0.30606097649E+03  0.45998839561E+03  0.00000000000E+00 0.  1.
<mgrwt>
<rscale>  0 0.15533779E+04</rscale>
<asrwt>0</asrwt>
<pdfrwt beam="1">  1        2 0.21068720E+00 0.15533779E+04</pdfrwt>
<pdfrwt beam="2">  1       -2 0.67768739E-01 0.15533779E+04</pdfrwt>
<totfact> 0.28923915E+01</totfact>
</mgrwt>
</event>
<event>
12    2  0.3552864E-008  0.1752821E+04  0.7818608E-02  0.8731799E-01
         -2   -1    0    0    0  501 -0.00000000000E+00  0.00000000000E+00  0.24305922818E+04  0.24305922818E+04  0.00000000000E+00 0. -1.
          2   -1    0    0  501    0  0.00000000000E+00 -0.00000000000E+00 -0.31601158663E+03  0.31601158663E+03  0.00000000000E+00 0.  1.
         23    2    1    2    0    0  0.14913955817E+03  0.40384561427E+03  0.14135199971E+04  0.14804452274E+04  0.91353166617E+02 0.  0.
        254    2    1    2    0    0 -0.14913955817E+03 -0.40384561427E+03  0.70106069799E+03  0.12661586410E+04  0.96246439618E+03 0.  0.
         23    2    4    4    0    0 -0.22839433307E+03 -0.47188863456E+03 -0.20335805964E+02  0.53151484314E+03  0.85156495189E+02 0.  0.
         23    2    4    4    0    0  0.79254774903E+02  0.68043020285E+02  0.72139650396E+03  0.73464379785E+03  0.91528257124E+02 0.  0.
          4    1    3    3  502    0  0.14363150684E+03  0.30267112138E+03  0.99723428392E+03  0.10520057198E+04  0.00000000000E+00 0. -1.
         -4    1    3    3    0  502  0.55080513289E+01  0.10117449289E+03  0.41628571323E+03  0.42843950761E+03  0.00000000000E+00 0.  1.
         11    1    5    5    0    0 -0.23528904739E+03 -0.44694024875E+03 -0.16602251054E+02  0.50536339056E+03  0.00000000000E+00 0. -1.
        -11    1    5    5    0    0  0.68947143232E+01 -0.24948385807E+02 -0.37335549106E+01  0.26151452584E+02  0.00000000000E+00 0.  1.
          3    1    6    6  503    0  0.95294189538E+02  0.74960320640E+02  0.64203833994E+03  0.65338599785E+03  0.00000000000E+00 0. -1.
         -3    1    6    6    0  503 -0.16039414635E+02 -0.69173003557E+01  0.79358164015E+02  0.81257800006E+02  0.00000000000E+00 0.  1.
<mgrwt>
<rscale>  0 0.17528210E+04</rscale>
<asrwt>0</asrwt>
<pdfrwt beam="1">  1        2 0.48617169E-01 0.17528210E+04</pdfrwt>
<pdfrwt beam="2">  1       -2 0.37393726E+00 0.17528210E+04</pdfrwt>
<totfact> 0.10806634E+00</totfact>
</mgrwt>
</event>
<event>
12    2  0.3552864E-008  0.1651182E+04  0.7818608E-02  0.8789707E-01
          1   -1    0    0  501    0  0.00000000000E+00  0.00000000000E+00  0.17577476931E+04  0.17577476931E+04  0.00000000000E+00 0. -1.
         -1   -1    0    0    0  501 -0.00000000000E+00 -0.00000000000E+00 -0.38776933576E+03  0.38776933576E+03  0.00000000000E+00 0.  1.
         23    2    1    2    0    0 -0.67472915926E+02 -0.13816568788E+03 -0.23827595651E+03  0.29800537305E+03  0.91593772852E+02 0.  0.
        254    2    1    2    0    0  0.67472915926E+02  0.13816568788E+03  0.16082543138E+04  0.18475116558E+04  0.89620032841E+03 0.  0.
         23    2    4    4    0    0  0.29755838141E+03 -0.25290690158E+03  0.46882557810E+03  0.61686410007E+03  0.90669752734E+02 0.  0.
         23    2    4    4    0    0 -0.23008546549E+03  0.39107258946E+03  0.11394287357E+04  0.12306475557E+04  0.10157987466E+03 0.  0.
          3    1    3    3  502    0 -0.41481888128E+02 -0.18737035716E+02 -0.11822320693E+03  0.12668287258E+03  0.00000000000E+00 0. -1.
         -3    1    3    3    0  502 -0.25991027798E+02 -0.11942865216E+03 -0.12005274959E+03  0.17132250047E+03  0.00000000000E+00 0.  1.
         11    1    5    5    0    0  0.15125079474E+03 -0.18215210501E+03  0.25039578854E+03  0.34460737542E+03  0.00000000000E+00 0.  1.
        -11    1    5    5    0    0  0.14630758667E+03 -0.70754796568E+02  0.21842978956E+03  0.27225672466E+03  0.00000000000E+00 0. -1.
          1    1    6    6  503    0 -0.38346940573E+01  0.21588303400E+02  0.13490143036E+03  0.13667170752E+03  0.00000000000E+00 0. -1.
         -1    1    6    6    0  503 -0.22625077143E+03  0.36948428606E+03  0.10045273054E+04  0.10939758482E+04  0.00000000000E+00 0.  1.
<mgrwt>
<rscale>  0 0.16511822E+04</rscale>
<asrwt>0</asrwt>
<pdfrwt beam="1">  1        1 0.27042272E+00 0.16511822E+04</pdfrwt>
<pdfrwt beam="2">  1       -1 0.59656822E-01 0.16511822E+04</pdfrwt>
<totfact> 0.11848671E+01</totfact>
</mgrwt>
</event>
<event>
12    2  0.3552864E-008  0.1865867E+04  0.7818608E-02  0.8672036E-01
          2   -1    0    0  501    0  0.00000000000E+00  0.00000000000E+00  0.30103820297E+04  0.30103820297E+04  0.00000000000E+00 0. -1.
         -2   -1    0    0    0  501 -0.00000000000E+00 -0.00000000000E+00 -0.28912098636E+03  0.28912098636E+03  0.00000000000E+00 0.  1.
         23    2    1    2    0    0 -0.52006288213E+03 -0.13109238582E+03  0.18725324045E+04  0.19500040358E+04  0.92127729674E+02 0.  0.
        254    2    1    2    0    0  0.52006288213E+03  0.13109238582E+03  0.84872863879E+03  0.13494989803E+04  0.90175195060E+03 0.  0.
         23    2    4    4    0    0  0.16841007300E+03 -0.34634807851E+03  0.55535014213E+03  0.68208058935E+03  0.92201983843E+02 0.  0.
         23    2    4    4    0    0  0.35165280913E+03  0.47744046433E+03  0.29337849666E+03  0.66741839090E+03  0.88132122774E+02 0.  0.
          4    1    3    3  502    0 -0.12659455108E+03  0.71355448644E+00  0.36132885386E+03  0.38286450627E+03  0.00000000000E+00 0.  1.
         -4    1    3    3    0  502 -0.39346833105E+03 -0.13180594030E+03  0.15112035507E+04  0.15671395295E+04  0.00000000000E+00 0. -1.
         11    1    5    5    0    0  0.80142995461E+02 -0.98201150089E+02  0.12836684167E+03  0.18040069745E+03  0.00000000000E+00 0. -1.
        -11    1    5    5    0    0  0.88267077540E+02 -0.24814692842E+03  0.42698330046E+03  0.50167989190E+03  0.00000000000E+00 0.  1.
          1    1    6    6  503    0  0.54143037513E+02  0.56438415023E+02  0.72266962970E+02  0.10648604199E+03  0.00000000000E+00 0. -1.
         -1    1    6    6    0  503  0.29750977162E+03  0.42100204931E+03  0.22111153369E+03  0.56093234892E+03  0.00000000000E+00 0.  1.
<mgrwt>
<rscale>  0 0.18658667E+04</rscale>
<asrwt>0</asrwt>
<pdfrwt beam="1">  1        2 0.46313568E+00 0.18658667E+04</pdfrwt>
<pdfrwt beam="2">  1       -2 0.44480154E-01 0.18658667E+04</pdfrwt>
<totfact> 0.77471171E+00</totfact>
</mgrwt>
</event>
<event>
12    2  0.3552864E-008  0.1502003E+04  0.7818608E-02  0.8883122E-01
          1   -1    0    0  501    0  0.00000000000E+00  0.00000000000E+00  0.84802042175E+03  0.84802042175E+03  0.00000000000E+00 0. -1.
         -1   -1    0    0    0  501 -0.00000000000E+00 -0.00000000000E+00 -0.66508254303E+03  0.66508254303E+03  0.00000000000E+00 0.  1.
         23    2    1    2    0    0 -0.30364973230E+03  0.21620296702E+03 -0.24111852459E+03  0.45353151295E+03  0.92767491398E+02 0.  0.
        254    2    1    2    0    0  0.30364973230E+03 -0.21620296702E+03  0.42405640331E+03  0.10595714518E+04  0.89661638703E+03 0.  0.
         23    2    4    4    0    0  0.37500587692E+03 -0.48960837984E+03  0.43841832127E+03  0.76220970365E+03  0.91690973313E+02 0.  0.
         23    2    4    4    0    0 -0.71356144620E+02  0.27340541282E+03 -0.14361917954E+02  0.29736174819E+03  0.91517896965E+02 0.  0.
          3    1    3    3  502    0 -0.13283859863E+03  0.12545630183E+03 -0.16325961331E+03  0.24502872952E+03  0.00000000000E+00 0. -1.
         -3    1    3    3    0  502 -0.17081113367E+03  0.90746665188E+02 -0.77858911287E+02  0.20850278342E+03  0.00000000000E+00 0.  1.
         11    1    5    5    0    0  0.63726617367E+02 -0.69697073657E+02  0.30725496737E+02  0.99311731367E+02  0.00000000000E+00 0.  1.
        -11    1    5    5    0    0  0.31127925955E+03 -0.41991130618E+03  0.40769282453E+03  0.66289797228E+03  0.00000000000E+00 0. -1.
          1    1    6    6  503    0 -0.85517350746E+02  0.22448110508E+03 -0.34321094467E+02  0.24265803375E+03  0.00000000000E+00 0. -1.
         -1    1    6    6    0  503  0.14161206126E+02  0.48924307738E+02  0.19959176513E+02  0.54703714441E+02  0.00000000000E+00 0.  1.
<mgrwt>
<rscale>  0 0.15020034E+04</rscale>
<asrwt>0</asrwt>
<pdfrwt beam="1">  1        1 0.13046468E+00 0.15020034E+04</pdfrwt>
<pdfrwt beam="2">  1       -1 0.10232039E+00 0.15020034E+04</pdfrwt>
<totfact> 0.17585933E+01</totfact>
</mgrwt>
</event>
<event>
12    2  0.3552864E-008  0.3823528E+04  0.7818608E-02  0.8041125E-01
          2   -1    0    0  501    0  0.00000000000E+00  0.00000000000E+00  0.28265169677E+04  0.28265169677E+04  0.00000000000E+00 0. -1.
         -2   -1    0    0    0  501 -0.00000000000E+00 -0.00000000000E+00 -0.12930550047E+04  0.12930550047E+04  0.00000000000E+00 0.  1.
         23    2    1    2    0    0 -0.75250675757E+03 -0.15437691422E+04  0.12700785902E+03  0.17243322698E+04  0.87756458831E+02 0.  0.
        254    2    1    2    0    0  0.75250675757E+03  0.15437691422E+04  0.14064541039E+04  0.23952397026E+04  0.89976135828E+03 0.  0.
         23    2    4    4    0    0  0.29586003161E+03  0.11784107772E+04  0.50978080113E+03  0.13207887521E+04  0.91767882794E+02 0.  0.
         23    2    4    4    0    0  0.45664672596E+03  0.36535836496E+03  0.89667330279E+03  0.10744509505E+04  0.91699868427E+02 0.  0.
          1    1    3    3  502    0 -0.73587545155E+03 -0.14699976052E+04  0.12569380805E+03  0.16486978416E+04  0.00000000000E+00 0. -1.
         -1    1    3    3    0  502 -0.16631306016E+02 -0.73771536974E+02  0.13140509715E+01  0.75634428253E+02  0.00000000000E+00 0.  1.
         11    1    5    5    0    0  0.99773954104E+01  0.20964436764E+02  0.23994683408E+02  0.33388633693E+02  0.00000000000E+00 0. -1.
        -11    1    5    5    0    0  0.28588263619E+03  0.11574463404E+04  0.48578611772E+03  0.12874001184E+04  0.00000000000E+00 0.  1.
          1    1    6    6  503    0  0.15024474675E+03  0.13425977389E+03  0.38846053333E+03  0.43760799440E+03  0.00000000000E+00 0. -1.
         -1    1    6    6    0  503  0.30640197921E+03  0.23109859107E+03  0.50821276946E+03  0.63684295608E+03  0.00000000000E+00 0.  1.
<mgrwt>
<rscale>  0 0.38235282E+04</rscale>
<asrwt>0</asrwt>
<pdfrwt beam="1">  1        2 0.43484876E+00 0.38235282E+04</pdfrwt>
<pdfrwt beam="2">  1       -2 0.19893154E+00 0.38235282E+04</pdfrwt>
<totfact> 0.24095306E-01</totfact>
</mgrwt>
</event>
<event>
12    2  0.3552864E-008  0.1913693E+04  0.7818608E-02  0.8648070E-01
          1   -1    0    0  501    0  0.00000000000E+00  0.00000000000E+00  0.20870210247E+04  0.20870210247E+04  0.00000000000E+00 0. -1.
         -1   -1    0    0    0  501 -0.00000000000E+00 -0.00000000000E+00 -0.43868997127E+03  0.43868997127E+03  0.00000000000E+00 0.  1.
         23    2    1    2    0    0 -0.73757585513E+02  0.98620964483E+02 -0.33699169269E+03  0.36996637293E+03  0.90252091947E+02 0.  0.
        254    2    1    2    0    0  0.73757585513E+02 -0.98620964483E+02  0.19853227461E+04  0.21557446231E+04  0.83100072051E+03 0.  0.
         23    2    4    4    0    0 -0.27436775521E+03 -0.24241445022E+03  0.53649925258E+03  0.65609679837E+03  0.92677559485E+02 0.  0.
         23    2    4    4    0    0  0.34812534073E+03  0.14379348574E+03  0.14488234936E+04  0.14996478247E+04  0.89365895318E+02 0.  0.
          4    1    3    3  502    0 -0.20043212850E+02  0.11981677317E+02 -0.66884365684E+01  0.24290454019E+02  0.00000000000E+00 0. -1.
         -4    1    3    3    0  502 -0.53714372663E+02  0.86639287166E+02 -0.33030325612E+03  0.34567591891E+03  0.00000000000E+00 0.  1.
         11    1    5    5    0    0 -0.21927981587E+03 -0.17069709748E+03  0.33513521269E+03  0.43535818302E+03  0.00000000000E+00 0.  1.
        -11    1    5    5    0    0 -0.55087939344E+02 -0.71717352739E+02  0.20136403989E+03  0.22073861535E+03  0.00000000000E+00 0. -1.
          1    1    6    6  503    0  0.91174112171E+02  0.55697212462E+02  0.56542030499E+03  0.57542594614E+03  0.00000000000E+00 0. -1.
         -1    1    6    6    0  503  0.25695122856E+03  0.88096273276E+02  0.88340318857E+03  0.92422187855E+03  0.00000000000E+00 0.  1.
<mgrwt>
<rscale>  0 0.19136930E+04</rscale>
<asrwt>0</asrwt>
<pdfrwt beam="1">  1        1 0.32108015E+00 0.19136930E+04</pdfrwt>
<pdfrwt beam="2">  1       -1 0.67490766E-01 0.19136930E+04</pdfrwt>
<totfact> 0.54042630E+00</totfact>
</mgrwt>
</event>
<event>
12    2  0.3552864E-008  0.2012858E+04  0.7818608E-02  0.8600633E-01
          1   -1    0    0  501    0  0.00000000000E+00  0.00000000000E+00  0.32001313249E+04  0.32001313249E+04  0.00000000000E+00 0. -1.
         -1   -1    0    0    0  501 -0.00000000000E+00 -0.00000000000E+00 -0.31651801464E+03  0.31651801464E+03  0.00000000000E+00 0.  1.
         23    2    1    2    0    0  0.48467067535E+03  0.27548560108E+03  0.22028602009E+04  0.22734088699E+04  0.70688365723E+02 0.  0.
        254    2    1    2    0    0 -0.48467067535E+03 -0.27548560108E+03  0.68075310939E+03  0.12432404697E+04  0.87830751423E+03 0.  0.
         23    2    4    4    0    0 -0.70151594926E+03 -0.11162375356E+03  0.62697068902E+03  0.95183174120E+03  0.91142356985E+02 0.  0.
         23    2    4    4    0    0  0.21684527391E+03 -0.16386184752E+03  0.53782420367E+02  0.29140872848E+03  0.90299060934E+02 0.  0.
          3    1    3    3  502    0  0.19941923105E+03  0.15286410350E+03  0.95539606531E+03  0.98788516815E+03  0.00000000000E+00 0. -1.
         -3    1    3    3    0  502  0.28525144430E+03  0.12262149758E+03  0.12474641356E+04  0.12855237018E+04  0.00000000000E+00 0.  1.
         11    1    5    5    0    0 -0.11020863145E+03 -0.49414252459E+02  0.12334049590E+03  0.17262847019E+03  0.00000000000E+00 0.  1.
        -11    1    5    5    0    0 -0.59130731781E+03 -0.62209501103E+02  0.50363019312E+03  0.77920327100E+03  0.00000000000E+00 0. -1.
          3    1    6    6  503    0  0.18302025549E+03 -0.15049103181E+03  0.75940341718E+02  0.24881901068E+03  0.00000000000E+00 0. -1.
         -3    1    6    6    0  503  0.33825018421E+02 -0.13370815705E+02 -0.22157921352E+02  0.42589717802E+02  0.00000000000E+00 0.  1.
<mgrwt>
<rscale>  0 0.20128579E+04</rscale>
<asrwt>0</asrwt>
<pdfrwt beam="1">  1        1 0.49232788E+00 0.20128579E+04</pdfrwt>
<pdfrwt beam="2">  1       -1 0.48695081E-01 0.20128579E+04</pdfrwt>
<totfact> 0.16666512E+00</totfact>
</mgrwt>
</event>
<event>
12    2  0.3552864E-008  0.1893283E+04  0.7818608E-02  0.8658207E-01
         -2   -1    0    0    0  501 -0.00000000000E+00  0.00000000000E+00  0.40992556237E+03  0.40992556237E+03  0.00000000000E+00 0.  1.
          2   -1    0    0  501    0  0.00000000000E+00 -0.00000000000E+00 -0.21860806059E+04  0.21860806059E+04  0.00000000000E+00 0. -1.
         23    2    1    2    0    0 -0.28394686019E+02 -0.57710979282E+03 -0.68250114412E+02  0.58890346046E+03  0.91034259859E+02 0.  0.
        254    2    1    2    0    0  0.28394686019E+02  0.57710979282E+03 -0.17079049292E+04  0.20071027078E+04  0.88185036240E+03 0.  0.
         23    2    4    4    0    0 -0.25510623070E+03 -0.73462541151E+02 -0.81960180714E+03  0.86645281640E+03  0.92289906697E+02 0.  0.
         23    2    4    4    0    0  0.28350091672E+03  0.65057233397E+03 -0.88830312201E+03  0.11406498915E+04  0.91556576950E+02 0.  0.
          3    1    3    3  502    0 -0.42073644048E+02 -0.28971572151E+03 -0.70711335800E+02  0.30117351116E+03  0.00000000000E+00 0. -1.
         -3    1    3    3    0  502  0.13678958028E+02 -0.28739407131E+03  0.24612213884E+01  0.28772994930E+03  0.00000000000E+00 0.  1.
         11    1    5    5    0    0 -0.11226732214E+03  0.27266201427E+01 -0.24556466257E+03  0.27002479438E+03  0.00000000000E+00 0. -1.
        -11    1    5    5    0    0 -0.14283890856E+03 -0.76189161293E+02 -0.57403714457E+03  0.59642802201E+03  0.00000000000E+00 0.  1.
          1    1    6    6  503    0  0.80426352914E+02  0.10533768339E+03 -0.14018256969E+03  0.19291339670E+03  0.00000000000E+00 0. -1.
         -1    1    6    6    0  503  0.20307456381E+03  0.54523465058E+03 -0.74812055233E+03  0.94773649475E+03  0.00000000000E+00 0.  1.
<mgrwt>
<rscale>  0 0.18932832E+04</rscale>
<asrwt>0</asrwt>
<pdfrwt beam="1">  1        2 0.33632010E+00 0.18932832E+04</pdfrwt>
<pdfrwt beam="2">  1       -2 0.63065469E-01 0.18932832E+04</pdfrwt>
<totfact> 0.11477998E+01</totfact>
</mgrwt>
</event>
<event>
12    2  0.3552864E-008  0.1578643E+04  0.7818608E-02  0.8833777E-01
          2   -1    0    0  501    0  0.00000000000E+00  0.00000000000E+00  0.18988965803E+04  0.18988965803E+04  0.00000000000E+00 0.  1.
         -2   -1    0    0    0  501 -0.00000000000E+00 -0.00000000000E+00 -0.32810043647E+03  0.32810043647E+03  0.00000000000E+00 0. -1.
         23    2    1    2    0    0  0.20956623496E+03  0.21974250488E+03  0.11459330649E+04  0.11890264975E+04  0.91742286849E+02 0.  0.
        254    2    1    2    0    0 -0.20956623496E+03 -0.21974250488E+03  0.42486307895E+03  0.10379705193E+04  0.89703366036E+03 0.  0.
         23    2    4    4    0    0 -0.44531759618E+02  0.20351732607E+03  0.51768086454E+03  0.56531056746E+03  0.90444350587E+02 0.  0.
         23    2    4    4    0    0 -0.16503447534E+03 -0.42325983094E+03 -0.92817785587E+02  0.47265995185E+03  0.91689837075E+02 0.  0.
          3    1    3    3  502    0  0.14280204278E+03  0.96152579641E+02  0.52919038619E+03  0.55648917944E+03  0.00000000000E+00 0. -1.
         -3    1    3    3    0  502  0.66764192178E+02  0.12358992524E+03  0.61674267869E+03  0.63253731802E+03  0.00000000000E+00 0.  1.
         11    1    5    5    0    0 -0.63352205259E+02  0.79518235950E+02  0.22725489262E+03  0.24896071573E+03  0.00000000000E+00 0. -1.
        -11    1    5    5    0    0  0.18820445641E+02  0.12399909012E+03  0.29042597192E+03  0.31634985173E+03  0.00000000000E+00 0.  1.
          1    1    6    6  503    0 -0.96653451356E+01 -0.13993368142E+03 -0.31576049052E+02  0.14377726165E+03  0.00000000000E+00 0. -1.
         -1    1    6    6    0  503 -0.15536913020E+03 -0.28332614952E+03 -0.61241736534E+02  0.32888269020E+03  0.00000000000E+00 0.  1.
<mgrwt>
<rscale>  0 0.15786435E+04</rscale>
<asrwt>0</asrwt>
<pdfrwt beam="1">  1        2 0.29213793E+00 0.15786435E+04</pdfrwt>
<pdfrwt beam="2">  1       -2 0.50476991E-01 0.15786435E+04</pdfrwt>
<totfact> 0.27109528E+01</totfact>
</mgrwt>
</event>
<event>
12    2  0.3552864E-008  0.1885015E+04  0.7818608E-02  0.8662351E-01
          2   -1    0    0  501    0  0.00000000000E+00  0.00000000000E+00  0.26056231657E+04  0.26056231657E+04  0.00000000000E+00 0. -1.
         -2   -1    0    0    0  501 -0.00000000000E+00 -0.00000000000E+00 -0.34092441890E+03  0.34092441890E+03  0.00000000000E+00 0.  1.
         23    2    1    2    0    0  0.65904751584E+03 -0.29644234664E+02  0.13402259492E+04  0.14962292114E+04  0.85286865858E+02 0.  0.
        254    2    1    2    0    0 -0.65904751584E+03  0.29644234664E+02  0.92447279765E+03  0.14503183732E+04  0.90197063215E+03 0.  0.
         23    2    4    4    0    0  0.75998020191E+02  0.30199335222E+03  0.31649143077E+03  0.45320023874E+03  0.90818207322E+02 0.  0.
         23    2    4    4    0    0 -0.73504553603E+03 -0.27234911756E+03  0.60798136688E+03  0.99711813446E+03  0.10068391001E+03 0.  0.
          4    1    3    3  502    0  0.47896026579E+03  0.35887184288E+01  0.90211530909E+03  0.10213852584E+04  0.00000000000E+00 0. -1.
         -4    1    3    3    0  502  0.18008725004E+03 -0.33232953093E+02  0.43811064006E+03  0.47484395304E+03  0.00000000000E+00 0.  1.
         11    1    5    5    0    0 -0.70682938681E+01  0.15048386530E+03  0.13022746519E+03  0.19913449522E+03  0.00000000000E+00 0. -1.
        -11    1    5    5    0    0  0.83066314060E+02  0.15150948692E+03  0.18626396558E+03  0.25406574352E+03  0.00000000000E+00 0.  1.
          1    1    6    6  503    0 -0.54622447305E+03 -0.24699933054E+03  0.44892600171E+03  0.74893551074E+03  0.00000000000E+00 0. -1.
         -1    1    6    6    0  503 -0.18882106298E+03 -0.25349787018E+02  0.15905536516E+03  0.24818262372E+03  0.00000000000E+00 0.  1.
<mgrwt>
<rscale>  0 0.18850152E+04</rscale>
<asrwt>0</asrwt>
<pdfrwt beam="1">  1        2 0.40086509E+00 0.18850152E+04</pdfrwt>
<pdfrwt beam="2">  1       -2 0.52449912E-01 0.18850152E+04</pdfrwt>
<totfact> 0.97266312E+00</totfact>
</mgrwt>
</event>
<event>
12    2  0.3552864E-008  0.1488325E+04  0.7818608E-02  0.8892254E-01
          1   -1    0    0  501    0  0.00000000000E+00  0.00000000000E+00  0.54320025554E+03  0.54320025554E+03  0.00000000000E+00 0. -1.
         -1   -1    0    0    0  501 -0.00000000000E+00 -0.00000000000E+00 -0.10194720942E+04  0.10194720942E+04  0.00000000000E+00 0.  1.
         23    2    1    2    0    0 -0.71423338895E+02  0.42695905373E+03 -0.33631130631E+03  0.55658992884E+03  0.96393605770E+02 0.  0.
        254    2    1    2    0    0  0.71423338895E+02 -0.42695905373E+03 -0.13996053231E+03  0.10060824208E+04  0.89733915552E+03 0.  0.
         23    2    4    4    0    0  0.16853093464E+03 -0.64936287484E+03  0.57872593615E+02  0.67975461014E+03  0.92963830458E+02 0.  0.
         23    2    4    4    0    0 -0.97107595741E+02  0.22240382111E+03 -0.19783312592E+03  0.32632781070E+03  0.91970373125E+02 0.  0.
          4    1    3    3  502    0 -0.36864814477E+02  0.37821051377E+02 -0.41231503128E+02  0.67003606797E+02  0.00000000000E+00 0. -1.
         -4    1    3    3    0  502 -0.34558524418E+02  0.38913800236E+03 -0.29507980318E+03  0.48958632204E+03  0.00000000000E+00 0.  1.
         11    1    5    5    0    0  0.10860143782E+03 -0.25613073395E+03  0.44637703450E+02  0.28176186708E+03  0.00000000000E+00 0.  1.
        -11    1    5    5    0    0  0.59929496820E+02 -0.39323214089E+03  0.13234890164E+02  0.39799274307E+03  0.00000000000E+00 0. -1.
          4    1    6    6  503    0 -0.26445559084E+02  0.76856894005E+02 -0.15828544897E+02  0.82806355945E+02  0.00000000000E+00 0. -1.
         -4    1    6    6    0  503 -0.70662036657E+02  0.14554692710E+03 -0.18200458102E+03  0.24352145476E+03  0.00000000000E+00 0.  1.
<mgrwt>
<rscale>  0 0.14883246E+04</rscale>
<asrwt>0</asrwt>
<pdfrwt beam="1">  1        1 0.83569271E-01 0.14883246E+04</pdfrwt>
<pdfrwt beam="2">  1       -1 0.15684186E+00 0.14883246E+04</pdfrwt>
<totfact> 0.11807917E+01</totfact>
</mgrwt>
</event>
<event>
12    2  0.3552864E-008  0.1311518E+04  0.7818608E-02  0.9020481E-01
         -2   -1    0    0    0  501 -0.00000000000E+00  0.00000000000E+00  0.26597446411E+03  0.26597446411E+03  0.00000000000E+00 0.  1.
          2   -1    0    0  501    0  0.00000000000E+00 -0.00000000000E+00 -0.16167722328E+04  0.16167722328E+04  0.00000000000E+00 0. -1.
         23    2    1    2    0    0  0.31020925763E+03 -0.12363853792E+03 -0.22767786179E+03  0.41422348743E+03  0.90706213724E+02 0.  0.
        254    2    1    2    0    0 -0.31020925763E+03  0.12363853792E+03 -0.11231199069E+04  0.14685232095E+04  0.88523771944E+03 0.  0.
         23    2    4    4    0    0 -0.45070651763E+02 -0.29094310042E+03 -0.83810391643E+03  0.89263215888E+03  0.87719695650E+02 0.  0.
         23    2    4    4    0    0 -0.26513860587E+03  0.41458163833E+03 -0.28501599050E+03  0.57589105062E+03  0.90774292514E+02 0.  0.
          2    1    3    3  502    0  0.73420798345E+01 -0.27175010980E+02 -0.20102035217E+02  0.34590160131E+02  0.00000000000E+00 0. -1.
         -2    1    3    3    0  502  0.30286717780E+03 -0.96463526935E+02 -0.20757582657E+03  0.37963332730E+03  0.00000000000E+00 0.  1.
         11    1    5    5    0    0 -0.25850678739E+02 -0.15072377775E+02 -0.64993680957E+02  0.71551469079E+02  0.00000000000E+00 0. -1.
        -11    1    5    5    0    0 -0.19219973023E+02 -0.27587072264E+03 -0.77311023547E+03  0.82108068980E+03  0.00000000000E+00 0.  1.
          1    1    6    6  503    0 -0.38144270085E+02  0.15765181406E+02 -0.28666858253E+02  0.50252512845E+02  0.00000000000E+00 0. -1.
         -1    1    6    6    0  503 -0.22699433579E+03  0.39881645692E+03 -0.25634913225E+03  0.52563853778E+03  0.00000000000E+00 0.  1.
<mgrwt>
<rscale>  0 0.13115184E+04</rscale>
<asrwt>0</asrwt>
<pdfrwt beam="1">  1        2 0.24873419E+00 0.13115184E+04</pdfrwt>
<pdfrwt beam="2">  1       -2 0.40919149E-01 0.13115184E+04</pdfrwt>
<totfact> 0.60439223E+01</totfact>
</mgrwt>
</event>
<event>
12    2  0.3552864E-008  0.1199000E+04  0.7818608E-02  0.9113732E-01
          1   -1    0    0  501    0  0.00000000000E+00  0.00000000000E+00  0.50259417678E+03  0.50259417678E+03  0.00000000000E+00 0. -1.
         -1   -1    0    0    0  501 -0.00000000000E+00 -0.00000000000E+00 -0.71509056966E+03  0.71509056966E+03  0.00000000000E+00 0.  1.
         23    2    1    2    0    0  0.82079351542E+02 -0.12983507910E+03  0.15084230423E+03  0.23392729579E+03  0.91511809367E+02 0.  0.
        254    2    1    2    0    0 -0.82079351542E+02  0.12983507910E+03 -0.36333869711E+03  0.98375745065E+03  0.90120449687E+03 0.  0.
         23    2    4    4    0    0  0.32206468123E+03  0.42292192663E+02 -0.43904699150E+03  0.55336776078E+03  0.89102915030E+02 0.  0.
         23    2    4    4    0    0 -0.40414403277E+03  0.87542886440E+02  0.75708294387E+02  0.43038968987E+03  0.92235476459E+02 0.  0.
          1    1    3    3  502    0  0.66221077296E+02 -0.24646017610E+02  0.76548276337E+02  0.10417435324E+03  0.00000000000E+00 0. -1.
         -1    1    3    3    0  502  0.15858274246E+02 -0.10518906149E+03  0.74294027893E+02  0.12975294255E+03  0.00000000000E+00 0.  1.
         11    1    5    5    0    0  0.27666631164E+03  0.80749617349E+01 -0.39030036359E+03  0.47848074865E+03  0.00000000000E+00 0. -1.
        -11    1    5    5    0    0  0.45398369590E+02  0.34217230928E+02 -0.48746627908E+02  0.74887012133E+02  0.00000000000E+00 0.  1.
          3    1    6    6  503    0 -0.13979864951E+03  0.57468295833E+02 -0.83373775562E+01  0.15137958679E+03  0.00000000000E+00 0. -1.
         -3    1    6    6    0  503 -0.26434538326E+03  0.30074590607E+02  0.84045671944E+02  0.27901010308E+03  0.00000000000E+00 0.  1.
<mgrwt>
<rscale>  0 0.11990002E+04</rscale>
<asrwt>0</asrwt>
<pdfrwt beam="1">  1        1 0.77322181E-01 0.11990002E+04</pdfrwt>
<pdfrwt beam="2">  1       -1 0.11001393E+00 0.11990002E+04</pdfrwt>
<totfact> 0.33248249E+01</totfact>
</mgrwt>
</event>
<event>
12    2  0.3552864E-008  0.3054830E+04  0.7818608E-02  0.8228245E-01
          2   -1    0    0  501    0  0.00000000000E+00  0.00000000000E+00  0.96086927127E+03  0.96086927127E+03  0.00000000000E+00 0. -1.
         -2   -1    0    0    0  501 -0.00000000000E+00 -0.00000000000E+00 -0.24280063307E+04  0.24280063307E+04  0.00000000000E+00 0.  1.
         23    2    1    2    0    0 -0.88021648243E+03  0.10840878031E+04 -0.63614640937E+03  0.15373173627E+04  0.92924693113E+02 0.  0.
        254    2    1    2    0    0  0.88021648243E+03 -0.10840878031E+04 -0.83099065007E+03  0.18515582393E+04  0.88752184890E+03 0.  0.
         23    2    4    4    0    0  0.13887751414E+03 -0.68171983979E+03 -0.70010534156E+03  0.99198052549E+03  0.99241975897E+02 0.  0.
         23    2    4    4    0    0  0.74133896830E+03 -0.40236796331E+03 -0.13088530852E+03  0.85957771382E+03  0.10128888539E+03 0.  0.
          4    1    3    3  502    0 -0.46772553481E+03  0.56741053855E+03 -0.38551228002E+03  0.83026598943E+03  0.00000000000E+00 0.  1.
         -4    1    3    3    0  502 -0.41249094762E+03  0.51667726456E+03 -0.25063412935E+03  0.70705137322E+03  0.00000000000E+00 0. -1.
         11    1    5    5    0    0  0.12544113986E+02 -0.70349066364E+01 -0.53893705830E+01  0.15358711612E+02  0.00000000000E+00 0. -1.
        -11    1    5    5    0    0  0.12633340015E+03 -0.67468493315E+03 -0.69471597097E+03  0.97662181388E+03  0.00000000000E+00 0.  1.
          1    1    6    6  503    0  0.65815843390E+03 -0.32718176948E+03 -0.91182944749E+02  0.74063132786E+03  0.00000000000E+00 0.  1.
         -1    1    6    6    0  503  0.83180534400E+02 -0.75186193833E+02 -0.39702363768E+02  0.11894638597E+03  0.00000000000E+00 0. -1.
<mgrwt>
<rscale>  0 0.30548301E+04</rscale>
<asrwt>0</asrwt>
<pdfrwt beam="1">  1        2 0.14782604E+00 0.30548301E+04</pdfrwt>
<pdfrwt beam="2">  1       -2 0.37353943E+00 0.30548301E+04</pdfrwt>
<totfact> 0.25064881E-01</totfact>
</mgrwt>
</event>
<event>
12    2  0.3552864E-008  0.2102200E+04  0.7818608E-02  0.8560275E-01
          2   -1    0    0  501    0  0.00000000000E+00  0.00000000000E+00  0.98806886635E+03  0.98806886635E+03  0.00000000000E+00 0. -1.
         -2   -1    0    0    0  501 -0.00000000000E+00 -0.00000000000E+00 -0.11181524336E+04  0.11181524336E+04  0.00000000000E+00 0.  1.
         23    2    1    2    0    0  0.75820780932E+03 -0.11430442021E+03  0.34244031066E+03  0.84545921843E+03  0.97935392365E+02 0.  0.
        254    2    1    2    0    0 -0.75820780932E+03  0.11430442021E+03 -0.47252387795E+03  0.12607620816E+04  0.88221178209E+03 0.  0.
         23    2    4    4    0    0 -0.75656657337E+03 -0.21341283615E+03 -0.47047142021E+03  0.92079684153E+03  0.92657690286E+02 0.  0.
         23    2    4    4    0    0 -0.16412359541E+01  0.32771725636E+03 -0.20524577406E+01  0.33996524002E+03  0.90392798783E+02 0.  0.
          1    1    3    3  502    0  0.58579148387E+03 -0.11459560860E+03  0.29928440268E+03  0.66772372264E+03  0.00000000000E+00 0. -1.
         -1    1    3    3    0  502  0.17241632545E+03  0.29118839097E+00  0.43155907974E+02  0.17773549579E+03  0.00000000000E+00 0.  1.
         11    1    5    5    0    0 -0.10805720791E+03 -0.23616565165E+02 -0.31463038314E+02  0.11499576127E+03  0.00000000000E+00 0.  1.
        -11    1    5    5    0    0 -0.64850936546E+03 -0.18979627098E+03 -0.43900838190E+03  0.80580108026E+03  0.00000000000E+00 0. -1.
          4    1    6    6  503    0  0.35926029038E+00  0.25108342292E+03  0.37226331058E+02  0.25382831611E+03  0.00000000000E+00 0. -1.
         -4    1    6    6    0  503 -0.20004962445E+01  0.76633833436E+02 -0.39278788799E+02  0.86136923917E+02  0.00000000000E+00 0.  1.
<mgrwt>
<rscale>  0 0.21022004E+04</rscale>
<asrwt>0</asrwt>
<pdfrwt beam="1">  1        2 0.15201059E+00 0.21022004E+04</pdfrwt>
<pdfrwt beam="2">  1       -2 0.17202345E+00 0.21022004E+04</pdfrwt>
<totfact> 0.48701993E+00</totfact>
</mgrwt>
</event>
<event>
12    2  0.3552864E-008  0.1889233E+04  0.7818608E-02  0.8660234E-01
          2   -1    0    0  501    0  0.00000000000E+00  0.00000000000E+00  0.19956194766E+04  0.19956194766E+04  0.00000000000E+00 0. -1.
         -2   -1    0    0    0  501 -0.00000000000E+00 -0.00000000000E+00 -0.44712956121E+03  0.44712956121E+03  0.00000000000E+00 0.  1.
         23    2    1    2    0    0 -0.38720465753E+03 -0.34183656187E+03 -0.63539846609E+02  0.52799858171E+03  0.89249696561E+02 0.  0.
        254    2    1    2    0    0  0.38720465753E+03  0.34183656187E+03  0.16120297620E+04  0.19147504561E+04  0.89490204699E+03 0.  0.
         23    2    4    4    0    0  0.37032018583E+02  0.15703610939E+03 -0.60278032903E+02  0.19383567671E+03  0.88921978515E+02 0.  0.
         23    2    4    4    0    0  0.35017263894E+03  0.18480045249E+03  0.16723077949E+04  0.17209147794E+04  0.90345075747E+02 0.  0.
          2    1    3    3  502    0 -0.13249174629E+03 -0.15904603786E+03  0.50751760514E+01  0.20706390899E+03  0.00000000000E+00 0. -1.
         -2    1    3    3    0  502 -0.25471291124E+03 -0.18279052402E+03 -0.68615022661E+02  0.32093467272E+03  0.00000000000E+00 0.  1.
         11    1    5    5    0    0 -0.16988851282E+01  0.12346796699E+03 -0.13096559177E+02  0.12417223903E+03  0.00000000000E+00 0.  1.
        -11    1    5    5    0    0  0.38730903711E+02  0.33568142394E+02 -0.47181473726E+02  0.69663437678E+02  0.00000000000E+00 0. -1.
          2    1    6    6  503    0  0.21237790729E+03  0.14339832410E+03  0.12055358772E+04  0.12324707730E+04  0.00000000000E+00 0. -1.
         -2    1    6    6    0  503  0.13779473165E+03  0.41402128387E+02  0.46677191767E+03  0.48844400645E+03  0.00000000000E+00 0.  1.
<mgrwt>
<rscale>  0 0.18892331E+04</rscale>
<asrwt>0</asrwt>
<pdfrwt beam="1">  1        2 0.30701838E+00 0.18892331E+04</pdfrwt>
<pdfrwt beam="2">  1       -2 0.68789164E-01 0.18892331E+04</pdfrwt>
<totfact> 0.12161264E+01</totfact>
</mgrwt>
</event>
<event>
12    2  0.3552864E-008  0.2333856E+04  0.7818608E-02  0.8464691E-01
         -2   -1    0    0    0  501 -0.00000000000E+00  0.00000000000E+00  0.48087624203E+03  0.48087624203E+03  0.00000000000E+00 0.  1.
          2   -1    0    0  501    0  0.00000000000E+00 -0.00000000000E+00 -0.28317495809E+04  0.28317495809E+04  0.00000000000E+00 0. -1.
         23    2    1    2    0    0  0.52612699558E+03  0.41191092419E+03 -0.20292069399E+04  0.21384502030E+04  0.93852229573E+02 0.  0.
        254    2    1    2    0    0 -0.52612699558E+03 -0.41191092419E+03 -0.32166639903E+03  0.11741756200E+04  0.91035097039E+03 0.  0.
         23    2    4    4    0    0  0.23173937672E+03 -0.30921234454E+02 -0.18119072855E+03  0.30988544184E+03  0.92410202295E+02 0.  0.
         23    2    4    4    0    0 -0.75786637230E+03 -0.38098968974E+03 -0.14047567048E+03  0.86429017811E+03  0.88031335560E+02 0.  0.
          3    1    3    3  502    0  0.28451105821E+03  0.16943472635E+03 -0.10642775320E+04  0.11146036667E+04  0.00000000000E+00 0. -1.
         -3    1    3    3    0  502  0.24161593736E+03  0.24247619784E+03 -0.96492940785E+03  0.10238465363E+04  0.00000000000E+00 0.  1.
         11    1    5    5    0    0  0.33263706259E+02 -0.11773248966E+02 -0.77464662450E+02  0.85122602603E+02  0.00000000000E+00 0.  1.
        -11    1    5    5    0    0  0.19847567046E+03 -0.19147985488E+02 -0.10372606610E+03  0.22476283924E+03  0.00000000000E+00 0. -1.
          4    1    6    6  503    0 -0.51079488873E+03 -0.29844689650E+03 -0.11373327884E+03  0.60242611754E+03  0.00000000000E+00 0. -1.
         -4    1    6    6    0  503 -0.24707148357E+03 -0.82542793244E+02 -0.26742391637E+02  0.26186406057E+03  0.00000000000E+00 0.  1.
<mgrwt>
<rscale>  0 0.23338561E+04</rscale>
<asrwt>0</asrwt>
<pdfrwt beam="1">  1        2 0.43565378E+00 0.23338561E+04</pdfrwt>
<pdfrwt beam="2">  1       -2 0.73980960E-01 0.23338561E+04</pdfrwt>
<totfact> 0.32928754E+00</totfact>
</mgrwt>
</event>
<event>
12    2  0.3552864E-008  0.2108320E+04  0.7818608E-02  0.8557587E-01
         -2   -1    0    0    0  501 -0.00000000000E+00  0.00000000000E+00  0.11673030801E+04  0.11673030801E+04  0.00000000000E+00 0.  1.
          2   -1    0    0  501    0  0.00000000000E+00 -0.00000000000E+00 -0.95198312460E+03  0.95198312460E+03  0.00000000000E+00 0. -1.
         23    2    1    2    0    0  0.33572531693E+03 -0.61753683910E+03 -0.40265512318E+03  0.81504211207E+03  0.89995889701E+02 0.  0.
        254    2    1    2    0    0 -0.33572531693E+03  0.61753683910E+03  0.61797507864E+03  0.13042440926E+04  0.90834807159E+03 0.  0.
         23    2    4    4    0    0  0.29316130089E+03  0.85454195057E+02  0.20100408295E+03  0.37644147879E+03  0.89775151346E+02 0.  0.
         23    2    4    4    0    0 -0.62888661782E+03  0.53208264404E+03  0.41697099570E+03  0.92780261379E+03  0.91337619564E+02 0.  0.
          4    1    3    3  502    0  0.32755679451E+03 -0.56969562053E+03 -0.39254740457E+03  0.76546718970E+03  0.00000000000E+00 0. -1.
         -4    1    3    3    0  502  0.81685224236E+01 -0.47841218567E+02 -0.10107718608E+02  0.49574922370E+02  0.00000000000E+00 0.  1.
         11    1    5    5    0    0  0.27579258481E+03  0.59528522074E+02  0.15819876496E+03  0.32346876822E+03  0.00000000000E+00 0. -1.
        -11    1    5    5    0    0  0.17368716086E+02  0.25925672983E+02  0.42805317983E+02  0.52972710575E+02  0.00000000000E+00 0.  1.
          1    1    6    6  503    0 -0.45542102295E+03  0.33206202975E+03  0.26953264833E+03  0.62475703139E+03  0.00000000000E+00 0. -1.
         -1    1    6    6    0  503 -0.17346559487E+03  0.20002061428E+03  0.14743834737E+03  0.30304558241E+03  0.00000000000E+00 0.  1.
<mgrwt>
<rscale>  0 0.21083196E+04</rscale>
<asrwt>0</asrwt>
<pdfrwt beam="1">  1        2 0.14645894E+00 0.21083196E+04</pdfrwt>
<pdfrwt beam="2">  1       -2 0.17958509E+00 0.21083196E+04</pdfrwt>
<totfact> 0.45488483E+00</totfact>
</mgrwt>
</event>
<event>
12    2  0.3552864E-008  0.1135283E+04  0.7818608E-02  0.9171469E-01
         -2   -1    0    0    0  501 -0.00000000000E+00  0.00000000000E+00  0.23214479212E+03  0.23214479212E+03  0.00000000000E+00 0.  1.
          2   -1    0    0  501    0  0.00000000000E+00 -0.00000000000E+00 -0.13879985917E+04  0.13879985917E+04  0.00000000000E+00 0. -1.
         23    2    1    2    0    0 -0.12476969224E+03  0.13520708088E+03 -0.15922474025E+03  0.26056672877E+03  0.93242004558E+02 0.  0.
        254    2    1    2    0    0  0.12476969224E+03 -0.13520708088E+03 -0.99662905931E+03  0.13595766550E+04  0.90627300976E+03 0.  0.
         23    2    4    4    0    0  0.20303279155E+03  0.24479073087E+03 -0.88660912915E+03  0.94642311119E+03  0.92174514498E+02 0.  0.
         23    2    4    4    0    0 -0.78263099305E+02 -0.37999781175E+03 -0.11001993016E+03  0.41315354385E+03  0.89822135975E+02 0.  0.
          2    1    3    3  502    0 -0.62709512639E+02  0.70702785434E+02 -0.14016442712E+03  0.16904861275E+03  0.00000000000E+00 0. -1.
         -2    1    3    3    0  502 -0.62060179605E+02  0.64504295446E+02 -0.19060313128E+02  0.91518116022E+02  0.00000000000E+00 0.  1.
         11    1    5    5    0    0  0.21045146525E+03  0.23406993292E+03 -0.81570112696E+03  0.87432653011E+03  0.00000000000E+00 0.  1.
        -11    1    5    5    0    0 -0.74186737045E+01  0.10720797955E+02 -0.70908002192E+02  0.72096581078E+02  0.00000000000E+00 0. -1.
          4    1    6    6  503    0  0.78725257577E+01 -0.11472298104E+02  0.88223728097E+01  0.16474967302E+02  0.00000000000E+00 0. -1.
         -4    1    6    6    0  503 -0.86135625063E+02 -0.36852551365E+03 -0.11884230297E+03  0.39667857654E+03  0.00000000000E+00 0.  1.
<mgrwt>
<rscale>  0 0.11352826E+04</rscale>
<asrwt>0</asrwt>
<pdfrwt beam="1">  1        2 0.21353824E+00 0.11352826E+04</pdfrwt>
<pdfrwt beam="2">  1       -2 0.35714584E-01 0.11352826E+04</pdfrwt>
<totfact> 0.10725580E+02</totfact>
</mgrwt>
</event>
<event>
12    2  0.3552864E-008  0.1260327E+04  0.7818608E-02  0.9061631E-01
          2   -1    0    0  501    0  0.00000000000E+00  0.00000000000E+00  0.10790679839E+04  0.10790679839E+04  0.00000000000E+00 0. -1.
         -2   -1    0    0    0  501 -0.00000000000E+00 -0.00000000000E+00 -0.36800854260E+03  0.36800854260E+03  0.00000000000E+00 0.  1.
         23    2    1    2    0    0 -0.37313720460E+02  0.20653420114E+03  0.40849571250E+03  0.46777134847E+03  0.88840291238E+02 0.  0.
        254    2    1    2    0    0  0.37313720460E+02 -0.20653420114E+03  0.30256372877E+03  0.97930517800E+03  0.90743877574E+03 0.  0.
         23    2    4    4    0    0 -0.38466938663E+02 -0.53506601469E+03  0.49003478974E+02  0.54640133429E+03  0.91529949874E+02 0.  0.
         23    2    4    4    0    0  0.75780659123E+02  0.32853181355E+03  0.25356024980E+03  0.43290384371E+03  0.97144618029E+02 0.  0.
          2    1    3    3  502    0  0.70786052173E+01  0.16670322650E+03  0.32266353486E+03  0.36325174343E+03  0.00000000000E+00 0. -1.
         -2    1    3    3    0  502 -0.44392325677E+02  0.39830974637E+02  0.85832177632E+02  0.10451960503E+03  0.00000000000E+00 0.  1.
         11    1    5    5    0    0 -0.62204505612E+01  0.12599411400E+01 -0.20923054671E+01  0.66827538506E+01  0.00000000000E+00 0.  1.
        -11    1    5    5    0    0 -0.32246488102E+02 -0.53632595583E+03  0.51095784441E+02  0.53971858044E+03  0.00000000000E+00 0. -1.
          3    1    6    6  503    0  0.38004043130E+02  0.19208502550E+03  0.86901470131E+02  0.21422611845E+03  0.00000000000E+00 0. -1.
         -3    1    6    6    0  503  0.37776615992E+02  0.13644678804E+03  0.16665877967E+03  0.21867772526E+03  0.00000000000E+00 0.  1.
<mgrwt>
<rscale>  0 0.12603273E+04</rscale>
<asrwt>0</asrwt>
<pdfrwt beam="1">  1        2 0.16601046E+00 0.12603273E+04</pdfrwt>
<pdfrwt beam="2">  1       -2 0.56616700E-01 0.12603273E+04</pdfrwt>
<totfact> 0.64563083E+01</totfact>
</mgrwt>
</event>
<event>
12    2  0.3552864E-008  0.1406738E+04  0.7818608E-02  0.8948956E-01
          1   -1    0    0  501    0  0.00000000000E+00  0.00000000000E+00  0.45468507916E+03  0.45468507916E+03  0.00000000000E+00 0.  1.
         -1   -1    0    0    0  501 -0.00000000000E+00 -0.00000000000E+00 -0.10880675300E+04  0.10880675300E+04  0.00000000000E+00 0. -1.
         23    2    1    2    0    0 -0.32316917121E+02  0.39981219714E+03 -0.12254052461E+03  0.43006457176E+03  0.95106149124E+02 0.  0.
        254    2    1    2    0    0  0.32316917121E+02 -0.39981219714E+03 -0.51084192625E+03  0.11126880374E+04  0.90344951098E+03 0.  0.
         23    2    4    4    0    0 -0.27795306531E+03  0.13588127310E+03 -0.31442386711E+02  0.32461792490E+03  0.93094288705E+02 0.  0.
         23    2    4    4    0    0  0.31026998243E+03 -0.53569347023E+03 -0.47939953954E+03  0.78807011252E+03  0.89418273785E+02 0.  0.
          2    1    3    3  502    0 -0.26787076777E+02  0.62184253665E+02  0.77002699780E+01  0.68144868068E+02  0.00000000000E+00 0. -1.
         -2    1    3    3    0  502 -0.55298403433E+01  0.33762794347E+03 -0.13024079459E+03  0.36191970369E+03  0.00000000000E+00 0.  1.
         11    1    5    5    0    0 -0.77619614961E+01  0.17825298008E+02 -0.22347637370E+02  0.29621043050E+02  0.00000000000E+00 0. -1.
        -11    1    5    5    0    0 -0.27019110382E+03  0.11805597509E+03 -0.90947493407E+01  0.29499688185E+03  0.00000000000E+00 0.  1.
          3    1    6    6  503    0  0.21583798527E+03 -0.35037364521E+03 -0.26558208356E+03  0.48977706179E+03  0.00000000000E+00 0. -1.
         -3    1    6    6    0  503  0.94431997164E+02 -0.18531982502E+03 -0.21381745598E+03  0.29829305073E+03  0.00000000000E+00 0.  1.
<mgrwt>
<rscale>  0 0.14067382E+04</rscale>
<asrwt>0</asrwt>
<pdfrwt beam="1">  1        1 0.69951551E-01 0.14067382E+04</pdfrwt>
<pdfrwt beam="2">  1       -1 0.16739500E+00 0.14067382E+04</pdfrwt>
<totfact> 0.12654848E+01</totfact>
</mgrwt>
</event>
<event>
12    2  0.3552864E-008  0.2022987E+04  0.7818608E-02  0.8595948E-01
         -1   -1    0    0    0  501 -0.00000000000E+00  0.00000000000E+00  0.74820002463E+03  0.74820002463E+03  0.00000000000E+00 0. -1.
          1   -1    0    0  501    0  0.00000000000E+00 -0.00000000000E+00 -0.13674401110E+04  0.13674401110E+04  0.00000000000E+00 0.  1.
         23    2    1    2    0    0 -0.66060151819E+03 -0.45482951815E+03 -0.14466289869E+03  0.82016619490E+03  0.92092217849E+02 0.  0.
        254    2    1    2    0    0  0.66060151819E+03  0.45482951815E+03 -0.47457718767E+03  0.12954739407E+04  0.89986941699E+03 0.  0.
         23    2    4    4    0    0 -0.19055515383E+03  0.49398116754E+02  0.41407148550E+02  0.21682333347E+03  0.80909612513E+02 0.  0.
         23    2    4    4    0    0  0.85115667202E+03  0.40543140139E+03 -0.51598433622E+03  0.10786506073E+04  0.91678763848E+02 0.  0.
          2    1    3    3  502    0 -0.17249769705E+03 -0.10491382774E+03 -0.75809590201E+02  0.21566052190E+03  0.00000000000E+00 0. -1.
         -2    1    3    3    0  502 -0.48810382114E+03 -0.34991569040E+03 -0.68853308492E+02  0.60450567300E+03  0.00000000000E+00 0.  1.
         11    1    5    5    0    0 -0.19565754580E+03  0.44609872920E+02  0.29253901525E+02  0.20279967146E+03  0.00000000000E+00 0.  1.
        -11    1    5    5    0    0  0.51023919726E+01  0.47882438335E+01  0.12153247026E+02  0.14023662008E+02  0.00000000000E+00 0. -1.
          1    1    6    6  503    0  0.74414352636E+03  0.38648488968E+03 -0.45956653542E+03  0.95620163055E+03  0.00000000000E+00 0.  1.
         -1    1    6    6    0  503  0.10701314566E+03  0.18946511714E+02 -0.56417800795E+02  0.12244897671E+03  0.00000000000E+00 0. -1.
<mgrwt>
<rscale>  0 0.20229866E+04</rscale>
<asrwt>0</asrwt>
<pdfrwt beam="1">  1        1 0.21037540E+00 0.20229866E+04</pdfrwt>
<pdfrwt beam="2">  1       -1 0.11510770E+00 0.20229866E+04</pdfrwt>
<totfact> 0.51359397E+00</totfact>
</mgrwt>
</event>
<event>
12    2  0.3552864E-008  0.1641789E+04  0.7818608E-02  0.8795279E-01
         -2   -1    0    0    0  501 -0.00000000000E+00  0.00000000000E+00  0.38441673982E+03  0.38441673982E+03  0.00000000000E+00 0.  1.
          2   -1    0    0  501    0  0.00000000000E+00 -0.00000000000E+00 -0.17529617444E+04  0.17529617444E+04  0.00000000000E+00 0. -1.
         23    2    1    2    0    0 -0.13975633749E+03  0.21236113720E+03 -0.11322973593E+04  0.11640948387E+04  0.91599110357E+02 0.  0.
        254    2    1    2    0    0  0.13975633749E+03 -0.21236113720E+03 -0.23624764528E+03  0.97328364557E+03  0.90930688900E+03 0.  0.
         23    2    4    4    0    0  0.44016131527E+03 -0.32468861525E+03 -0.30227543882E+03  0.63169740470E+03  0.92230634072E+02 0.  0.
         23    2    4    4    0    0 -0.30040497779E+03  0.11232747805E+03  0.66027793538E+02  0.34158624087E+03  0.97267041838E+02 0.  0.
          3    1    3    3  502    0 -0.11992316362E+03  0.20158661513E+03 -0.10997567398E+04  0.11244926035E+04  0.00000000000E+00 0. -1.
         -3    1    3    3    0  502 -0.19833173869E+02  0.10774522070E+02 -0.32540619498E+02  0.39602235150E+02  0.00000000000E+00 0.  1.
         11    1    5    5    0    0  0.75147019846E+02 -0.42328581483E+02 -0.13460299211E+02  0.87292399766E+02  0.00000000000E+00 0. -1.
        -11    1    5    5    0    0  0.36501429543E+03 -0.28236003377E+03 -0.28881513960E+03  0.54440500494E+03  0.00000000000E+00 0.  1.
          3    1    6    6  503    0 -0.28341869522E+03  0.12395454544E+03  0.45773131970E+02  0.31270763622E+03  0.00000000000E+00 0. -1.
         -3    1    6    6    0  503 -0.16986282562E+02 -0.11627067392E+02  0.20254661568E+02  0.28878604652E+02  0.00000000000E+00 0.  1.
<mgrwt>
<rscale>  0 0.16417891E+04</rscale>
<asrwt>0</asrwt>
<pdfrwt beam="1">  1        2 0.26968642E+00 0.16417891E+04</pdfrwt>
<pdfrwt beam="2">  1       -2 0.59141037E-01 0.16417891E+04</pdfrwt>
<totfact> 0.23386134E+01</totfact>
</mgrwt>
</event>
<event>
12    2  0.3552864E-008  0.1542562E+04  0.7818608E-02  0.8856633E-01
         -2   -1    0    0    0  501 -0.00000000000E+00  0.00000000000E+00  0.16157406009E+03  0.16157406009E+03  0.00000000000E+00 0.  1.
          2   -1    0    0  501    0  0.00000000000E+00 -0.00000000000E+00 -0.36817444457E+04  0.36817444457E+04  0.00000000000E+00 0. -1.
         23    2    1    2    0    0  0.20164375217E+03  0.39117097196E+03 -0.17868627532E+04  0.18426714142E+04  0.94257677703E+02 0.  0.
        254    2    1    2    0    0 -0.20164375217E+03 -0.39117097196E+03 -0.17333076324E+04  0.20006470916E+04  0.89697185265E+03 0.  0.
         23    2    4    4    0    0 -0.96795400025E+02 -0.62461654097E+02  0.70298691389E+02  0.16197571298E+03  0.89573533408E+02 0.  0.
         23    2    4    4    0    0 -0.10484835214E+03 -0.32870931787E+03 -0.18036063238E+04  0.18386713786E+04  0.93132565102E+02 0.  0.
          3    1    3    3  502    0  0.20201418656E+03  0.39634838070E+03 -0.17646541214E+04  0.18198642638E+04  0.00000000000E+00 0. -1.
         -3    1    3    3    0  502 -0.37043439507E+00 -0.51774087352E+01 -0.22208631759E+02  0.22807150358E+02  0.00000000000E+00 0.  1.
         11    1    5    5    0    0 -0.49602344528E+02  0.17531608454E+02  0.31513987018E+02  0.61326024292E+02  0.00000000000E+00 0. -1.
        -11    1    5    5    0    0 -0.47193055497E+02 -0.79993262551E+02  0.38784704371E+02  0.10064968869E+03  0.00000000000E+00 0.  1.
          2    1    6    6  503    0 -0.82387348153E+02 -0.30166371481E+03 -0.14508724066E+04  0.14841898168E+04  0.00000000000E+00 0. -1.
         -2    1    6    6    0  503 -0.22461003992E+02 -0.27045603056E+02 -0.35273391714E+03  0.35448156179E+03  0.00000000000E+00 0.  1.
<mgrwt>
<rscale>  0 0.15425620E+04</rscale>
<asrwt>0</asrwt>
<pdfrwt beam="1">  1        2 0.56642221E+00 0.15425620E+04</pdfrwt>
<pdfrwt beam="2">  1       -2 0.24857548E-01 0.15425620E+04</pdfrwt>
<totfact> 0.85418900E+00</totfact>
</mgrwt>
</event>
<event>
12    2  0.3552864E-008  0.1927922E+04  0.7818608E-02  0.8641081E-01
         -2   -1    0    0    0  501 -0.00000000000E+00  0.00000000000E+00  0.28476872594E+03  0.28476872594E+03  0.00000000000E+00 0.  1.
          2   -1    0    0  501    0  0.00000000000E+00 -0.00000000000E+00 -0.32630727571E+04  0.32630727571E+04  0.00000000000E+00 0. -1.
         23    2    1    2    0    0 -0.47818721463E+03 -0.56380133623E+03 -0.93915413951E+03  0.11987307856E+04  0.91706268518E+02 0.  0.
        254    2    1    2    0    0  0.47818721463E+03  0.56380133623E+03 -0.20391498916E+04  0.23491106974E+04  0.90202762102E+03 0.  0.
         23    2    4    4    0    0 -0.84985906166E+02  0.12770725186E+03  0.82323791213E+01  0.17942074064E+03  0.92694572024E+02 0.  0.
         23    2    4    4    0    0  0.56317312080E+03  0.43609408437E+03 -0.20473822708E+04  0.21696899568E+04  0.91860390869E+02 0.  0.
          3    1    3    3  502    0 -0.42724360588E+03 -0.49047827013E+03 -0.86732977675E+03  0.10841434286E+04  0.00000000000E+00 0. -1.
         -3    1    3    3    0  502 -0.50943608748E+02 -0.73323066098E+02 -0.71824362755E+02  0.11458735698E+03  0.00000000000E+00 0.  1.
         11    1    5    5    0    0 -0.67671039232E+02  0.74196512878E+02 -0.37231084667E+02  0.10710110055E+03  0.00000000000E+00 0. -1.
        -11    1    5    5    0    0 -0.17314866933E+02  0.53510738978E+02  0.45463463788E+02  0.72319640088E+02  0.00000000000E+00 0.  1.
          3    1    6    6  503    0  0.19674256754E+03  0.10005762010E+03 -0.65724582750E+03  0.69331900521E+03  0.00000000000E+00 0. -1.
         -3    1    6    6    0  503  0.36643055326E+03  0.33603646427E+03 -0.13901364433E+04  0.14763709516E+04  0.00000000000E+00 0.  1.
<mgrwt>
<rscale>  0 0.19279223E+04</rscale>
<asrwt>0</asrwt>
<pdfrwt beam="1">  1        2 0.50201114E+00 0.19279223E+04</pdfrwt>
<pdfrwt beam="2">  1       -2 0.43810578E-01 0.19279223E+04</pdfrwt>
<totfact> 0.54666392E+00</totfact>
</mgrwt>
</event>
<event>
12    2  0.3552864E-008  0.1714107E+04  0.7818608E-02  0.8753359E-01
         -1   -1    0    0    0  501 -0.00000000000E+00  0.00000000000E+00  0.52179293134E+03  0.52179293134E+03  0.00000000000E+00 0.  1.
          1   -1    0    0  501    0  0.00000000000E+00 -0.00000000000E+00 -0.14077242896E+04  0.14077242896E+04  0.00000000000E+00 0. -1.
         23    2    1    2    0    0 -0.10048304346E+03  0.45446345805E+03 -0.75336468832E+03  0.88949906443E+03  0.83763687193E+02 0.  0.
        254    2    1    2    0    0  0.10048304346E+03 -0.45446345805E+03 -0.13256666996E+03  0.10400181565E+04  0.92055959459E+03 0.  0.
         23    2    4    4    0    0  0.46056020403E+03 -0.36541718852E+03  0.83755409817E+02  0.60117356674E+03  0.93537508326E+02 0.  0.
         23    2    4    4    0    0 -0.36007716057E+03 -0.89046269527E+02 -0.21632207978E+03  0.43884458979E+03  0.90578872290E+02 0.  0.
          1    1    3    3  502    0 -0.10074521795E+03  0.27081729079E+03 -0.47647841753E+03  0.55724616312E+03  0.00000000000E+00 0. -1.
         -1    1    3    3    0  502  0.26217448300E+00  0.18364616725E+03 -0.27688627079E+03  0.33225290132E+03  0.00000000000E+00 0.  1.
         11    1    5    5    0    0  0.44882097741E+02 -0.77765124709E+02  0.14451972720E+02  0.90943261620E+02  0.00000000000E+00 0.  1.
        -11    1    5    5    0    0  0.41567810629E+03 -0.28765206381E+03  0.69303437097E+02  0.51023030512E+03  0.00000000000E+00 0. -1.
          2    1    6    6  503    0 -0.27419053219E+03 -0.98541524486E+02 -0.19250629555E+03  0.34921276297E+03  0.00000000000E+00 0. -1.
         -2    1    6    6    0  503 -0.85886628377E+02  0.94952549597E+01 -0.23815784227E+02  0.89631826820E+02  0.00000000000E+00 0.  1.
<mgrwt>
<rscale>  0 0.17141069E+04</rscale>
<asrwt>0</asrwt>
<pdfrwt beam="1">  1        1 0.21657297E+00 0.17141069E+04</pdfrwt>
<pdfrwt beam="2">  1       -1 0.80275836E-01 0.17141069E+04</pdfrwt>
<totfact> 0.11167160E+01</totfact>
</mgrwt>
</event>
<event>
12    2  0.3552864E-008  0.1957400E+04  0.7818608E-02  0.8626801E-01
          1   -1    0    0  501    0  0.00000000000E+00  0.00000000000E+00  0.55309937016E+03  0.55309937016E+03  0.00000000000E+00 0. -1.
         -1   -1    0    0    0  501 -0.00000000000E+00 -0.00000000000E+00 -0.17317932438E+04  0.17317932438E+04  0.00000000000E+00 0.  1.
         23    2    1    2    0    0  0.92533776109E+02 -0.73244885593E+03 -0.65958512545E+03  0.99283803287E+03  0.75039959450E+02 0.  0.
        254    2    1    2    0    0 -0.92533776109E+02  0.73244885593E+03 -0.51910874818E+03  0.12920545811E+04  0.92460116903E+03 0.  0.
         23    2    4    4    0    0 -0.11236245363E+02  0.16821696251E+03 -0.66878188546E+03  0.69568403766E+03  0.91015769222E+02 0.  0.
         23    2    4    4    0    0 -0.81297530746E+02  0.56423189342E+03  0.14967313728E+03  0.59637054342E+03  0.91043170967E+02 0.  0.
          1    1    3    3  502    0  0.67757423686E+02 -0.39654760155E+03 -0.31460966937E+03  0.51070570079E+03  0.00000000000E+00 0. -1.
         -1    1    3    3    0  502  0.24776352423E+02 -0.33590125438E+03 -0.34497545608E+03  0.48213233208E+03  0.00000000000E+00 0.  1.
         11    1    5    5    0    0  0.24127239646E+02  0.65687340276E+02 -0.39593536606E+03  0.40207183993E+03  0.00000000000E+00 0.  1.
        -11    1    5    5    0    0 -0.35363485009E+02  0.10252962224E+03 -0.27284651940E+03  0.29361219773E+03  0.00000000000E+00 0. -1.
          2    1    6    6  503    0 -0.89066436607E+02  0.55099069106E+03  0.15635174014E+03  0.57962870737E+03  0.00000000000E+00 0. -1.
         -2    1    6    6    0  503  0.77689058609E+01  0.13241202361E+02 -0.66786028571E+01  0.16741836051E+02  0.00000000000E+00 0.  1.
<mgrwt>
<rscale>  0 0.19574001E+04</rscale>
<asrwt>0</asrwt>
<pdfrwt beam="1">  1        1 0.85092210E-01 0.19574001E+04</pdfrwt>
<pdfrwt beam="2">  1       -1 0.26642973E+00 0.19574001E+04</pdfrwt>
<totfact> 0.19531463E+00</totfact>
</mgrwt>
</event>
<event>
12    2  0.3552864E-008  0.1570198E+04  0.7818608E-02  0.8839069E-01
          1   -1    0    0  501    0  0.00000000000E+00  0.00000000000E+00  0.73023781704E+03  0.73023781704E+03  0.00000000000E+00 0. -1.
         -1   -1    0    0    0  501 -0.00000000000E+00 -0.00000000000E+00 -0.84408188578E+03  0.84408188578E+03  0.00000000000E+00 0.  1.
         23    2    1    2    0    0  0.22477554059E+03 -0.43225714811E+03  0.15668482368E+03  0.52000629642E+03  0.92120185624E+02 0.  0.
        254    2    1    2    0    0 -0.22477554059E+03  0.43225714811E+03 -0.27052889241E+03  0.10543134064E+04  0.89499753717E+03 0.  0.
         23    2    4    4    0    0 -0.78414423083E+01 -0.24553415065E+03  0.52240077730E+02  0.26773546614E+03  0.92761774203E+02 0.  0.
         23    2    4    4    0    0 -0.21693409828E+03  0.67779129877E+03 -0.32276897014E+03  0.78657794026E+03  0.89797551972E+02 0.  0.
          3    1    3    3  502    0  0.17956339590E+03 -0.31313424893E+03  0.75054819685E+02  0.36868590556E+03  0.00000000000E+00 0. -1.
         -3    1    3    3    0  502  0.45212144694E+02 -0.11912289918E+03  0.81630003997E+02  0.15132039086E+03  0.00000000000E+00 0.  1.
         11    1    5    5    0    0  0.39842002301E+02 -0.70514583848E+02  0.11328954918E+02  0.81780418818E+02  0.00000000000E+00 0.  1.
        -11    1    5    5    0    0 -0.47683444609E+02 -0.17501956681E+03  0.40911122812E+02  0.18595504732E+03  0.00000000000E+00 0. -1.
          2    1    6    6  503    0 -0.20369934146E+03  0.60476070117E+03 -0.25891362639E+03  0.68866914648E+03  0.00000000000E+00 0. -1.
         -2    1    6    6    0  503 -0.13234756828E+02  0.73030597601E+02 -0.63855343752E+02  0.97908793782E+02  0.00000000000E+00 0.  1.
<mgrwt>
<rscale>  0 0.15701981E+04</rscale>
<asrwt>0</asrwt>
<pdfrwt beam="1">  1        1 0.11234428E+00 0.15701981E+04</pdfrwt>
<pdfrwt beam="2">  1       -1 0.12985875E+00 0.15701981E+04</pdfrwt>
<totfact> 0.12491524E+01</totfact>
</mgrwt>
</event>
<event>
12    2  0.3552864E-008  0.2534168E+04  0.7818608E-02  0.8390913E-01
          2   -1    0    0  501    0  0.00000000000E+00  0.00000000000E+00  0.12149351971E+04  0.12149351971E+04  0.00000000000E+00 0. -1.
         -2   -1    0    0    0  501 -0.00000000000E+00 -0.00000000000E+00 -0.13214710685E+04  0.13214710685E+04  0.00000000000E+00 0.  1.
         23    2    1    2    0    0 -0.78962714302E+03 -0.66380790966E+03  0.34496437343E+03  0.10942936076E+04  0.11969174946E+03 0.  0.
        254    2    1    2    0    0  0.78962714302E+03  0.66380790966E+03 -0.45150024482E+03  0.14421126579E+04  0.90093533674E+03 0.  0.
         23    2    4    4    0    0 -0.11085820406E+03  0.16361392687E+03 -0.33754499098E+03  0.40138762263E+03  0.90090755330E+02 0.  0.
         23    2    4    4    0    0  0.90048534708E+03  0.50019398279E+03 -0.11395525385E+03  0.10407250352E+04  0.95157334787E+02 0.  0.
          3    1    3    3  502    0 -0.61102828614E+03 -0.46245632348E+03  0.29158573827E+03  0.81990466540E+03  0.00000000000E+00 0. -1.
         -3    1    3    3    0  502 -0.17859885688E+03 -0.20135158617E+03  0.53378635163E+02  0.27438894225E+03  0.00000000000E+00 0.  1.
         11    1    5    5    0    0 -0.49732204882E+02  0.10148257281E+02 -0.98645103642E+02  0.11093753107E+03  0.00000000000E+00 0. -1.
        -11    1    5    5    0    0 -0.61125999175E+02  0.15346566959E+03 -0.23889988734E+03  0.29045009156E+03  0.00000000000E+00 0.  1.
          1    1    6    6  503    0  0.22723500728E+02  0.85751216083E+00  0.66593619093E+01  0.23694723326E+02  0.00000000000E+00 0. -1.
         -1    1    6    6    0  503  0.87776184635E+03  0.49933647063E+03 -0.12061461575E+03  0.10170303119E+04  0.00000000000E+00 0.  1.
<mgrwt>
<rscale>  0 0.25341679E+04</rscale>
<asrwt>0</asrwt>
<pdfrwt beam="1">  1        2 0.18691311E+00 0.25341679E+04</pdfrwt>
<pdfrwt beam="2">  1       -2 0.20330324E+00 0.25341679E+04</pdfrwt>
<totfact> 0.20882219E+00</totfact>
</mgrwt>
</event>
<event>
12    2  0.3552864E-008  0.1410421E+04  0.7818608E-02  0.8946310E-01
         -1   -1    0    0    0  501 -0.00000000000E+00  0.00000000000E+00  0.16345910928E+04  0.16345910928E+04  0.00000000000E+00 0.  1.
          1   -1    0    0  501    0  0.00000000000E+00 -0.00000000000E+00 -0.30424851941E+03  0.30424851941E+03  0.00000000000E+00 0. -1.
         23    2    1    2    0    0  0.23938713157E+03 -0.19128551936E+03  0.24317091594E+02  0.32068572479E+03  0.91387441505E+02 0.  0.
        254    2    1    2    0    0 -0.23938713157E+03  0.19128551936E+03  0.13060254818E+04  0.16181538874E+04  0.90488844374E+03 0.  0.
         23    2    4    4    0    0 -0.37387338294E+03  0.43048544981E+03  0.11580502942E+04  0.12940107455E+04  0.91018110806E+02 0.  0.
         23    2    4    4    0    0  0.13448625138E+03 -0.23919993045E+03  0.14797518757E+03  0.32414314194E+03  0.88707168803E+02 0.  0.
          1    1    3    3  502    0  0.18655263046E+03 -0.15915659171E+03  0.55514585226E+02  0.25142508584E+03  0.00000000000E+00 0. -1.
         -1    1    3    3    0  502  0.52834501108E+02 -0.32128927646E+02 -0.31197493631E+02  0.69260638951E+02  0.00000000000E+00 0.  1.
         11    1    5    5    0    0 -0.34026000778E+02  0.73705915591E+02  0.21852513685E+03  0.23311706535E+03  0.00000000000E+00 0.  1.
        -11    1    5    5    0    0 -0.33984738216E+03  0.35677953422E+03  0.93952515738E+03  0.10608936801E+04  0.00000000000E+00 0. -1.
          3    1    6    6  503    0  0.13126106961E+03 -0.23097133693E+03  0.15931061954E+03  0.30976943099E+03  0.00000000000E+00 0. -1.
         -3    1    6    6    0  503  0.32251817688E+01 -0.82285935175E+01 -0.11335431967E+02  0.14373710955E+02  0.00000000000E+00 0.  1.
<mgrwt>
<rscale>  0 0.14104211E+04</rscale>
<asrwt>0</asrwt>
<pdfrwt beam="1">  1        1 0.46807465E-01 0.14104211E+04</pdfrwt>
<pdfrwt beam="2">  1       -1 0.25147555E+00 0.14104211E+04</pdfrwt>
<totfact> 0.57243047E+00</totfact>
</mgrwt>
</event>
<event>
12    2  0.3552864E-008  0.1126605E+04  0.7818608E-02  0.9179642E-01
         -1   -1    0    0    0  501 -0.00000000000E+00  0.00000000000E+00  0.27992548758E+03  0.27992548758E+03  0.00000000000E+00 0.  1.
          1   -1    0    0  501    0  0.00000000000E+00 -0.00000000000E+00 -0.11335501818E+04  0.11335501818E+04  0.00000000000E+00 0. -1.
         23    2    1    2    0    0 -0.86299771890E+02  0.12391779692E+03 -0.28516542665E+03  0.33542322128E+03  0.91575901823E+02 0.  0.
        254    2    1    2    0    0  0.86299771890E+02 -0.12391779692E+03 -0.56845926756E+03  0.10780524481E+04  0.90346437170E+03 0.  0.
         23    2    4    4    0    0 -0.19391507131E+01  0.35674887794E+03 -0.42260390384E+03  0.56022874788E+03  0.89379349944E+02 0.  0.
         23    2    4    4    0    0  0.88238922603E+02 -0.48066667486E+03 -0.14585536372E+03  0.51782370020E+03  0.89671832716E+02 0.  0.
          3    1    3    3  502    0 -0.10100237282E+03  0.11540450431E+03 -0.27689223058E+03  0.31652643853E+03  0.00000000000E+00 0. -1.
         -3    1    3    3    0  502  0.14702600929E+02  0.85132926136E+01 -0.82731960659E+01  0.18896782751E+02  0.00000000000E+00 0.  1.
         11    1    5    5    0    0  0.31556451273E+02  0.30166572000E+03 -0.34885523651E+03  0.46227480169E+03  0.00000000000E+00 0. -1.
        -11    1    5    5    0    0 -0.33495601986E+02  0.55083157936E+02 -0.73748667330E+02  0.97953946187E+02  0.00000000000E+00 0.  1.
          1    1    6    6  503    0  0.78218967161E+02 -0.45786395081E+03 -0.11565804184E+03  0.47867983759E+03  0.00000000000E+00 0. -1.
         -1    1    6    6    0  503  0.10019955442E+02 -0.22802724052E+02 -0.30197321886E+02  0.39143862614E+02  0.00000000000E+00 0.  1.
<mgrwt>
<rscale>  0 0.11266048E+04</rscale>
<asrwt>0</asrwt>
<pdfrwt beam="1">  1        1 0.17439233E+00 0.11266048E+04</pdfrwt>
<pdfrwt beam="2">  1       -1 0.43065460E-01 0.11266048E+04</pdfrwt>
<totfact> 0.63225248E+01</totfact>
</mgrwt>
</event>
<event>
12    2  0.3552864E-008  0.1647321E+04  0.7818608E-02  0.8791993E-01
          1   -1    0    0  501    0  0.00000000000E+00  0.00000000000E+00  0.55616339572E+03  0.55616339572E+03  0.00000000000E+00 0. -1.
         -1   -1    0    0    0  501 -0.00000000000E+00 -0.00000000000E+00 -0.12198149776E+04  0.12198149776E+04  0.00000000000E+00 0.  1.
         23    2    1    2    0    0 -0.88512849062E+02 -0.19180056494E+03  0.34583054657E+03  0.41491009215E+03  0.89048506218E+02 0.  0.
        254    2    1    2    0    0  0.88512849062E+02  0.19180056494E+03 -0.10094821285E+04  0.13610682812E+04  0.88816142521E+03 0.  0.
         23    2    4    4    0    0  0.40742878151E+03 -0.87372952250E+02 -0.27234838209E+03  0.50580039312E+03  0.89599953511E+02 0.  0.
         23    2    4    4    0    0 -0.31891593245E+03  0.27917351719E+03 -0.73713374638E+03  0.85526788808E+03  0.92042249281E+02 0.  0.
          2    1    3    3  502    0 -0.38611369543E+01 -0.35755462251E+02  0.14031708329E+02  0.38603760154E+02  0.00000000000E+00 0.  1.
         -2    1    3    3    0  502 -0.84651712108E+02 -0.15604510269E+03  0.33179883825E+03  0.37630633199E+03  0.00000000000E+00 0. -1.
         11    1    5    5    0    0  0.25482526747E+00  0.60911833837E+01 -0.12255508543E+02  0.13688131376E+02  0.00000000000E+00 0.  1.
        -11    1    5    5    0    0  0.40717395624E+03 -0.93464135634E+02 -0.26009287355E+03  0.49211226175E+03  0.00000000000E+00 0. -1.
          2    1    6    6  503    0 -0.29205228677E+03  0.21080030795E+03 -0.60596725482E+03  0.70493093417E+03  0.00000000000E+00 0. -1.
         -2    1    6    6    0  503 -0.26863645677E+02  0.68373209238E+02 -0.13116649156E+03  0.15033695391E+03  0.00000000000E+00 0.  1.
<mgrwt>
<rscale>  0 0.16473208E+04</rscale>
<asrwt>0</asrwt>
<pdfrwt beam="1">  1        1 0.85563600E-01 0.16473208E+04</pdfrwt>
<pdfrwt beam="2">  1       -1 0.18766384E+00 0.16473208E+04</pdfrwt>
<totfact> 0.66966006E+00</totfact>
</mgrwt>
</event>
<event>
12    2  0.3552864E-008  0.1436005E+04  0.7818608E-02  0.8928161E-01
         -2   -1    0    0    0  501 -0.00000000000E+00  0.00000000000E+00  0.47689537574E+03  0.47689537574E+03  0.00000000000E+00 0.  1.
          2   -1    0    0  501    0  0.00000000000E+00 -0.00000000000E+00 -0.10810079060E+04  0.10810079060E+04  0.00000000000E+00 0. -1.
         23    2    1    2    0    0 -0.42794914842E+03  0.74937329347E+02 -0.58349830348E+02  0.44863811215E+03  0.95474478293E+02 0.  0.
        254    2    1    2    0    0  0.42794914842E+03 -0.74937329347E+02 -0.54576269991E+03  0.11092651696E+04  0.86247099364E+03 0.  0.
         23    2    4    4    0    0  0.15107138788E+03  0.24374765498E+03 -0.60414753568E+03  0.67421079655E+03  0.85618162598E+02 0.  0.
         23    2    4    4    0    0  0.27687776054E+03 -0.31868498433E+03  0.58384835773E+02  0.43505437303E+03  0.87419133638E+02 0.  0.
          1    1    3    3  502    0 -0.18137617662E+03  0.48400676132E+02 -0.70046007389E+02  0.20036563090E+03  0.00000000000E+00 0. -1.
         -1    1    3    3    0  502 -0.24657297180E+03  0.26536653215E+02  0.11696177041E+02  0.24827248125E+03  0.00000000000E+00 0.  1.
         11    1    5    5    0    0  0.16275554924E+02  0.81938636722E+02 -0.23233497371E+03  0.24689749672E+03  0.00000000000E+00 0.  1.
        -11    1    5    5    0    0  0.13479583296E+03  0.16180901826E+03 -0.37181256196E+03  0.42731329983E+03  0.00000000000E+00 0. -1.
          3    1    6    6  503    0  0.40738806813E+02 -0.76861805791E+02  0.42165742112E+02  0.96671285177E+02  0.00000000000E+00 0. -1.
         -3    1    6    6    0  503  0.23613895373E+03 -0.24182317854E+03  0.16219093661E+02  0.33838308785E+03  0.00000000000E+00 0.  1.
<mgrwt>
<rscale>  0 0.14360051E+04</rscale>
<asrwt>0</asrwt>
<pdfrwt beam="1">  1        2 0.16630891E+00 0.14360051E+04</pdfrwt>
<pdfrwt beam="2">  1       -2 0.73368520E-01 0.14360051E+04</pdfrwt>
<totfact> 0.36438334E+01</totfact>
</mgrwt>
</event>
<event>
12    2  0.3552864E-008  0.1235491E+04  0.7818608E-02  0.9082347E-01
         -2   -1    0    0    0  501 -0.00000000000E+00  0.00000000000E+00  0.87525906512E+03  0.87525906512E+03  0.00000000000E+00 0.  1.
          2   -1    0    0  501    0  0.00000000000E+00 -0.00000000000E+00 -0.43599580702E+03  0.43599580702E+03  0.00000000000E+00 0. -1.
         23    2    1    2    0    0  0.10939329436E+03  0.22207752419E+03  0.24081030487E+03  0.35777045807E+03  0.93406520831E+02 0.  0.
        254    2    1    2    0    0 -0.10939329436E+03 -0.22207752419E+03  0.19845295323E+03  0.95348441407E+03  0.89914605800E+03 0.  0.
         23    2    4    4    0    0 -0.22135909618E+03  0.29127877937E+03  0.18972558208E+03  0.42108212987E+03  0.86436027367E+02 0.  0.
         23    2    4    4    0    0  0.11196580182E+03 -0.51335630356E+03  0.87273711457E+01  0.53240228419E+03  0.85469234390E+02 0.  0.
          4    1    3    3  502    0  0.60737137615E+02  0.34617668560E+02  0.50480395098E+02  0.86230233396E+02  0.00000000000E+00 0. -1.
         -4    1    3    3    0  502  0.48656156750E+02  0.18745985563E+03  0.19032990977E+03  0.27154022468E+03  0.00000000000E+00 0.  1.
         11    1    5    5    0    0 -0.99587860033E+02  0.17266243200E+03  0.14129275500E+03  0.24432294184E+03  0.00000000000E+00 0.  1.
        -11    1    5    5    0    0 -0.12177123615E+03  0.11861634737E+03  0.48432827079E+02  0.17675918804E+03  0.00000000000E+00 0. -1.
          3    1    6    6  503    0  0.82735196331E+02 -0.22330356845E+03  0.30427755295E+02  0.24007383174E+03  0.00000000000E+00 0. -1.
         -3    1    6    6    0  503  0.29230605488E+02 -0.29005273511E+03 -0.21700384149E+02  0.29232845246E+03  0.00000000000E+00 0.  1.
<mgrwt>
<rscale>  0 0.12354906E+04</rscale>
<asrwt>0</asrwt>
<pdfrwt beam="1">  1        2 0.67076278E-01 0.12354906E+04</pdfrwt>
<pdfrwt beam="2">  1       -2 0.13465524E+00 0.12354906E+04</pdfrwt>
<totfact> 0.28168679E+01</totfact>
</mgrwt>
</event>
<event>
12    2  0.3552864E-008  0.1936423E+04  0.7818608E-02  0.8636936E-01
          2   -1    0    0  501    0  0.00000000000E+00  0.00000000000E+00  0.20344356319E+04  0.20344356319E+04  0.00000000000E+00 0.  1.
         -2   -1    0    0    0  501 -0.00000000000E+00 -0.00000000000E+00 -0.46078316115E+03  0.46078316115E+03  0.00000000000E+00 0. -1.
         23    2    1    2    0    0 -0.67535116939E+02  0.43146613012E+02 -0.34976690988E+03  0.37022109498E+03  0.91127085374E+02 0.  0.
        254    2    1    2    0    0  0.67535116939E+02 -0.43146613012E+02  0.19234193806E+04  0.21249976981E+04  0.89980580170E+03 0.  0.
         23    2    4    4    0    0  0.71578361042E+02  0.41471547949E+03  0.79372626121E+03  0.90255215142E+03  0.86525242571E+02 0.  0.
         23    2    4    4    0    0 -0.40432441027E+01 -0.45786209251E+03  0.11296931194E+04  0.12224455467E+04  0.92263356075E+02 0.  0.
          1    1    3    3  502    0 -0.49062731756E+02  0.60102390958E+02 -0.32789163219E+03  0.33694565067E+03  0.00000000000E+00 0. -1.
         -1    1    3    3    0  502 -0.18472385182E+02 -0.16955777946E+02 -0.21875277691E+02  0.33275444312E+02  0.00000000000E+00 0.  1.
         11    1    5    5    0    0 -0.41004710389E+01  0.20837284504E+03  0.42347430267E+03  0.47198150539E+03  0.00000000000E+00 0. -1.
        -11    1    5    5    0    0  0.75678832081E+02  0.20634263445E+03  0.37025195854E+03  0.43057064603E+03  0.00000000000E+00 0.  1.
          3    1    6    6  503    0  0.93073058223E+01 -0.10149681314E+02  0.80096603060E+02  0.81271814266E+02  0.00000000000E+00 0. -1.
         -3    1    6    6    0  503 -0.13350549925E+02 -0.44771241119E+03  0.10495965164E+04  0.11411737324E+04  0.00000000000E+00 0.  1.
<mgrwt>
<rscale>  0 0.19364232E+04</rscale>
<asrwt>0</asrwt>
<pdfrwt beam="1">  1        2 0.31299009E+00 0.19364232E+04</pdfrwt>
<pdfrwt beam="2">  1       -2 0.70889718E-01 0.19364232E+04</pdfrwt>
<totfact> 0.10793710E+01</totfact>
</mgrwt>
</event>
<event>
12    2  0.3552864E-008  0.1809289E+04  0.7818608E-02  0.8701375E-01
         -2   -1    0    0    0  501 -0.00000000000E+00  0.00000000000E+00  0.49770868486E+03  0.49770868486E+03  0.00000000000E+00 0.  1.
          2   -1    0    0  501    0  0.00000000000E+00 -0.00000000000E+00 -0.16442981523E+04  0.16442981523E+04  0.00000000000E+00 0. -1.
         23    2    1    2    0    0  0.23119791716E+03 -0.49446943553E+02  0.31628347825E+03  0.40510735886E+03  0.90439241817E+02 0.  0.
        254    2    1    2    0    0 -0.23119791716E+03  0.49446943553E+02 -0.14628729457E+04  0.17368994783E+04  0.90604915175E+03 0.  0.
         23    2    4    4    0    0 -0.46886309188E+03 -0.11133898097E+03 -0.40285353469E+03  0.63497091771E+03  0.93102783634E+02 0.  0.
         23    2    4    4    0    0  0.23766517471E+03  0.16078592452E+03 -0.10600194110E+04  0.11019285606E+04  0.90931579576E+02 0.  0.
          1    1    3    3  502    0  0.38376367759E+02  0.23354550822E+02  0.78368761272E+02  0.90331851468E+02  0.00000000000E+00 0. -1.
         -1    1    3    3    0  502  0.19282154940E+03 -0.72801494375E+02  0.23791471698E+03  0.31477550739E+03  0.00000000000E+00 0.  1.
         11    1    5    5    0    0 -0.44985468934E+03 -0.87595381313E+02 -0.39063171030E+03  0.60219210012E+03  0.00000000000E+00 0.  1.
        -11    1    5    5    0    0 -0.19008402538E+02 -0.23743599653E+02 -0.12221824381E+02  0.32778817592E+02  0.00000000000E+00 0. -1.
          3    1    6    6  503    0  0.15685631860E+02  0.31224112183E+02 -0.24118519529E+03  0.24370326763E+03  0.00000000000E+00 0. -1.
         -3    1    6    6    0  503  0.22197954285E+03  0.12956181234E+03 -0.81883421570E+03  0.85822529295E+03  0.00000000000E+00 0.  1.
<mgrwt>
<rscale>  0 0.18092888E+04</rscale>
<asrwt>0</asrwt>
<pdfrwt beam="1">  1        2 0.25296895E+00 0.18092888E+04</pdfrwt>
<pdfrwt beam="2">  1       -2 0.76570567E-01 0.18092888E+04</pdfrwt>
<totfact> 0.15151783E+01</totfact>
</mgrwt>
</event>
<event>
12    2  0.3552864E-008  0.1373402E+04  0.7818608E-02  0.8973300E-01
          2   -1    0    0  501    0  0.00000000000E+00  0.00000000000E+00  0.18891401960E+04  0.18891401960E+04  0.00000000000E+00 0. -1.
         -2   -1    0    0    0  501 -0.00000000000E+00 -0.00000000000E+00 -0.24961521010E+03  0.24961521010E+03  0.00000000000E+00 0.  1.
         23    2    1    2    0    0  0.33660245608E+03 -0.15020807452E+03  0.57357688168E+03  0.68753681357E+03  0.88615753278E+02 0.  0.
        254    2    1    2    0    0 -0.33660245608E+03  0.15020807452E+03  0.10659481042E+04  0.14512185925E+04  0.91319568729E+03 0.  0.
         23    2    4    4    0    0 -0.31333430946E+03  0.17735800279E+03  0.12172822814E+04  0.12726496818E+04  0.90701760849E+02 0.  0.
         23    2    4    4    0    0 -0.23268146616E+02 -0.27149928271E+02 -0.15133417723E+03  0.17856891064E+03  0.87785519294E+02 0.  0.
          4    1    3    3  502    0  0.93327629515E+02 -0.49279429743E+02  0.98642859770E+02  0.14446079887E+03  0.00000000000E+00 0.  1.
         -4    1    3    3    0  502  0.24327482656E+03 -0.10092864478E+03  0.47493402191E+03  0.54307601470E+03  0.00000000000E+00 0. -1.
         11    1    5    5    0    0 -0.25300959539E+03  0.17076235323E+03  0.10848605367E+04  0.11269853685E+04  0.00000000000E+00 0.  1.
        -11    1    5    5    0    0 -0.60324714071E+02  0.65956495676E+01  0.13242174472E+03  0.14566431339E+03  0.00000000000E+00 0. -1.
          2    1    6    6  503    0  0.22173029761E+02 -0.25301361324E+01 -0.43149302198E+01  0.22730232301E+02  0.00000000000E+00 0. -1.
         -2    1    6    6    0  503 -0.45441176377E+02 -0.24619792138E+02 -0.14701924701E+03  0.15583867834E+03  0.00000000000E+00 0.  1.
<mgrwt>
<rscale>  0 0.13734018E+04</rscale>
<asrwt>0</asrwt>
<pdfrwt beam="1">  1        2 0.29063694E+00 0.13734018E+04</pdfrwt>
<pdfrwt beam="2">  1       -2 0.38402341E-01 0.13734018E+04</pdfrwt>
<totfact> 0.48100429E+01</totfact>
</mgrwt>
</event>
<event>
12    2  0.3552864E-008  0.1244678E+04  0.7818608E-02  0.9074625E-01
          1   -1    0    0  501    0  0.00000000000E+00  0.00000000000E+00  0.79035848664E+03  0.79035848664E+03  0.00000000000E+00 0. -1.
         -1   -1    0    0    0  501 -0.00000000000E+00 -0.00000000000E+00 -0.49003801462E+03  0.49003801462E+03  0.00000000000E+00 0.  1.
         23    2    1    2    0    0 -0.38055603626E+02 -0.26772105868E+03  0.20195356200E+03  0.34977697366E+03  0.91847133185E+02 0.  0.
        254    2    1    2    0    0  0.38055603626E+02  0.26772105868E+03  0.98366910019E+02  0.93061952759E+03  0.88501630602E+03 0.  0.
         23    2    4    4    0    0  0.22959200147E+03  0.88631874056E+02 -0.32938059807E+03  0.42059986199E+03  0.88569573102E+02 0.  0.
         23    2    4    4    0    0 -0.19153639785E+03  0.17908918462E+03  0.42774750809E+03  0.51001966561E+03  0.91613322610E+02 0.  0.
          3    1    3    3  502    0 -0.48914915782E+02 -0.26993646597E+03  0.19166719399E+03  0.33465605911E+03  0.00000000000E+00 0. -1.
         -3    1    3    3    0  502  0.10859312155E+02  0.22154072984E+01  0.10286368016E+02  0.15120914554E+02  0.00000000000E+00 0.  1.
         11    1    5    5    0    0  0.19315792518E+02 -0.39296829507E+01 -0.88098422178E+00  0.19731152574E+02  0.00000000000E+00 0. -1.
        -11    1    5    5    0    0  0.21027620895E+03  0.92561557007E+02 -0.32849961385E+03  0.40086870941E+03  0.00000000000E+00 0.  1.
          4    1    6    6  503    0 -0.10527919427E+03  0.69055844112E+02  0.27781349899E+03  0.30501271870E+03  0.00000000000E+00 0. -1.
         -4    1    6    6    0  503 -0.86257203577E+02  0.11003334051E+03  0.14993400910E+03  0.20500694690E+03  0.00000000000E+00 0.  1.
<mgrwt>
<rscale>  0 0.12446778E+04</rscale>
<asrwt>0</asrwt>
<pdfrwt beam="1">  1        1 0.12159361E+00 0.12446778E+04</pdfrwt>
<pdfrwt beam="2">  1       -1 0.75390464E-01 0.12446778E+04</pdfrwt>
<totfact> 0.39348233E+01</totfact>
</mgrwt>
</event>
<event>
12    2  0.3552864E-008  0.1584726E+04  0.7818608E-02  0.8829986E-01
          2   -1    0    0  501    0  0.00000000000E+00  0.00000000000E+00  0.24307060517E+04  0.24307060517E+04  0.00000000000E+00 0.  1.
         -2   -1    0    0    0  501 -0.00000000000E+00 -0.00000000000E+00 -0.25829508684E+03  0.25829508684E+03  0.00000000000E+00 0. -1.
         23    2    1    2    0    0  0.44560810509E+03  0.13701931169E+03  0.10442704667E+04  0.11476635968E+04  0.96384898417E+02 0.  0.
        254    2    1    2    0    0 -0.44560810509E+03 -0.13701931169E+03  0.11281404981E+04  0.15413375417E+04  0.94110549832E+03 0.  0.
         23    2    4    4    0    0 -0.42182513062E+02 -0.25317794284E+03 -0.59105295763E+02  0.27874141791E+03  0.91240927901E+02 0.  0.
         23    2    4    4    0    0 -0.40342559202E+03  0.11615863115E+03  0.11872457939E+04  0.12625961238E+04  0.91385780685E+02 0.  0.
          2    1    3    3  502    0  0.45693366818E+02 -0.12146640919E+02  0.76242702336E+02  0.89712732186E+02  0.00000000000E+00 0. -1.
         -2    1    3    3    0  502  0.39991473827E+03  0.14916595260E+03  0.96802776438E+03  0.10579508646E+04  0.00000000000E+00 0.  1.
         11    1    5    5    0    0 -0.11141564425E+02  0.43032677874E+01 -0.80906518615E+01  0.14426060413E+02  0.00000000000E+00 0.  1.
        -11    1    5    5    0    0 -0.31040948637E+02 -0.25748121063E+03 -0.51014643901E+02  0.26431535750E+03  0.00000000000E+00 0. -1.
          3    1    6    6  503    0 -0.32671396507E+03  0.12992113055E+03  0.98273861946E+03  0.10437416871E+04  0.00000000000E+00 0. -1.
         -3    1    6    6    0  503 -0.76711626958E+02 -0.13762499394E+02  0.20450717441E+03  0.21885443675E+03  0.00000000000E+00 0.  1.
<mgrwt>
<rscale>  0 0.15847264E+04</rscale>
<asrwt>0</asrwt>
<pdfrwt beam="1">  1        2 0.37395476E+00 0.15847264E+04</pdfrwt>
<pdfrwt beam="2">  1       -2 0.39737707E-01 0.15847264E+04</pdfrwt>
<totfact> 0.21996168E+01</totfact>
</mgrwt>
</event>
<event>
12    2  0.3552864E-008  0.1671863E+04  0.7818608E-02  0.8777576E-01
          2   -1    0    0  501    0  0.00000000000E+00  0.00000000000E+00  0.19519158949E+04  0.19519158949E+04  0.00000000000E+00 0. -1.
         -2   -1    0    0    0  501 -0.00000000000E+00 -0.00000000000E+00 -0.35799783003E+03  0.35799783003E+03  0.00000000000E+00 0.  1.
         23    2    1    2    0    0 -0.29799401473E+03  0.36059741246E+03  0.81947406707E+02  0.48377578538E+03  0.92155880788E+02 0.  0.
        254    2    1    2    0    0  0.29799401473E+03 -0.36059741246E+03  0.15119706582E+04  0.18261379395E+04  0.91098494850E+03 0.  0.
         23    2    4    4    0    0 -0.79775235393E+02 -0.13175810080E+03 -0.60624498309E+02  0.18972244854E+03  0.92709181738E+02 0.  0.
         23    2    4    4    0    0  0.37776925013E+03 -0.22883931166E+03  0.15725951565E+04  0.16364154910E+04  0.98605761057E+02 0.  0.
          1    1    3    3  502    0 -0.11606147028E+03  0.10688718191E+03  0.66415741040E+02  0.17119049389E+03  0.00000000000E+00 0. -1.
         -1    1    3    3    0  502 -0.18193254445E+03  0.25371023055E+03  0.15531665667E+02  0.31258529149E+03  0.00000000000E+00 0.  1.
         11    1    5    5    0    0 -0.62497626479E+02 -0.23455838001E+02 -0.55111716152E+01  0.66981360575E+02  0.00000000000E+00 0.  1.
        -11    1    5    5    0    0 -0.17277608914E+02 -0.10830226280E+03 -0.55113326694E+02  0.12274108797E+03  0.00000000000E+00 0. -1.
          2    1    6    6  503    0  0.19046910381E+03 -0.16411561427E+03  0.97099578180E+03  0.10030180570E+04  0.00000000000E+00 0. -1.
         -2    1    6    6    0  503  0.18730014632E+03 -0.64723697393E+02  0.60159937467E+03  0.63339743402E+03  0.00000000000E+00 0.  1.
<mgrwt>
<rscale>  0 0.16718632E+04</rscale>
<asrwt>0</asrwt>
<pdfrwt beam="1">  1        2 0.30029475E+00 0.16718632E+04</pdfrwt>
<pdfrwt beam="2">  1       -2 0.55076590E-01 0.16718632E+04</pdfrwt>
<totfact> 0.21007329E+01</totfact>
</mgrwt>
</event>
<event>
12    2  0.3552864E-008  0.1436653E+04  0.7818608E-02  0.8927706E-01
         -2   -1    0    0    0  501 -0.00000000000E+00  0.00000000000E+00  0.78548008046E+03  0.78548008046E+03  0.00000000000E+00 0.  1.
          2   -1    0    0  501    0  0.00000000000E+00 -0.00000000000E+00 -0.65691406369E+03  0.65691406369E+03  0.00000000000E+00 0. -1.
         23    2    1    2    0    0  0.21377823823E+02  0.13203986361E+03  0.45463657184E+03  0.48273854775E+03  0.91926906304E+02 0.  0.
        254    2    1    2    0    0 -0.21377823823E+02 -0.13203986361E+03 -0.32607055507E+03  0.95965559640E+03  0.89259471200E+03 0.  0.
         23    2    4    4    0    0  0.11990345690E+03  0.14951405685E+03  0.23046246313E+03  0.31381392767E+03  0.92924389246E+02 0.  0.
         23    2    4    4    0    0 -0.14128128073E+03 -0.28155392046E+03 -0.55653301820E+03  0.64584166873E+03  0.90274305946E+02 0.  0.
          3    1    3    3  502    0 -0.18201101195E+02  0.68511389710E+00  0.20407143616E+02  0.27353262626E+02  0.00000000000E+00 0. -1.
         -3    1    3    3    0  502  0.39578925017E+02  0.13135474971E+03  0.43422942822E+03  0.45538528513E+03  0.00000000000E+00 0.  1.
         11    1    5    5    0    0  0.18770142427E+02  0.95271432275E+02  0.89648972373E+02  0.13215862553E+03  0.00000000000E+00 0.  1.
        -11    1    5    5    0    0  0.10113331448E+03  0.54242624576E+02  0.14081349076E+03  0.18165530214E+03  0.00000000000E+00 0. -1.
          3    1    6    6  503    0 -0.54598347073E+02 -0.11696955497E+03 -0.31908841248E+03  0.34420963274E+03  0.00000000000E+00 0. -1.
         -3    1    6    6    0  503 -0.86682933652E+02 -0.16458436549E+03 -0.23744460572E+03  0.30163203599E+03  0.00000000000E+00 0.  1.
<mgrwt>
<rscale>  0 0.14366529E+04</rscale>
<asrwt>0</asrwt>
<pdfrwt beam="1">  1        2 0.10106370E+00 0.14366529E+04</pdfrwt>
<pdfrwt beam="2">  1       -2 0.12084309E+00 0.14366529E+04</pdfrwt>
<totfact> 0.22474409E+01</totfact>
</mgrwt>
</event>
<event>
12    2  0.3552864E-008  0.2963960E+04  0.7818608E-02  0.8254098E-01
          2   -1    0    0  501    0  0.00000000000E+00  0.00000000000E+00  0.36905448343E+04  0.36905448343E+04  0.00000000000E+00 0.  1.
         -2   -1    0    0    0  501 -0.00000000000E+00 -0.00000000000E+00 -0.59510576074E+03  0.59510576074E+03  0.00000000000E+00 0. -1.
         23    2    1    2    0    0 -0.46628437611E+03  0.85190338990E+03  0.27506422227E+04  0.29184387274E+04  0.89952561352E+02 0.  0.
        254    2    1    2    0    0  0.46628437611E+03 -0.85190338990E+03  0.34479685091E+03  0.13672118677E+04  0.89845585177E+03 0.  0.
         23    2    4    4    0    0  0.34771460457E+03 -0.10273783201E+03 -0.20486279734E+03  0.42627139781E+03  0.90983682606E+02 0.  0.
         23    2    4    4    0    0  0.11856977154E+03 -0.74916555790E+03  0.54965964825E+03  0.94094046986E+03  0.89080946586E+02 0.  0.
          1    1    3    3  502    0 -0.20207834746E+03  0.28063264567E+03  0.95601991146E+03  0.10166436994E+04  0.00000000000E+00 0. -1.
         -1    1    3    3    0  502 -0.26420602865E+03  0.57127074423E+03  0.17946223112E+04  0.19017950280E+04  0.00000000000E+00 0.  1.
         11    1    5    5    0    0  0.22142373346E+02  0.50781997971E+01 -0.39407774376E+02  0.45486761721E+02  0.00000000000E+00 0.  1.
        -11    1    5    5    0    0  0.32557223122E+03 -0.10781603181E+03 -0.16545502297E+03  0.38078463609E+03  0.00000000000E+00 0. -1.
          1    1    6    6  503    0  0.89645444527E+02 -0.70562344985E+03  0.51641436486E+03  0.87899064554E+03  0.00000000000E+00 0. -1.
         -1    1    6    6    0  503  0.28924327014E+02 -0.43542108042E+02  0.33245283396E+02  0.61949824326E+02  0.00000000000E+00 0.  1.
<mgrwt>
<rscale>  0 0.29639598E+04</rscale>
<asrwt>0</asrwt>
<pdfrwt beam="1">  1        2 0.56777612E+00 0.29639598E+04</pdfrwt>
<pdfrwt beam="2">  1       -2 0.91554734E-01 0.29639598E+04</pdfrwt>
<totfact> 0.51694865E-01</totfact>
</mgrwt>
</event>
<event>
12    2  0.3552864E-008  0.3361194E+04  0.7818608E-02  0.8147497E-01
          2   -1    0    0  501    0  0.00000000000E+00  0.00000000000E+00  0.17468956147E+04  0.17468956147E+04  0.00000000000E+00 0. -1.
         -2   -1    0    0    0  501 -0.00000000000E+00 -0.00000000000E+00 -0.16168143055E+04  0.16168143055E+04  0.00000000000E+00 0.  1.
         23    2    1    2    0    0 -0.13348501452E+03 -0.30431143550E+03  0.15859437105E+04  0.16229503386E+04  0.91250479349E+02 0.  0.
        254    2    1    2    0    0  0.13348501452E+03  0.30431143550E+03 -0.14558624013E+04  0.17407595815E+04  0.89458643524E+03 0.  0.
         23    2    4    4    0    0  0.22511023921E+03 -0.26056010127E+03 -0.39679728719E+03  0.53358423142E+03  0.93262311393E+02 0.  0.
         23    2    4    4    0    0 -0.91625224689E+02  0.56487153677E+03 -0.10590651141E+04  0.12071753501E+04  0.90434368553E+02 0.  0.
          2    1    3    3  502    0  0.41564268547E+01 -0.34134044980E+02  0.85127198953E+02  0.91809851936E+02  0.00000000000E+00 0.  1.
         -2    1    3    3    0  502 -0.13764144138E+03 -0.27017739052E+03  0.15008165115E+04  0.15311404867E+04  0.00000000000E+00 0. -1.
         11    1    5    5    0    0  0.13992129622E+03 -0.21853788429E+03 -0.31590010916E+03  0.40881493976E+03  0.00000000000E+00 0.  1.
        -11    1    5    5    0    0  0.85188942987E+02 -0.42022216983E+02 -0.80897178036E+02  0.12476929166E+03  0.00000000000E+00 0. -1.
          2    1    6    6  503    0  0.94573660037E+01  0.20621062283E+03 -0.35922732739E+03  0.41431453689E+03  0.00000000000E+00 0.  1.
         -2    1    6    6    0  503 -0.10108259069E+03  0.35866091393E+03 -0.69983778672E+03  0.79286081316E+03  0.00000000000E+00 0. -1.
<mgrwt>
<rscale>  0 0.33611937E+04</rscale>
<asrwt>0</asrwt>
<pdfrwt beam="1">  1        2 0.26875317E+00 0.33611937E+04</pdfrwt>
<pdfrwt beam="2">  1       -2 0.24874066E+00 0.33611937E+04</pdfrwt>
<totfact> 0.50212091E-01</totfact>
</mgrwt>
</event>
<event>
12    2  0.3552864E-008  0.2193108E+04  0.7818608E-02  0.8521302E-01
          1   -1    0    0  501    0  0.00000000000E+00  0.00000000000E+00  0.17271818607E+04  0.17271818607E+04  0.00000000000E+00 0. -1.
         -1   -1    0    0    0  501 -0.00000000000E+00 -0.00000000000E+00 -0.69618073241E+03  0.69618073241E+03  0.00000000000E+00 0.  1.
         23    2    1    2    0    0  0.10528354240E+03  0.74462489043E+03 -0.13140099947E+03  0.76907730111E+03  0.93074275087E+02 0.  0.
        254    2    1    2    0    0 -0.10528354240E+03 -0.74462489043E+03  0.11624021277E+04  0.16542852920E+04  0.90550001044E+03 0.  0.
         23    2    4    4    0    0 -0.26504802503E+03 -0.56816472428E+03  0.20863582381E+03  0.66693953397E+03  0.90652222828E+02 0.  0.
         23    2    4    4    0    0  0.15976448263E+03 -0.17646016615E+03  0.95376630392E+03  0.98734575799E+03  0.92296279397E+02 0.  0.
          4    1    3    3  502    0 -0.12861074004E+02  0.75649521947E+02  0.20651779245E+01  0.76762766724E+02  0.00000000000E+00 0. -1.
         -4    1    3    3    0  502  0.11814461641E+03  0.66897536848E+03 -0.13346617739E+03  0.69231453439E+03  0.00000000000E+00 0.  1.
         11    1    5    5    0    0  0.64141859995E+01 -0.92438542883E+01 -0.68565894611E+00  0.11272122796E+02  0.00000000000E+00 0. -1.
        -11    1    5    5    0    0 -0.27146221103E+03 -0.55892086999E+03  0.20932148276E+03  0.65566741117E+03  0.00000000000E+00 0.  1.
          3    1    6    6  503    0  0.62780994662E+02 -0.13343022841E+02  0.28772567690E+03  0.29479748082E+03  0.00000000000E+00 0. -1.
         -3    1    6    6    0  503  0.96983487965E+02 -0.16311714330E+03  0.66604062702E+03  0.69254827717E+03  0.00000000000E+00 0.  1.
<mgrwt>
<rscale>  0 0.21931081E+04</rscale>
<asrwt>0</asrwt>
<pdfrwt beam="1">  1        1 0.26572028E+00 0.21931081E+04</pdfrwt>
<pdfrwt beam="2">  1       -1 0.10710473E+00 0.21931081E+04</pdfrwt>
<totfact> 0.33855067E+00</totfact>
</mgrwt>
</event>
<event>
12    2  0.3552864E-008  0.1402839E+04  0.7818608E-02  0.8951766E-01
          1   -1    0    0  501    0  0.00000000000E+00  0.00000000000E+00  0.62775198795E+03  0.62775198795E+03  0.00000000000E+00 0. -1.
         -1   -1    0    0    0  501 -0.00000000000E+00 -0.00000000000E+00 -0.78373148149E+03  0.78373148149E+03  0.00000000000E+00 0.  1.
         23    2    1    2    0    0 -0.70184063713E+01  0.18425892560E+03  0.32017101416E+03  0.38093410533E+03  0.92739983824E+02 0.  0.
        254    2    1    2    0    0  0.70184063713E+01 -0.18425892560E+03 -0.47615050770E+03  0.10305493641E+04  0.89516036340E+03 0.  0.
         23    2    4    4    0    0  0.23957220323E+03 -0.28989034608E+02  0.17786412944E+03  0.31319905589E+03  0.90679630471E+02 0.  0.
         23    2    4    4    0    0 -0.23255379686E+03 -0.15526989099E+03 -0.65401463714E+03  0.71735030823E+03  0.93093026790E+02 0.  0.
          2    1    3    3  502    0 -0.36812349750E+02  0.41028093096E+02  0.12839355348E+03  0.13972601080E+03  0.00000000000E+00 0.  1.
         -2    1    3    3    0  502  0.29793943379E+02  0.14323083250E+03  0.19177746068E+03  0.24120809453E+03  0.00000000000E+00 0. -1.
         11    1    5    5    0    0  0.23753464230E+03 -0.39151287676E+02  0.15043517731E+03  0.28387721323E+03  0.00000000000E+00 0. -1.
        -11    1    5    5    0    0  0.20375609260E+01  0.10162253068E+02  0.27428952130E+02  0.29321842658E+02  0.00000000000E+00 0.  1.
          4    1    6    6  503    0  0.81703220040E+01 -0.11065886321E+02 -0.23873915356E+02  0.27553073080E+02  0.00000000000E+00 0.  1.
         -4    1    6    6    0  503 -0.24072411886E+03 -0.14420400467E+03 -0.63014072178E+03  0.68979723515E+03  0.00000000000E+00 0. -1.
<mgrwt>
<rscale>  0 0.14028385E+04</rscale>
<asrwt>0</asrwt>
<pdfrwt beam="1">  1        1 0.96577229E-01 0.14028385E+04</pdfrwt>
<pdfrwt beam="2">  1       -1 0.12057407E+00 0.14028385E+04</pdfrwt>
<totfact> 0.19131662E+01</totfact>
</mgrwt>
</event>
<event>
12    2  0.3552864E-008  0.2447115E+04  0.7818608E-02  0.8422072E-01
          1   -1    0    0  501    0  0.00000000000E+00  0.00000000000E+00  0.17004993060E+04  0.17004993060E+04  0.00000000000E+00 0. -1.
         -1   -1    0    0    0  501 -0.00000000000E+00 -0.00000000000E+00 -0.88038436153E+03  0.88038436153E+03  0.00000000000E+00 0.  1.
         23    2    1    2    0    0 -0.25545357423E+03  0.64370147129E+03  0.11912410387E+04  0.13809964479E+04  0.92129604651E+02 0.  0.
        254    2    1    2    0    0  0.25545357423E+03 -0.64370147129E+03 -0.37112609421E+03  0.11998872197E+04  0.90685536298E+03 0.  0.
         23    2    4    4    0    0  0.20540770652E+03 -0.86609514462E+03 -0.32883617767E+03  0.95335639355E+03  0.91880661406E+02 0.  0.
         23    2    4    4    0    0  0.50045867705E+02  0.22239367333E+03 -0.42289916543E+02  0.24653082611E+03  0.83818114806E+02 0.  0.
          2    1    3    3  502    0 -0.24781575105E+03  0.58039732761E+03  0.11185658676E+04  0.12843143325E+04  0.00000000000E+00 0. -1.
         -2    1    3    3    0  502 -0.76378231729E+01  0.63304143681E+02  0.72675171066E+02  0.96682115407E+02  0.00000000000E+00 0.  1.
         11    1    5    5    0    0  0.18128733594E+03 -0.77585788585E+03 -0.32309824677E+03  0.85977499049E+03  0.00000000000E+00 0. -1.
        -11    1    5    5    0    0  0.24120370579E+02 -0.90237258769E+02 -0.57379309049E+01  0.93581403057E+02  0.00000000000E+00 0.  1.
          4    1    6    6  503    0  0.60424436896E+02  0.11613915562E+03  0.20385519920E+01  0.13093346301E+03  0.00000000000E+00 0. -1.
         -4    1    6    6    0  503 -0.10378569191E+02  0.10625451772E+03 -0.44328468535E+02  0.11559736310E+03  0.00000000000E+00 0.  1.
<mgrwt>
<rscale>  0 0.24471150E+04</rscale>
<asrwt>0</asrwt>
<pdfrwt beam="1">  1        1 0.26161528E+00 0.24471150E+04</pdfrwt>
<pdfrwt beam="2">  1       -1 0.13544375E+00 0.24471150E+04</pdfrwt>
<totfact> 0.19413171E+00</totfact>
</mgrwt>
</event>
<event>
12    2  0.3552864E-008  0.1341714E+04  0.7818608E-02  0.8997124E-01
         -3   -1    0    0    0  501 -0.00000000000E+00  0.00000000000E+00  0.61919204823E+03  0.61919204823E+03  0.00000000000E+00 0.  1.
          3   -1    0    0  501    0  0.00000000000E+00 -0.00000000000E+00 -0.72683331059E+03  0.72683331059E+03  0.00000000000E+00 0. -1.
         23    2    1    2    0    0 -0.29288257615E+03  0.11578872774E+03  0.14474005042E+03  0.35856378695E+03  0.91820881259E+02 0.  0.
        254    2    1    2    0    0  0.29288257615E+03 -0.11578872774E+03 -0.25238131278E+03  0.98746157187E+03  0.90121961585E+03 0.  0.
         23    2    4    4    0    0 -0.11634766311E+03 -0.20869448057E+03  0.22893924361E+03  0.34218054582E+03  0.87087219137E+02 0.  0.
         23    2    4    4    0    0  0.40923023926E+03  0.92905752832E+02 -0.48132055639E+03  0.64528102605E+03  0.92829181514E+02 0.  0.
          4    1    3    3  502    0 -0.60109380811E+02  0.42498436697E+02  0.74229095698E+02  0.10454287843E+03  0.00000000000E+00 0. -1.
         -4    1    3    3    0  502 -0.23277319534E+03  0.73290291042E+02  0.70510954723E+02  0.25402090852E+03  0.00000000000E+00 0.  1.
         11    1    5    5    0    0  0.49913206788E+01  0.55202555348E+01  0.29956824337E+01  0.80225068733E+01  0.00000000000E+00 0. -1.
        -11    1    5    5    0    0 -0.12133898379E+03 -0.21421473611E+03  0.22594356118E+03  0.33415803894E+03  0.00000000000E+00 0.  1.
          3    1    6    6  503    0  0.32948921680E+02 -0.16214448403E+02 -0.28405811836E+02  0.46426607920E+02  0.00000000000E+00 0. -1.
         -3    1    6    6    0  503  0.37628131758E+03  0.10912020124E+03 -0.45291474456E+03  0.59885441813E+03  0.00000000000E+00 0.  1.
<mgrwt>
<rscale>  0 0.13417144E+04</rscale>
<asrwt>0</asrwt>
<pdfrwt beam="1">  1        3 0.11182051E+00 0.13417144E+04</pdfrwt>
<pdfrwt beam="2">  1       -3 0.95260315E-01 0.13417144E+04</pdfrwt>
<totfact> 0.16826907E+00</totfact>
</mgrwt>
</event>
<event>
12    2  0.3552864E-008  0.1400481E+04  0.7818608E-02  0.8953470E-01
          1   -1    0    0  501    0  0.00000000000E+00  0.00000000000E+00  0.93984882459E+03  0.93984882459E+03  0.00000000000E+00 0. -1.
         -1   -1    0    0    0  501 -0.00000000000E+00 -0.00000000000E+00 -0.52171908472E+03  0.52171908472E+03  0.00000000000E+00 0.  1.
         23    2    1    2    0    0  0.10483510691E+03 -0.25356926570E+03 -0.19225502372E+03  0.34684265483E+03  0.89722131697E+02 0.  0.
        254    2    1    2    0    0 -0.10483510691E+03  0.25356926570E+03  0.61038476358E+03  0.11147252545E+04  0.89149035957E+03 0.  0.
         23    2    4    4    0    0 -0.39738425521E+02  0.53364016989E+03  0.60448367663E+03  0.81286874360E+03  0.94889965924E+02 0.  0.
         23    2    4    4    0    0 -0.65096681391E+02 -0.28007090419E+03  0.59010869567E+01  0.30185651088E+03  0.91680101584E+02 0.  0.
          4    1    3    3  502    0  0.24578234304E+02 -0.13688386155E+02  0.15601878289E+01  0.28176154867E+02  0.00000000000E+00 0. -1.
         -4    1    3    3    0  502  0.80256872609E+02 -0.23988087954E+03 -0.19381521155E+03  0.31866649996E+03  0.00000000000E+00 0.  1.
         11    1    5    5    0    0 -0.23612444199E+02  0.34597312260E+03  0.32118842517E+03  0.47267002607E+03  0.00000000000E+00 0.  1.
        -11    1    5    5    0    0 -0.16125981322E+02  0.18766704730E+03  0.28329525146E+03  0.34019871753E+03  0.00000000000E+00 0. -1.
          4    1    6    6  503    0 -0.91767773166E+01 -0.34314092131E+02 -0.30982172511E+02  0.47133482517E+02  0.00000000000E+00 0. -1.
         -4    1    6    6    0  503 -0.55919904075E+02 -0.24575681206E+03  0.36883259468E+02  0.25472302836E+03  0.00000000000E+00 0.  1.
<mgrwt>
<rscale>  0 0.14004814E+04</rscale>
<asrwt>0</asrwt>
<pdfrwt beam="1">  1        1 0.14459213E+00 0.14004814E+04</pdfrwt>
<pdfrwt beam="2">  1       -1 0.80264475E-01 0.14004814E+04</pdfrwt>
<totfact> 0.25513616E+01</totfact>
</mgrwt>
</event>
<event>
12    2  0.3552864E-008  0.1929940E+04  0.7818608E-02  0.8640095E-01
          2   -1    0    0  501    0  0.00000000000E+00  0.00000000000E+00  0.15145834443E+04  0.15145834443E+04  0.00000000000E+00 0.  1.
         -2   -1    0    0    0  501 -0.00000000000E+00 -0.00000000000E+00 -0.61480060777E+03  0.61480060777E+03  0.00000000000E+00 0. -1.
         23    2    1    2    0    0 -0.45380544333E+03  0.42330089831E+03  0.83133778785E+03  0.10413862189E+04  0.90772840485E+02 0.  0.
        254    2    1    2    0    0  0.45380544333E+03 -0.42330089831E+03  0.68445048725E+02  0.10879978332E+04  0.89102835498E+03 0.  0.
         23    2    4    4    0    0  0.40877033563E+03 -0.61114741247E+03 -0.17805927194E+03  0.76188850371E+03  0.90413719647E+02 0.  0.
         23    2    4    4    0    0  0.45035107705E+02  0.18784651416E+03  0.24650432067E+03  0.32610932946E+03  0.90930967478E+02 0.  0.
          1    1    3    3  502    0 -0.66572999962E+02  0.31349468089E+02  0.13146596052E+03  0.15065872775E+03  0.00000000000E+00 0. -1.
         -1    1    3    3    0  502 -0.38723244337E+03  0.39195143022E+03  0.69987182733E+03  0.89072749118E+03  0.00000000000E+00 0.  1.
         11    1    5    5    0    0  0.32009504117E+03 -0.52573052079E+03 -0.16972931685E+03  0.63848371700E+03  0.00000000000E+00 0. -1.
        -11    1    5    5    0    0  0.88675294457E+02 -0.85416891681E+02 -0.83299550899E+01  0.12340478671E+03  0.00000000000E+00 0.  1.
          1    1    6    6  503    0  0.72355971931E+02  0.14235798743E+03  0.17277666078E+03  0.23527209306E+03  0.00000000000E+00 0. -1.
         -1    1    6    6    0  503 -0.27320864226E+02  0.45488526733E+02  0.73727659882E+02  0.90837236407E+02  0.00000000000E+00 0.  1.
<mgrwt>
<rscale>  0 0.19299397E+04</rscale>
<asrwt>0</asrwt>
<pdfrwt beam="1">  1        2 0.23301284E+00 0.19299397E+04</pdfrwt>
<pdfrwt beam="2">  1       -2 0.94584709E-01 0.19299397E+04</pdfrwt>
<totfact> 0.10958507E+01</totfact>
</mgrwt>
</event>
<event>
12    2  0.3552864E-008  0.2497018E+04  0.7818608E-02  0.8404049E-01
         -1   -1    0    0    0  501 -0.00000000000E+00  0.00000000000E+00  0.71603538263E+03  0.71603538263E+03  0.00000000000E+00 0.  1.
          1   -1    0    0  501    0  0.00000000000E+00 -0.00000000000E+00 -0.21769517115E+04  0.21769517115E+04  0.00000000000E+00 0. -1.
         23    2    1    2    0    0 -0.52791217374E+02  0.17192491267E+02  0.61713197842E+03  0.62787309530E+03  0.10144087251E+03 0.  0.
        254    2    1    2    0    0  0.52791217374E+02 -0.17192491267E+02 -0.20780483073E+04  0.22651139988E+04  0.89965224718E+03 0.  0.
         23    2    4    4    0    0 -0.34898410963E+03 -0.13570175895E+03 -0.50694900920E+03  0.63674341078E+03  0.90774429673E+02 0.  0.
         23    2    4    4    0    0  0.40177532700E+03  0.11850926768E+03 -0.15710992981E+04  0.16283705880E+04  0.88147079670E+02 0.  0.
          2    1    3    3  502    0 -0.29745877886E+02 -0.36189314013E+02  0.15022088151E+03  0.15735563842E+03  0.00000000000E+00 0. -1.
         -2    1    3    3    0  502 -0.23045339488E+02  0.53381805280E+02  0.46691109691E+03  0.47051745688E+03  0.00000000000E+00 0.  1.
         11    1    5    5    0    0 -0.23642975718E+03 -0.13506531310E+03 -0.37227748592E+03  0.46122900538E+03  0.00000000000E+00 0.  1.
        -11    1    5    5    0    0 -0.11255435245E+03 -0.63644585206E+00 -0.13467152328E+03  0.17551440540E+03  0.00000000000E+00 0. -1.
          1    1    6    6  503    0  0.11688597588E+03  0.29447855506E+02 -0.31452222528E+03  0.33682894434E+03  0.00000000000E+00 0. -1.
         -1    1    6    6    0  503  0.28488935112E+03  0.89061412175E+02 -0.12565770728E+04  0.12915416437E+04  0.00000000000E+00 0.  1.
<mgrwt>
<rscale>  0 0.24970178E+04</rscale>
<asrwt>0</asrwt>
<pdfrwt beam="1">  1        1 0.33491564E+00 0.24970178E+04</pdfrwt>
<pdfrwt beam="2">  1       -1 0.11015929E+00 0.24970178E+04</pdfrwt>
<totfact> 0.15262708E+00</totfact>
</mgrwt>
</event>
<event>
12    2  0.3552864E-008  0.1943774E+04  0.7818608E-02  0.8633369E-01
          1   -1    0    0  501    0  0.00000000000E+00  0.00000000000E+00  0.76571334504E+03  0.76571334504E+03  0.00000000000E+00 0. -1.
         -1   -1    0    0    0  501 -0.00000000000E+00 -0.00000000000E+00 -0.12335740998E+04  0.12335740998E+04  0.00000000000E+00 0.  1.
         23    2    1    2    0    0 -0.50882359145E+02 -0.74344569580E+03 -0.30658302427E+03  0.81100766379E+03  0.91868182140E+02 0.  0.
        254    2    1    2    0    0  0.50882359145E+02  0.74344569580E+03 -0.16127773044E+03  0.11882797810E+04  0.91142625293E+03 0.  0.
         23    2    4    4    0    0  0.36539539727E+03  0.12237436707E+03  0.14688045619E+03  0.42150817251E+03  0.87212321511E+02 0.  0.
         23    2    4    4    0    0 -0.31451303812E+03  0.62107132873E+03 -0.30815818663E+03  0.76677160849E+03  0.91264369153E+02 0.  0.
          3    1    3    3  502    0 -0.66969543428E+02 -0.35028173625E+03 -0.12819593086E+03  0.37896755954E+03  0.00000000000E+00 0. -1.
         -3    1    3    3    0  502  0.16087184283E+02 -0.39316395955E+03 -0.17838709341E+03  0.43204010425E+03  0.00000000000E+00 0.  1.
         11    1    5    5    0    0  0.12196051251E+03  0.85334745583E+02  0.56004130593E+02  0.15903725368E+03  0.00000000000E+00 0. -1.
        -11    1    5    5    0    0  0.24343488476E+03  0.37039621484E+02  0.90876325597E+02  0.26247091883E+03  0.00000000000E+00 0.  1.
          2    1    6    6  503    0 -0.29689435477E+03  0.59535892902E+03 -0.27122580238E+03  0.71844411622E+03  0.00000000000E+00 0. -1.
         -2    1    6    6    0  503 -0.17618683353E+02  0.25712399706E+02 -0.36932384257E+02  0.48327492265E+02  0.00000000000E+00 0.  1.
<mgrwt>
<rscale>  0 0.19437738E+04</rscale>
<asrwt>0</asrwt>
<pdfrwt beam="1">  1        1 0.11780205E+00 0.19437738E+04</pdfrwt>
<pdfrwt beam="2">  1       -1 0.18978063E+00 0.19437738E+04</pdfrwt>
<totfact> 0.39183322E+00</totfact>
</mgrwt>
</event>
<event>
12    2  0.3552864E-008  0.1751645E+04  0.7818608E-02  0.8732445E-01
          1   -1    0    0  501    0  0.00000000000E+00  0.00000000000E+00  0.28324402751E+04  0.28324402751E+04  0.00000000000E+00 0. -1.
         -1   -1    0    0    0  501 -0.00000000000E+00 -0.00000000000E+00 -0.27081412484E+03  0.27081412484E+03  0.00000000000E+00 0.  1.
         23    2    1    2    0    0  0.84167939730E+02 -0.56981466626E+03  0.39449820666E+03  0.70369662121E+03  0.88244567382E+02 0.  0.
        254    2    1    2    0    0 -0.84167939730E+02  0.56981466626E+03  0.21671279436E+04  0.23995577788E+04  0.85420197473E+03 0.  0.
         23    2    4    4    0    0 -0.19662443525E+03  0.19898317302E+02  0.15281833711E+04  0.15439198026E+04  0.96368197443E+02 0.  0.
         23    2    4    4    0    0  0.11245649552E+03  0.54991634896E+03  0.63894457249E+03  0.85563797616E+03  0.93870790474E+02 0.  0.
          2    1    3    3  502    0  0.43394100045E+02 -0.28306853386E+03  0.14291170353E+03  0.32005405448E+03  0.00000000000E+00 0.  1.
         -2    1    3    3    0  502  0.40773839685E+02 -0.28674613240E+03  0.25158650313E+03  0.38364256673E+03  0.00000000000E+00 0. -1.
         11    1    5    5    0    0 -0.10919190474E+03  0.41176386474E+02  0.58995289739E+03  0.60138406031E+03  0.00000000000E+00 0. -1.
        -11    1    5    5    0    0 -0.87432530515E+02 -0.21278069172E+02  0.93823047374E+03  0.94253574228E+03  0.00000000000E+00 0.  1.
          3    1    6    6  503    0  0.13534842082E+02  0.86315453296E+02  0.15675217353E+03  0.17945694006E+03  0.00000000000E+00 0. -1.
         -3    1    6    6    0  503  0.98921653440E+02  0.46360089566E+03  0.48219239896E+03  0.67618103611E+03  0.00000000000E+00 0.  1.
<mgrwt>
<rscale>  0 0.17516448E+04</rscale>
<asrwt>0</asrwt>
<pdfrwt beam="1">  1        1 0.43576002E+00 0.17516448E+04</pdfrwt>
<pdfrwt beam="2">  1       -1 0.41663714E-01 0.17516448E+04</pdfrwt>
<totfact> 0.42414410E+00</totfact>
</mgrwt>
</event>
<event>
12    2  0.3552864E-008  0.2399489E+04  0.7818608E-02  0.8439695E-01
          1   -1    0    0  501    0  0.00000000000E+00  0.00000000000E+00  0.43621385821E+04  0.43621385821E+04  0.00000000000E+00 0. -1.
         -1   -1    0    0    0  501 -0.00000000000E+00 -0.00000000000E+00 -0.32997277952E+03  0.32997277952E+03  0.00000000000E+00 0.  1.
         23    2    1    2    0    0  0.12759381275E+03  0.94065745515E+03  0.94791950667E+03  0.13445916973E+04  0.90878007317E+02 0.  0.
        254    2    1    2    0    0 -0.12759381275E+03 -0.94065745515E+03  0.30842462959E+04  0.33475196644E+04  0.89005396495E+03 0.  0.
         23    2    4    4    0    0  0.26559507896E+02 -0.37018010688E+02 -0.25558793721E+02  0.10412189928E+03  0.90068737080E+02 0.  0.
         23    2    4    4    0    0 -0.15415332065E+03 -0.90363944446E+03  0.31098050896E+04  0.32433977651E+04  0.91727178165E+02 0.  0.
          2    1    3    3  502    0  0.95874347564E+02  0.70236068196E+03  0.76153814012E+03  0.10404050927E+04  0.00000000000E+00 0.  1.
         -2    1    3    3    0  502  0.31719465187E+02  0.23829677319E+03  0.18638136654E+03  0.30418660454E+03  0.00000000000E+00 0. -1.
         11    1    5    5    0    0 -0.11980780324E+02 -0.56419669350E+02 -0.17023349360E+02  0.60137447653E+02  0.00000000000E+00 0. -1.
        -11    1    5    5    0    0  0.38540288220E+02  0.19401658662E+02 -0.85354443612E+01  0.43984451632E+02  0.00000000000E+00 0.  1.
          3    1    6    6  503    0 -0.79205202784E+02 -0.68374666094E+03  0.23764405788E+04  0.24741165666E+04  0.00000000000E+00 0. -1.
         -3    1    6    6    0  503 -0.74948117863E+02 -0.21989278352E+03  0.73336451079E+03  0.76928119846E+03  0.00000000000E+00 0.  1.
<mgrwt>
<rscale>  0 0.23994891E+04</rscale>
<asrwt>0</asrwt>
<pdfrwt beam="1">  1        1 0.67109820E+00 0.23994891E+04</pdfrwt>
<pdfrwt beam="2">  1       -1 0.50765046E-01 0.23994891E+04</pdfrwt>
<totfact> 0.15562598E-01</totfact>
</mgrwt>
</event>
<event>
12    2  0.3552864E-008  0.1765472E+04  0.7818608E-02  0.8724880E-01
          2   -1    0    0  501    0  0.00000000000E+00  0.00000000000E+00  0.25847877000E+04  0.25847877000E+04  0.00000000000E+00 0. -1.
         -2   -1    0    0    0  501 -0.00000000000E+00 -0.00000000000E+00 -0.30146489499E+03  0.30146489499E+03  0.00000000000E+00 0.  1.
         23    2    1    2    0    0 -0.49844116336E+03  0.17755114295E+03  0.10437960148E+04  0.11734781622E+04  0.87022267369E+02 0.  0.
        254    2    1    2    0    0  0.49844116336E+03 -0.17755114295E+03  0.12395267902E+04  0.17127744328E+04  0.10569775741E+04 0.  0.
         23    2    4    4    0    0  0.69534797520E+03  0.17523531678E+03  0.10037608438E+04  0.12369316141E+04  0.90817198746E+02 0.  0.
         23    2    4    4    0    0 -0.19690681184E+03 -0.35278645973E+03  0.23576594648E+03  0.47584281871E+03  0.87236620069E+02 0.  0.
          3    1    3    3  502    0 -0.43177859112E+03  0.18230346011E+03  0.89251345298E+03  0.10080910510E+04  0.00000000000E+00 0. -1.
         -3    1    3    3    0  502 -0.66662572237E+02 -0.47523171608E+01  0.15128256177E+03  0.16538711120E+03  0.00000000000E+00 0.  1.
         11    1    5    5    0    0  0.64782139838E+03  0.15124258880E+03  0.88828135334E+03  0.11097705382E+04  0.00000000000E+00 0.  1.
        -11    1    5    5    0    0  0.47526576818E+02  0.23992727981E+02  0.11547949042E+03  0.12716107584E+03  0.00000000000E+00 0. -1.
          2    1    6    6  503    0 -0.26793682913E+02 -0.13002882545E+03  0.84070443939E+02  0.15714081722E+03  0.00000000000E+00 0. -1.
         -2    1    6    6    0  503 -0.17011312893E+03 -0.22275763427E+03  0.15169550254E+03  0.31870200149E+03  0.00000000000E+00 0.  1.
<mgrwt>
<rscale>  0 0.17654719E+04</rscale>
<asrwt>0</asrwt>
<pdfrwt beam="1">  1        2 0.39765963E+00 0.17654719E+04</pdfrwt>
<pdfrwt beam="2">  1       -2 0.46379216E-01 0.17654719E+04</pdfrwt>
<totfact> 0.12983959E+01</totfact>
</mgrwt>
</event>
<event>
12    2  0.3552864E-008  0.2525465E+04  0.7818608E-02  0.8393969E-01
         -2   -1    0    0    0  501 -0.00000000000E+00  0.00000000000E+00  0.11377244102E+04  0.11377244102E+04  0.00000000000E+00 0.  1.
          2   -1    0    0  501    0  0.00000000000E+00 -0.00000000000E+00 -0.14014754657E+04  0.14014754657E+04  0.00000000000E+00 0. -1.
         23    2    1    2    0    0  0.63730577452E+02  0.58664080111E+02 -0.12211920784E+04  0.12274953815E+04  0.89060420931E+02 0.  0.
        254    2    1    2    0    0 -0.63730577452E+02 -0.58664080111E+02  0.95744102283E+03  0.13117044943E+04  0.89239694500E+03 0.  0.
         23    2    4    4    0    0 -0.29588144220E+03 -0.14457239679E+03  0.98834936465E+03  0.10458047433E+04  0.91793728913E+02 0.  0.
         23    2    4    4    0    0  0.23215086474E+03  0.85908316676E+02 -0.30908341818E+02  0.26589975107E+03  0.92049384305E+02 0.  0.
          1    1    3    3  502    0  0.52062362455E+02  0.50155693566E+02 -0.11979707997E+04  0.12001500407E+04  0.00000000000E+00 0. -1.
         -1    1    3    3    0  502  0.11668214997E+02  0.85083865447E+01 -0.23221278630E+02  0.27345340810E+02  0.00000000000E+00 0.  1.
         11    1    5    5    0    0 -0.38059551827E+02 -0.12270109558E+02  0.51752317423E+02  0.65401738758E+02  0.00000000000E+00 0. -1.
        -11    1    5    5    0    0 -0.25782189037E+03 -0.13230228723E+03  0.93659704722E+03  0.98040300450E+03  0.00000000000E+00 0.  1.
          2    1    6    6  503    0  0.31249275410E+02  0.46347990280E+02 -0.24521523155E+02  0.61040630030E+02  0.00000000000E+00 0. -1.
         -2    1    6    6    0  503  0.20090158933E+03  0.39560326395E+02 -0.63868186635E+01  0.20485912104E+03  0.00000000000E+00 0.  1.
<mgrwt>
<rscale>  0 0.25254646E+04</rscale>
<asrwt>0</asrwt>
<pdfrwt beam="1">  1        2 0.21561161E+00 0.25254646E+04</pdfrwt>
<pdfrwt beam="2">  1       -2 0.17503452E+00 0.25254646E+04</pdfrwt>
<totfact> 0.25244289E+00</totfact>
</mgrwt>
</event>
<event>
12    2  0.3552864E-008  0.2130866E+04  0.7818608E-02  0.8547767E-01
         -1   -1    0    0    0  501 -0.00000000000E+00  0.00000000000E+00  0.61900282743E+03  0.61900282743E+03  0.00000000000E+00 0.  1.
          1   -1    0    0  501    0  0.00000000000E+00 -0.00000000000E+00 -0.18338322117E+04  0.18338322117E+04  0.00000000000E+00 0. -1.
         23    2    1    2    0    0 -0.10295032233E+03  0.16286178223E+03  0.48105622965E+03  0.52572375965E+03  0.88586942547E+02 0.  0.
        254    2    1    2    0    0  0.10295032233E+03 -0.16286178223E+03 -0.16958856139E+04  0.19271112794E+04  0.89476652766E+03 0.  0.
         23    2    4    4    0    0 -0.15867823742E+03  0.30496307444E+03 -0.84327769120E+03  0.91525165719E+03  0.91580957154E+02 0.  0.
         23    2    4    4    0    0  0.26162855974E+03 -0.46782485667E+03 -0.85260792268E+03  0.10118596223E+04  0.98030737742E+02 0.  0.
          4    1    3    3  502    0 -0.22218384627E+02  0.16594505337E+01  0.12120239777E+03  0.12323324072E+03  0.00000000000E+00 0. -1.
         -4    1    3    3    0  502 -0.80731937699E+02  0.16120233170E+03  0.35985383188E+03  0.40249051893E+03  0.00000000000E+00 0.  1.
         11    1    5    5    0    0 -0.37092160194E+02  0.24408074766E+02 -0.61909693906E+02  0.76186564834E+02  0.00000000000E+00 0. -1.
        -11    1    5    5    0    0 -0.12158607722E+03  0.28055499967E+03 -0.78136799729E+03  0.83906509236E+03  0.00000000000E+00 0.  1.
          3    1    6    6  503    0  0.62732257146E+01 -0.93065578382E+01 -0.61348431094E+02  0.62366620698E+02  0.00000000000E+00 0. -1.
         -3    1    6    6    0  503  0.25535533403E+03 -0.45851829883E+03 -0.79125949159E+03  0.94949300156E+03  0.00000000000E+00 0.  1.
<mgrwt>
<rscale>  0 0.21308659E+04</rscale>
<asrwt>0</asrwt>
<pdfrwt beam="1">  1        1 0.28212803E+00 0.21308659E+04</pdfrwt>
<pdfrwt beam="2">  1       -1 0.95231206E-01 0.21308659E+04</pdfrwt>
<totfact> 0.37736111E+00</totfact>
</mgrwt>
</event>
<event>
12    2  0.3552864E-008  0.1577740E+04  0.7818608E-02  0.8834341E-01
          2   -1    0    0  501    0  0.00000000000E+00  0.00000000000E+00  0.16389316573E+04  0.16389316573E+04  0.00000000000E+00 0. -1.
         -2   -1    0    0    0  501 -0.00000000000E+00 -0.00000000000E+00 -0.37970812494E+03  0.37970812494E+03  0.00000000000E+00 0.  1.
         23    2    1    2    0    0 -0.57928097728E+02  0.30811106071E+03  0.98247397210E+03  0.10354101245E+04  0.92363032848E+02 0.  0.
        254    2    1    2    0    0  0.57928097728E+02 -0.30811106071E+03  0.27674956029E+03  0.98322965776E+03  0.88986636668E+03 0.  0.
         23    2    4    4    0    0  0.43533990921E+03 -0.43099873914E+01  0.18477242140E+03  0.48160705254E+03  0.90912555830E+02 0.  0.
         23    2    4    4    0    0 -0.37741181148E+03 -0.30380107332E+03  0.91977138891E+02  0.50162260522E+03  0.91818714854E+02 0.  0.
          3    1    3    3  502    0 -0.38168198362E+02  0.23484790448E+03  0.59945583194E+03  0.64494778397E+03  0.00000000000E+00 0. -1.
         -3    1    3    3    0  502 -0.19759899365E+02  0.73263156238E+02  0.38301814016E+03  0.39046234053E+03  0.00000000000E+00 0.  1.
         11    1    5    5    0    0  0.24014406435E+03  0.42572666435E+02  0.95858455166E+02  0.26205046651E+03  0.00000000000E+00 0. -1.
        -11    1    5    5    0    0  0.19519584485E+03 -0.46882653826E+02  0.88913966233E+02  0.21955658603E+03  0.00000000000E+00 0.  1.
          3    1    6    6  503    0 -0.37426093521E+03 -0.30907196123E+03  0.95285278546E+02  0.49464735838E+03  0.00000000000E+00 0. -1.
         -3    1    6    6    0  503 -0.31508762653E+01  0.52708879062E+01 -0.33081396549E+01  0.69752468440E+01  0.00000000000E+00 0.  1.
<mgrwt>
<rscale>  0 0.15777397E+04</rscale>
<asrwt>0</asrwt>
<pdfrwt beam="1">  1        2 0.25214333E+00 0.15777397E+04</pdfrwt>
<pdfrwt beam="2">  1       -2 0.58416635E-01 0.15777397E+04</pdfrwt>
<totfact> 0.27916365E+01</totfact>
</mgrwt>
</event>
<event>
12    2  0.3552864E-008  0.2776636E+04  0.7818608E-02  0.8310559E-01
          2   -1    0    0  501    0  0.00000000000E+00  0.00000000000E+00  0.89431509718E+03  0.89431509718E+03  0.00000000000E+00 0. -1.
         -2   -1    0    0    0  501 -0.00000000000E+00 -0.00000000000E+00 -0.21551991974E+04  0.21551991974E+04  0.00000000000E+00 0.  1.
         23    2    1    2    0    0  0.82125029870E+03 -0.31134346621E+01  0.45087780642E+03  0.94115900970E+03  0.89597648611E+02 0.  0.
        254    2    1    2    0    0 -0.82125029870E+03  0.31134346621E+01 -0.17117619067E+04  0.21083552849E+04  0.91682682973E+03 0.  0.
         23    2    4    4    0    0 -0.50168032372E+03 -0.14394548922E+03 -0.16581778056E+04  0.17406813890E+04  0.89524364084E+02 0.  0.
         23    2    4    4    0    0 -0.31956997498E+03  0.14705892388E+03 -0.53584101062E+02  0.36767389596E+03  0.92528600354E+02 0.  0.
          3    1    3    3  502    0  0.65723064458E+03 -0.35356579304E+02  0.37584389884E+03  0.75793195220E+03  0.00000000000E+00 0. -1.
         -3    1    3    3    0  502  0.16401965412E+03  0.32243144642E+02  0.75033907581E+02  0.18322705751E+03  0.00000000000E+00 0.  1.
         11    1    5    5    0    0 -0.47851151106E+03 -0.15578141878E+03 -0.15631811308E+04  0.16421864584E+04  0.00000000000E+00 0. -1.
        -11    1    5    5    0    0 -0.23168812662E+02  0.11835929563E+02 -0.94996674831E+02  0.98494930518E+02  0.00000000000E+00 0.  1.
          2    1    6    6  503    0 -0.16881941095E+03  0.28966733855E+02 -0.38660246547E+02  0.17559521590E+03  0.00000000000E+00 0. -1.
         -2    1    6    6    0  503 -0.15075056402E+03  0.11809219003E+03 -0.14923854515E+02  0.19207868006E+03  0.00000000000E+00 0.  1.
<mgrwt>
<rscale>  0 0.27766362E+04</rscale>
<asrwt>0</asrwt>
<pdfrwt beam="1">  1        2 0.13758694E+00 0.27766362E+04</pdfrwt>
<pdfrwt beam="2">  1       -2 0.33156910E+00 0.27766362E+04</pdfrwt>
<totfact> 0.52349845E-01</totfact>
</mgrwt>
</event>
<event>
12    2  0.3552864E-008  0.1771303E+04  0.7818608E-02  0.8721711E-01
          2   -1    0    0  501    0  0.00000000000E+00  0.00000000000E+00  0.15191917090E+04  0.15191917090E+04  0.00000000000E+00 0. -1.
         -2   -1    0    0    0  501 -0.00000000000E+00 -0.00000000000E+00 -0.51631306728E+03  0.51631306728E+03  0.00000000000E+00 0.  1.
         23    2    1    2    0    0  0.36717873723E+02 -0.56577590215E+03  0.77246930050E+03  0.96282722024E+03  0.94217100998E+02 0.  0.
        254    2    1    2    0    0 -0.36717873723E+02  0.56577590215E+03  0.23040934127E+03  0.10726775561E+04  0.88096430182E+03 0.  0.
         23    2    4    4    0    0  0.11794820225E+02 -0.14524540240E+03 -0.17735453173E+03  0.24648501875E+03  0.89804731709E+02 0.  0.
         23    2    4    4    0    0 -0.48512693948E+02  0.71102130455E+03  0.40776387300E+03  0.82619253734E+03  0.91749417592E+02 0.  0.
          4    1    3    3  502    0  0.38181134842E+02 -0.55359106368E+03  0.77174687757E+03  0.95053359114E+03  0.00000000000E+00 0. -1.
         -4    1    3    3    0  502 -0.14632611194E+01 -0.12184838471E+02  0.72242293012E+00  0.12293629104E+02  0.00000000000E+00 0.  1.
         11    1    5    5    0    0 -0.31112609682E+01 -0.15180909079E+03 -0.17178406801E+03  0.22927155518E+03  0.00000000000E+00 0.  1.
        -11    1    5    5    0    0  0.14906081194E+02  0.65636883927E+01 -0.55704637231E+01  0.17213463567E+02  0.00000000000E+00 0. -1.
          4    1    6    6  503    0 -0.45804238760E+02  0.13939851160E+03  0.75577578912E+02  0.16505133674E+03  0.00000000000E+00 0. -1.
         -4    1    6    6    0  503 -0.27084551884E+01  0.57162279295E+03  0.33218629409E+03  0.66114120060E+03  0.00000000000E+00 0.  1.
<mgrwt>
<rscale>  0 0.17713029E+04</rscale>
<asrwt>0</asrwt>
<pdfrwt beam="1">  1        2 0.23372180E+00 0.17713029E+04</pdfrwt>
<pdfrwt beam="2">  1       -2 0.79432780E-01 0.17713029E+04</pdfrwt>
<totfact> 0.16454818E+01</totfact>
</mgrwt>
</event>
<event>
12    2  0.3552864E-008  0.2835790E+04  0.7818608E-02  0.8292242E-01
          1   -1    0    0  501    0  0.00000000000E+00  0.00000000000E+00  0.31435066324E+04  0.31435066324E+04  0.00000000000E+00 0. -1.
         -1   -1    0    0    0  501 -0.00000000000E+00 -0.00000000000E+00 -0.63954876268E+03  0.63954876268E+03  0.00000000000E+00 0.  1.
         23    2    1    2    0    0 -0.50093428924E+03  0.55340604876E+03  0.24906049673E+04  0.26016769211E+04  0.91740293953E+02 0.  0.
        254    2    1    2    0    0  0.50093428924E+03 -0.55340604876E+03  0.13352902457E+02  0.11813784741E+04  0.91557816817E+03 0.  0.
         23    2    4    4    0    0  0.56345363203E+03  0.39362415122E+02  0.71674105381E+02  0.57586248689E+03  0.86319356149E+02 0.  0.
         23    2    4    4    0    0 -0.62519342792E+02 -0.59276846388E+03 -0.58321202924E+02  0.60551598717E+03  0.89247565867E+02 0.  0.
          4    1    3    3  502    0 -0.83116579898E+02  0.10867118053E+03  0.34982097286E+03  0.37562282197E+03  0.00000000000E+00 0. -1.
         -4    1    3    3    0  502 -0.41781770934E+03  0.44473486823E+03  0.21407839944E+04  0.22260540991E+04  0.00000000000E+00 0.  1.
         11    1    5    5    0    0  0.88674613997E+02  0.31075854995E+02  0.32393241827E+02  0.99389225006E+02  0.00000000000E+00 0. -1.
        -11    1    5    5    0    0  0.47477901803E+03  0.82865601271E+01  0.39280863554E+02  0.47647326188E+03  0.00000000000E+00 0.  1.
          3    1    6    6  503    0 -0.95138282688E+01 -0.37808473689E+03 -0.67566085648E+02  0.38419234392E+03  0.00000000000E+00 0. -1.
         -3    1    6    6    0  503 -0.53005514523E+02 -0.21468372699E+03  0.92448827245E+01  0.22132364325E+03  0.00000000000E+00 0.  1.
<mgrwt>
<rscale>  0 0.28357897E+04</rscale>
<asrwt>0</asrwt>
<pdfrwt beam="1">  1        1 0.48361640E+00 0.28357897E+04</pdfrwt>
<pdfrwt beam="2">  1       -1 0.98392119E-01 0.28357897E+04</pdfrwt>
<totfact> 0.39967739E-01</totfact>
</mgrwt>
</event>
<event>
12    2  0.3552864E-008  0.1233037E+04  0.7818608E-02  0.9084421E-01
         -1   -1    0    0    0  501 -0.00000000000E+00  0.00000000000E+00  0.31148998842E+03  0.31148998842E+03  0.00000000000E+00 0.  1.
          1   -1    0    0  501    0  0.00000000000E+00 -0.00000000000E+00 -0.12202488102E+04  0.12202488102E+04  0.00000000000E+00 0. -1.
         23    2    1    2    0    0 -0.19206365593E+02  0.24050626557E+03 -0.55736490854E+02  0.26506662242E+03  0.94560084874E+02 0.  0.
        254    2    1    2    0    0  0.19206365593E+02 -0.24050626557E+03 -0.85302233087E+03  0.12666721762E+04  0.90476469683E+03 0.  0.
         23    2    4    4    0    0  0.24529816990E+02  0.25366014249E+02 -0.95766249172E+03  0.96272470868E+03  0.92066660877E+02 0.  0.
         23    2    4    4    0    0 -0.53234513969E+01 -0.26587227982E+03  0.10464016085E+03  0.30394746748E+03  0.10352821557E+03 0.  0.
          1    1    3    3  502    0 -0.10308111875E+02  0.89282218596E+02 -0.68558834707E+02  0.11303930973E+03  0.00000000000E+00 0. -1.
         -1    1    3    3    0  502 -0.88982537181E+01  0.15122404697E+03  0.12822343852E+02  0.15202731269E+03  0.00000000000E+00 0.  1.
         11    1    5    5    0    0  0.48102907709E+01 -0.33161606911E+02 -0.46507225115E+03  0.46627784620E+03  0.00000000000E+00 0. -1.
        -11    1    5    5    0    0  0.19719526219E+02  0.58527621160E+02 -0.49259024057E+03  0.49644686247E+03  0.00000000000E+00 0.  1.
          1    1    6    6  503    0  0.13670006531E+02 -0.25974735554E+03  0.79777553840E+02  0.27206619761E+03  0.00000000000E+00 0. -1.
         -1    1    6    6    0  503 -0.18993457927E+02 -0.61249242800E+01  0.24862607006E+02  0.31881269871E+02  0.00000000000E+00 0.  1.
<mgrwt>
<rscale>  0 0.12330374E+04</rscale>
<asrwt>0</asrwt>
<pdfrwt beam="1">  1        1 0.18773059E+00 0.12330374E+04</pdfrwt>
<pdfrwt beam="2">  1       -1 0.47921537E-01 0.12330374E+04</pdfrwt>
<totfact> 0.44355284E+01</totfact>
</mgrwt>
</event>
<event>
12    2  0.3552864E-008  0.1409329E+04  0.7818608E-02  0.8947093E-01
          1   -1    0    0  501    0  0.00000000000E+00  0.00000000000E+00  0.15294281217E+04  0.15294281217E+04  0.00000000000E+00 0. -1.
         -1   -1    0    0    0  501 -0.00000000000E+00 -0.00000000000E+00 -0.32466513987E+03  0.32466513987E+03  0.00000000000E+00 0.  1.
         23    2    1    2    0    0 -0.94275576981E+02  0.38784986519E+03  0.40317119408E+03  0.57468698399E+03  0.91666326920E+02 0.  0.
        254    2    1    2    0    0  0.94275576981E+02 -0.38784986519E+03  0.80159178771E+03  0.12794062775E+04  0.91379189454E+03 0.  0.
         23    2    4    4    0    0  0.41902314375E+03 -0.42582734148E+02  0.63396295349E+03  0.76656963969E+03  0.91248571796E+02 0.  0.
         23    2    4    4    0    0 -0.32474756677E+03 -0.34526713104E+03  0.16762883423E+03  0.51283663785E+03  0.10115145651E+03 0.  0.
          1    1    3    3  502    0 -0.10770901687E+03  0.35649321258E+03  0.34727685271E+03  0.50920512111E+03  0.00000000000E+00 0. -1.
         -1    1    3    3    0  502  0.13433439890E+02  0.31356652608E+02  0.55894341361E+02  0.65481862880E+02  0.00000000000E+00 0.  1.
         11    1    5    5    0    0  0.41305927747E+03 -0.35556336401E+02  0.58660225061E+03  0.71832055531E+03  0.00000000000E+00 0.  1.
        -11    1    5    5    0    0  0.59638662794E+01 -0.70263977478E+01  0.47360702878E+02  0.48249084379E+02  0.00000000000E+00 0. -1.
          4    1    6    6  503    0 -0.36824478522E+02 -0.14705650387E+02  0.39859471514E+02  0.56223445653E+02  0.00000000000E+00 0. -1.
         -4    1    6    6    0  503 -0.28792308825E+03 -0.33056148065E+03  0.12776936271E+03  0.45661319220E+03  0.00000000000E+00 0.  1.
<mgrwt>
<rscale>  0 0.14093289E+04</rscale>
<asrwt>0</asrwt>
<pdfrwt beam="1">  1        1 0.23529663E+00 0.14093289E+04</pdfrwt>
<pdfrwt beam="2">  1       -1 0.49948484E-01 0.14093289E+04</pdfrwt>
<totfact> 0.24457194E+01</totfact>
</mgrwt>
</event>
<event>
12    2  0.3552864E-008  0.1720499E+04  0.7818608E-02  0.8749759E-01
          2   -1    0    0  501    0  0.00000000000E+00  0.00000000000E+00  0.95541867738E+03  0.95541867738E+03  0.00000000000E+00 0. -1.
         -2   -1    0    0    0  501 -0.00000000000E+00 -0.00000000000E+00 -0.77456032912E+03  0.77456032912E+03  0.00000000000E+00 0.  1.
         23    2    1    2    0    0 -0.45257926688E+03 -0.46428125182E+02  0.48976142321E+03  0.67449371126E+03  0.89955273595E+02 0.  0.
        254    2    1    2    0    0  0.45257926688E+03  0.46428125182E+02 -0.30890307495E+03  0.10554852952E+04  0.90091316738E+03 0.  0.
         23    2    4    4    0    0 -0.92820483053E+02  0.25172868933E+03  0.13851604878E+03  0.31521620041E+03  0.90507359529E+02 0.  0.
         23    2    4    4    0    0  0.54539974993E+03 -0.20530056415E+03 -0.44741912373E+03  0.74026909483E+03  0.90582843975E+02 0.  0.
          1    1    3    3  502    0 -0.37902738879E+03 -0.14803539822E+02  0.43674222300E+03  0.57846752337E+03  0.00000000000E+00 0. -1.
         -1    1    3    3    0  502 -0.73551878089E+02 -0.31624585360E+02  0.53019200214E+02  0.96026187892E+02  0.00000000000E+00 0.  1.
         11    1    5    5    0    0 -0.59206591892E+01  0.16090792081E+02  0.43388457363E+02  0.46653253127E+02  0.00000000000E+00 0. -1.
        -11    1    5    5    0    0 -0.86899823864E+02  0.23563789725E+03  0.95127591418E+02  0.26856294729E+03  0.00000000000E+00 0.  1.
          2    1    6    6  503    0  0.10014227144E+02 -0.56512504674E+01  0.38871616879E+01  0.12138014794E+02  0.00000000000E+00 0. -1.
         -2    1    6    6    0  503  0.53538552279E+03 -0.19964931368E+03 -0.45130628542E+03  0.72813108004E+03  0.00000000000E+00 0.  1.
<mgrwt>
<rscale>  0 0.17204992E+04</rscale>
<asrwt>0</asrwt>
<pdfrwt beam="1">  1        2 0.14698749E+00 0.17204992E+04</pdfrwt>
<pdfrwt beam="2">  1       -2 0.11916313E+00 0.17204992E+04</pdfrwt>
<totfact> 0.13823074E+01</totfact>
</mgrwt>
</event>
<event>
12    2  0.3552864E-008  0.2776887E+04  0.7818608E-02  0.8310480E-01
          2   -1    0    0  501    0  0.00000000000E+00  0.00000000000E+00  0.30285393100E+04  0.30285393100E+04  0.00000000000E+00 0.  1.
         -2   -1    0    0    0  501 -0.00000000000E+00 -0.00000000000E+00 -0.63653646372E+03  0.63653646372E+03  0.00000000000E+00 0. -1.
         23    2    1    2    0    0  0.10532949127E+04 -0.41763972827E+03  0.17405892813E+04  0.20789812047E+04  0.93052069612E+02 0.  0.
        254    2    1    2    0    0 -0.10532949127E+04  0.41763972827E+03  0.65141356500E+03  0.15860945690E+04  0.89861183690E+03 0.  0.
         23    2    4    4    0    0 -0.27480654790E+03  0.38162222201E+03  0.64260278068E+03  0.80160244401E+03  0.92054252510E+02 0.  0.
         23    2    4    4    0    0 -0.77848836480E+03  0.36017506264E+02  0.88107843264E+01  0.78449212500E+03  0.89492286689E+02 0.  0.
          2    1    3    3  502    0  0.23609116421E+03 -0.74433645133E+02  0.32022835484E+03  0.40475375797E+03  0.00000000000E+00 0. -1.
         -2    1    3    3    0  502  0.81720374849E+03 -0.34320608314E+03  0.14203609264E+04  0.16742274467E+04  0.00000000000E+00 0.  1.
         11    1    5    5    0    0 -0.23933693768E+03  0.32218927414E+03  0.59456351789E+03  0.71735198816E+03  0.00000000000E+00 0.  1.
        -11    1    5    5    0    0 -0.35469610219E+02  0.59432947868E+02  0.48039262782E+02  0.84250455845E+02  0.00000000000E+00 0. -1.
          3    1    6    6  503    0 -0.30014943643E+03 -0.18375864024E+02 -0.25875085970E+02  0.30182259134E+03  0.00000000000E+00 0. -1.
         -3    1    6    6    0  503 -0.47833892837E+03  0.54393370288E+02  0.34685870297E+02  0.48266953366E+03  0.00000000000E+00 0.  1.
<mgrwt>
<rscale>  0 0.27768873E+04</rscale>
<asrwt>0</asrwt>
<pdfrwt beam="1">  1        2 0.46592911E+00 0.27768873E+04</pdfrwt>
<pdfrwt beam="2">  1       -2 0.97928689E-01 0.27768873E+04</pdfrwt>
<totfact> 0.12635706E+00</totfact>
</mgrwt>
</event>
<event>
12    2  0.3552864E-008  0.3110320E+04  0.7818608E-02  0.8212911E-01
          2   -1    0    0  501    0  0.00000000000E+00  0.00000000000E+00  0.18810757839E+04  0.18810757839E+04  0.00000000000E+00 0. -1.
         -2   -1    0    0    0  501 -0.00000000000E+00 -0.00000000000E+00 -0.12857128351E+04  0.12857128351E+04  0.00000000000E+00 0.  1.
         23    2    1    2    0    0  0.91602106032E+03  0.10934473877E+04  0.24848789250E+03  0.14507741930E+04  0.90982161469E+02 0.  0.
        254    2    1    2    0    0 -0.91602106032E+03 -0.10934473877E+04  0.34687505635E+03  0.17160144260E+04  0.88862896242E+03 0.  0.
         23    2    4    4    0    0 -0.22934500757E+03 -0.58086222361E+02  0.39499671387E+03  0.46931481409E+03  0.90889212947E+02 0.  0.
         23    2    4    4    0    0 -0.68667605275E+03 -0.10353611653E+04 -0.48121657519E+02  0.12466996119E+04  0.91910196776E+02 0.  0.
          2    1    3    3  502    0  0.43188156393E+03  0.51371849783E+03  0.16302138701E+03  0.69065501728E+03  0.00000000000E+00 0. -1.
         -2    1    3    3    0  502  0.48413949639E+03  0.57972888987E+03  0.85466505486E+02  0.76011917571E+03  0.00000000000E+00 0.  1.
         11    1    5    5    0    0 -0.12255483616E+03 -0.73750785927E+02  0.25699473146E+03  0.29411759262E+03  0.00000000000E+00 0. -1.
        -11    1    5    5    0    0 -0.10679017140E+03  0.15664563567E+02  0.13800198241E+03  0.17519722147E+03  0.00000000000E+00 0.  1.
          4    1    6    6  503    0 -0.42689513353E+03 -0.58028762104E+03 -0.56717099567E+02  0.72262715666E+03  0.00000000000E+00 0. -1.
         -4    1    6    6    0  503 -0.25978091922E+03 -0.45507354430E+03  0.85954420483E+01  0.52407245523E+03  0.00000000000E+00 0.  1.
<mgrwt>
<rscale>  0 0.31103204E+04</rscale>
<asrwt>0</asrwt>
<pdfrwt beam="1">  1        2 0.28939628E+00 0.31103204E+04</pdfrwt>
<pdfrwt beam="2">  1       -2 0.19780197E+00 0.31103204E+04</pdfrwt>
<totfact> 0.90755190E-01</totfact>
</mgrwt>
</event>
<event>
12    2  0.3552864E-008  0.1646923E+04  0.7818608E-02  0.8792229E-01
          2   -1    0    0  501    0  0.00000000000E+00  0.00000000000E+00  0.97550662110E+03  0.97550662110E+03  0.00000000000E+00 0.  1.
         -2   -1    0    0    0  501 -0.00000000000E+00 -0.00000000000E+00 -0.69511448389E+03  0.69511448389E+03  0.00000000000E+00 0. -1.
         23    2    1    2    0    0 -0.43394280333E+03 -0.36886382231E+03  0.11568895848E+03  0.58746607248E+03  0.85822929497E+02 0.  0.
        254    2    1    2    0    0  0.43394280333E+03  0.36886382231E+03  0.16470317873E+03  0.10831550325E+04  0.90649369076E+03 0.  0.
         23    2    4    4    0    0  0.66567648373E+03  0.70546349298E+02  0.16307722530E+03  0.69453671151E+03  0.87664666928E+02 0.  0.
         23    2    4    4    0    0 -0.23173368041E+03  0.29831747301E+03  0.16259534246E+01  0.38861832100E+03  0.91256464701E+02 0.  0.
          1    1    3    3  502    0 -0.10747115155E+03 -0.46380932298E+02  0.21492255668E+02  0.11900905995E+03  0.00000000000E+00 0. -1.
         -1    1    3    3    0  502 -0.32647165178E+03 -0.32248289001E+03  0.94196702810E+02  0.46845701253E+03  0.00000000000E+00 0.  1.
         11    1    5    5    0    0  0.10694006461E+02  0.13792901599E+02  0.71584078277E+01  0.18863952697E+02  0.00000000000E+00 0. -1.
        -11    1    5    5    0    0  0.65498247727E+03  0.56753447698E+02  0.15591881748E+03  0.67567275881E+03  0.00000000000E+00 0.  1.
          3    1    6    6  503    0 -0.75465768444E+02  0.54762048508E+02  0.29764005866E+02  0.97876760310E+02  0.00000000000E+00 0. -1.
         -3    1    6    6    0  503 -0.15626791196E+03  0.24355542451E+03 -0.28138052441E+02  0.29074156069E+03  0.00000000000E+00 0.  1.
<mgrwt>
<rscale>  0 0.16469229E+04</rscale>
<asrwt>0</asrwt>
<pdfrwt beam="1">  1        2 0.15007794E+00 0.16469229E+04</pdfrwt>
<pdfrwt beam="2">  1       -2 0.10694069E+00 0.16469229E+04</pdfrwt>
<totfact> 0.17560494E+01</totfact>
</mgrwt>
</event>
<event>
12    2  0.3552864E-008  0.1692249E+04  0.7818608E-02  0.8765797E-01
          1   -1    0    0  501    0  0.00000000000E+00  0.00000000000E+00  0.48038096898E+03  0.48038096898E+03  0.00000000000E+00 0. -1.
         -1   -1    0    0    0  501 -0.00000000000E+00 -0.00000000000E+00 -0.14903312066E+04  0.14903312066E+04  0.00000000000E+00 0.  1.
         23    2    1    2    0    0  0.34753860128E+03  0.35462692976E+03 -0.76180186570E+03  0.91383537960E+03  0.90607283059E+02 0.  0.
        254    2    1    2    0    0 -0.34753860128E+03 -0.35462692976E+03 -0.24814837191E+03  0.10568767960E+04  0.89937067367E+03 0.  0.
         23    2    4    4    0    0 -0.48550251825E+03  0.50169402506E+02 -0.35132689903E+03  0.60726318431E+03  0.84310858532E+02 0.  0.
         23    2    4    4    0    0  0.13796391696E+03 -0.40479633226E+03  0.10317852713E+03  0.44961361164E+03  0.92803439148E+02 0.  0.
          4    1    3    3  502    0  0.29318637559E+03  0.29503403882E+03 -0.56876282254E+03  0.70462364649E+03  0.00000000000E+00 0. -1.
         -4    1    3    3    0  502  0.54352225694E+02  0.59592890941E+02 -0.19303904315E+03  0.20921173311E+03  0.00000000000E+00 0.  1.
         11    1    5    5    0    0 -0.22523285551E+02  0.19046827986E+02 -0.34512886000E+02  0.45400653612E+02  0.00000000000E+00 0.  1.
        -11    1    5    5    0    0 -0.46297923270E+03  0.31122574520E+02 -0.31681401303E+03  0.56186253070E+03  0.00000000000E+00 0. -1.
          3    1    6    6  503    0  0.15006542569E+03 -0.35411422494E+03  0.10011876970E+03  0.39741701567E+03  0.00000000000E+00 0. -1.
         -3    1    6    6    0  503 -0.12101508730E+02 -0.50682107321E+02  0.30597574235E+01  0.52196595976E+02  0.00000000000E+00 0.  1.
<mgrwt>
<rscale>  0 0.16922491E+04</rscale>
<asrwt>0</asrwt>
<pdfrwt beam="1">  1        1 0.73904766E-01 0.16922491E+04</pdfrwt>
<pdfrwt beam="2">  1       -1 0.22928172E+00 0.16922491E+04</pdfrwt>
<totfact> 0.42560576E+00</totfact>
</mgrwt>
</event>
<event>
12    2  0.3552864E-008  0.1573354E+04  0.7818608E-02  0.8837087E-01
         -2   -1    0    0    0  501 -0.00000000000E+00  0.00000000000E+00  0.40921686169E+03  0.40921686169E+03  0.00000000000E+00 0.  1.
          2   -1    0    0  501    0  0.00000000000E+00 -0.00000000000E+00 -0.15123057380E+04  0.15123057380E+04  0.00000000000E+00 0. -1.
         23    2    1    2    0    0  0.33287406531E+03 -0.11359901611E+03 -0.66259560756E+03  0.75548816000E+03  0.89551889589E+02 0.  0.
        254    2    1    2    0    0 -0.33287406531E+03  0.11359901611E+03 -0.44049326872E+03  0.11660344397E+04  0.10207311668E+04 0.  0.
         23    2    4    4    0    0 -0.63974837959E+03  0.12651418924E+03 -0.51676239925E+03  0.83694159827E+03  0.90244292655E+02 0.  0.
         23    2    4    4    0    0  0.30687431428E+03 -0.12915173128E+02  0.76269130529E+02  0.32909284140E+03  0.90257805885E+02 0.  0.
          1    1    3    3  502    0  0.31950097963E+03 -0.12599589959E+03 -0.64109974290E+03  0.72729961024E+03  0.00000000000E+00 0. -1.
         -1    1    3    3    0  502  0.13373085676E+02  0.12396883480E+02 -0.21495864654E+02  0.28188549763E+02  0.00000000000E+00 0.  1.
         11    1    5    5    0    0 -0.59286796049E+03  0.10599500671E+03 -0.50096111244E+03  0.78338330095E+03  0.00000000000E+00 0.  1.
        -11    1    5    5    0    0 -0.46880419103E+02  0.20519182529E+02 -0.15801286811E+02  0.53558297320E+02  0.00000000000E+00 0. -1.
          3    1    6    6  503    0  0.63272737697E+02  0.82954699336E+01  0.53931274092E+02  0.83551400242E+02  0.00000000000E+00 0. -1.
         -3    1    6    6    0  503  0.24360157659E+03 -0.21210643062E+02  0.22337856437E+02  0.24554144116E+03  0.00000000000E+00 0.  1.
<mgrwt>
<rscale>  0 0.15733544E+04</rscale>
<asrwt>0</asrwt>
<pdfrwt beam="1">  1        2 0.23266242E+00 0.15733544E+04</pdfrwt>
<pdfrwt beam="2">  1       -2 0.62956440E-01 0.15733544E+04</pdfrwt>
<totfact> 0.28061223E+01</totfact>
</mgrwt>
</event>
<event>
12    2  0.3552864E-008  0.1581012E+04  0.7818608E-02  0.8832299E-01
         -1   -1    0    0    0  501 -0.00000000000E+00  0.00000000000E+00  0.87085185102E+03  0.87085185102E+03  0.00000000000E+00 0. -1.
          1   -1    0    0  501    0  0.00000000000E+00 -0.00000000000E+00 -0.71757255077E+03  0.71757255077E+03  0.00000000000E+00 0.  1.
         23    2    1    2    0    0 -0.17182820784E+03  0.19989118141E+03 -0.48228489603E+03  0.55721811291E+03  0.91716339835E+02 0.  0.
        254    2    1    2    0    0  0.17182820784E+03 -0.19989118141E+03  0.63556419628E+03  0.10312062889E+04  0.76809058400E+03 0.  0.
         23    2    4    4    0    0  0.18858267580E+03  0.53041209416E+02  0.71810703124E+03  0.75036253120E+03  0.94812575207E+02 0.  0.
         23    2    4    4    0    0 -0.16754467959E+02 -0.25293239083E+03 -0.82542834956E+02  0.28084375768E+03  0.88342459200E+02 0.  0.
          1    1    3    3  502    0 -0.60795657397E+02  0.27163659726E+02 -0.69900464567E+02  0.96540412858E+02  0.00000000000E+00 0. -1.
         -1    1    3    3    0  502 -0.11103255044E+03  0.17272752169E+03 -0.41238443147E+03  0.46067770005E+03  0.00000000000E+00 0.  1.
         11    1    5    5    0    0  0.14921362951E+03  0.64332572637E+01  0.58784167360E+03  0.60651787051E+03  0.00000000000E+00 0.  1.
        -11    1    5    5    0    0  0.39369046289E+02  0.46607952152E+02  0.13026535764E+03  0.14384466069E+03  0.00000000000E+00 0. -1.
          3    1    6    6  503    0 -0.47087490993E+01  0.59315772880E+01 -0.83826802930E+01  0.11297134862E+02  0.00000000000E+00 0. -1.
         -3    1    6    6    0  503 -0.12045718860E+02 -0.25886396812E+03 -0.74160154663E+02  0.26954662282E+03  0.00000000000E+00 0.  1.
<mgrwt>
<rscale>  0 0.15810116E+04</rscale>
<asrwt>0</asrwt>
<pdfrwt beam="1">  1        1 0.11039578E+00 0.15810116E+04</pdfrwt>
<pdfrwt beam="2">  1       -1 0.13397721E+00 0.15810116E+04</pdfrwt>
<totfact> 0.11842506E+01</totfact>
</mgrwt>
</event>
<event>
12    2  0.3552864E-008  0.1806777E+04  0.7818608E-02  0.8702704E-01
         -2   -1    0    0    0  501 -0.00000000000E+00  0.00000000000E+00  0.13580921949E+04  0.13580921949E+04  0.00000000000E+00 0.  1.
          2   -1    0    0  501    0  0.00000000000E+00 -0.00000000000E+00 -0.60092411787E+03  0.60092411787E+03  0.00000000000E+00 0. -1.
         23    2    1    2    0    0 -0.19250904097E+02  0.53168925207E+03 -0.16716805869E+03  0.56554205652E+03  0.93960628831E+02 0.  0.
        254    2    1    2    0    0  0.19250904097E+02 -0.53168925207E+03  0.92433613571E+03  0.13934742563E+04  0.89683284562E+03 0.  0.
         23    2    4    4    0    0  0.31022022475E+03  0.29328019027E+02  0.79264447479E+02  0.33445841136E+03  0.92102419881E+02 0.  0.
         23    2    4    4    0    0 -0.29096932066E+03 -0.56101727110E+03  0.84507168823E+03  0.10590158449E+04  0.89246162103E+02 0.  0.
          1    1    3    3  502    0  0.66718884147E+01  0.36502972928E+03 -0.15439661977E+03  0.39639567802E+03  0.00000000000E+00 0. -1.
         -1    1    3    3    0  502 -0.25922792512E+02  0.16665952279E+03 -0.12771438915E+02  0.16914637850E+03  0.00000000000E+00 0.  1.
         11    1    5    5    0    0  0.14676057064E+03 -0.23213003842E+02  0.87383846386E+01  0.14884175492E+03  0.00000000000E+00 0. -1.
        -11    1    5    5    0    0  0.16345965411E+03  0.52541022869E+02  0.70526062840E+02  0.18561665644E+03  0.00000000000E+00 0.  1.
          3    1    6    6  503    0 -0.14340690146E+03 -0.19803557246E+03  0.28538965074E+03  0.37580697185E+03  0.00000000000E+00 0. -1.
         -3    1    6    6    0  503 -0.14756241919E+03 -0.36298169864E+03  0.55968203750E+03  0.68320887304E+03  0.00000000000E+00 0.  1.
<mgrwt>
<rscale>  0 0.18067765E+04</rscale>
<asrwt>0</asrwt>
<pdfrwt beam="1">  1        2 0.92449865E-01 0.18067765E+04</pdfrwt>
<pdfrwt beam="2">  1       -2 0.20893726E+00 0.18067765E+04</pdfrwt>
<totfact> 0.54294702E+00</totfact>
</mgrwt>
</event>
<event>
12    2  0.3552864E-008  0.5648767E+04  0.7818608E-02  0.7735544E-01
          2   -1    0    0  501    0  0.00000000000E+00  0.00000000000E+00  0.26216287488E+04  0.26216287488E+04  0.00000000000E+00 0. -1.
         -2   -1    0    0    0  501 -0.00000000000E+00 -0.00000000000E+00 -0.30428191923E+04  0.30428191923E+04  0.00000000000E+00 0.  1.
         23    2    1    2    0    0  0.15298454163E+04  0.22621316716E+04 -0.58320863047E+03  0.27939888597E+04  0.92599913812E+02 0.  0.
        254    2    1    2    0    0 -0.15298454163E+04 -0.22621316716E+04  0.16201818692E+03  0.28704590815E+04  0.86926333649E+03 0.  0.
         23    2    4    4    0    0 -0.36589422685E+03 -0.16567792796E+03 -0.17442408882E+03  0.44734361721E+03  0.91459215197E+02 0.  0.
         23    2    4    4    0    0 -0.11639511894E+04 -0.20964537436E+04  0.33644227574E+03  0.24231154642E+04  0.91621382180E+02 0.  0.
          4    1    3    3  502    0  0.63695550280E+03  0.97842808561E+03 -0.20744732569E+03  0.11857774767E+04  0.00000000000E+00 0. -1.
         -4    1    3    3    0  502  0.89288991347E+03  0.12837035860E+04 -0.37576130477E+03  0.16082113830E+04  0.00000000000E+00 0.  1.
         11    1    5    5    0    0 -0.15834055526E+03 -0.34248331243E+02 -0.10112919804E+03  0.19097589986E+03  0.00000000000E+00 0.  1.
        -11    1    5    5    0    0 -0.20755367159E+03 -0.13142959671E+03 -0.73294890780E+02  0.25636771734E+03  0.00000000000E+00 0. -1.
          2    1    6    6  503    0 -0.91857032055E+03 -0.16945734474E+04  0.30134652524E+03  0.19509383206E+04  0.00000000000E+00 0. -1.
         -2    1    6    6    0  503 -0.24538086888E+03 -0.40188029618E+03  0.35095750496E+02  0.47217714363E+03  0.00000000000E+00 0.  1.
<mgrwt>
<rscale>  0 0.56487670E+04</rscale>
<asrwt>0</asrwt>
<pdfrwt beam="1">  1        2 0.40332750E+00 0.56487670E+04</pdfrwt>
<pdfrwt beam="2">  1       -2 0.46812603E+00 0.56487670E+04</pdfrwt>
<totfact> 0.54233636E-03</totfact>
</mgrwt>
</event>
<event>
12    2  0.3552864E-008  0.2928530E+04  0.7818608E-02  0.8264439E-01
          2   -1    0    0  501    0  0.00000000000E+00  0.00000000000E+00  0.24214556548E+04  0.24214556548E+04  0.00000000000E+00 0.  1.
         -2   -1    0    0    0  501 -0.00000000000E+00 -0.00000000000E+00 -0.88544775410E+03  0.88544775410E+03  0.00000000000E+00 0. -1.
         23    2    1    2    0    0 -0.10884647774E+04  0.22863296043E+02  0.15344513823E+04  0.18836973735E+04  0.92176181391E+02 0.  0.
        254    2    1    2    0    0  0.10884647774E+04 -0.22863296043E+02  0.15565183572E+01  0.14232060354E+04  0.91664316639E+03 0.  0.
         23    2    4    4    0    0  0.92045985980E+03 -0.37817817687E+03  0.10856113313E+03  0.10051928505E+04  0.91444300207E+02 0.  0.
         23    2    4    4    0    0  0.16800491756E+03  0.35531488083E+03 -0.10700461477E+03  0.41801318490E+03  0.93865426561E+02 0.  0.
          3    1    3    3  502    0 -0.33910346165E+02 -0.24533813509E+01  0.80591221253E+02  0.87469283752E+02  0.00000000000E+00 0. -1.
         -3    1    3    3    0  502 -0.10545544312E+04  0.25316677394E+02  0.14538601611E+04  0.17962280898E+04  0.00000000000E+00 0.  1.
         11    1    5    5    0    0  0.48775901570E+03 -0.17646864896E+03  0.16319307997E+02  0.51895699367E+03  0.00000000000E+00 0. -1.
        -11    1    5    5    0    0  0.43270084410E+03 -0.20170952791E+03  0.92241825133E+02  0.48623585680E+03  0.00000000000E+00 0.  1.
          1    1    6    6  503    0  0.15193506817E+03  0.27204866645E+03 -0.49389992871E+02  0.31549027442E+03  0.00000000000E+00 0. -1.
         -1    1    6    6    0  503  0.16069849393E+02  0.83266214372E+02 -0.57614621903E+02  0.10252291048E+03  0.00000000000E+00 0.  1.
<mgrwt>
<rscale>  0 0.29285303E+04</rscale>
<asrwt>0</asrwt>
<pdfrwt beam="1">  1        2 0.37253164E+00 0.29285303E+04</pdfrwt>
<pdfrwt beam="2">  1       -2 0.13622273E+00 0.29285303E+04</pdfrwt>
<totfact> 0.12825185E+00</totfact>
</mgrwt>
</event>
<event>
12    2  0.3552864E-008  0.1277381E+04  0.7818608E-02  0.9047697E-01
          1   -1    0    0  501    0  0.00000000000E+00  0.00000000000E+00  0.93297900219E+03  0.93297900219E+03  0.00000000000E+00 0. -1.
         -1   -1    0    0    0  501 -0.00000000000E+00 -0.00000000000E+00 -0.43722928299E+03  0.43722928299E+03  0.00000000000E+00 0.  1.
         23    2    1    2    0    0  0.37908663346E+02  0.40444995609E+02  0.45406584590E+03  0.46651132813E+03  0.91565072133E+02 0.  0.
        254    2    1    2    0    0 -0.37908663346E+02 -0.40444995609E+02  0.41683873303E+02  0.90369695705E+03  0.90103150914E+03 0.  0.
         23    2    4    4    0    0 -0.25135663286E+03 -0.30064121330E+03  0.27226146720E+03  0.48549750763E+03  0.89533386935E+02 0.  0.
         23    2    4    4    0    0  0.21344796951E+03  0.26019621769E+03 -0.23057759390E+03  0.41819944943E+03  0.91992637227E+02 0.  0.
          1    1    3    3  502    0  0.37648140166E+02  0.42068830191E+02  0.45840639020E+03  0.46186966507E+03  0.00000000000E+00 0. -1.
         -1    1    3    3    0  502  0.26052318046E+00 -0.16238345819E+01 -0.43405443063E+01  0.46416630588E+01  0.00000000000E+00 0.  1.
         11    1    5    5    0    0 -0.81089539292E+02 -0.46612129064E+02  0.88238936830E+02  0.12858582321E+03  0.00000000000E+00 0.  1.
        -11    1    5    5    0    0 -0.17026709357E+03 -0.25402908423E+03  0.18402253037E+03  0.35691168442E+03  0.00000000000E+00 0. -1.
          3    1    6    6  503    0  0.19052055685E+03  0.26153714378E+03 -0.22625284555E+03  0.39482921660E+03  0.00000000000E+00 0. -1.
         -3    1    6    6    0  503  0.22927412658E+02 -0.13409260936E+01 -0.43247483445E+01  0.23370232823E+02  0.00000000000E+00 0.  1.
<mgrwt>
<rscale>  0 0.12773813E+04</rscale>
<asrwt>0</asrwt>
<pdfrwt beam="1">  1        1 0.14353523E+00 0.12773813E+04</pdfrwt>
<pdfrwt beam="2">  1       -1 0.67266044E-01 0.12773813E+04</pdfrwt>
<totfact> 0.37692041E+01</totfact>
</mgrwt>
</event>
<event>
12    2  0.3552864E-008  0.2885322E+04  0.7818608E-02  0.8277258E-01
          2   -1    0    0  501    0  0.00000000000E+00  0.00000000000E+00  0.11346746032E+04  0.11346746032E+04  0.00000000000E+00 0. -1.
         -2   -1    0    0    0  501 -0.00000000000E+00 -0.00000000000E+00 -0.18342451120E+04  0.18342451120E+04  0.00000000000E+00 0.  1.
         23    2    1    2    0    0 -0.35125142759E+03  0.26181450055E+03  0.94459457551E+03  0.10452610190E+04  0.91582136505E+02 0.  0.
        254    2    1    2    0    0  0.35125142759E+03 -0.26181450055E+03 -0.16441650843E+04  0.19236586963E+04  0.89736255612E+03 0.  0.
         23    2    4    4    0    0  0.64308034965E+03 -0.19481779840E+03 -0.12316463213E+04  0.14059344264E+04  0.90513203208E+02 0.  0.
         23    2    4    4    0    0 -0.29182892205E+03 -0.66996702142E+02 -0.41251876302E+03  0.51772426984E+03  0.90631186095E+02 0.  0.
          3    1    3    3  502    0 -0.34126097255E+03  0.26588628260E+03  0.93705802660E+03  0.10321009214E+04  0.00000000000E+00 0. -1.
         -3    1    3    3    0  502 -0.99904550435E+01 -0.40717820545E+01  0.75365489169E+01  0.13160097669E+02  0.00000000000E+00 0.  1.
         11    1    5    5    0    0  0.41260122643E+03 -0.16792567422E+03 -0.83523851712E+03  0.94660561196E+03  0.00000000000E+00 0.  1.
        -11    1    5    5    0    0  0.23047912322E+03 -0.26892124187E+02 -0.39640780417E+03  0.45932881446E+03  0.00000000000E+00 0. -1.
          4    1    6    6  503    0 -0.18363068568E+03 -0.62704957896E+02 -0.19691103638E+03  0.27645270249E+03  0.00000000000E+00 0. -1.
         -4    1    6    6    0  503 -0.10819823637E+03 -0.42917442458E+01 -0.21560772664E+03  0.24127156734E+03  0.00000000000E+00 0.  1.
<mgrwt>
<rscale>  0 0.28853224E+04</rscale>
<asrwt>0</asrwt>
<pdfrwt beam="1">  1        2 0.17456532E+00 0.28853224E+04</pdfrwt>
<pdfrwt beam="2">  1       -2 0.28219155E+00 0.28853224E+04</pdfrwt>
<totfact> 0.73193918E-01</totfact>
</mgrwt>
</event>
<event>
12    2  0.3552864E-008  0.1526039E+04  0.7818608E-02  0.8867320E-01
         -1   -1    0    0    0  501 -0.00000000000E+00  0.00000000000E+00  0.49712430682E+03  0.49712430682E+03  0.00000000000E+00 0.  1.
          1   -1    0    0  501    0  0.00000000000E+00 -0.00000000000E+00 -0.11711329030E+04  0.11711329030E+04  0.00000000000E+00 0. -1.
         23    2    1    2    0    0  0.39800120797E+03  0.27820893659E+03 -0.14799902306E+03  0.51402143114E+03  0.80679284225E+02 0.  0.
        254    2    1    2    0    0 -0.39800120797E+03 -0.27820893659E+03 -0.52600957308E+03  0.11542357786E+04  0.90541094966E+03 0.  0.
         23    2    4    4    0    0 -0.53725096685E+02 -0.30477300292E+03  0.17546739054E+03  0.36704011033E+03  0.90314274204E+02 0.  0.
         23    2    4    4    0    0 -0.34427611129E+03  0.26564066332E+02 -0.70147696362E+03  0.78719566831E+03  0.91517207580E+02 0.  0.
          3    1    3    3  502    0  0.70546568030E+02  0.27654838073E+02 -0.48185380778E+02  0.89796655006E+02  0.00000000000E+00 0. -1.
         -3    1    3    3    0  502  0.32745463994E+03  0.25055409852E+03 -0.99813642277E+02  0.42422477614E+03  0.00000000000E+00 0.  1.
         11    1    5    5    0    0 -0.74548619267E+02 -0.25503073392E+03  0.16291947683E+03  0.31167439390E+03  0.00000000000E+00 0. -1.
        -11    1    5    5    0    0  0.20823522582E+02 -0.49742268998E+02  0.12547913710E+02  0.55365716434E+02  0.00000000000E+00 0.  1.
          3    1    6    6  503    0 -0.21724002404E+03 -0.27075671424E+02 -0.44843421036E+03  0.49901859790E+03  0.00000000000E+00 0. -1.
         -3    1    6    6    0  503 -0.12703608724E+03  0.53639737755E+02 -0.25304275326E+03  0.28817707040E+03  0.00000000000E+00 0.  1.
<mgrwt>
<rscale>  0 0.15260388E+04</rscale>
<asrwt>0</asrwt>
<pdfrwt beam="1">  1        1 0.18017429E+00 0.15260388E+04</pdfrwt>
<pdfrwt beam="2">  1       -1 0.76480663E-01 0.15260388E+04</pdfrwt>
<totfact> 0.18588350E+01</totfact>
</mgrwt>
</event>
<event>
12    2  0.3552864E-008  0.2235696E+04  0.7818608E-02  0.8503716E-01
         -1   -1    0    0    0  501 -0.00000000000E+00  0.00000000000E+00  0.48983767028E+03  0.48983767028E+03  0.00000000000E+00 0.  1.
          1   -1    0    0  501    0  0.00000000000E+00 -0.00000000000E+00 -0.25510166981E+04  0.25510166981E+04  0.00000000000E+00 0. -1.
         23    2    1    2    0    0 -0.29223960427E+03 -0.88104057458E+03 -0.70556312348E+03  0.11695746826E+04  0.91919185649E+02 0.  0.
        254    2    1    2    0    0  0.29223960427E+03  0.88104057458E+03 -0.13556159044E+04  0.18712796858E+04  0.89574365855E+03 0.  0.
         23    2    4    4    0    0  0.13225634208E+02 -0.17271046657E+03 -0.18817137438E+03  0.27134451465E+03  0.90639708922E+02 0.  0.
         23    2    4    4    0    0  0.27901397006E+03  0.10537510411E+04 -0.11674445300E+04  0.15999351711E+04  0.92875017997E+02 0.  0.
          4    1    3    3  502    0 -0.27375742669E+03 -0.86421525284E+03 -0.67583549821E+03  0.11307363762E+04  0.00000000000E+00 0. -1.
         -4    1    3    3    0  502 -0.18482177580E+02 -0.16825321743E+02 -0.29727625269E+02  0.38838306399E+02  0.00000000000E+00 0.  1.
         11    1    5    5    0    0  0.50878728936E+02 -0.11709446507E+03 -0.13373109154E+03  0.18488851682E+03  0.00000000000E+00 0. -1.
        -11    1    5    5    0    0 -0.37653094727E+02 -0.55616001502E+02 -0.54440282842E+02  0.86455997834E+02  0.00000000000E+00 0.  1.
          4    1    6    6  503    0  0.21029773398E+02  0.11517564804E+03 -0.88247070465E+02  0.14661250532E+03  0.00000000000E+00 0.  1.
         -4    1    6    6    0  503  0.25798419666E+03  0.93857539310E+03 -0.10791974595E+04  0.14533226658E+04  0.00000000000E+00 0. -1.
<mgrwt>
<rscale>  0 0.22356959E+04</rscale>
<asrwt>0</asrwt>
<pdfrwt beam="1">  1        1 0.39246410E+00 0.22356959E+04</pdfrwt>
<pdfrwt beam="2">  1       -1 0.75359644E-01 0.22356959E+04</pdfrwt>
<totfact> 0.20085271E+00</totfact>
</mgrwt>
</event>
<event>
12    2  0.3552864E-008  0.1253573E+04  0.7818608E-02  0.9067215E-01
          2   -1    0    0  501    0  0.00000000000E+00  0.00000000000E+00  0.17072693127E+04  0.17072693127E+04  0.00000000000E+00 0. -1.
         -2   -1    0    0    0  501 -0.00000000000E+00 -0.00000000000E+00 -0.23011075832E+03  0.23011075832E+03  0.00000000000E+00 0.  1.
         23    2    1    2    0    0 -0.20383736278E+03  0.33713171777E+02  0.68410815241E+03  0.72047877130E+03  0.91648498508E+02 0.  0.
        254    2    1    2    0    0  0.20383736278E+03 -0.33713171777E+02  0.79305040195E+03  0.12169012997E+04  0.89957411299E+03 0.  0.
         23    2    4    4    0    0 -0.82087784249E+02  0.93089360324E+02 -0.15254042623E+03  0.21660469049E+03  0.90801855588E+02 0.  0.
         23    2    4    4    0    0  0.28592514702E+03 -0.12680253210E+03  0.94559082818E+03  0.10002966092E+04  0.92839755552E+02 0.  0.
          2    1    3    3  502    0 -0.37487763803E+02 -0.29737983157E+02  0.15516250509E+03  0.16237328310E+03  0.00000000000E+00 0.  1.
         -2    1    3    3    0  502 -0.16634959897E+03  0.63451154934E+02  0.52894564732E+03  0.55810548820E+03  0.00000000000E+00 0. -1.
         11    1    5    5    0    0 -0.93733902971E+02  0.75266614351E+02 -0.88945777607E+02  0.14954082772E+03  0.00000000000E+00 0. -1.
        -11    1    5    5    0    0  0.11646118722E+02  0.17822745973E+02 -0.63594648626E+02  0.67063862766E+02  0.00000000000E+00 0.  1.
          2    1    6    6  503    0  0.13506679246E+03 -0.76991992788E+02  0.60205416154E+03  0.62180384271E+03  0.00000000000E+00 0.  1.
         -2    1    6    6    0  503  0.15085835456E+03 -0.49810539313E+02  0.34353666663E+03  0.37849276650E+03  0.00000000000E+00 0. -1.
<mgrwt>
<rscale>  0 0.12535726E+04</rscale>
<asrwt>0</asrwt>
<pdfrwt beam="1">  1        2 0.26265681E+00 0.12535726E+04</pdfrwt>
<pdfrwt beam="2">  1       -2 0.35401656E-01 0.12535726E+04</pdfrwt>
<totfact> 0.71591655E+01</totfact>
</mgrwt>
</event>
<event>
12    2  0.3552864E-008  0.2816896E+04  0.7818608E-02  0.8298042E-01
         -2   -1    0    0    0  501 -0.00000000000E+00  0.00000000000E+00  0.19272646538E+04  0.19272646538E+04  0.00000000000E+00 0.  1.
          2   -1    0    0  501    0  0.00000000000E+00 -0.00000000000E+00 -0.10292963464E+04  0.10292963464E+04  0.00000000000E+00 0. -1.
         23    2    1    2    0    0 -0.12260732631E+04  0.24018655758E+03  0.57646663468E+03  0.13788433039E+04  0.89161913483E+02 0.  0.
        254    2    1    2    0    0  0.12260732631E+04 -0.24018655758E+03  0.32150167270E+03  0.15777176964E+04  0.90823156460E+03 0.  0.
         23    2    4    4    0    0  0.16073308902E+03 -0.39635756842E+03 -0.37151224995E+02  0.43923439982E+03  0.92801920854E+02 0.  0.
         23    2    4    4    0    0  0.10653401741E+04  0.15617101085E+03  0.35865289770E+03  0.11384832965E+04  0.90405997347E+02 0.  0.
          1    1    3    3  502    0 -0.53997682178E+03  0.13029262881E+03  0.29717585827E+03  0.62997192629E+03  0.00000000000E+00 0. -1.
         -1    1    3    3    0  502 -0.68609644132E+03  0.10989392877E+03  0.27929077640E+03  0.74887137758E+03  0.00000000000E+00 0.  1.
         11    1    5    5    0    0  0.16106803454E+03 -0.32913871573E+03 -0.95262896410E+01  0.36655962153E+03  0.00000000000E+00 0. -1.
        -11    1    5    5    0    0 -0.33494552042E+00 -0.67218852690E+02 -0.27624935354E+02  0.72674778285E+02  0.00000000000E+00 0.  1.
          1    1    6    6  503    0  0.73654758774E+03  0.11257909999E+03  0.29144409498E+03  0.80007253625E+03  0.00000000000E+00 0. -1.
         -1    1    6    6    0  503  0.32879258633E+03  0.43591910854E+02  0.67208802715E+02  0.33841076029E+03  0.00000000000E+00 0.  1.
<mgrwt>
<rscale>  0 0.28168965E+04</rscale>
<asrwt>0</asrwt>
<pdfrwt beam="1">  1        2 0.15835328E+00 0.28168965E+04</pdfrwt>
<pdfrwt beam="2">  1       -2 0.29650225E+00 0.28168965E+04</pdfrwt>
<totfact> 0.69994783E-01</totfact>
</mgrwt>
</event>
<event>
12    2  0.3552864E-008  0.1575562E+04  0.7818608E-02  0.8835703E-01
          2   -1    0    0  501    0  0.00000000000E+00  0.00000000000E+00  0.86187969809E+03  0.86187969809E+03  0.00000000000E+00 0. -1.
         -2   -1    0    0    0  501 -0.00000000000E+00 -0.00000000000E+00 -0.72005276841E+03  0.72005276841E+03  0.00000000000E+00 0.  1.
         23    2    1    2    0    0  0.54416695311E+03 -0.87473985428E+02  0.14795250310E+03  0.57769234807E+03  0.89828363359E+02 0.  0.
        254    2    1    2    0    0 -0.54416695311E+03  0.87473985428E+02 -0.61255734209E+01  0.10042401184E+04  0.83945894590E+03 0.  0.
         23    2    4    4    0    0 -0.50527458955E+02  0.39805534613E+03  0.24826021300E+02  0.41211159048E+03  0.90656213167E+02 0.  0.
         23    2    4    4    0    0 -0.49363949415E+03 -0.31058136070E+03 -0.30951594721E+02  0.59212852795E+03  0.97557473295E+02 0.  0.
          4    1    3    3  502    0  0.23511349823E+03 -0.42212387265E+02  0.18529850361E+02  0.23959047986E+03  0.00000000000E+00 0. -1.
         -4    1    3    3    0  502  0.30905345488E+03 -0.45261598163E+02  0.12942265274E+03  0.33810186821E+03  0.00000000000E+00 0.  1.
         11    1    5    5    0    0 -0.15813109701E+02  0.35791974723E+03  0.23253841739E+02  0.35902275840E+03  0.00000000000E+00 0. -1.
        -11    1    5    5    0    0 -0.34714349254E+02  0.40135598905E+02  0.15721795619E+01  0.53088832086E+02  0.00000000000E+00 0.  1.
          4    1    6    6  503    0 -0.15201880884E+02 -0.37041956993E+02  0.14165711932E+01  0.40065077490E+02  0.00000000000E+00 0.  1.
         -4    1    6    6    0  503 -0.47843761327E+03 -0.27353940371E+03 -0.32368165914E+02  0.55206345046E+03  0.00000000000E+00 0. -1.
<mgrwt>
<rscale>  0 0.15755619E+04</rscale>
<asrwt>0</asrwt>
<pdfrwt beam="1">  1        2 0.13259688E+00 0.15755619E+04</pdfrwt>
<pdfrwt beam="2">  1       -2 0.11077735E+00 0.15755619E+04</pdfrwt>
<totfact> 0.19324817E+01</totfact>
</mgrwt>
</event>
<event>
12    2  0.3552864E-008  0.1360805E+04  0.7818608E-02  0.8982689E-01
          1   -1    0    0  501    0  0.00000000000E+00  0.00000000000E+00  0.27215802578E+04  0.27215802578E+04  0.00000000000E+00 0. -1.
         -1   -1    0    0    0  501 -0.00000000000E+00 -0.00000000000E+00 -0.17010255965E+03  0.17010255965E+03  0.00000000000E+00 0.  1.
         23    2    1    2    0    0 -0.87515323647E+02  0.13094325037E+03  0.64818787904E+01  0.18425188518E+03  0.95402703055E+02 0.  0.
        254    2    1    2    0    0  0.87515323647E+02 -0.13094325037E+03  0.25449958193E+04  0.27074309322E+04  0.91015024349E+03 0.  0.
         23    2    4    4    0    0 -0.59273912242E+02  0.11547512636E+03  0.12846418854E+02  0.15748519302E+03  0.88253351562E+02 0.  0.
         23    2    4    4    0    0  0.14678923589E+03 -0.24641837673E+03  0.25321494005E+04  0.25499457392E+04  0.90407911497E+02 0.  0.
          4    1    3    3  502    0  0.17177653372E+02  0.19527902348E+02  0.16892328165E+02  0.31012279766E+02  0.00000000000E+00 0. -1.
         -4    1    3    3    0  502 -0.10469297702E+03  0.11141534803E+03 -0.10410449374E+02  0.15323960542E+03  0.00000000000E+00 0.  1.
         11    1    5    5    0    0  0.65748701945E+01  0.79571141601E+02 -0.62642350508E+01  0.80087677794E+02  0.00000000000E+00 0. -1.
        -11    1    5    5    0    0 -0.65848782436E+02  0.35903984757E+02  0.19110653905E+02  0.77397515222E+02  0.00000000000E+00 0.  1.
          2    1    6    6  503    0  0.98582422726E+01 -0.40969714042E+02  0.17966899251E+03  0.18454443714E+03  0.00000000000E+00 0. -1.
         -2    1    6    6    0  503  0.13693099362E+03 -0.20544866269E+03  0.23524804080E+04  0.23654013021E+04  0.00000000000E+00 0.  1.
<mgrwt>
<rscale>  0 0.13608053E+04</rscale>
<asrwt>0</asrwt>
<pdfrwt beam="1">  1        1 0.41870462E+00 0.13608053E+04</pdfrwt>
<pdfrwt beam="2">  1       -1 0.26169627E-01 0.13608053E+04</pdfrwt>
<totfact> 0.12066641E+01</totfact>
</mgrwt>
</event>
<event>
12    2  0.3552864E-008  0.1342608E+04  0.7818608E-02  0.8996443E-01
         -2   -1    0    0    0  501 -0.00000000000E+00  0.00000000000E+00  0.15855201323E+04  0.15855201323E+04  0.00000000000E+00 0.  1.
          2   -1    0    0  501    0  0.00000000000E+00 -0.00000000000E+00 -0.28422797763E+03  0.28422797763E+03  0.00000000000E+00 0. -1.
         23    2    1    2    0    0  0.24198048919E+03  0.12530341880E+02  0.75411491852E+03  0.79728384485E+03  0.90888130754E+02 0.  0.
        254    2    1    2    0    0 -0.24198048919E+03 -0.12530341880E+02  0.54717723615E+03  0.10724642651E+04  0.88998039614E+03 0.  0.
         23    2    4    4    0    0  0.36807031164E+02  0.39348337409E+03  0.34771485847E+03  0.53383056198E+03  0.88800466635E+02 0.  0.
         23    2    4    4    0    0 -0.27878752035E+03 -0.40601371597E+03  0.19946237768E+03  0.53863370311E+03  0.88155583757E+02 0.  0.
          2    1    3    3  502    0  0.11440536813E+03 -0.36224547455E+01  0.22104629676E+03  0.24892403610E+03  0.00000000000E+00 0. -1.
         -2    1    3    3    0  502  0.12757512105E+03  0.16152796626E+02  0.53306862176E+03  0.54835980875E+03  0.00000000000E+00 0.  1.
         11    1    5    5    0    0 -0.18277701718E+02  0.42707026987E+02  0.65303821135E+02  0.80140835964E+02  0.00000000000E+00 0. -1.
        -11    1    5    5    0    0  0.55084732882E+02  0.35077634711E+03  0.28241103733E+03  0.45368972602E+03  0.00000000000E+00 0.  1.
          3    1    6    6  503    0 -0.16500043399E+03 -0.24666364844E+03  0.73229053670E+02  0.30566418335E+03  0.00000000000E+00 0. -1.
         -3    1    6    6    0  503 -0.11378708636E+03 -0.15935006753E+03  0.12623332401E+03  0.23296951976E+03  0.00000000000E+00 0.  1.
<mgrwt>
<rscale>  0 0.13426082E+04</rscale>
<asrwt>0</asrwt>
<pdfrwt beam="1">  1        2 0.43727382E-01 0.13426082E+04</pdfrwt>
<pdfrwt beam="2">  1       -2 0.24392617E+00 0.13426082E+04</pdfrwt>
<totfact> 0.79914435E+00</totfact>
</mgrwt>
</event>
<event>
12    2  0.3552864E-008  0.3001928E+04  0.7818608E-02  0.8243181E-01
         -2   -1    0    0    0  501 -0.00000000000E+00  0.00000000000E+00  0.22913943237E+04  0.22913943237E+04  0.00000000000E+00 0.  1.
          2   -1    0    0  501    0  0.00000000000E+00 -0.00000000000E+00 -0.98319740447E+03  0.98319740447E+03  0.00000000000E+00 0. -1.
         23    2    1    2    0    0  0.98640570553E+03  0.33356546415E+03  0.15637021607E+04  0.18809611038E+04  0.92671957231E+02 0.  0.
        254    2    1    2    0    0 -0.98640570553E+03 -0.33356546415E+03 -0.25550524153E+03  0.13936306244E+04  0.89031525538E+03 0.  0.
         23    2    4    4    0    0 -0.91673916033E+01 -0.22048253419E+03 -0.32655415726E+03  0.40316354256E+03  0.84891904676E+02 0.  0.
         23    2    4    4    0    0 -0.97723831393E+03 -0.11308292996E+03  0.71048915732E+02  0.99046708181E+03  0.90524142977E+02 0.  0.
          3    1    3    3  502    0  0.75962542957E+02  0.29980825775E+02  0.17230461779E+03  0.19067784129E+03  0.00000000000E+00 0. -1.
         -3    1    3    3    0  502  0.91044316257E+03  0.30358463837E+03  0.13913975429E+04  0.16902832625E+04  0.00000000000E+00 0.  1.
         11    1    5    5    0    0 -0.37807255954E+02 -0.18033055431E+03 -0.28103015632E+03  0.33604530376E+03  0.00000000000E+00 0. -1.
        -11    1    5    5    0    0  0.28639864351E+02 -0.40151979880E+02 -0.45524000937E+02  0.67118238801E+02  0.00000000000E+00 0.  1.
          4    1    6    6  503    0 -0.74706882789E+03 -0.87436516971E+02  0.92720134920E+02  0.75786146592E+03  0.00000000000E+00 0. -1.
         -4    1    6    6    0  503 -0.23016948604E+03 -0.25646412990E+02 -0.21671219188E+02  0.23260561589E+03  0.00000000000E+00 0.  1.
<mgrwt>
<rscale>  0 0.30019280E+04</rscale>
<asrwt>0</asrwt>
<pdfrwt beam="1">  1        2 0.15126114E+00 0.30019280E+04</pdfrwt>
<pdfrwt beam="2">  1       -2 0.35252220E+00 0.30019280E+04</pdfrwt>
<totfact> 0.33142622E-01</totfact>
</mgrwt>
</event>
<event>
12    2  0.3552864E-008  0.1540580E+04  0.7818608E-02  0.8857907E-01
          2   -1    0    0  501    0  0.00000000000E+00  0.00000000000E+00  0.30086564691E+04  0.30086564691E+04  0.00000000000E+00 0. -1.
         -2   -1    0    0    0  501 -0.00000000000E+00 -0.00000000000E+00 -0.19721308693E+03  0.19721308693E+03  0.00000000000E+00 0.  1.
         23    2    1    2    0    0 -0.46282599722E+03  0.18521145048E+03  0.85217998051E+03  0.99148265911E+03  0.91191880328E+02 0.  0.
        254    2    1    2    0    0  0.46282599722E+03 -0.18521145048E+03  0.19592634017E+04  0.22143868969E+04  0.90348495674E+03 0.  0.
         23    2    4    4    0    0  0.67877532220E+03 -0.10642295452E+02  0.10046002480E+04  0.12160361386E+04  0.93129133698E+02 0.  0.
         23    2    4    4    0    0 -0.21594932498E+03 -0.17456915502E+03  0.95466315367E+03  0.99835075836E+03  0.90631114338E+02 0.  0.
          3    1    3    3  502    0 -0.29589739297E+02  0.32183233864E+02  0.45314525909E+02  0.62966018391E+02  0.00000000000E+00 0. -1.
         -3    1    3    3    0  502 -0.43323625792E+03  0.15302821661E+03  0.80686545460E+03  0.92851664072E+03  0.00000000000E+00 0.  1.
         11    1    5    5    0    0  0.66937341109E+03 -0.13490677238E+01  0.96614235582E+03  0.11753695739E+04  0.00000000000E+00 0.  1.
        -11    1    5    5    0    0  0.94019111143E+01 -0.92932277284E+01  0.38457892166E+02  0.40666564695E+02  0.00000000000E+00 0. -1.
          1    1    6    6  503    0 -0.47653885818E+02 -0.60238227897E+02  0.40549367840E+03  0.41270408304E+03  0.00000000000E+00 0. -1.
         -1    1    6    6    0  503 -0.16829543917E+03 -0.11433092713E+03  0.54916947527E+03  0.58564667532E+03  0.00000000000E+00 0.  1.
<mgrwt>
<rscale>  0 0.15405797E+04</rscale>
<asrwt>0</asrwt>
<pdfrwt beam="1">  1        2 0.46287019E+00 0.15405797E+04</pdfrwt>
<pdfrwt beam="2">  1       -2 0.30340477E-01 0.15405797E+04</pdfrwt>
<totfact> 0.16743832E+01</totfact>
</mgrwt>
</event>
<event>
12    2  0.3552864E-008  0.1128967E+04  0.7818608E-02  0.9177410E-01
          1   -1    0    0  501    0  0.00000000000E+00  0.00000000000E+00  0.51637267753E+03  0.51637267753E+03  0.00000000000E+00 0. -1.
         -1   -1    0    0    0  501 -0.00000000000E+00 -0.00000000000E+00 -0.61707643213E+03  0.61707643213E+03  0.00000000000E+00 0.  1.
         23    2    1    2    0    0  0.22794931763E+02  0.67526796312E+02  0.18191744206E+03  0.21553526755E+03  0.91005597065E+02 0.  0.
        254    2    1    2    0    0 -0.22794931763E+02 -0.67526796312E+02 -0.28262119666E+03  0.91791384211E+03  0.87040887151E+03 0.  0.
         23    2    4    4    0    0  0.87025897830E+02  0.47502706671E+02  0.28786868393E+03  0.31818076456E+03  0.92415397617E+02 0.  0.
         23    2    4    4    0    0 -0.10982082959E+03 -0.11502950298E+03 -0.57048988059E+03  0.59973307755E+03  0.94491583122E+02 0.  0.
          1    1    3    3  502    0  0.32425864737E+01  0.39071923134E+02  0.17623797540E+03  0.18054626420E+03  0.00000000000E+00 0. -1.
         -1    1    3    3    0  502  0.19552345289E+02  0.28454873178E+02  0.56794666662E+01  0.34989003351E+02  0.00000000000E+00 0.  1.
         11    1    5    5    0    0 -0.58724437807E+01 -0.15414004420E+02  0.12087548739E+02  0.20449595662E+02  0.00000000000E+00 0. -1.
        -11    1    5    5    0    0  0.92898341610E+02  0.62916711091E+02  0.27578113519E+03  0.29773116890E+03  0.00000000000E+00 0.  1.
          1    1    6    6  503    0 -0.93072339205E+02 -0.13114594593E+03 -0.47622929092E+03  0.50264903958E+03  0.00000000000E+00 0. -1.
         -1    1    6    6    0  503 -0.16748490388E+02  0.16116442947E+02 -0.94260589669E+02  0.97084037968E+02  0.00000000000E+00 0.  1.
<mgrwt>
<rscale>  0 0.11289666E+04</rscale>
<asrwt>0</asrwt>
<pdfrwt beam="1">  1        1 0.79441951E-01 0.11289666E+04</pdfrwt>
<pdfrwt beam="2">  1       -1 0.94934835E-01 0.11289666E+04</pdfrwt>
<totfact> 0.45232545E+01</totfact>
</mgrwt>
</event>
<event>
12    2  0.3552864E-008  0.1605785E+04  0.7818608E-02  0.8817002E-01
          1   -1    0    0  501    0  0.00000000000E+00  0.00000000000E+00  0.61803880936E+03  0.61803880936E+03  0.00000000000E+00 0. -1.
         -1   -1    0    0    0  501 -0.00000000000E+00 -0.00000000000E+00 -0.10430349363E+04  0.10430349363E+04  0.00000000000E+00 0.  1.
         23    2    1    2    0    0  0.12252497096E+03  0.48047969652E+03  0.10951961590E+03  0.51589631236E+03  0.91001931611E+02 0.  0.
        254    2    1    2    0    0 -0.12252497096E+03 -0.48047969652E+03 -0.53451574280E+03  0.11451774333E+04  0.88309182255E+03 0.  0.
         23    2    4    4    0    0  0.21388493945E+03  0.13472565174E+03 -0.22039857975E+02  0.27192670178E+03  0.97778357738E+02 0.  0.
         23    2    4    4    0    0 -0.33640991041E+03 -0.61520534826E+03 -0.51247588482E+03  0.87325073147E+03  0.91027793228E+02 0.  0.
          4    1    3    3  502    0  0.12047019044E+03  0.42312604451E+03  0.68241290829E+02  0.44520286398E+03  0.00000000000E+00 0. -1.
         -4    1    3    3    0  502  0.20547805236E+01  0.57353652016E+02  0.41278325068E+02  0.70693448374E+02  0.00000000000E+00 0.  1.
         11    1    5    5    0    0  0.21743376836E+03  0.11952620713E+03 -0.36327971417E+02  0.25076618457E+03  0.00000000000E+00 0. -1.
        -11    1    5    5    0    0 -0.35488289119E+01  0.15199444606E+02  0.14288113442E+02  0.21160517213E+02  0.00000000000E+00 0.  1.
          3    1    6    6  503    0 -0.32123273218E+03 -0.52965261404E+03 -0.46199324253E+03  0.77276135769E+03  0.00000000000E+00 0. -1.
         -3    1    6    6    0  503 -0.15177178230E+02 -0.85552734219E+02 -0.50482642288E+02  0.10048937379E+03  0.00000000000E+00 0.  1.
<mgrwt>
<rscale>  0 0.16057846E+04</rscale>
<asrwt>0</asrwt>
<pdfrwt beam="1">  1        1 0.95082894E-01 0.16057846E+04</pdfrwt>
<pdfrwt beam="2">  1       -1 0.16046691E+00 0.16057846E+04</pdfrwt>
<totfact> 0.91196192E+00</totfact>
</mgrwt>
</event>
<event>
12    2  0.3552864E-008  0.1355216E+04  0.7818608E-02  0.8986889E-01
         -2   -1    0    0    0  501 -0.00000000000E+00  0.00000000000E+00  0.14295893706E+03  0.14295893706E+03  0.00000000000E+00 0.  1.
          2   -1    0    0  501    0  0.00000000000E+00 -0.00000000000E+00 -0.32117790661E+04  0.32117790661E+04  0.00000000000E+00 0. -1.
         23    2    1    2    0    0 -0.19571644542E+03 -0.35795764476E+03 -0.12955420426E+04  0.13615430506E+04  0.94507628735E+02 0.  0.
        254    2    1    2    0    0  0.19571644542E+03  0.35795764476E+03 -0.17732780864E+04  0.19931949526E+04  0.81355537293E+03 0.  0.
         23    2    4    4    0    0 -0.98280359368E+01  0.47004901569E+03 -0.16441833210E+04  0.17125211675E+04  0.91363496900E+02 0.  0.
         23    2    4    4    0    0  0.20554448135E+03 -0.11209137093E+03 -0.12909476540E+03  0.28067378509E+03  0.85435975632E+02 0.  0.
          1    1    3    3  502    0 -0.11978856656E+03 -0.25657084044E+03 -0.10145081074E+04  0.10532827715E+04  0.00000000000E+00 0. -1.
         -1    1    3    3    0  502 -0.75927878854E+02 -0.10138680432E+03 -0.28103393522E+03  0.30826027902E+03  0.00000000000E+00 0.  1.
         11    1    5    5    0    0  0.14140797539E+02  0.12826507869E+02 -0.40750676999E+02  0.45001101486E+02  0.00000000000E+00 0.  1.
        -11    1    5    5    0    0 -0.23968833476E+02  0.45722250782E+03 -0.16034326440E+04  0.16675200660E+04  0.00000000000E+00 0. -1.
          4    1    6    6  503    0  0.15177315247E+03 -0.54792705117E+02 -0.49395343626E+02  0.16875197871E+03  0.00000000000E+00 0. -1.
         -4    1    6    6    0  503  0.53771328882E+02 -0.57298665817E+02 -0.79699421770E+02  0.11192180639E+03  0.00000000000E+00 0.  1.
<mgrwt>
<rscale>  0 0.13552159E+04</rscale>
<asrwt>0</asrwt>
<pdfrwt beam="1">  1        2 0.49411981E+00 0.13552159E+04</pdfrwt>
<pdfrwt beam="2">  1       -2 0.21993685E-01 0.13552159E+04</pdfrwt>
<totfact> 0.22775121E+01</totfact>
</mgrwt>
</event>
<event>
12    2  0.3552864E-008  0.2899816E+04  0.7818608E-02  0.8272932E-01
         -2   -1    0    0    0  501 -0.00000000000E+00  0.00000000000E+00  0.77210658689E+03  0.77210658689E+03  0.00000000000E+00 0.  1.
          2   -1    0    0  501    0  0.00000000000E+00 -0.00000000000E+00 -0.27227231911E+04  0.27227231911E+04  0.00000000000E+00 0. -1.
         23    2    1    2    0    0 -0.86010662103E+03  0.49299243249E+02  0.30673546775E+03  0.91881058048E+03  0.88951788692E+02 0.  0.
        254    2    1    2    0    0  0.86010662103E+03 -0.49299243249E+02 -0.22573520720E+04  0.25760191975E+04  0.89332117080E+03 0.  0.
         23    2    4    4    0    0  0.18999036982E+02 -0.28606698998E+03 -0.27501847579E+03  0.40770411674E+03  0.91608943989E+02 0.  0.
         23    2    4    4    0    0  0.84110758405E+03  0.23676774673E+03 -0.19823335962E+04  0.21683150808E+04  0.91776190433E+02 0.  0.
          3    1    3    3  502    0 -0.87540507275E+02  0.53999315907E+00  0.60779207172E+02  0.10657271710E+03  0.00000000000E+00 0. -1.
         -3    1    3    3    0  502 -0.77256611375E+03  0.48759250090E+02  0.24595626058E+03  0.81223786338E+03  0.00000000000E+00 0.  1.
         11    1    5    5    0    0  0.24773559043E+02 -0.24920843238E+03 -0.18839094225E+03  0.31338429942E+03  0.00000000000E+00 0.  1.
        -11    1    5    5    0    0 -0.57745220611E+01 -0.36858557599E+02 -0.86627533540E+02  0.94319817327E+02  0.00000000000E+00 0. -1.
          3    1    6    6  503    0  0.56057502604E+02 -0.27387486748E+00 -0.91459883059E+02  0.10727268438E+03  0.00000000000E+00 0. -1.
         -3    1    6    6    0  503  0.78505008144E+03  0.23704162160E+03 -0.18908737131E+04  0.20610423964E+04  0.00000000000E+00 0.  1.
<mgrwt>
<rscale>  0 0.28998155E+04</rscale>
<asrwt>0</asrwt>
<pdfrwt beam="1">  1        2 0.41888049E+00 0.28998155E+04</pdfrwt>
<pdfrwt beam="2">  1       -2 0.11878563E+00 0.28998155E+04</pdfrwt>
<totfact> 0.12093192E+00</totfact>
</mgrwt>
</event>
<event>
12    2  0.3552864E-008  0.1504915E+04  0.7818608E-02  0.8881191E-01
         -2   -1    0    0    0  501 -0.00000000000E+00  0.00000000000E+00  0.21455124365E+03  0.21455124365E+03  0.00000000000E+00 0.  1.
          2   -1    0    0  501    0  0.00000000000E+00 -0.00000000000E+00 -0.26389601261E+04  0.26389601261E+04  0.00000000000E+00 0. -1.
         23    2    1    2    0    0  0.34502438945E+03 -0.19870322181E+03 -0.12490524464E+04  0.13141405341E+04  0.91151138343E+02 0.  0.
        254    2    1    2    0    0 -0.34502438945E+03  0.19870322181E+03 -0.11753564361E+04  0.15393708356E+04  0.91086498340E+03 0.  0.
         23    2    4    4    0    0  0.11369327559E+03  0.62875197678E+02  0.92524225384E+02  0.18116280822E+03  0.85905642424E+02 0.  0.
         23    2    4    4    0    0 -0.45871766504E+03  0.13582802413E+03 -0.12678806615E+04  0.13582080274E+04  0.91304575814E+02 0.  0.
          3    1    3    3  502    0  0.33743506879E+03 -0.19941942513E+03 -0.12455223292E+04  0.13057397924E+04  0.00000000000E+00 0. -1.
         -3    1    3    3    0  502  0.75893206580E+01  0.71620331856E+00 -0.35301171333E+01  0.84007417659E+01  0.00000000000E+00 0.  1.
         11    1    5    5    0    0  0.10247157500E+03  0.37058935918E+02  0.10412385027E+03  0.15071683586E+03  0.00000000000E+00 0. -1.
        -11    1    5    5    0    0  0.11221700592E+02  0.25816261760E+02 -0.11599624890E+02  0.30445972361E+02  0.00000000000E+00 0.  1.
          3    1    6    6  503    0 -0.23742283401E+03  0.11638583433E+03 -0.71885379185E+03  0.76594127621E+03  0.00000000000E+00 0. -1.
         -3    1    6    6    0  503 -0.22129483103E+03  0.19442189803E+02 -0.54902686962E+03  0.59226675117E+03  0.00000000000E+00 0.  1.
<mgrwt>
<rscale>  0 0.15049149E+04</rscale>
<asrwt>0</asrwt>
<pdfrwt beam="1">  1        2 0.40599388E+00 0.15049149E+04</pdfrwt>
<pdfrwt beam="2">  1       -2 0.33007883E-01 0.15049149E+04</pdfrwt>
<totfact> 0.23972943E+01</totfact>
</mgrwt>
</event>
<event>
12    2  0.3552864E-008  0.2450098E+04  0.7818608E-02  0.8420982E-01
          3   -1    0    0  501    0  0.00000000000E+00  0.00000000000E+00  0.45014822907E+04  0.45014822907E+04  0.00000000000E+00 0.  1.
         -3   -1    0    0    0  501 -0.00000000000E+00 -0.00000000000E+00 -0.33338915151E+03  0.33338915151E+03  0.00000000000E+00 0. -1.
         23    2    1    2    0    0  0.34030129426E+03  0.82162931524E+03  0.67044877791E+03  0.11172263236E+04  0.88393392454E+02 0.  0.
        254    2    1    2    0    0 -0.34030129426E+03 -0.82162931524E+03  0.34976443613E+04  0.37176451186E+04  0.89246257474E+03 0.  0.
         23    2    4    4    0    0 -0.14420158414E+03  0.13217190759E+03  0.12185776335E+04  0.12374623133E+04  0.90100043498E+02 0.  0.
         23    2    4    4    0    0 -0.19609971012E+03 -0.95380122283E+03  0.22790667277E+04  0.24801828053E+04  0.94708654587E+02 0.  0.
          1    1    3    3  502    0  0.26092319707E+03  0.68255977239E+03  0.51435450850E+03  0.89360467661E+03  0.00000000000E+00 0. -1.
         -1    1    3    3    0  502  0.79378097191E+02  0.13906954285E+03  0.15609426941E+03  0.22362164699E+03  0.00000000000E+00 0.  1.
         11    1    5    5    0    0 -0.67964520482E+02  0.57307360887E+02  0.30604874832E+03  0.31869914653E+03  0.00000000000E+00 0. -1.
        -11    1    5    5    0    0 -0.76237063658E+02  0.74864546704E+02  0.91252888521E+03  0.91876316675E+03  0.00000000000E+00 0.  1.
          2    1    6    6  503    0 -0.63749841574E+02 -0.50108248627E+03  0.12483269160E+04  0.13466505818E+04  0.00000000000E+00 0. -1.
         -2    1    6    6    0  503 -0.13234986854E+03 -0.45271873656E+03  0.10307398117E+04  0.11335322235E+04  0.00000000000E+00 0.  1.
<mgrwt>
<rscale>  0 0.24500983E+04</rscale>
<asrwt>0</asrwt>
<pdfrwt beam="1">  1        3 0.69253569E+00 0.24500983E+04</pdfrwt>
<pdfrwt beam="2">  1       -3 0.51290642E-01 0.24500983E+04</pdfrwt>
<totfact> 0.32365965E-03</totfact>
</mgrwt>
</event>
<event>
12    2  0.3552864E-008  0.2790472E+04  0.7818608E-02  0.8306233E-01
         -2   -1    0    0    0  501 -0.00000000000E+00  0.00000000000E+00  0.50308191158E+03  0.50308191158E+03  0.00000000000E+00 0.  1.
          2   -1    0    0  501    0  0.00000000000E+00 -0.00000000000E+00 -0.38695161469E+04  0.38695161469E+04  0.00000000000E+00 0. -1.
         23    2    1    2    0    0 -0.10476028728E+04  0.56564231617E+03 -0.21693691588E+04  0.24763029669E+04  0.92145687422E+02 0.  0.
        254    2    1    2    0    0  0.10476028728E+04 -0.56564231617E+03 -0.11970650765E+04  0.18962950916E+04  0.86345079078E+03 0.  0.
         23    2    4    4    0    0  0.81125019348E+03  0.29212663488E+02 -0.57415111198E+03  0.99839525075E+03  0.90351099541E+02 0.  0.
         23    2    4    4    0    0  0.23635267930E+03 -0.59485497966E+03 -0.62291396454E+03  0.89789984086E+03  0.92126441117E+02 0.  0.
          3    1    3    3  502    0 -0.46976663216E+03  0.29093658642E+03 -0.93884365409E+03  0.10893815644E+04  0.00000000000E+00 0. -1.
         -3    1    3    3    0  502 -0.57783624062E+03  0.27470572975E+03 -0.12305255047E+04  0.13869214025E+04  0.00000000000E+00 0.  1.
         11    1    5    5    0    0  0.71638852855E+03  0.69196394053E+00 -0.48495241176E+03  0.86509643643E+03  0.00000000000E+00 0.  1.
        -11    1    5    5    0    0  0.94861664927E+02  0.28520699547E+02 -0.89198700226E+02  0.13329881431E+03  0.00000000000E+00 0. -1.
          1    1    6    6  503    0  0.11089384475E+03 -0.17262388177E+03 -0.17465649334E+03  0.26944635834E+03  0.00000000000E+00 0. -1.
         -1    1    6    6    0  503  0.12545883455E+03 -0.42223109789E+03 -0.44825747120E+03  0.62845348251E+03  0.00000000000E+00 0.  1.
<mgrwt>
<rscale>  0 0.27904721E+04</rscale>
<asrwt>0</asrwt>
<pdfrwt beam="1">  1        2 0.59531017E+00 0.27904721E+04</pdfrwt>
<pdfrwt beam="2">  1       -2 0.77397219E-01 0.27904721E+04</pdfrwt>
<totfact> 0.56323872E-01</totfact>
</mgrwt>
</event>
<event>
12    2  0.3552864E-008  0.1473194E+04  0.7818608E-02  0.8902477E-01
         -1   -1    0    0    0  501 -0.00000000000E+00  0.00000000000E+00  0.28183399973E+03  0.28183399973E+03  0.00000000000E+00 0.  1.
          1   -1    0    0  501    0  0.00000000000E+00 -0.00000000000E+00 -0.19251591452E+04  0.19251591452E+04  0.00000000000E+00 0. -1.
         23    2    1    2    0    0  0.32829549476E+03 -0.44680269666E+02  0.17069248524E+02  0.34415544253E+03  0.91527870058E+02 0.  0.
        254    2    1    2    0    0 -0.32829549476E+03  0.44680269666E+02 -0.16603943940E+04  0.18628377024E+04  0.77684007590E+03 0.  0.
         23    2    4    4    0    0  0.19297191301E+03 -0.16950715298E+03 -0.45819860104E+03  0.53187112824E+03  0.83487154315E+02 0.  0.
         23    2    4    4    0    0 -0.52126740778E+03  0.21418742264E+03 -0.12021957930E+04  0.13309665742E+04  0.92743380013E+02 0.  0.
          3    1    3    3  502    0  0.39520472240E+02 -0.12387099555E+02 -0.28157939705E+02  0.50081708536E+02  0.00000000000E+00 0. -1.
         -3    1    3    3    0  502  0.28877502252E+03 -0.32293170111E+02  0.45227188229E+02  0.29407373399E+03  0.00000000000E+00 0.  1.
         11    1    5    5    0    0  0.87159458529E+02 -0.81203066741E+02 -0.29573496035E+03  0.31882577692E+03  0.00000000000E+00 0.  1.
        -11    1    5    5    0    0  0.10581245448E+03 -0.88304086234E+02 -0.16246364070E+03  0.21304535132E+03  0.00000000000E+00 0. -1.
          2    1    6    6  503    0 -0.14081969097E+02 -0.41747976201E+01 -0.67017221281E+02  0.68607862064E+02  0.00000000000E+00 0. -1.
         -2    1    6    6    0  503 -0.50718543868E+03  0.21836222026E+03 -0.11351785717E+04  0.12623587121E+04  0.00000000000E+00 0.  1.
<mgrwt>
<rscale>  0 0.14731942E+04</rscale>
<asrwt>0</asrwt>
<pdfrwt beam="1">  1        1 0.29617834E+00 0.14731942E+04</pdfrwt>
<pdfrwt beam="2">  1       -1 0.43359076E-01 0.14731942E+04</pdfrwt>
<totfact> 0.17052805E+01</totfact>
</mgrwt>
</event>
<event>
12    2  0.3552864E-008  0.2445084E+04  0.7818608E-02  0.8422815E-01
          2   -1    0    0  501    0  0.00000000000E+00  0.00000000000E+00  0.40246674333E+04  0.40246674333E+04  0.00000000000E+00 0. -1.
         -2   -1    0    0    0  501 -0.00000000000E+00 -0.00000000000E+00 -0.37136198551E+03  0.37136198551E+03  0.00000000000E+00 0.  1.
         23    2    1    2    0    0  0.67094771752E+03  0.68366785073E+03  0.78725276974E+03  0.12432286146E+04  0.90982937513E+02 0.  0.
        254    2    1    2    0    0 -0.67094771752E+03 -0.68366785073E+03  0.28660526780E+04  0.31528008042E+04  0.89906751020E+03 0.  0.
         23    2    4    4    0    0  0.45851920487E+02 -0.49207492237E+03  0.70290274428E+03  0.86414526688E+03  0.91840331642E+02 0.  0.
         23    2    4    4    0    0 -0.71679963801E+03 -0.19159292836E+03  0.21631499337E+04  0.22886555373E+04  0.90647456337E+02 0.  0.
          2    1    3    3  502    0  0.31137421145E+03  0.30603168130E+03  0.41672163511E+03  0.60354470479E+03  0.00000000000E+00 0.  1.
         -2    1    3    3    0  502  0.35957350608E+03  0.37763616943E+03  0.37053113463E+03  0.63968390981E+03  0.00000000000E+00 0. -1.
         11    1    5    5    0    0 -0.21578938150E+02 -0.92842911618E+02  0.10240960788E+03  0.13990419792E+03  0.00000000000E+00 0.  1.
        -11    1    5    5    0    0  0.67430858636E+02 -0.39923201075E+03  0.60049313639E+03  0.72424106896E+03  0.00000000000E+00 0. -1.
          1    1    6    6  503    0 -0.64626709017E+03 -0.18805354285E+03  0.18807778144E+04  0.19975861618E+04  0.00000000000E+00 0. -1.
         -1    1    6    6    0  503 -0.70532547837E+02 -0.35393855118E+01  0.28237211935E+03  0.29106937548E+03  0.00000000000E+00 0.  1.
<mgrwt>
<rscale>  0 0.24450836E+04</rscale>
<asrwt>0</asrwt>
<pdfrwt beam="1">  1        2 0.61917957E+00 0.24450836E+04</pdfrwt>
<pdfrwt beam="2">  1       -2 0.57132616E-01 0.24450836E+04</pdfrwt>
<totfact> 0.84391158E-01</totfact>
</mgrwt>
</event>
<event>
12    2  0.3552864E-008  0.2693783E+04  0.7818608E-02  0.8337025E-01
         -2   -1    0    0    0  501 -0.00000000000E+00  0.00000000000E+00  0.69055430054E+03  0.69055430054E+03  0.00000000000E+00 0. -1.
          2   -1    0    0  501    0  0.00000000000E+00 -0.00000000000E+00 -0.26270437418E+04  0.26270437418E+04  0.00000000000E+00 0.  1.
         23    2    1    2    0    0 -0.52824178387E+03  0.69133363730E+03  0.13800483763E+03  0.88546788754E+03  0.89590537351E+02 0.  0.
        254    2    1    2    0    0  0.52824178387E+03 -0.69133363730E+03 -0.20744942789E+04  0.24321301548E+04  0.92452636330E+03 0.  0.
         23    2    4    4    0    0  0.18497951023E+03 -0.24338000968E+03 -0.17423438155E+04  0.17712437983E+04  0.89952059856E+02 0.  0.
         23    2    4    4    0    0  0.34326227364E+03 -0.44795362762E+03 -0.33215046336E+03  0.66088635653E+03  0.89193076738E+02 0.  0.
          4    1    3    3  502    0 -0.47831800228E+03  0.65063686553E+03  0.10911467263E+03  0.81487572910E+03  0.00000000000E+00 0. -1.
         -4    1    3    3    0  502 -0.49923781585E+02  0.40696771761E+02  0.28890164999E+02  0.70592158440E+02  0.00000000000E+00 0.  1.
         11    1    5    5    0    0  0.10541675245E+03 -0.17494168085E+03 -0.93104410158E+03  0.95318434864E+03  0.00000000000E+00 0. -1.
        -11    1    5    5    0    0  0.79562757772E+02 -0.68438328823E+02 -0.81129971394E+03  0.81805944962E+03  0.00000000000E+00 0.  1.
          3    1    6    6  503    0  0.17017538010E+03 -0.18175388558E+03 -0.10368938897E+03  0.26971396757E+03  0.00000000000E+00 0. -1.
         -3    1    6    6    0  503  0.17308689354E+03 -0.26619974204E+03 -0.22846107439E+03  0.39117238896E+03  0.00000000000E+00 0.  1.
<mgrwt>
<rscale>  0 0.26937827E+04</rscale>
<asrwt>0</asrwt>
<pdfrwt beam="1">  1        2 0.40416057E+00 0.26937827E+04</pdfrwt>
<pdfrwt beam="2">  1       -2 0.10623912E+00 0.26937827E+04</pdfrwt>
<totfact> 0.18396474E+00</totfact>
</mgrwt>
</event>
<event>
12    2  0.3552864E-008  0.1592296E+04  0.7818608E-02  0.8825295E-01
         -1   -1    0    0    0  501 -0.00000000000E+00  0.00000000000E+00  0.86621349329E+03  0.86621349329E+03  0.00000000000E+00 0.  1.
          1   -1    0    0  501    0  0.00000000000E+00 -0.00000000000E+00 -0.73175019786E+03  0.73175019786E+03  0.00000000000E+00 0. -1.
         23    2    1    2    0    0 -0.71607229009E+02 -0.53801679809E+02 -0.48487368704E+03  0.50164056116E+03  0.92295959898E+02 0.  0.
        254    2    1    2    0    0  0.71607229009E+02  0.53801679809E+02  0.61933698248E+03  0.10963231300E+04  0.90017992173E+03 0.  0.
         23    2    4    4    0    0  0.47577868999E+03  0.26975602481E+02  0.28392266572E+03  0.56224446718E+03  0.91726309179E+02 0.  0.
         23    2    4    4    0    0 -0.40417146098E+03  0.26826077328E+02  0.33541431676E+03  0.53407866281E+03  0.93075484877E+02 0.  0.
          2    1    3    3  502    0 -0.20708121902E+02  0.14160577262E+02 -0.26104803548E+03  0.26225069130E+03  0.00000000000E+00 0. -1.
         -2    1    3    3    0  502 -0.50899107107E+02 -0.67962257071E+02 -0.22382565156E+03  0.23938986985E+03  0.00000000000E+00 0.  1.
         11    1    5    5    0    0  0.13181401857E+03  0.48787180276E+02  0.86951865197E+02  0.16527477518E+03  0.00000000000E+00 0. -1.
        -11    1    5    5    0    0  0.34396467142E+03 -0.21811577794E+02  0.19697080052E+03  0.39696969200E+03  0.00000000000E+00 0.  1.
          4    1    6    6  503    0 -0.24464220349E+03 -0.74205449398E+01  0.14985730441E+03  0.28698795079E+03  0.00000000000E+00 0. -1.
         -4    1    6    6    0  503 -0.15952925749E+03  0.34246622268E+02  0.18555701235E+03  0.24709071202E+03  0.00000000000E+00 0.  1.
<mgrwt>
<rscale>  0 0.15922963E+04</rscale>
<asrwt>0</asrwt>
<pdfrwt beam="1">  1        1 0.11257695E+00 0.15922963E+04</pdfrwt>
<pdfrwt beam="2">  1       -1 0.13326361E+00 0.15922963E+04</pdfrwt>
<totfact> 0.11637605E+01</totfact>
</mgrwt>
</event>
<event>
12    2  0.3552864E-008  0.2189024E+04  0.7818608E-02  0.8523010E-01
          2   -1    0    0  501    0  0.00000000000E+00  0.00000000000E+00  0.11929269082E+04  0.11929269082E+04  0.00000000000E+00 0. -1.
         -2   -1    0    0    0  501 -0.00000000000E+00 -0.00000000000E+00 -0.10042163803E+04  0.10042163803E+04  0.00000000000E+00 0.  1.
         23    2    1    2    0    0  0.82593002237E+03 -0.26246485693E+03 -0.22848352323E+03  0.90090306816E+03  0.91506365048E+02 0.  0.
        254    2    1    2    0    0 -0.82593002237E+03  0.26246485693E+03  0.41719405118E+03  0.12962402204E+04  0.86898770395E+03 0.  0.
         23    2    4    4    0    0 -0.78744637960E+03  0.17575866940E+02 -0.10886752255E+02  0.79299862640E+03  0.91365136940E+02 0.  0.
         23    2    4    4    0    0 -0.38483642774E+02  0.24488898999E+03  0.42808080344E+03  0.50324159399E+03  0.92451714241E+02 0.  0.
          4    1    3    3  502    0  0.23987891724E+03 -0.79795309750E+02 -0.11007410700E+03  0.27572721198E+03  0.00000000000E+00 0. -1.
         -4    1    3    3    0  502  0.58605110513E+03 -0.18266954718E+03 -0.11840941624E+03  0.62517585618E+03  0.00000000000E+00 0.  1.
         11    1    5    5    0    0 -0.55944196688E+03  0.24655856602E+01  0.32585559353E+02  0.56039558536E+03  0.00000000000E+00 0. -1.
        -11    1    5    5    0    0 -0.22800441272E+03  0.15110281279E+02 -0.43472311608E+02  0.23260304103E+03  0.00000000000E+00 0.  1.
          2    1    6    6  503    0  0.17874370920E+02  0.99316373407E+02  0.11226172356E+03  0.15095009022E+03  0.00000000000E+00 0. -1.
         -2    1    6    6    0  503 -0.56358013694E+02  0.14557261658E+03  0.31581907988E+03  0.35229150376E+03  0.00000000000E+00 0.  1.
<mgrwt>
<rscale>  0 0.21890242E+04</rscale>
<asrwt>0</asrwt>
<pdfrwt beam="1">  1        2 0.18352722E+00 0.21890242E+04</pdfrwt>
<pdfrwt beam="2">  1       -2 0.15449483E+00 0.21890242E+04</pdfrwt>
<totfact> 0.48462186E+00</totfact>
</mgrwt>
</event>
<event>
12    2  0.3552864E-008  0.2543023E+04  0.7818608E-02  0.8387817E-01
          2   -1    0    0  501    0  0.00000000000E+00  0.00000000000E+00  0.17330350534E+04  0.17330350534E+04  0.00000000000E+00 0. -1.
         -2   -1    0    0    0  501 -0.00000000000E+00 -0.00000000000E+00 -0.93289570715E+03  0.93289570715E+03  0.00000000000E+00 0.  1.
         23    2    1    2    0    0 -0.10530719810E+04 -0.22116611234E+03  0.63269137704E+03  0.12515071415E+04  0.89981666053E+02 0.  0.
        254    2    1    2    0    0  0.10530719810E+04  0.22116611234E+03  0.16744796923E+03  0.14144236191E+04  0.90259642447E+03 0.  0.
         23    2    4    4    0    0  0.10924443244E+04 -0.21967092665E+02 -0.90422468626E+01  0.10969919997E+04  0.96915066016E+02 0.  0.
         23    2    4    4    0    0 -0.39372343448E+02  0.24313320500E+03  0.17649021609E+03  0.31743161940E+03  0.94604967183E+02 0.  0.
          1    1    3    3  502    0 -0.38461481263E+03 -0.87082058189E+02  0.28217965030E+03  0.48490946990E+03  0.00000000000E+00 0. -1.
         -1    1    3    3    0  502 -0.66845716835E+03 -0.13408405415E+03  0.35051172674E+03  0.76659767158E+03  0.00000000000E+00 0.  1.
         11    1    5    5    0    0  0.10825166817E+04 -0.27616771228E+02 -0.73695127334E+00  0.10828691496E+04  0.00000000000E+00 0. -1.
        -11    1    5    5    0    0  0.99276427458E+01  0.56496785624E+01 -0.83052955892E+01  0.14122850037E+02  0.00000000000E+00 0.  1.
          1    1    6    6  503    0  0.19549064656E+01  0.16088206738E+03  0.66733275070E+02  0.17418435999E+03  0.00000000000E+00 0. -1.
         -1    1    6    6    0  503 -0.41327249913E+02  0.82251137620E+02  0.10975694102E+03  0.14324725941E+03  0.00000000000E+00 0.  1.
<mgrwt>
<rscale>  0 0.25430226E+04</rscale>
<asrwt>0</asrwt>
<pdfrwt beam="1">  1        2 0.26662078E+00 0.25430226E+04</pdfrwt>
<pdfrwt beam="2">  1       -2 0.14352242E+00 0.25430226E+04</pdfrwt>
<totfact> 0.28125604E+00</totfact>
</mgrwt>
</event>
<event>
12    2  0.3552864E-008  0.1328996E+04  0.7818608E-02  0.9006882E-01
          1   -1    0    0  501    0  0.00000000000E+00  0.00000000000E+00  0.89792663404E+03  0.89792663404E+03  0.00000000000E+00 0. -1.
         -1   -1    0    0    0  501 -0.00000000000E+00 -0.00000000000E+00 -0.49175227683E+03  0.49175227683E+03  0.00000000000E+00 0.  1.
         23    2    1    2    0    0 -0.21241330701E+03 -0.62366977608E+02 -0.19653305193E+03  0.30936979992E+03  0.89863116490E+02 0.  0.
        254    2    1    2    0    0  0.21241330701E+03  0.62366977608E+02  0.60270740915E+03  0.10803091110E+04  0.86879370467E+03 0.  0.
         23    2    4    4    0    0  0.15713032651E+03  0.30757196383E+03  0.70799322628E+03  0.79301953956E+03  0.91296928907E+02 0.  0.
         23    2    4    4    0    0  0.55282980502E+02 -0.24520498622E+03 -0.10528581713E+03  0.28728957140E+03  0.90931300138E+02 0.  0.
          2    1    3    3  502    0 -0.25563957404E+02 -0.26221900123E+02 -0.75271984619E+02  0.83707679652E+02  0.00000000000E+00 0. -1.
         -2    1    3    3    0  502 -0.18684934961E+03 -0.36145077485E+02 -0.12126106731E+03  0.22566212026E+03  0.00000000000E+00 0.  1.
         11    1    5    5    0    0  0.58110061225E+02  0.54998129563E+02  0.10676244532E+03  0.13341586563E+03  0.00000000000E+00 0.  1.
        -11    1    5    5    0    0  0.99020265286E+02  0.25257383426E+03  0.60123078096E+03  0.65960367393E+03  0.00000000000E+00 0. -1.
          4    1    6    6  503    0  0.54361378455E+02 -0.87943853794E+02 -0.73482303102E+02  0.12684214503E+03  0.00000000000E+00 0. -1.
         -4    1    6    6    0  503  0.92160204720E+00 -0.15726113242E+03 -0.31803514027E+02  0.16044742636E+03  0.00000000000E+00 0.  1.
<mgrwt>
<rscale>  0 0.13289958E+04</rscale>
<asrwt>0</asrwt>
<pdfrwt beam="1">  1        1 0.13814256E+00 0.13289958E+04</pdfrwt>
<pdfrwt beam="2">  1       -1 0.75654196E-01 0.13289958E+04</pdfrwt>
<totfact> 0.31452470E+01</totfact>
</mgrwt>
</event>
<event>
12    2  0.3552864E-008  0.2434655E+04  0.7818608E-02  0.8426642E-01
          1   -1    0    0  501    0  0.00000000000E+00  0.00000000000E+00  0.35832617423E+04  0.35832617423E+04  0.00000000000E+00 0. -1.
         -1   -1    0    0    0  501 -0.00000000000E+00 -0.00000000000E+00 -0.41355782261E+03  0.41355782261E+03  0.00000000000E+00 0.  1.
         23    2    1    2    0    0  0.22327008153E+03  0.71986959211E+03  0.17154856751E+03  0.77836713557E+03  0.91458885640E+02 0.  0.
        254    2    1    2    0    0 -0.22327008153E+03 -0.71986959211E+03  0.29981553522E+04  0.32184524293E+04  0.89523112388E+03 0.  0.
         23    2    4    4    0    0  0.16138315603E+03 -0.58310885883E+03  0.24661145169E+04  0.25408127095E+04  0.89151276202E+02 0.  0.
         23    2    4    4    0    0 -0.38465323756E+03 -0.13676073328E+03  0.53204083522E+03  0.67763971977E+03  0.97296084909E+02 0.  0.
          1    1    3    3  502    0  0.11106323982E+03  0.26227452417E+03  0.29914214913E+02  0.28638755127E+03  0.00000000000E+00 0. -1.
         -1    1    3    3    0  502  0.11220684171E+03  0.45759506795E+03  0.14163435259E+03  0.49197958430E+03  0.00000000000E+00 0.  1.
         11    1    5    5    0    0  0.16785550786E+03 -0.58060085736E+03  0.24295045629E+04  0.25035505284E+04  0.00000000000E+00 0.  1.
        -11    1    5    5    0    0 -0.64723518254E+01 -0.25080014749E+01  0.36609953987E+02  0.37262181102E+02  0.00000000000E+00 0. -1.
          1    1    6    6  503    0 -0.10724107139E+03  0.55255554630E+01  0.15133758094E+03  0.18556465871E+03  0.00000000000E+00 0. -1.
         -1    1    6    6    0  503 -0.27741216617E+03 -0.14228628874E+03  0.38070325428E+03  0.49207506106E+03  0.00000000000E+00 0.  1.
<mgrwt>
<rscale>  0 0.24346547E+04</rscale>
<asrwt>0</asrwt>
<pdfrwt beam="1">  1        1 0.55127102E+00 0.24346547E+04</pdfrwt>
<pdfrwt beam="2">  1       -1 0.63624283E-01 0.24346547E+04</pdfrwt>
<totfact> 0.48100388E-01</totfact>
</mgrwt>
</event>
<event>
12    2  0.3552864E-008  0.1944479E+04  0.7818608E-02  0.8633028E-01
          2   -1    0    0  501    0  0.00000000000E+00  0.00000000000E+00  0.75899998615E+03  0.75899998615E+03  0.00000000000E+00 0. -1.
         -2   -1    0    0    0  501 -0.00000000000E+00 -0.00000000000E+00 -0.12453877692E+04  0.12453877692E+04  0.00000000000E+00 0.  1.
         23    2    1    2    0    0 -0.14923600631E+03 -0.68500549060E+03 -0.49556916772E+03  0.86360962782E+03  0.93428483547E+02 0.  0.
        254    2    1    2    0    0  0.14923600631E+03  0.68500549060E+03  0.91813846962E+01  0.11407781275E+04  0.89988139811E+03 0.  0.
         23    2    4    4    0    0  0.22596011487E+03  0.76598625282E+03 -0.25147549992E+03  0.84257869225E+03  0.94371672457E+02 0.  0.
         23    2    4    4    0    0 -0.76724108555E+02 -0.80980762222E+02  0.26065688462E+03  0.29819943526E+03  0.92392743263E+02 0.  0.
          3    1    3    3  502    0 -0.15784313259E+02 -0.85657373092E+02 -0.26896137696E+02  0.91157733260E+02  0.00000000000E+00 0. -1.
         -3    1    3    3    0  502 -0.13345169305E+03 -0.59934811750E+03 -0.46867303002E+03  0.77245189456E+03  0.00000000000E+00 0.  1.
         11    1    5    5    0    0  0.13676977760E+03  0.58996314820E+03 -0.20959985168E+03  0.64085457486E+03  0.00000000000E+00 0. -1.
        -11    1    5    5    0    0  0.89190337269E+02  0.17602310462E+03 -0.41875648240E+02  0.20172411739E+03  0.00000000000E+00 0.  1.
          1    1    6    6  503    0  0.20534684980E+00 -0.22364951324E+02  0.14818077866E+03  0.14985918851E+03  0.00000000000E+00 0. -1.
         -1    1    6    6    0  503 -0.76929455404E+02 -0.58615810898E+02  0.11247610595E+03  0.14834024675E+03  0.00000000000E+00 0.  1.
<mgrwt>
<rscale>  0 0.19444786E+04</rscale>
<asrwt>0</asrwt>
<pdfrwt beam="1">  1        2 0.11676923E+00 0.19444786E+04</pdfrwt>
<pdfrwt beam="2">  1       -2 0.19159812E+00 0.19444786E+04</pdfrwt>
<totfact> 0.52075582E+00</totfact>
</mgrwt>
</event>
<event>
12    2  0.3552864E-008  0.2274503E+04  0.7818608E-02  0.8488043E-01
          1   -1    0    0  501    0  0.00000000000E+00  0.00000000000E+00  0.22429251692E+04  0.22429251692E+04  0.00000000000E+00 0. -1.
         -1   -1    0    0    0  501 -0.00000000000E+00 -0.00000000000E+00 -0.57663137255E+03  0.57663137255E+03  0.00000000000E+00 0.  1.
         23    2    1    2    0    0  0.25061268256E+03  0.31318823563E+02 -0.43949791736E+03  0.51439552434E+03  0.87502861266E+02 0.  0.
        254    2    1    2    0    0 -0.25061268256E+03 -0.31318823563E+02  0.21057917140E+04  0.23051610174E+04  0.90311737221E+03 0.  0.
         23    2    4    4    0    0 -0.47349503345E+03  0.35000339639E+02  0.19537688427E+04  0.20125799023E+04  0.88558465527E+02 0.  0.
         23    2    4    4    0    0  0.22288235089E+03 -0.66319163201E+02  0.15202287125E+03  0.29258111508E+03  0.91749560057E+02 0.  0.
          3    1    3    3  502    0  0.10366244177E+03 -0.22311728827E+02 -0.13129683765E+03  0.16876781285E+03  0.00000000000E+00 0. -1.
         -3    1    3    3    0  502  0.14695024079E+03  0.53630552390E+02 -0.30820107971E+03  0.34562771149E+03  0.00000000000E+00 0.  1.
         11    1    5    5    0    0 -0.77377514691E+02  0.29625661307E+02  0.44634523828E+03  0.45397029785E+03  0.00000000000E+00 0. -1.
        -11    1    5    5    0    0 -0.39611751876E+03  0.53746783319E+01  0.15074236044E+04  0.15586096044E+04  0.00000000000E+00 0.  1.
          3    1    6    6  503    0  0.11633551189E+03 -0.80175151296E+02  0.10075298653E+03  0.17353146835E+03  0.00000000000E+00 0. -1.
         -3    1    6    6    0  503  0.10654683901E+03  0.13855988094E+02  0.51269884720E+02  0.11904964674E+03  0.00000000000E+00 0.  1.
<mgrwt>
<rscale>  0 0.22745030E+04</rscale>
<asrwt>0</asrwt>
<pdfrwt beam="1">  1        1 0.34506541E+00 0.22745030E+04</pdfrwt>
<pdfrwt beam="2">  1       -1 0.88712520E-01 0.22745030E+04</pdfrwt>
<totfact> 0.22997513E+00</totfact>
</mgrwt>
</event>
<event>
12    2  0.3552864E-008  0.1581433E+04  0.7818608E-02  0.8832036E-01
         -2   -1    0    0    0  501 -0.00000000000E+00  0.00000000000E+00  0.30726049686E+03  0.30726049686E+03  0.00000000000E+00 0.  1.
          2   -1    0    0  501    0  0.00000000000E+00 -0.00000000000E+00 -0.20348611104E+04  0.20348611104E+04  0.00000000000E+00 0. -1.
         23    2    1    2    0    0 -0.46932642007E+03 -0.16366525738E+03 -0.32361840358E+03  0.60036075037E+03  0.93008356596E+02 0.  0.
        254    2    1    2    0    0  0.46932642007E+03  0.16366525738E+03 -0.14039822100E+04  0.17417608569E+04  0.90305660492E+03 0.  0.
         23    2    4    4    0    0  0.16948015604E+03 -0.28455092636E+03 -0.10133991417E+04  0.10698537850E+04  0.88974984496E+02 0.  0.
         23    2    4    4    0    0  0.29984626403E+03  0.44821618374E+03 -0.39058306824E+03  0.67190707189E+03  0.89991392048E+02 0.  0.
          3    1    3    3  502    0 -0.19319758444E+02  0.26329132188E+01 -0.36158309166E+02  0.41080513873E+02  0.00000000000E+00 0. -1.
         -3    1    3    3    0  502 -0.45000666162E+03 -0.16629817060E+03 -0.28746009442E+03  0.55928023649E+03  0.00000000000E+00 0.  1.
         11    1    5    5    0    0  0.12583509797E+03 -0.19551576089E+03 -0.57192041411E+03  0.61737658258E+03  0.00000000000E+00 0. -1.
        -11    1    5    5    0    0  0.43645058066E+02 -0.89035165467E+02 -0.44147872762E+03  0.45247720244E+03  0.00000000000E+00 0.  1.
          3    1    6    6  503    0  0.20240112478E+03  0.31971600078E+03 -0.32121954026E+03  0.49635323058E+03  0.00000000000E+00 0. -1.
         -3    1    6    6    0  503  0.97445139244E+02  0.12850018296E+03 -0.69363527982E+02  0.17555384131E+03  0.00000000000E+00 0.  1.
<mgrwt>
<rscale>  0 0.15814328E+04</rscale>
<asrwt>0</asrwt>
<pdfrwt beam="1">  1        2 0.31305555E+00 0.15814328E+04</pdfrwt>
<pdfrwt beam="2">  1       -2 0.47270847E-01 0.15814328E+04</pdfrwt>
<totfact> 0.26031696E+01</totfact>
</mgrwt>
</event>
<event>
12    2  0.3552864E-008  0.1736219E+04  0.7818608E-02  0.8740973E-01
         -2   -1    0    0    0  501 -0.00000000000E+00  0.00000000000E+00  0.33606535068E+03  0.33606535068E+03  0.00000000000E+00 0.  1.
          2   -1    0    0  501    0  0.00000000000E+00 -0.00000000000E+00 -0.22424621451E+04  0.22424621451E+04  0.00000000000E+00 0. -1.
         23    2    1    2    0    0 -0.50770648812E+02  0.84059696571E+01 -0.16436307808E+04  0.16468319134E+04  0.88796894935E+02 0.  0.
        254    2    1    2    0    0  0.50770648812E+02 -0.84059696571E+01 -0.26276601364E+03  0.93169558231E+03  0.89239137214E+03 0.  0.
         23    2    4    4    0    0  0.43231061884E+03  0.29575758124E+02  0.25645864175E+02  0.44353909501E+03  0.91115431339E+02 0.  0.
         23    2    4    4    0    0 -0.38153997003E+03 -0.37981727781E+02 -0.28841187781E+03  0.48815648730E+03  0.89999913650E+02 0.  0.
          2    1    3    3  502    0 -0.57419081107E+02 -0.13026943295E+02 -0.15226245350E+04  0.15237624902E+04  0.00000000000E+00 0. -1.
         -2    1    3    3    0  502  0.66484322950E+01  0.21432912952E+02 -0.12100624578E+03  0.12306942321E+03  0.00000000000E+00 0.  1.
         11    1    5    5    0    0  0.17083528037E+02 -0.14621862728E+02 -0.96658397271E+01  0.24475993493E+02  0.00000000000E+00 0.  1.
        -11    1    5    5    0    0  0.41522709080E+03  0.44197620852E+02  0.35311703902E+02  0.41906310152E+03  0.00000000000E+00 0. -1.
          2    1    6    6  503    0 -0.26438174341E+03 -0.67319859114E+02 -0.20791097732E+03  0.34301114292E+03  0.00000000000E+00 0. -1.
         -2    1    6    6    0  503 -0.11715822662E+03  0.29338131333E+02 -0.80500900490E+02  0.14514534438E+03  0.00000000000E+00 0.  1.
<mgrwt>
<rscale>  0 0.17362187E+04</rscale>
<asrwt>0</asrwt>
<pdfrwt beam="1">  1        2 0.34499418E+00 0.17362187E+04</pdfrwt>
<pdfrwt beam="2">  1       -2 0.51702361E-01 0.17362187E+04</pdfrwt>
<totfact> 0.16392107E+01</totfact>
</mgrwt>
</event>
<event>
12    2  0.3552864E-008  0.1084249E+04  0.7818608E-02  0.9220681E-01
          2   -1    0    0  501    0  0.00000000000E+00  0.00000000000E+00  0.30340499119E+03  0.30340499119E+03  0.00000000000E+00 0. -1.
         -2   -1    0    0    0  501 -0.00000000000E+00 -0.00000000000E+00 -0.96866912444E+03  0.96866912444E+03  0.00000000000E+00 0.  1.
         23    2    1    2    0    0  0.46412427231E+02 -0.62445515774E+02 -0.24913292165E+03  0.27912554164E+03  0.98945942338E+02 0.  0.
        254    2    1    2    0    0 -0.46412427231E+02  0.62445515774E+02 -0.41613121161E+03  0.99294857399E+03  0.89818045485E+03 0.  0.
         23    2    4    4    0    0  0.24092107885E+03 -0.37725948435E+02 -0.57960502917E+03  0.63572241195E+03  0.93460054537E+02 0.  0.
         23    2    4    4    0    0 -0.28733350609E+03  0.10017146421E+03  0.16347381756E+03  0.35722616204E+03  0.91060286944E+02 0.  0.
          3    1    3    3  502    0  0.63869273441E+02 -0.75067200256E+02 -0.16425784283E+03  0.19155941004E+03  0.00000000000E+00 0. -1.
         -3    1    3    3    0  502 -0.17456846210E+02  0.12621684482E+02 -0.84875078821E+02  0.87566131602E+02  0.00000000000E+00 0.  1.
         11    1    5    5    0    0  0.61752820274E+02 -0.31159289003E+02 -0.26231603735E+03  0.27128216962E+03  0.00000000000E+00 0.  1.
        -11    1    5    5    0    0  0.17916825858E+03 -0.65666594322E+01 -0.31728899182E+03  0.36444024233E+03  0.00000000000E+00 0. -1.
          1    1    6    6  503    0 -0.26373769005E+02  0.38235823178E+02  0.42645318037E+02  0.63056934718E+02  0.00000000000E+00 0. -1.
         -1    1    6    6    0  503 -0.26095973708E+03  0.61935641031E+02  0.12082849952E+03  0.29416922732E+03  0.00000000000E+00 0.  1.
<mgrwt>
<rscale>  0 0.10842491E+04</rscale>
<asrwt>0</asrwt>
<pdfrwt beam="1">  1        2 0.46677691E-01 0.10842491E+04</pdfrwt>
<pdfrwt beam="2">  1       -2 0.14902602E+00 0.10842491E+04</pdfrwt>
<totfact> 0.32809201E+01</totfact>
</mgrwt>
</event>
<event>
12    2  0.3552864E-008  0.1144762E+04  0.7818608E-02  0.9162630E-01
          1   -1    0    0  501    0  0.00000000000E+00  0.00000000000E+00  0.15944016961E+04  0.15944016961E+04  0.00000000000E+00 0. -1.
         -1   -1    0    0    0  501 -0.00000000000E+00 -0.00000000000E+00 -0.20548130891E+03  0.20548130891E+03  0.00000000000E+00 0.  1.
         23    2    1    2    0    0 -0.77889869995E+02 -0.60973418023E+02  0.55022249243E+03  0.56569469379E+03  0.86493386218E+02 0.  0.
        254    2    1    2    0    0  0.77889869995E+02  0.60973418023E+02  0.83869789473E+03  0.12341883112E+04  0.90001224396E+03 0.  0.
         23    2    4    4    0    0  0.38522121585E+03  0.12174931395E+03  0.10035337508E+03  0.42678364440E+03  0.94102065054E+02 0.  0.
         23    2    4    4    0    0 -0.30733134586E+03 -0.60775895924E+02  0.73834451965E+03  0.80740466678E+03  0.92754517829E+02 0.  0.
          1    1    3    3  502    0 -0.83153819613E+02 -0.17901179025E+02  0.30389339544E+03  0.31557282158E+03  0.00000000000E+00 0. -1.
         -1    1    3    3    0  502  0.52639496174E+01 -0.43072238997E+02  0.24632909698E+03  0.25012187221E+03  0.00000000000E+00 0.  1.
         11    1    5    5    0    0  0.11408491139E+03  0.78513173439E+02  0.15212812163E+02  0.13932377781E+03  0.00000000000E+00 0.  1.
        -11    1    5    5    0    0  0.27113630446E+03  0.43236140508E+02  0.85140562917E+02  0.28745986659E+03  0.00000000000E+00 0. -1.
          1    1    6    6  503    0 -0.29266813668E+03 -0.51800111366E+02  0.61707955556E+03  0.68492705280E+03  0.00000000000E+00 0. -1.
         -1    1    6    6    0  503 -0.14663209174E+02 -0.89757845579E+01  0.12126496409E+03  0.12247761399E+03  0.00000000000E+00 0.  1.
<mgrwt>
<rscale>  0 0.11447615E+04</rscale>
<asrwt>0</asrwt>
<pdfrwt beam="1">  1        1 0.24529256E+00 0.11447615E+04</pdfrwt>
<pdfrwt beam="2">  1       -1 0.31612510E-01 0.11447615E+04</pdfrwt>
<totfact> 0.52040906E+01</totfact>
</mgrwt>
</event>
<event>
12    2  0.3552864E-008  0.2600412E+04  0.7818608E-02  0.8368061E-01
          2   -1    0    0  501    0  0.00000000000E+00  0.00000000000E+00  0.17342070546E+04  0.17342070546E+04  0.00000000000E+00 0.  1.
         -2   -1    0    0    0  501 -0.00000000000E+00 -0.00000000000E+00 -0.97481764041E+03  0.97481764041E+03  0.00000000000E+00 0. -1.
         23    2    1    2    0    0  0.79992394992E+03  0.55348259600E+03  0.94598575568E+03  0.13597222919E+04  0.87945161533E+02 0.  0.
        254    2    1    2    0    0 -0.79992394992E+03 -0.55348259600E+03 -0.18659634152E+03  0.13493024031E+04  0.91628460128E+03 0.  0.
         23    2    4    4    0    0 -0.77182787669E+03 -0.58023304285E+03  0.16576706246E+03  0.98358758043E+03  0.87046850185E+02 0.  0.
         23    2    4    4    0    0 -0.28096073224E+02  0.26750446857E+02 -0.35236340398E+03  0.36571482264E+03  0.89902098403E+02 0.  0.
          2    1    3    3  502    0  0.50971842762E+02  0.60853161142E+02  0.93490049140E+02  0.12264430384E+03  0.00000000000E+00 0.  1.
         -2    1    3    3    0  502  0.74895210715E+03  0.49262943486E+03  0.85249570654E+03  0.12370779881E+04  0.00000000000E+00 0. -1.
         11    1    5    5    0    0 -0.35077304681E+02 -0.21123384518E+02 -0.10007285698E+02  0.42151636317E+02  0.00000000000E+00 0. -1.
        -11    1    5    5    0    0 -0.73675057201E+03 -0.55910965834E+03  0.17577434816E+03  0.94143594412E+03  0.00000000000E+00 0.  1.
          2    1    6    6  503    0  0.29414478192E+02  0.23326050682E+02 -0.18329286674E+03  0.18709781176E+03  0.00000000000E+00 0. -1.
         -2    1    6    6    0  503 -0.57510551416E+02  0.34243961746E+01 -0.16907053724E+03  0.17861701088E+03  0.00000000000E+00 0.  1.
<mgrwt>
<rscale>  0 0.26004120E+04</rscale>
<asrwt>0</asrwt>
<pdfrwt beam="1">  1        2 0.26680109E+00 0.26004120E+04</pdfrwt>
<pdfrwt beam="2">  1       -2 0.14997194E+00 0.26004120E+04</pdfrwt>
<totfact> 0.24892254E+00</totfact>
</mgrwt>
</event>
<event>
12    2  0.3552864E-008  0.2178083E+04  0.7818608E-02  0.8527606E-01
          1   -1    0    0  501    0  0.00000000000E+00  0.00000000000E+00  0.11983437842E+04  0.11983437842E+04  0.00000000000E+00 0. -1.
         -1   -1    0    0    0  501 -0.00000000000E+00 -0.00000000000E+00 -0.98970862075E+03  0.98970862075E+03  0.00000000000E+00 0.  1.
         23    2    1    2    0    0  0.44909279941E+03  0.77727392247E+03  0.58046476974E+02  0.90425802855E+03  0.92054851386E+02 0.  0.
        254    2    1    2    0    0 -0.44909279941E+03 -0.77727392247E+03  0.15058868644E+03  0.12837943764E+04  0.90532422661E+03 0.  0.
         23    2    4    4    0    0 -0.70375710155E+02  0.13650594568E+03  0.22514176595E+03  0.28740029867E+03  0.91233234722E+02 0.  0.
         23    2    4    4    0    0 -0.37871708926E+03 -0.91377986815E+03 -0.74553079504E+02  0.99639407770E+03  0.93929310073E+02 0.  0.
          4    1    3    3  502    0  0.35983268665E+03  0.54156316924E+03  0.48966625052E+02  0.65204904649E+03  0.00000000000E+00 0.  1.
         -4    1    3    3    0  502  0.89260112760E+02  0.23571075323E+03  0.90798519221E+01  0.25220898205E+03  0.00000000000E+00 0. -1.
         11    1    5    5    0    0 -0.28657649807E+02  0.10949958105E+03  0.93907646123E+02  0.14707163269E+03  0.00000000000E+00 0. -1.
        -11    1    5    5    0    0 -0.41718060348E+02  0.27006364629E+02  0.13123411982E+03  0.14032866598E+03  0.00000000000E+00 0.  1.
          1    1    6    6  503    0 -0.11450786110E+03 -0.36384603540E+03  0.24278375879E+01  0.38144708955E+03  0.00000000000E+00 0. -1.
         -1    1    6    6    0  503 -0.26420922815E+03 -0.54993383275E+03 -0.76980917092E+02  0.61494698815E+03  0.00000000000E+00 0.  1.
<mgrwt>
<rscale>  0 0.21780828E+04</rscale>
<asrwt>0</asrwt>
<pdfrwt beam="1">  1        1 0.18436058E+00 0.21780828E+04</pdfrwt>
<pdfrwt beam="2">  1       -1 0.15226287E+00 0.21780828E+04</pdfrwt>
<totfact> 0.32796438E+00</totfact>
</mgrwt>
</event>
<event>
12    2  0.3552864E-008  0.1773416E+04  0.7818608E-02  0.8720566E-01
          1   -1    0    0  501    0  0.00000000000E+00  0.00000000000E+00  0.81591691164E+03  0.81591691164E+03  0.00000000000E+00 0. -1.
         -1   -1    0    0    0  501 -0.00000000000E+00 -0.00000000000E+00 -0.96364083287E+03  0.96364083287E+03  0.00000000000E+00 0.  1.
         23    2    1    2    0    0  0.22406510316E+03 -0.13747303354E+03  0.52070972969E+03  0.59015323569E+03  0.89656085100E+02 0.  0.
        254    2    1    2    0    0 -0.22406510316E+03  0.13747303354E+03 -0.66843365093E+03  0.11894045088E+04  0.94803772842E+03 0.  0.
         23    2    4    4    0    0  0.12349905481E+03  0.46792665402E+03 -0.37245098682E+03  0.61863734531E+03  0.98919448758E+02 0.  0.
         23    2    4    4    0    0 -0.34756415797E+03 -0.33045362048E+03 -0.29598266411E+03  0.57076716351E+03  0.90382400382E+02 0.  0.
          2    1    3    3  502    0  0.16242535194E+03 -0.83542728153E+02  0.43404892242E+03  0.47091384503E+03  0.00000000000E+00 0. -1.
         -2    1    3    3    0  502  0.61639751219E+02 -0.53930305392E+02  0.86660807271E+02  0.11923939067E+03  0.00000000000E+00 0.  1.
         11    1    5    5    0    0  0.94261895708E+02  0.21300464211E+03 -0.21868415499E+03  0.31949810983E+03  0.00000000000E+00 0. -1.
        -11    1    5    5    0    0  0.29237159103E+02  0.25492201191E+03 -0.15376683183E+03  0.29913923547E+03  0.00000000000E+00 0.  1.
          1    1    6    6  503    0 -0.34897359501E+03 -0.33450614893E+03 -0.29117117534E+03  0.56432046484E+03  0.00000000000E+00 0. -1.
         -1    1    6    6    0  503  0.14094370356E+01  0.40525284551E+01 -0.48114887691E+01  0.64466986755E+01  0.00000000000E+00 0.  1.
<mgrwt>
<rscale>  0 0.17734157E+04</rscale>
<asrwt>0</asrwt>
<pdfrwt beam="1">  1        1 0.12552568E+00 0.17734157E+04</pdfrwt>
<pdfrwt beam="2">  1       -1 0.14825244E+00 0.17734157E+04</pdfrwt>
<totfact> 0.72941074E+00</totfact>
</mgrwt>
</event>
<event>
12    2  0.3552864E-008  0.1953102E+04  0.7818608E-02  0.8628866E-01
          1   -1    0    0  501    0  0.00000000000E+00  0.00000000000E+00  0.61561560644E+03  0.61561560644E+03  0.00000000000E+00 0. -1.
         -1   -1    0    0    0  501 -0.00000000000E+00 -0.00000000000E+00 -0.15491032498E+04  0.15491032498E+04  0.00000000000E+00 0.  1.
         23    2    1    2    0    0  0.58102004161E+02 -0.69754071076E+03 -0.19758476308E+02  0.70657537130E+03  0.94442955708E+02 0.  0.
        254    2    1    2    0    0 -0.58102004161E+02  0.69754071076E+03 -0.91372916709E+03  0.14581434850E+04  0.89517738238E+03 0.  0.
         23    2    4    4    0    0  0.29038301592E+03  0.14618344954E+03 -0.69885554823E+01  0.33749697740E+03  0.90351939606E+02 0.  0.
         23    2    4    4    0    0 -0.34848502008E+03  0.55135726123E+03 -0.90674061160E+03  0.11206465076E+04  0.90738191984E+02 0.  0.
          3    1    3    3  502    0  0.40273359183E+02 -0.56031250476E+03  0.21515141715E+02  0.56216985669E+03  0.00000000000E+00 0. -1.
         -3    1    3    3    0  502  0.17828644977E+02 -0.13722820600E+03 -0.41273618023E+02  0.14440551461E+03  0.00000000000E+00 0.  1.
         11    1    5    5    0    0  0.14556853838E+03  0.96905522182E+02  0.36129382135E+02  0.17856710741E+03  0.00000000000E+00 0.  1.
        -11    1    5    5    0    0  0.14481447753E+03  0.49277927355E+02 -0.43117937617E+02  0.15892986998E+03  0.00000000000E+00 0. -1.
          4    1    6    6  503    0 -0.10083544471E+03  0.16869254791E+03 -0.20607102875E+03  0.28476346592E+03  0.00000000000E+00 0. -1.
         -4    1    6    6    0  503 -0.24764957537E+03  0.38266471331E+03 -0.70066958286E+03  0.83588304166E+03  0.00000000000E+00 0.  1.
<mgrwt>
<rscale>  0 0.19531023E+04</rscale>
<asrwt>0</asrwt>
<pdfrwt beam="1">  1        1 0.94710094E-01 0.19531023E+04</pdfrwt>
<pdfrwt beam="2">  1       -1 0.23832358E+00 0.19531023E+04</pdfrwt>
<totfact> 0.25552173E+00</totfact>
</mgrwt>
</event>
<event>
12    2  0.3552864E-008  0.3281382E+04  0.7818608E-02  0.8167649E-01
          2   -1    0    0  501    0  0.00000000000E+00  0.00000000000E+00  0.17992030997E+04  0.17992030997E+04  0.00000000000E+00 0.  1.
         -2   -1    0    0    0  501 -0.00000000000E+00 -0.00000000000E+00 -0.14961444409E+04  0.14961444409E+04  0.00000000000E+00 0. -1.
         23    2    1    2    0    0 -0.11251851551E+04  0.54591659779E+03  0.10015271715E+04  0.16047196280E+04  0.89453027126E+02 0.  0.
        254    2    1    2    0    0  0.11251851551E+04 -0.54591659779E+03 -0.69846851271E+03  0.16906279126E+04  0.89794092826E+03 0.  0.
         23    2    4    4    0    0  0.93087178932E+03 -0.77131151832E+03 -0.45279216234E+03  0.12942149572E+04  0.92346449950E+02 0.  0.
         23    2    4    4    0    0  0.19431336582E+03  0.22539492053E+03 -0.24567635037E+03  0.39641295539E+03  0.90696238816E+02 0.  0.
          3    1    3    3  502    0 -0.29767416075E+03  0.11911825476E+03  0.29797253442E+03  0.43770617526E+03  0.00000000000E+00 0. -1.
         -3    1    3    3    0  502 -0.82751099438E+03  0.42679834303E+03  0.70355463707E+03  0.11670134527E+04  0.00000000000E+00 0.  1.
         11    1    5    5    0    0  0.79379310596E+03 -0.65835822995E+03 -0.35034160024E+03  0.10891658693E+04  0.00000000000E+00 0. -1.
        -11    1    5    5    0    0  0.13707868336E+03 -0.11295328837E+03 -0.10245056210E+03  0.20504908793E+03  0.00000000000E+00 0.  1.
          3    1    6    6  503    0  0.14071857900E+03  0.18179795505E+03 -0.23075963134E+03  0.32573336088E+03  0.00000000000E+00 0. -1.
         -3    1    6    6    0  503  0.53594786818E+02  0.43596965484E+02 -0.14916719028E+02  0.70679594510E+02  0.00000000000E+00 0.  1.
<mgrwt>
<rscale>  0 0.32813825E+04</rscale>
<asrwt>0</asrwt>
<pdfrwt beam="1">  1        2 0.27680048E+00 0.32813825E+04</pdfrwt>
<pdfrwt beam="2">  1       -2 0.23017607E+00 0.32813825E+04</pdfrwt>
<totfact> 0.61621819E-01</totfact>
</mgrwt>
</event>
<event>
12    2  0.3552864E-008  0.2146856E+04  0.7818608E-02  0.8540879E-01
         -1   -1    0    0    0  501 -0.00000000000E+00  0.00000000000E+00  0.65617920380E+03  0.65617920380E+03  0.00000000000E+00 0.  1.
          1   -1    0    0  501    0  0.00000000000E+00 -0.00000000000E+00 -0.17559947523E+04  0.17559947523E+04  0.00000000000E+00 0. -1.
         23    2    1    2    0    0  0.40591922397E+02  0.33147581940E+03 -0.13736585734E+04  0.14165535030E+04  0.90343940695E+02 0.  0.
        254    2    1    2    0    0 -0.40591922397E+02 -0.33147581940E+03  0.27384302490E+03  0.99562045309E+03  0.89707645233E+03 0.  0.
         23    2    4    4    0    0 -0.31686546845E+03 -0.17673883622E+03  0.47893440218E+03  0.60765133664E+03  0.90673281691E+02 0.  0.
         23    2    4    4    0    0  0.27627354605E+03 -0.15473698318E+03 -0.20509137728E+03  0.38796911645E+03  0.90481799665E+02 0.  0.
          2    1    3    3  502    0  0.32680426207E+02  0.31995316528E+03 -0.13579955358E+04  0.13955607881E+04  0.00000000000E+00 0. -1.
         -2    1    3    3    0  502  0.79114961902E+01  0.11522654119E+02 -0.15663037627E+02  0.20992714870E+02  0.00000000000E+00 0.  1.
         11    1    5    5    0    0 -0.30818273598E+03 -0.14412186539E+03  0.43704586042E+03  0.55385629449E+03  0.00000000000E+00 0.  1.
        -11    1    5    5    0    0 -0.86827324645E+01 -0.32616970830E+02  0.41888541757E+02  0.53795042148E+02  0.00000000000E+00 0. -1.
          3    1    6    6  503    0  0.49649510408E+02 -0.49408414638E+02 -0.86641284497E+02  0.11141354271E+03  0.00000000000E+00 0. -1.
         -3    1    6    6    0  503  0.22662403564E+03 -0.10532856854E+03 -0.11845009278E+03  0.27655557373E+03  0.00000000000E+00 0.  1.
<mgrwt>
<rscale>  0 0.21468556E+04</rscale>
<asrwt>0</asrwt>
<pdfrwt beam="1">  1        1 0.27015303E+00 0.21468556E+04</pdfrwt>
<pdfrwt beam="2">  1       -1 0.10095065E+00 0.21468556E+04</pdfrwt>
<totfact> 0.37281654E+00</totfact>
</mgrwt>
</event>
<event>
12    2  0.3552864E-008  0.1501635E+04  0.7818608E-02  0.8883367E-01
          2   -1    0    0  501    0  0.00000000000E+00  0.00000000000E+00  0.22609151903E+04  0.22609151903E+04  0.00000000000E+00 0. -1.
         -2   -1    0    0    0  501 -0.00000000000E+00 -0.00000000000E+00 -0.24933558326E+03  0.24933558326E+03  0.00000000000E+00 0.  1.
         23    2    1    2    0    0 -0.25979666543E+03  0.33573806595E+03  0.30311917288E+03  0.52998139693E+03  0.93726686881E+02 0.  0.
        254    2    1    2    0    0  0.25979666543E+03 -0.33573806595E+03  0.17084604341E+04  0.19802693766E+04  0.90687121058E+03 0.  0.
         23    2    4    4    0    0 -0.15243808211E+02  0.23023427583E+03  0.13371241870E+03  0.28183422776E+03  0.91166471730E+02 0.  0.
         23    2    4    4    0    0  0.27504047364E+03 -0.56597234178E+03  0.15747480154E+04  0.16984351488E+04  0.94226794916E+02 0.  0.
          4    1    3    3  502    0 -0.25301726510E+03  0.28195068430E+03  0.27983693885E+03  0.47098050613E+03  0.00000000000E+00 0.  1.
         -4    1    3    3    0  502 -0.67794003308E+01  0.53787381652E+02  0.23282234030E+02  0.59000890800E+02  0.00000000000E+00 0. -1.
         11    1    5    5    0    0  0.39399224258E+01  0.85446458347E+02  0.26199676699E+01  0.85577359525E+02  0.00000000000E+00 0.  1.
        -11    1    5    5    0    0 -0.19183730637E+02  0.14478781748E+03  0.13109245103E+03  0.19625686824E+03  0.00000000000E+00 0. -1.
          4    1    6    6  503    0  0.16115983596E+03 -0.28213092568E+03  0.69912958661E+03  0.77094262486E+03  0.00000000000E+00 0. -1.
         -4    1    6    6    0  503  0.11388063768E+03 -0.28384141610E+03  0.87561842884E+03  0.92749252399E+03  0.00000000000E+00 0.  1.
<mgrwt>
<rscale>  0 0.15016346E+04</rscale>
<asrwt>0</asrwt>
<pdfrwt beam="1">  1        2 0.34783309E+00 0.15016346E+04</pdfrwt>
<pdfrwt beam="2">  1       -2 0.38359322E-01 0.15016346E+04</pdfrwt>
<totfact> 0.29622759E+01</totfact>
</mgrwt>
</event>
<event>
12    2  0.3552864E-008  0.1735604E+04  0.7818608E-02  0.8741314E-01
          1   -1    0    0  501    0  0.00000000000E+00  0.00000000000E+00  0.17370726496E+04  0.17370726496E+04  0.00000000000E+00 0. -1.
         -1   -1    0    0    0  501 -0.00000000000E+00 -0.00000000000E+00 -0.43353431741E+03  0.43353431741E+03  0.00000000000E+00 0.  1.
         23    2    1    2    0    0  0.17579702971E+03 -0.83875659791E+02 -0.27016436232E+03  0.34507453803E+03  0.90265897033E+02 0.  0.
        254    2    1    2    0    0 -0.17579702971E+03  0.83875659791E+02  0.15737026946E+04  0.18255324290E+04  0.90448259053E+03 0.  0.
         23    2    4    4    0    0 -0.53337299901E+03  0.66677619193E+02  0.79794650571E+03  0.96625094441E+03  0.89384565937E+02 0.  0.
         23    2    4    4    0    0  0.35757596929E+03  0.17198040598E+02  0.77575618884E+03  0.85928148460E+03  0.91709644166E+02 0.  0.
          4    1    3    3  502    0  0.26156779065E+02 -0.47438740516E+02 -0.11145043692E+03  0.12391856634E+03  0.00000000000E+00 0. -1.
         -4    1    3    3    0  502  0.14964025065E+03 -0.36436919275E+02 -0.15871392540E+03  0.22115597170E+03  0.00000000000E+00 0.  1.
         11    1    5    5    0    0 -0.52667020916E+03  0.66623864888E+02  0.75600346306E+03  0.92377566798E+03  0.00000000000E+00 0. -1.
        -11    1    5    5    0    0 -0.67027898466E+01  0.53754304807E-01  0.41943042649E+02  0.42475276431E+02  0.00000000000E+00 0.  1.
          4    1    6    6  503    0  0.34541946288E+03 -0.15573481918E-01  0.69906547656E+03  0.77974812991E+03  0.00000000000E+00 0. -1.
         -4    1    6    6    0  503  0.12156506410E+02  0.17213614080E+02  0.76690712285E+02  0.79533354692E+02  0.00000000000E+00 0.  1.
<mgrwt>
<rscale>  0 0.17356043E+04</rscale>
<asrwt>0</asrwt>
<pdfrwt beam="1">  1        1 0.26724194E+00 0.17356043E+04</pdfrwt>
<pdfrwt beam="2">  1       -1 0.66697588E-01 0.17356043E+04</pdfrwt>
<totfact> 0.97158302E+00</totfact>
</mgrwt>
</event>
<event>
12    2  0.3552864E-008  0.2492495E+04  0.7818608E-02  0.8405664E-01
          2   -1    0    0  501    0  0.00000000000E+00  0.00000000000E+00  0.28654288830E+04  0.28654288830E+04  0.00000000000E+00 0. -1.
         -2   -1    0    0    0  501 -0.00000000000E+00 -0.00000000000E+00 -0.54202458882E+03  0.54202458882E+03  0.00000000000E+00 0.  1.
         23    2    1    2    0    0  0.38342401515E+03 -0.27774594403E+03  0.23378891981E+04  0.23875884355E+04  0.10342074315E+03 0.  0.
        254    2    1    2    0    0 -0.38342401515E+03  0.27774594403E+03 -0.14484903908E+02  0.10198650363E+04  0.90319327664E+03 0.  0.
         23    2    4    4    0    0 -0.59831815204E+03  0.35308866381E+03  0.16019606263E+03  0.71867935013E+03  0.90448959326E+02 0.  0.
         23    2    4    4    0    0  0.21489413689E+03 -0.75342719780E+02 -0.17468096653E+03  0.30118568616E+03  0.91342005592E+02 0.  0.
          1    1    3    3  502    0  0.63573744973E+02 -0.93088977870E+02  0.65728415644E+03  0.66688052990E+03  0.00000000000E+00 0. -1.
         -1    1    3    3    0  502  0.31985027018E+03 -0.18465696616E+03  0.16806050416E+04  0.17207079056E+04  0.00000000000E+00 0.  1.
         11    1    5    5    0    0 -0.17670635119E+03  0.96094869147E+02  0.88439372986E+02  0.21972910850E+03  0.00000000000E+00 0. -1.
        -11    1    5    5    0    0 -0.42161180085E+03  0.25699379466E+03  0.71756689640E+02  0.49895024162E+03  0.00000000000E+00 0.  1.
          4    1    6    6  503    0  0.14586653379E+03 -0.62656565867E+02 -0.16726883474E+03  0.23061169528E+03  0.00000000000E+00 0. -1.
         -4    1    6    6    0  503  0.69027603101E+02 -0.12686153913E+02 -0.74121317962E+01  0.70573990880E+02  0.00000000000E+00 0.  1.
<mgrwt>
<rscale>  0 0.24924951E+04</rscale>
<asrwt>0</asrwt>
<pdfrwt beam="1">  1        2 0.44083520E+00 0.24924951E+04</pdfrwt>
<pdfrwt beam="2">  1       -2 0.83388400E-01 0.24924951E+04</pdfrwt>
<totfact> 0.23695948E+00</totfact>
</mgrwt>
</event>
<event>
12    2  0.3552864E-008  0.1273427E+04  0.7818608E-02  0.9050908E-01
          1   -1    0    0  501    0  0.00000000000E+00  0.00000000000E+00  0.59735149953E+03  0.59735149953E+03  0.00000000000E+00 0. -1.
         -1   -1    0    0    0  501 -0.00000000000E+00 -0.00000000000E+00 -0.67866879324E+03  0.67866879324E+03  0.00000000000E+00 0.  1.
         23    2    1    2    0    0 -0.14836028735E+03 -0.19332087666E+03  0.18935241276E+03  0.32222047930E+03  0.92671273050E+02 0.  0.
        254    2    1    2    0    0  0.14836028735E+03  0.19332087666E+03 -0.27066970646E+03  0.95379981347E+03  0.88152609601E+03 0.  0.
         23    2    4    4    0    0  0.38036971245E+03  0.29972341539E+03 -0.41726796880E+03  0.64512406362E+03  0.86932478370E+02 0.  0.
         23    2    4    4    0    0 -0.23200942510E+03 -0.10640253873E+03  0.14659826233E+03  0.30867574984E+03  0.92950494563E+02 0.  0.
          3    1    3    3  502    0 -0.12260602392E+03 -0.19370200066E+03  0.18792093366E+03  0.29642364863E+03  0.00000000000E+00 0. -1.
         -3    1    3    3    0  502 -0.25754263428E+02  0.38112399728E+00  0.14314790994E+01  0.25796830670E+02  0.00000000000E+00 0.  1.
         11    1    5    5    0    0  0.38812509397E+02  0.32426779475E+02 -0.13011559877E+02  0.52222673267E+02  0.00000000000E+00 0. -1.
        -11    1    5    5    0    0  0.34155720306E+03  0.26729663592E+03 -0.40425640892E+03  0.59290139035E+03  0.00000000000E+00 0.  1.
          1    1    6    6  503    0 -0.53874077875E+02 -0.63159825259E+02  0.18523191391E+02  0.85056971572E+02  0.00000000000E+00 0. -1.
         -1    1    6    6    0  503 -0.17813534722E+03 -0.43242713471E+02  0.12807507094E+03  0.22361877827E+03  0.00000000000E+00 0.  1.
<mgrwt>
<rscale>  0 0.12734266E+04</rscale>
<asrwt>0</asrwt>
<pdfrwt beam="1">  1        1 0.91900231E-01 0.12734266E+04</pdfrwt>
<pdfrwt beam="2">  1       -1 0.10441058E+00 0.12734266E+04</pdfrwt>
<totfact> 0.29285762E+01</totfact>
</mgrwt>
</event>
<event>
12    2  0.3552864E-008  0.1804366E+04  0.7818608E-02  0.8703981E-01
         -1   -1    0    0    0  501 -0.00000000000E+00  0.00000000000E+00  0.53926212638E+03  0.53926212638E+03  0.00000000000E+00 0.  1.
          1   -1    0    0  501    0  0.00000000000E+00 -0.00000000000E+00 -0.15093472580E+04  0.15093472580E+04  0.00000000000E+00 0. -1.
         23    2    1    2    0    0 -0.20297412990E+03 -0.35403451354E+03 -0.97720470520E+03  0.10629471259E+04  0.91589423243E+02 0.  0.
        254    2    1    2    0    0  0.20297412990E+03  0.35403451354E+03  0.71195736218E+01  0.98566225842E+03  0.89718474417E+03 0.  0.
         23    2    4    4    0    0  0.49854526851E+02 -0.21321875887E+03 -0.24491957342E+03  0.34022686111E+03  0.88436455138E+02 0.  0.
         23    2    4    4    0    0  0.15311960305E+03  0.56725327240E+03  0.25203914704E+03  0.64543539731E+03  0.88550734438E+02 0.  0.
          3    1    3    3  502    0 -0.19112573384E+03 -0.34441126116E+03 -0.96812623490E+03  0.10451873371E+04  0.00000000000E+00 0. -1.
         -3    1    3    3    0  502 -0.11848396061E+02 -0.96232523792E+01 -0.90784702954E+01  0.17759788807E+02  0.00000000000E+00 0.  1.
         11    1    5    5    0    0 -0.18891568940E+01 -0.22599160540E+02  0.34009026284E+01  0.22931574511E+02  0.00000000000E+00 0.  1.
        -11    1    5    5    0    0  0.51743683745E+02 -0.19061959833E+03 -0.24832047605E+03  0.31729528660E+03  0.00000000000E+00 0. -1.
          2    1    6    6  503    0  0.14500002147E+03  0.52872762774E+03  0.25745885713E+03  0.60569214431E+03  0.00000000000E+00 0. -1.
         -2    1    6    6    0  503  0.81195815812E+01  0.38525644660E+02 -0.54197100892E+01  0.39743253000E+02  0.00000000000E+00 0.  1.
<mgrwt>
<rscale>  0 0.18043656E+04</rscale>
<asrwt>0</asrwt>
<pdfrwt beam="1">  1        1 0.23220727E+00 0.18043656E+04</pdfrwt>
<pdfrwt beam="2">  1       -1 0.82963405E-01 0.18043656E+04</pdfrwt>
<totfact> 0.87707862E+00</totfact>
</mgrwt>
</event>
<event>
12    2  0.3552864E-008  0.1498844E+04  0.7818608E-02  0.8885222E-01
          1   -1    0    0  501    0  0.00000000000E+00  0.00000000000E+00  0.95936106352E+03  0.95936106352E+03  0.00000000000E+00 0. -1.
         -1   -1    0    0    0  501 -0.00000000000E+00 -0.00000000000E+00 -0.58542411550E+03  0.58542411550E+03  0.00000000000E+00 0.  1.
         23    2    1    2    0    0  0.43648319223E+03 -0.16154980378E+03  0.95377561577E+02  0.48374481121E+03  0.91083735746E+02 0.  0.
        254    2    1    2    0    0 -0.43648319223E+03  0.16154980378E+03  0.27855938645E+03  0.10610403678E+04  0.91191853482E+03 0.  0.
         23    2    4    4    0    0 -0.61011078630E+03  0.34921653223E+03  0.33315280340E+03  0.78353493572E+03  0.93535272147E+02 0.  0.
         23    2    4    4    0    0  0.17362759407E+03 -0.18766672845E+03 -0.54593416955E+02  0.27750543209E+03  0.93077823752E+02 0.  0.
          1    1    3    3  502    0  0.21277804540E+03 -0.64100266526E+02  0.89772177299E+02  0.23967140962E+03  0.00000000000E+00 0. -1.
         -1    1    3    3    0  502  0.22370514683E+03 -0.97449537250E+02  0.56053842778E+01  0.24407340158E+03  0.00000000000E+00 0.  1.
         11    1    5    5    0    0 -0.25481397393E+03  0.11009321110E+03  0.16839791925E+03  0.32466680713E+03  0.00000000000E+00 0. -1.
        -11    1    5    5    0    0 -0.35529681237E+03  0.23912332113E+03  0.16475488415E+03  0.45886812859E+03  0.00000000000E+00 0.  1.
          1    1    6    6  503    0  0.25630654863E+02 -0.79024218312E+01 -0.34631377026E+02  0.43803093660E+02  0.00000000000E+00 0. -1.
         -1    1    6    6    0  503  0.14799693921E+03 -0.17976430662E+03 -0.19962039929E+02  0.23370233843E+03  0.00000000000E+00 0.  1.
<mgrwt>
<rscale>  0 0.14988437E+04</rscale>
<asrwt>0</asrwt>
<pdfrwt beam="1">  1        1 0.14759401E+00 0.14988437E+04</pdfrwt>
<pdfrwt beam="2">  1       -1 0.90065248E-01 0.14988437E+04</pdfrwt>
<totfact> 0.19013618E+01</totfact>
</mgrwt>
</event>
<event>
12    2  0.3552864E-008  0.1636180E+04  0.7818608E-02  0.8798624E-01
          2   -1    0    0  501    0  0.00000000000E+00  0.00000000000E+00  0.23149432856E+04  0.23149432856E+04  0.00000000000E+00 0. -1.
         -2   -1    0    0    0  501 -0.00000000000E+00 -0.00000000000E+00 -0.28910930905E+03  0.28910930905E+03  0.00000000000E+00 0.  1.
         23    2    1    2    0    0 -0.28768830398E+03  0.28131187366E+03  0.13346996192E+04  0.13974384806E+04  0.97520782578E+02 0.  0.
        254    2    1    2    0    0  0.28768830398E+03 -0.28131187366E+03  0.69113435736E+03  0.12066141141E+04  0.90352088512E+03 0.  0.
         23    2    4    4    0    0  0.43846908917E+03 -0.49555573943E+03  0.31370208813E+03  0.73784256543E+03  0.90399215854E+02 0.  0.
         23    2    4    4    0    0 -0.15078078519E+03  0.21424386576E+03  0.37743226923E+03  0.46877154864E+03  0.93039603204E+02 0.  0.
          4    1    3    3  502    0 -0.24841678588E+03  0.27627183245E+03  0.11493943500E+04  0.12079504943E+04  0.00000000000E+00 0.  1.
         -4    1    3    3    0  502 -0.39271518104E+02  0.50400412175E+01  0.18530526915E+03  0.18948798623E+03  0.00000000000E+00 0. -1.
         11    1    5    5    0    0  0.36377361871E+02 -0.73113751015E+02  0.16668159832E+02  0.83347229086E+02  0.00000000000E+00 0. -1.
        -11    1    5    5    0    0  0.40209172730E+03 -0.42244198841E+03  0.29703392830E+03  0.65449533634E+03  0.00000000000E+00 0.  1.
          2    1    6    6  503    0 -0.56821107245E+02  0.56875741530E+02  0.19148961368E+03  0.20768187295E+03  0.00000000000E+00 0. -1.
         -2    1    6    6    0  503 -0.93959677941E+02  0.15736812423E+03  0.18594265555E+03  0.26108967570E+03  0.00000000000E+00 0.  1.
<mgrwt>
<rscale>  0 0.16361805E+04</rscale>
<asrwt>0</asrwt>
<pdfrwt beam="1">  1        2 0.35614511E+00 0.16361805E+04</pdfrwt>
<pdfrwt beam="2">  1       -2 0.44478357E-01 0.16361805E+04</pdfrwt>
<totfact> 0.20402401E+01</totfact>
</mgrwt>
</event>
<event>
12    2  0.3552864E-008  0.4612506E+04  0.7818608E-02  0.7891231E-01
         -2   -1    0    0    0  501 -0.00000000000E+00  0.00000000000E+00  0.24667591248E+04  0.24667591248E+04  0.00000000000E+00 0. -1.
          2   -1    0    0  501    0  0.00000000000E+00 -0.00000000000E+00 -0.21561908138E+04  0.21561908138E+04  0.00000000000E+00 0.  1.
         23    2    1    2    0    0  0.26303577836E+03  0.16810347798E+04 -0.12773544845E+04  0.21295518452E+04  0.91053998695E+02 0.  0.
        254    2    1    2    0    0 -0.26303577836E+03 -0.16810347798E+04  0.15879227955E+04  0.24933980935E+04  0.89468960900E+03 0.  0.
         23    2    4    4    0    0  0.17261278962E+03 -0.10504038749E+04  0.12684054746E+04  0.16583632413E+04  0.90403077423E+02 0.  0.
         23    2    4    4    0    0 -0.43564856797E+03 -0.63063090489E+03  0.31951732088E+03  0.83503485220E+03  0.87788798075E+02 0.  0.
          2    1    3    3  502    0  0.22761101329E+02  0.76400253758E+02 -0.81035029329E+02  0.11367384258E+03  0.00000000000E+00 0. -1.
         -2    1    3    3    0  502  0.24027467703E+03  0.16046345261E+04 -0.11963194551E+04  0.20158780026E+04  0.00000000000E+00 0.  1.
         11    1    5    5    0    0  0.83466395551E+02 -0.33486996878E+03  0.46060584889E+03  0.57555389253E+03  0.00000000000E+00 0.  1.
        -11    1    5    5    0    0  0.89146394066E+02 -0.71553390616E+03  0.80779962568E+03  0.10828093487E+04  0.00000000000E+00 0. -1.
          2    1    6    6  503    0 -0.20871432033E+03 -0.22795257594E+03  0.11884363528E+03  0.33113117345E+03  0.00000000000E+00 0. -1.
         -2    1    6    6    0  503 -0.22693424765E+03 -0.40267832895E+03  0.20067368560E+03  0.50390367875E+03  0.00000000000E+00 0.  1.
<mgrwt>
<rscale>  0 0.46125062E+04</rscale>
<asrwt>0</asrwt>
<pdfrwt beam="1">  1        2 0.33172166E+00 0.46125062E+04</pdfrwt>
<pdfrwt beam="2">  1       -2 0.37950140E+00 0.46125062E+04</pdfrwt>
<totfact> 0.41394477E-02</totfact>
</mgrwt>
</event>
<event>
12    2  0.3552864E-008  0.1793674E+04  0.7818608E-02  0.8709671E-01
         -1   -1    0    0    0  501 -0.00000000000E+00  0.00000000000E+00  0.27396720022E+03  0.27396720022E+03  0.00000000000E+00 0.  1.
          1   -1    0    0  501    0  0.00000000000E+00 -0.00000000000E+00 -0.29358133553E+04  0.29358133553E+04  0.00000000000E+00 0. -1.
         23    2    1    2    0    0 -0.40696074664E+03 -0.51164393358E+03 -0.11051456415E+04  0.12876843134E+04  0.96888792205E+02 0.  0.
        254    2    1    2    0    0  0.40696074664E+03  0.51164393358E+03 -0.15567005136E+04  0.19220962421E+04  0.91855370603E+03 0.  0.
         23    2    4    4    0    0  0.75000660191E+02  0.17833847906E+03  0.70838476909E+02  0.22532356609E+03  0.91229970294E+02 0.  0.
         23    2    4    4    0    0  0.33196008645E+03  0.33330545451E+03 -0.16275389905E+04  0.16967726760E+04  0.94150536402E+02 0.  0.
          3    1    3    3  502    0 -0.15217039956E+03 -0.25022173407E+03 -0.43168879332E+03  0.52165310406E+03  0.00000000000E+00 0. -1.
         -3    1    3    3    0  502 -0.25479034707E+03 -0.26142219951E+03 -0.67345684819E+03  0.76603120937E+03  0.00000000000E+00 0.  1.
         11    1    5    5    0    0  0.25347828322E+02  0.90764708075E+02 -0.11938525403E+02  0.94990910204E+02  0.00000000000E+00 0.  1.
        -11    1    5    5    0    0  0.49652831869E+02  0.87573770988E+02  0.82777002313E+02  0.13033265588E+03  0.00000000000E+00 0. -1.
          3    1    6    6  503    0  0.15193918990E+03  0.18859147238E+03 -0.69245936950E+03  0.73358860357E+03  0.00000000000E+00 0. -1.
         -3    1    6    6    0  503  0.18002089655E+03  0.14471398214E+03 -0.93507962101E+03  0.96318407246E+03  0.00000000000E+00 0.  1.
<mgrwt>
<rscale>  0 0.17936740E+04</rscale>
<asrwt>0</asrwt>
<pdfrwt beam="1">  1        1 0.45166357E+00 0.17936740E+04</pdfrwt>
<pdfrwt beam="2">  1       -1 0.42148802E-01 0.17936740E+04</pdfrwt>
<totfact> 0.34858978E+00</totfact>
</mgrwt>
</event>
<event>
12    2  0.3552864E-008  0.3726375E+04  0.7818608E-02  0.8062142E-01
          2   -1    0    0  501    0  0.00000000000E+00  0.00000000000E+00  0.29874324687E+04  0.29874324687E+04  0.00000000000E+00 0. -1.
         -2   -1    0    0    0  501 -0.00000000000E+00 -0.00000000000E+00 -0.11620235626E+04  0.11620235626E+04  0.00000000000E+00 0.  1.
         23    2    1    2    0    0  0.75439149384E+03  0.15066653480E+04  0.32308557298E+03  0.17180326327E+04  0.90026899687E+02 0.  0.
        254    2    1    2    0    0 -0.75439149384E+03 -0.15066653480E+04  0.15023233331E+04  0.24314233987E+04  0.90315964808E+03 0.  0.
         23    2    4    4    0    0 -0.83644863899E+03 -0.11712061826E+04  0.81471431637E+03  0.16563507162E+04  0.91476936687E+02 0.  0.
         23    2    4    4    0    0  0.82057145146E+02 -0.33545916533E+03  0.68760901673E+03  0.77507268249E+03  0.93087467371E+02 0.  0.
          2    1    3    3  502    0  0.42852803764E+03  0.82663871263E+03  0.13488064084E+03  0.94082975481E+03  0.00000000000E+00 0. -1.
         -2    1    3    3    0  502  0.32586345621E+03  0.68002663533E+03  0.18820493214E+03  0.77720287784E+03  0.00000000000E+00 0.  1.
         11    1    5    5    0    0 -0.10687404044E+03 -0.20511302484E+03  0.12020943998E+03  0.26066016754E+03  0.00000000000E+00 0.  1.
        -11    1    5    5    0    0 -0.72957459854E+03 -0.96609315779E+03  0.69450487639E+03  0.13956905487E+04  0.00000000000E+00 0. -1.
          3    1    6    6  503    0  0.64553418290E+02 -0.89267982323E+02  0.23509625125E+03  0.25962697054E+03  0.00000000000E+00 0. -1.
         -3    1    6    6    0  503  0.17503726856E+02 -0.24619118300E+03  0.45251276548E+03  0.51544571195E+03  0.00000000000E+00 0.  1.
<mgrwt>
<rscale>  0 0.37263746E+04</rscale>
<asrwt>0</asrwt>
<pdfrwt beam="1">  1        2 0.45960499E+00 0.37263746E+04</pdfrwt>
<pdfrwt beam="2">  1       -2 0.17877286E+00 0.37263746E+04</pdfrwt>
<totfact> 0.26429472E-01</totfact>
</mgrwt>
</event>
<event>
12    2  0.3552864E-008  0.1325946E+04  0.7818608E-02  0.9009239E-01
          2   -1    0    0  501    0  0.00000000000E+00  0.00000000000E+00  0.28451089224E+03  0.28451089224E+03  0.00000000000E+00 0. -1.
         -2   -1    0    0    0  501 -0.00000000000E+00 -0.00000000000E+00 -0.15448738500E+04  0.15448738500E+04  0.00000000000E+00 0.  1.
         23    2    1    2    0    0  0.30115537706E+03 -0.71076418415E+02 -0.11740943022E+03  0.34456068243E+03  0.95867988319E+02 0.  0.
        254    2    1    2    0    0 -0.30115537706E+03  0.71076418415E+02 -0.11429535276E+04  0.14848240598E+04  0.89588688133E+03 0.  0.
         23    2    4    4    0    0 -0.26569031186E+03 -0.33973573490E+03 -0.88519515838E+03  0.98998268556E+03  0.10238914932E+03 0.  0.
         23    2    4    4    0    0 -0.35465065204E+02  0.41081215332E+03 -0.25775836917E+03  0.49484137427E+03  0.91674492926E+02 0.  0.
          1    1    3    3  502    0  0.82710028787E+02 -0.37801475846E+02 -0.78629126593E+02  0.12021830138E+03  0.00000000000E+00 0. -1.
         -1    1    3    3    0  502  0.21844534827E+03 -0.33274942568E+02 -0.38780303629E+02  0.22434238105E+03  0.00000000000E+00 0.  1.
         11    1    5    5    0    0  0.43140757170E+01  0.40917202199E+01 -0.91120066583E+01  0.10880353349E+02  0.00000000000E+00 0.  1.
        -11    1    5    5    0    0 -0.27000438757E+03 -0.34382745512E+03 -0.87608315173E+03  0.97910233221E+03  0.00000000000E+00 0. -1.
          1    1    6    6  503    0 -0.24128473364E+02  0.12185908159E+03 -0.32836431065E+02  0.12849144017E+03  0.00000000000E+00 0. -1.
         -1    1    6    6    0  503 -0.11336591840E+02  0.28895307173E+03 -0.22492193810E+03  0.36634993410E+03  0.00000000000E+00 0.  1.
<mgrwt>
<rscale>  0 0.13259464E+04</rscale>
<asrwt>0</asrwt>
<pdfrwt beam="1">  1        2 0.43770907E-01 0.13259464E+04</pdfrwt>
<pdfrwt beam="2">  1       -2 0.23767290E+00 0.13259464E+04</pdfrwt>
<totfact> 0.87344726E+00</totfact>
</mgrwt>
</event>
<event>
12    2  0.3552864E-008  0.4140271E+04  0.7818608E-02  0.7976832E-01
         -2   -1    0    0    0  501 -0.00000000000E+00  0.00000000000E+00  0.16010099826E+04  0.16010099826E+04  0.00000000000E+00 0. -1.
          2   -1    0    0  501    0  0.00000000000E+00 -0.00000000000E+00 -0.26767240897E+04  0.26767240897E+04  0.00000000000E+00 0.  1.
         23    2    1    2    0    0 -0.85518693136E+03  0.10345077158E+04  0.97720476067E+03  0.16629139720E+04  0.93823411610E+02 0.  0.
        254    2    1    2    0    0  0.85518693136E+03 -0.10345077158E+04 -0.20529188677E+04  0.26148201003E+04  0.90623251869E+03 0.  0.
         23    2    4    4    0    0 -0.14018839186E+03 -0.30201299858E+03 -0.24800721482E+03  0.42547527260E+03  0.93042960335E+02 0.  0.
         23    2    4    4    0    0  0.99537532322E+03 -0.73249471717E+03 -0.18049116529E+04  0.21893448277E+04  0.90576790792E+02 0.  0.
          1    1    3    3  502    0 -0.46728595755E+03  0.60563678532E+03  0.60409449113E+03  0.97472161978E+03  0.00000000000E+00 0. -1.
         -1    1    3    3    0  502 -0.38790097381E+03  0.42887093043E+03  0.37311026954E+03  0.68819235225E+03  0.00000000000E+00 0.  1.
         11    1    5    5    0    0 -0.10619217124E+03 -0.12938334322E+03 -0.95982069419E+02  0.19294917565E+03  0.00000000000E+00 0.  1.
        -11    1    5    5    0    0 -0.33996220615E+02 -0.17262965537E+03 -0.15202514541E+03  0.23252609695E+03  0.00000000000E+00 0. -1.
          2    1    6    6  503    0  0.77540466541E+03 -0.52235761079E+03 -0.13574999902E+04  0.16483070382E+04  0.00000000000E+00 0. -1.
         -2    1    6    6    0  503  0.21997065781E+03 -0.21013710638E+03 -0.44741166265E+03  0.54103778948E+03  0.00000000000E+00 0.  1.
<mgrwt>
<rscale>  0 0.41402715E+04</rscale>
<asrwt>0</asrwt>
<pdfrwt beam="1">  1        2 0.41180371E+00 0.41402715E+04</pdfrwt>
<pdfrwt beam="2">  1       -2 0.24630923E+00 0.41402715E+04</pdfrwt>
<totfact> 0.14479221E-01</totfact>
</mgrwt>
</event>
<event>
12    2  0.3552864E-008  0.2051211E+04  0.7818608E-02  0.8583045E-01
          2   -1    0    0  501    0  0.00000000000E+00  0.00000000000E+00  0.11425688777E+04  0.11425688777E+04  0.00000000000E+00 0.  1.
         -2   -1    0    0    0  501 -0.00000000000E+00 -0.00000000000E+00 -0.92061543326E+03  0.92061543326E+03  0.00000000000E+00 0. -1.
         23    2    1    2    0    0  0.16712621390E+02 -0.17946237390E+03 -0.73046921468E+03  0.75764923838E+03  0.89224657267E+02 0.  0.
        254    2    1    2    0    0 -0.16712621390E+02  0.17946237390E+03  0.95242265912E+03  0.13055350726E+04  0.87454379465E+03 0.  0.
         23    2    4    4    0    0  0.39550544950E+03  0.14158430151E+03  0.29065808250E+03  0.51966248339E+03  0.95374528600E+02 0.  0.
         23    2    4    4    0    0 -0.41221807089E+03  0.37878072394E+02  0.66176457662E+03  0.78587258918E+03  0.91131143055E+02 0.  0.
          3    1    3    3  502    0  0.16345355437E+01 -0.17226138603E+03 -0.71283615647E+03  0.73335669547E+03  0.00000000000E+00 0. -1.
         -3    1    3    3    0  502  0.15078085846E+02 -0.72009878720E+01 -0.17633058208E+02  0.24292542907E+02  0.00000000000E+00 0.  1.
         11    1    5    5    0    0  0.80284070236E+02  0.23045227042E+02  0.15897882226E+02  0.85025626033E+02  0.00000000000E+00 0. -1.
        -11    1    5    5    0    0  0.31522137926E+03  0.11853907447E+03  0.27476020028E+03  0.43463685736E+03  0.00000000000E+00 0.  1.
          2    1    6    6  503    0 -0.31587022442E+02  0.20764451250E+02  0.10164174705E+03  0.10844329009E+03  0.00000000000E+00 0. -1.
         -2    1    6    6    0  503 -0.38063104844E+03  0.17113621144E+02  0.56012282956E+03  0.67742929909E+03  0.00000000000E+00 0.  1.
<mgrwt>
<rscale>  0 0.20512109E+04</rscale>
<asrwt>0</asrwt>
<pdfrwt beam="1">  1        2 0.17577983E+00 0.20512109E+04</pdfrwt>
<pdfrwt beam="2">  1       -2 0.14163314E+00 0.20512109E+04</pdfrwt>
<totfact> 0.66146159E+00</totfact>
</mgrwt>
</event>
<event>
12    2  0.3552864E-008  0.1606043E+04  0.7818608E-02  0.8816844E-01
          2   -1    0    0  501    0  0.00000000000E+00  0.00000000000E+00  0.10717879121E+04  0.10717879121E+04  0.00000000000E+00 0. -1.
         -2   -1    0    0    0  501 -0.00000000000E+00 -0.00000000000E+00 -0.60165242331E+03  0.60165242331E+03  0.00000000000E+00 0.  1.
         23    2    1    2    0    0 -0.31165537476E+03 -0.24863111797E+03  0.55145544902E+03  0.68644883040E+03  0.90345885715E+02 0.  0.
        254    2    1    2    0    0  0.31165537476E+03  0.24863111797E+03 -0.81319960272E+02  0.98699150497E+03  0.89921787656E+03 0.  0.
         23    2    4    4    0    0  0.34149602303E+03 -0.25134281505E+03  0.10169656545E+03  0.44580643563E+03  0.92781691103E+02 0.  0.
         23    2    4    4    0    0 -0.29840648271E+02  0.49997393302E+03 -0.18301652573E+03  0.54118506934E+03  0.92313772566E+02 0.  0.
          3    1    3    3  502    0 -0.23687001033E+03 -0.22138496594E+03  0.39594684874E+03  0.51175444498E+03  0.00000000000E+00 0. -1.
         -3    1    3    3    0  502 -0.74785364427E+02 -0.27246152027E+02  0.15550860029E+03  0.17469438542E+03  0.00000000000E+00 0.  1.
         11    1    5    5    0    0  0.25928927181E+03 -0.14549556150E+03  0.92901456114E+02  0.31149729604E+03  0.00000000000E+00 0.  1.
        -11    1    5    5    0    0  0.82206751220E+02 -0.10584725355E+03  0.87951093387E+01  0.13430913959E+03  0.00000000000E+00 0. -1.
          1    1    6    6  503    0 -0.21530588823E+02  0.30490770785E+03 -0.63272752125E+02  0.31214694892E+03  0.00000000000E+00 0. -1.
         -1    1    6    6    0  503 -0.83100594483E+01  0.19506622517E+03 -0.11974377360E+03  0.22903812042E+03  0.00000000000E+00 0.  1.
<mgrwt>
<rscale>  0 0.16060433E+04</rscale>
<asrwt>0</asrwt>
<pdfrwt beam="1">  1        2 0.16489045E+00 0.16060433E+04</pdfrwt>
<pdfrwt beam="2">  1       -2 0.92561912E-01 0.16060433E+04</pdfrwt>
<totfact> 0.21534361E+01</totfact>
</mgrwt>
</event>
<event>
12    2  0.3552864E-008  0.1673791E+04  0.7818608E-02  0.8776455E-01
         -2   -1    0    0    0  501 -0.00000000000E+00  0.00000000000E+00  0.38632886813E+03  0.38632886813E+03  0.00000000000E+00 0.  1.
          2   -1    0    0  501    0  0.00000000000E+00 -0.00000000000E+00 -0.18129476204E+04  0.18129476204E+04  0.00000000000E+00 0. -1.
         23    2    1    2    0    0 -0.20904367263E+02  0.38823074888E+03 -0.10922298263E+04  0.11629697411E+04  0.91501466029E+02 0.  0.
        254    2    1    2    0    0  0.20904367263E+02 -0.38823074888E+03 -0.33438892601E+03  0.10363067475E+04  0.90053074022E+03 0.  0.
         23    2    4    4    0    0  0.39555785231E+03 -0.16064397970E+03 -0.38970598984E+03  0.58511493111E+03  0.90643374591E+02 0.  0.
         23    2    4    4    0    0 -0.37465348504E+03 -0.22758676918E+03  0.55317063826E+02  0.45119181637E+03  0.91395329459E+02 0.  0.
          4    1    3    3  502    0 -0.43484823673E+02  0.11871057410E+03 -0.28951055933E+03  0.31591057953E+03  0.00000000000E+00 0.  1.
         -4    1    3    3    0  502  0.22580456409E+02  0.26952017478E+03 -0.80271926695E+03  0.84705916154E+03  0.00000000000E+00 0. -1.
         11    1    5    5    0    0  0.25569737070E+03 -0.57419265969E+02 -0.21972950459E+03  0.34199294244E+03  0.00000000000E+00 0. -1.
        -11    1    5    5    0    0  0.13986048160E+03 -0.10322471373E+03 -0.16997648525E+03  0.24312198867E+03  0.00000000000E+00 0.  1.
          3    1    6    6  503    0 -0.35636482912E+03 -0.19108339282E+03  0.35816338791E+02  0.40594527288E+03  0.00000000000E+00 0. -1.
         -3    1    6    6    0  503 -0.18288655921E+02 -0.36503376359E+02  0.19500725034E+02  0.45246543490E+02  0.00000000000E+00 0.  1.
<mgrwt>
<rscale>  0 0.16737909E+04</rscale>
<asrwt>0</asrwt>
<pdfrwt beam="1">  1        2 0.27891502E+00 0.16737909E+04</pdfrwt>
<pdfrwt beam="2">  1       -2 0.59435210E-01 0.16737909E+04</pdfrwt>
<totfact> 0.21380964E+01</totfact>
</mgrwt>
</event>
<event>
12    2  0.3552864E-008  0.3333220E+04  0.7818608E-02  0.8154494E-01
          2   -1    0    0  501    0  0.00000000000E+00  0.00000000000E+00  0.13018480349E+04  0.13018480349E+04  0.00000000000E+00 0. -1.
         -2   -1    0    0    0  501 -0.00000000000E+00 -0.00000000000E+00 -0.21335738931E+04  0.21335738931E+04  0.00000000000E+00 0.  1.
         23    2    1    2    0    0 -0.23781150753E+03  0.12014966573E+04 -0.13537391750E+04  0.18278779673E+04  0.91540039509E+02 0.  0.
        254    2    1    2    0    0  0.23781150753E+03 -0.12014966573E+04  0.52201331686E+03  0.16075439607E+04  0.90086133894E+03 0.  0.
         23    2    4    4    0    0 -0.21360519248E+03 -0.13409082585E+03  0.33704664238E+03  0.43037406547E+03  0.89520217008E+02 0.  0.
         23    2    4    4    0    0  0.45141670001E+03 -0.10674058314E+04  0.18496667448E+03  0.11771698952E+04  0.91564433771E+02 0.  0.
          4    1    3    3  502    0 -0.10448357365E+03  0.33512904311E+03 -0.41355562617E+03  0.54245419036E+03  0.00000000000E+00 0. -1.
         -4    1    3    3    0  502 -0.13332793388E+03  0.86636761416E+03 -0.94018354886E+03  0.12854237770E+04  0.00000000000E+00 0.  1.
         11    1    5    5    0    0 -0.70762356004E+02 -0.96398763698E+02  0.16106350980E+03  0.20060280870E+03  0.00000000000E+00 0.  1.
        -11    1    5    5    0    0 -0.14284283648E+03 -0.37692062153E+02  0.17598313258E+03  0.22977125676E+03  0.00000000000E+00 0. -1.
          4    1    6    6  503    0  0.10650449596E+03 -0.17773651719E+03  0.53214853319E+02  0.21392825390E+03  0.00000000000E+00 0.  1.
         -4    1    6    6    0  503  0.34491220406E+03 -0.88966931423E+03  0.13175182116E+03  0.96324164131E+03  0.00000000000E+00 0. -1.
<mgrwt>
<rscale>  0 0.33332201E+04</rscale>
<asrwt>0</asrwt>
<pdfrwt beam="1">  1        2 0.20028431E+00 0.33332201E+04</pdfrwt>
<pdfrwt beam="2">  1       -2 0.32824214E+00 0.33332201E+04</pdfrwt>
<totfact> 0.29232070E-01</totfact>
</mgrwt>
</event>
<event>
12    2  0.3552864E-008  0.1628526E+04  0.7818608E-02  0.8803213E-01
          2   -1    0    0  501    0  0.00000000000E+00  0.00000000000E+00  0.11891892675E+04  0.11891892675E+04  0.00000000000E+00 0. -1.
         -2   -1    0    0    0  501 -0.00000000000E+00 -0.00000000000E+00 -0.55754311895E+03  0.55754311895E+03  0.00000000000E+00 0.  1.
         23    2    1    2    0    0 -0.11376995155E+03 -0.30477206965E+03  0.71252217889E+03  0.78869186951E+03  0.92289724837E+02 0.  0.
        254    2    1    2    0    0  0.11376995155E+03  0.30477206965E+03 -0.80876030309E+02  0.95804051698E+03  0.89748040847E+03 0.  0.
         23    2    4    4    0    0  0.23225208520E+03 -0.16614119688E+03 -0.29444820608E+03  0.41994743748E+03  0.90067617972E+02 0.  0.
         23    2    4    4    0    0 -0.11848213365E+03  0.47091326652E+03  0.21357217577E+03  0.53809307950E+03  0.90187401335E+02 0.  0.
          4    1    3    3  502    0 -0.70886243509E+02 -0.25536133925E+03  0.62933481273E+03  0.68285912136E+03  0.00000000000E+00 0. -1.
         -4    1    3    3    0  502 -0.42883708042E+02 -0.49410730398E+02  0.83187366157E+02  0.10583274815E+03  0.00000000000E+00 0.  1.
         11    1    5    5    0    0  0.58002117024E+01 -0.31930368447E+02 -0.56240083142E+02  0.64931793728E+02  0.00000000000E+00 0.  1.
        -11    1    5    5    0    0  0.22645187350E+03 -0.13421082843E+03 -0.23820812293E+03  0.35501564375E+03  0.00000000000E+00 0. -1.
          2    1    6    6  503    0 -0.87946786342E+02  0.28471685846E+03  0.85376275518E+02  0.30997973344E+03  0.00000000000E+00 0. -1.
         -2    1    6    6    0  503 -0.30535347304E+02  0.18619640806E+03  0.12819590025E+03  0.22811334606E+03  0.00000000000E+00 0.  1.
<mgrwt>
<rscale>  0 0.16285261E+04</rscale>
<asrwt>0</asrwt>
<pdfrwt beam="1">  1        2 0.18295220E+00 0.16285261E+04</pdfrwt>
<pdfrwt beam="2">  1       -2 0.85775864E-01 0.16285261E+04</pdfrwt>
<totfact> 0.21713755E+01</totfact>
</mgrwt>
</event>
<event>
12    2  0.3552864E-008  0.1245006E+04  0.7818608E-02  0.9074350E-01
          1   -1    0    0  501    0  0.00000000000E+00  0.00000000000E+00  0.11840955229E+04  0.11840955229E+04  0.00000000000E+00 0. -1.
         -1   -1    0    0    0  501 -0.00000000000E+00 -0.00000000000E+00 -0.32726262023E+03  0.32726262023E+03  0.00000000000E+00 0.  1.
         23    2    1    2    0    0  0.18008123133E+03  0.22535457686E+03  0.11143636933E+03  0.32209371874E+03  0.90068663000E+02 0.  0.
        254    2    1    2    0    0 -0.18008123133E+03 -0.22535457686E+03  0.74539653336E+03  0.11892644244E+04  0.88063610192E+03 0.  0.
         23    2    4    4    0    0  0.59324546770E+02  0.29907124053E+03  0.39997885541E+03  0.51121170532E+03  0.91604116308E+02 0.  0.
         23    2    4    4    0    0 -0.23940577810E+03 -0.52442581738E+03  0.34541767795E+03  0.67805271908E+03  0.90025291340E+02 0.  0.
          2    1    3    3  502    0  0.45656596266E+02  0.39134358464E+02  0.63539847995E+02  0.87483341718E+02  0.00000000000E+00 0. -1.
         -2    1    3    3    0  502  0.13442463507E+03  0.18622021839E+03  0.47896521337E+02  0.23461037702E+03  0.00000000000E+00 0.  1.
         11    1    5    5    0    0  0.37035136495E+02  0.25439827456E+03  0.37685787484E+03  0.45619287726E+03  0.00000000000E+00 0.  1.
        -11    1    5    5    0    0  0.22289410276E+02  0.44672965965E+02  0.23120980565E+02  0.55018828058E+02  0.00000000000E+00 0. -1.
          1    1    6    6  503    0 -0.12982810170E+03 -0.17959089691E+03  0.12716648817E+03  0.25549861440E+03  0.00000000000E+00 0.  1.
         -1    1    6    6    0  503 -0.10957767640E+03 -0.34483492048E+03  0.21825118978E+03  0.42255410468E+03  0.00000000000E+00 0. -1.
<mgrwt>
<rscale>  0 0.12450064E+04</rscale>
<asrwt>0</asrwt>
<pdfrwt beam="1">  1        1 0.18216854E+00 0.12450064E+04</pdfrwt>
<pdfrwt beam="2">  1       -1 0.50348096E-01 0.12450064E+04</pdfrwt>
<totfact> 0.42882834E+01</totfact>
</mgrwt>
</event>
<event>
12    2  0.3552864E-008  0.1254936E+04  0.7818608E-02  0.9066085E-01
          2   -1    0    0  501    0  0.00000000000E+00  0.00000000000E+00  0.18471004253E+04  0.18471004253E+04  0.00000000000E+00 0. -1.
         -2   -1    0    0    0  501 -0.00000000000E+00 -0.00000000000E+00 -0.21315370108E+03  0.21315370108E+03  0.00000000000E+00 0.  1.
         23    2    1    2    0    0  0.65823861039E+02 -0.62136692921E+01  0.86276876004E+03  0.87021456013E+03  0.92369134405E+02 0.  0.
        254    2    1    2    0    0 -0.65823861039E+02  0.62136692921E+01  0.77117796422E+03  0.11900395663E+04  0.90393989095E+03 0.  0.
         23    2    4    4    0    0  0.30559277062E+03  0.22331545797E+03  0.60484133021E+03  0.72034595860E+03  0.99038023627E+02 0.  0.
         23    2    4    4    0    0 -0.37141663166E+03 -0.21710178868E+03  0.16633663401E+03  0.46969360768E+03  0.88660635909E+02 0.  0.
          4    1    3    3  502    0 -0.21746580458E+02  0.10729759015E+02  0.20336613526E+03  0.20480680277E+03  0.00000000000E+00 0.  1.
         -4    1    3    3    0  502  0.87570441497E+02 -0.16943428307E+02  0.65940262478E+03  0.66540775736E+03  0.00000000000E+00 0. -1.
         11    1    5    5    0    0  0.12252282154E+03  0.12751911041E+03  0.35109894696E+03  0.39312012906E+03  0.00000000000E+00 0.  1.
        -11    1    5    5    0    0  0.18306994908E+03  0.95796347556E+02  0.25374238325E+03  0.32722582954E+03  0.00000000000E+00 0. -1.
          3    1    6    6  503    0 -0.64179845050E+02 -0.24058444255E+02  0.61280534698E+02  0.91941096271E+02  0.00000000000E+00 0. -1.
         -3    1    6    6    0  503 -0.30723678661E+03 -0.19304334442E+03  0.10505609931E+03  0.37775251141E+03  0.00000000000E+00 0.  1.
<mgrwt>
<rscale>  0 0.12549363E+04</rscale>
<asrwt>0</asrwt>
<pdfrwt beam="1">  1        2 0.28416928E+00 0.12549363E+04</pdfrwt>
<pdfrwt beam="2">  1       -2 0.32792878E-01 0.12549363E+04</pdfrwt>
<totfact> 0.69301689E+01</totfact>
</mgrwt>
</event>
<event>
12    2  0.3552864E-008  0.1685692E+04  0.7818608E-02  0.8769567E-01
          2   -1    0    0  501    0  0.00000000000E+00  0.00000000000E+00  0.77576519889E+03  0.77576519889E+03  0.00000000000E+00 0. -1.
         -2   -1    0    0    0  501 -0.00000000000E+00 -0.00000000000E+00 -0.91572783514E+03  0.91572783514E+03  0.00000000000E+00 0.  1.
         23    2    1    2    0    0  0.46701097858E+03  0.18504582741E+03  0.27742467793E+03  0.58044827325E+03  0.87261295246E+02 0.  0.
        254    2    1    2    0    0 -0.46701097858E+03 -0.18504582741E+03 -0.41738731417E+03  0.11110447608E+04  0.89881426228E+03 0.  0.
         23    2    4    4    0    0 -0.21945245358E+03 -0.46350376355E+03  0.30952752251E+02  0.52168925159E+03  0.90589647001E+02 0.  0.
         23    2    4    4    0    0 -0.24755852500E+03  0.27845793615E+03 -0.44834006643E+03  0.58935550919E+03  0.86643266029E+02 0.  0.
          3    1    3    3  502    0  0.41271275651E+03  0.13063375268E+03  0.23956408861E+03  0.49476049689E+03  0.00000000000E+00 0. -1.
         -3    1    3    3    0  502  0.54298222067E+02  0.54412074726E+02  0.37860589312E+02  0.85687776367E+02  0.00000000000E+00 0.  1.
         11    1    5    5    0    0 -0.14782792995E+03 -0.22978899357E+03  0.44674781009E+02  0.27686082153E+03  0.00000000000E+00 0.  1.
        -11    1    5    5    0    0 -0.71624523625E+02 -0.23371476998E+03 -0.13722028758E+02  0.24482843006E+03  0.00000000000E+00 0. -1.
          4    1    6    6  503    0 -0.18175072838E+03  0.14192226052E+03 -0.28307443357E+03  0.36511147645E+03  0.00000000000E+00 0. -1.
         -4    1    6    6    0  503 -0.65807796620E+02  0.13653567563E+03 -0.16526563286E+03  0.22424403274E+03  0.00000000000E+00 0.  1.
<mgrwt>
<rscale>  0 0.16856925E+04</rscale>
<asrwt>0</asrwt>
<pdfrwt beam="1">  1        2 0.11934849E+00 0.16856925E+04</pdfrwt>
<pdfrwt beam="2">  1       -2 0.14088121E+00 0.16856925E+04</pdfrwt>
<totfact> 0.12072673E+01</totfact>
</mgrwt>
</event>
<event>
12    2  0.3552864E-008  0.1770875E+04  0.7818608E-02  0.8721943E-01
          1   -1    0    0  501    0  0.00000000000E+00  0.00000000000E+00  0.51836729618E+03  0.51836729618E+03  0.00000000000E+00 0. -1.
         -1   -1    0    0    0  501 -0.00000000000E+00 -0.00000000000E+00 -0.15124409321E+04  0.15124409321E+04  0.00000000000E+00 0.  1.
         23    2    1    2    0    0 -0.94225390389E+02 -0.46746456741E+03 -0.86803465107E+03  0.99348804916E+03  0.78312210968E+02 0.  0.
        254    2    1    2    0    0  0.94225390389E+02  0.46746456741E+03 -0.12603898485E+03  0.10373201791E+04  0.91254905750E+03 0.  0.
         23    2    4    4    0    0 -0.28372573987E+03 -0.42573928298E+02 -0.24159721296E+03  0.38564004993E+03  0.89644854624E+02 0.  0.
         23    2    4    4    0    0  0.37795113026E+03  0.51003849571E+03  0.11555822811E+03  0.65168012920E+03  0.91361713748E+02 0.  0.
          3    1    3    3  502    0 -0.14078769675E+02 -0.11235843278E+03 -0.14497191949E+03  0.18395512119E+03  0.00000000000E+00 0. -1.
         -3    1    3    3    0  502 -0.80146620714E+02 -0.35510613463E+03 -0.72306273158E+03  0.80953292797E+03  0.00000000000E+00 0.  1.
         11    1    5    5    0    0 -0.28500575264E+03 -0.48535724312E+02 -0.24473129445E+03  0.37878411008E+03  0.00000000000E+00 0. -1.
        -11    1    5    5    0    0  0.12800127622E+01  0.59617960144E+01  0.31340814864E+01  0.68559398445E+01  0.00000000000E+00 0.  1.
          3    1    6    6  503    0  0.38002248345E+03  0.51256484050E+03  0.11523562851E+03  0.64839729620E+03  0.00000000000E+00 0. -1.
         -3    1    6    6    0  503 -0.20713531855E+01 -0.25263447886E+01  0.32259959387E+00  0.32828330003E+01  0.00000000000E+00 0.  1.
<mgrwt>
<rscale>  0 0.17708754E+04</rscale>
<asrwt>0</asrwt>
<pdfrwt beam="1">  1        1 0.79748815E-01 0.17708754E+04</pdfrwt>
<pdfrwt beam="2">  1       -1 0.23268322E+00 0.17708754E+04</pdfrwt>
<totfact> 0.36128625E+00</totfact>
</mgrwt>
</event>
<event>
12    2  0.3552864E-008  0.1404425E+04  0.7818608E-02  0.8950622E-01
         -1   -1    0    0    0  501 -0.00000000000E+00  0.00000000000E+00  0.21960494900E+03  0.21960494900E+03  0.00000000000E+00 0.  1.
          1   -1    0    0  501    0  0.00000000000E+00 -0.00000000000E+00 -0.22454058076E+04  0.22454058076E+04  0.00000000000E+00 0. -1.
         23    2    1    2    0    0 -0.48151153357E+02  0.24399888640E+03 -0.11609702227E+04  0.11908866098E+04  0.92222932559E+02 0.  0.
        254    2    1    2    0    0  0.48151153357E+02 -0.24399888640E+03 -0.86483063594E+03  0.12741241468E+04  0.90200128745E+03 0.  0.
         23    2    4    4    0    0  0.34021192949E+03  0.15544681284E+03 -0.18162581041E+03  0.42563270249E+03  0.90925210080E+02 0.  0.
         23    2    4    4    0    0 -0.29206077614E+03 -0.39944569924E+03 -0.68320482553E+03  0.84849144436E+03  0.91173098677E+02 0.  0.
          2    1    3    3  502    0 -0.17622228188E+02  0.71551806956E+02 -0.56289748022E+03  0.56770042914E+03  0.00000000000E+00 0.  1.
         -2    1    3    3    0  502 -0.30528925169E+02  0.17244707945E+03 -0.59807274247E+03  0.62318618066E+03  0.00000000000E+00 0. -1.
         11    1    5    5    0    0  0.14647640165E+03  0.18446244174E+02 -0.67535857167E+02  0.16234744275E+03  0.00000000000E+00 0. -1.
        -11    1    5    5    0    0  0.19373552784E+03  0.13700056866E+03 -0.11408995325E+03  0.26328525974E+03  0.00000000000E+00 0.  1.
          2    1    6    6  503    0 -0.60974292724E+02 -0.12253826341E+03 -0.13470935312E+03  0.19204192300E+03  0.00000000000E+00 0. -1.
         -2    1    6    6    0  503 -0.23108648341E+03 -0.27690743583E+03 -0.54849547241E+03  0.65644952135E+03  0.00000000000E+00 0.  1.
<mgrwt>
<rscale>  0 0.14044248E+04</rscale>
<asrwt>0</asrwt>
<pdfrwt beam="1">  1        1 0.34544703E+00 0.14044248E+04</pdfrwt>
<pdfrwt beam="2">  1       -1 0.33785378E-01 0.14044248E+04</pdfrwt>
<totfact> 0.16375996E+01</totfact>
</mgrwt>
</event>
<event>
12    2  0.3552864E-008  0.1833042E+04  0.7818608E-02  0.8688923E-01
          2   -1    0    0  501    0  0.00000000000E+00  0.00000000000E+00  0.12455003573E+04  0.12455003573E+04  0.00000000000E+00 0.  1.
         -2   -1    0    0    0  501 -0.00000000000E+00 -0.00000000000E+00 -0.67443603911E+03  0.67443603911E+03  0.00000000000E+00 0. -1.
         23    2    1    2    0    0  0.69154529316E+03  0.14844167298E+02  0.19979852694E+03  0.72584137128E+03  0.92038052419E+02 0.  0.
        254    2    1    2    0    0 -0.69154529316E+03 -0.14844167298E+02  0.37126579129E+03  0.11940950252E+04  0.89976074573E+03 0.  0.
         23    2    4    4    0    0 -0.36740271739E+03 -0.22163885948E+00 -0.27370285069E+03  0.46617918452E+03  0.86168298907E+02 0.  0.
         23    2    4    4    0    0 -0.32414257577E+03 -0.14622528438E+02  0.64496864198E+03  0.72791584065E+03  0.92707573439E+02 0.  0.
          2    1    3    3  502    0  0.63721808919E+03 -0.10135811527E+02  0.19166226092E+03  0.66549534192E+03  0.00000000000E+00 0. -1.
         -2    1    3    3    0  502  0.54327203974E+02  0.24979978825E+02  0.81362660178E+01  0.60346029352E+02  0.00000000000E+00 0.  1.
         11    1    5    5    0    0 -0.30127182370E+03 -0.29696897888E+02 -0.23996233570E+03  0.38630110025E+03  0.00000000000E+00 0. -1.
        -11    1    5    5    0    0 -0.66130893689E+02  0.29475259029E+02 -0.33740514985E+02  0.79878084269E+02  0.00000000000E+00 0.  1.
          2    1    6    6  503    0 -0.80522795470E+02 -0.32569485998E+02  0.11286899330E+03  0.14242226531E+03  0.00000000000E+00 0.  1.
         -2    1    6    6    0  503 -0.24361978030E+03  0.17946957560E+02  0.53209964868E+03  0.58549357534E+03  0.00000000000E+00 0. -1.
<mgrwt>
<rscale>  0 0.18330415E+04</rscale>
<asrwt>0</asrwt>
<pdfrwt beam="1">  1        2 0.19161544E+00 0.18330415E+04</pdfrwt>
<pdfrwt beam="2">  1       -2 0.10375939E+00 0.18330415E+04</pdfrwt>
<totfact> 0.12676170E+01</totfact>
</mgrwt>
</event>
<event>
12    2  0.3552864E-008  0.1619842E+04  0.7818608E-02  0.8808450E-01
         -1   -1    0    0    0  501 -0.00000000000E+00  0.00000000000E+00  0.40180092556E+03  0.40180092556E+03  0.00000000000E+00 0.  1.
          1   -1    0    0  501    0  0.00000000000E+00 -0.00000000000E+00 -0.16325793166E+04  0.16325793166E+04  0.00000000000E+00 0. -1.
         23    2    1    2    0    0 -0.25321776409E+03 -0.12161549823E+03  0.17511732955E+03  0.34338150435E+03  0.91297387483E+02 0.  0.
        254    2    1    2    0    0  0.25321776409E+03  0.12161549823E+03 -0.14058957206E+04  0.16909987378E+04  0.89667407044E+03 0.  0.
         23    2    4    4    0    0  0.35639447240E+03 -0.30719151633E+03 -0.60569501905E+03  0.77270275387E+03  0.93911884604E+02 0.  0.
         23    2    4    4    0    0 -0.10317670831E+03  0.42880701455E+03 -0.80020070152E+03  0.91829598391E+03  0.91790318070E+02 0.  0.
          1    1    3    3  502    0 -0.66951884653E+02 -0.13596055488E+02  0.41583322874E+01  0.68444863291E+02  0.00000000000E+00 0. -1.
         -1    1    3    3    0  502 -0.18626587944E+03 -0.10801944274E+03  0.17095899726E+03  0.27493664106E+03  0.00000000000E+00 0.  1.
         11    1    5    5    0    0  0.13218603354E+03 -0.12673192145E+03 -0.31011579796E+03  0.36014710261E+03  0.00000000000E+00 0. -1.
        -11    1    5    5    0    0  0.22420843886E+03 -0.18045959488E+03 -0.29557922109E+03  0.41255565126E+03  0.00000000000E+00 0.  1.
          2    1    6    6  503    0 -0.10010348148E+03  0.33231538982E+03 -0.55271198108E+03  0.65264443562E+03  0.00000000000E+00 0. -1.
         -2    1    6    6    0  503 -0.30732268342E+01  0.96491624736E+02 -0.24748872043E+03  0.26565154829E+03  0.00000000000E+00 0.  1.
<mgrwt>
<rscale>  0 0.16198418E+04</rscale>
<asrwt>0</asrwt>
<pdfrwt beam="1">  1        1 0.25116605E+00 0.16198418E+04</pdfrwt>
<pdfrwt beam="2">  1       -1 0.61815527E-01 0.16198418E+04</pdfrwt>
<totfact> 0.13476569E+01</totfact>
</mgrwt>
</event>
<event>
12    2  0.3552864E-008  0.1466661E+04  0.7818608E-02  0.8906930E-01
         -2   -1    0    0    0  501 -0.00000000000E+00  0.00000000000E+00  0.27538754664E+03  0.27538754664E+03  0.00000000000E+00 0.  1.
          2   -1    0    0  501    0  0.00000000000E+00 -0.00000000000E+00 -0.19527894768E+04  0.19527894768E+04  0.00000000000E+00 0. -1.
         23    2    1    2    0    0  0.23160241996E+03  0.37316042089E+03 -0.32930031265E+03  0.55654761259E+03  0.91750577759E+02 0.  0.
        254    2    1    2    0    0 -0.23160241996E+03 -0.37316042089E+03 -0.13481016176E+04  0.16716294109E+04  0.88548209210E+03 0.  0.
         23    2    4    4    0    0 -0.55835731301E+03 -0.25696340618E+03 -0.96592693995E+03  0.11482706174E+04  0.87849168415E+02 0.  0.
         23    2    4    4    0    0  0.32675489305E+03 -0.11619701472E+03 -0.38217467760E+03  0.52335879347E+03  0.87042725935E+02 0.  0.
          4    1    3    3  502    0  0.80689316898E+02  0.21489137700E+03 -0.18100713599E+03  0.29232285755E+03  0.00000000000E+00 0. -1.
         -4    1    3    3    0  502  0.15091310306E+03  0.15826904390E+03 -0.14829317666E+03  0.26422475504E+03  0.00000000000E+00 0.  1.
         11    1    5    5    0    0 -0.23233102443E+03 -0.14136390882E+03 -0.36953812263E+03  0.45882445849E+03  0.00000000000E+00 0. -1.
        -11    1    5    5    0    0 -0.32602628858E+03 -0.11559949735E+03 -0.59638881732E+03  0.68944615892E+03  0.00000000000E+00 0.  1.
          2    1    6    6  503    0 -0.31488151309E+01 -0.23786936413E+00  0.20994957781E+01  0.37920312611E+01  0.00000000000E+00 0. -1.
         -2    1    6    6    0  503  0.32990370818E+03 -0.11595914535E+03 -0.38427417338E+03  0.51956676221E+03  0.00000000000E+00 0.  1.
<mgrwt>
<rscale>  0 0.14666614E+04</rscale>
<asrwt>0</asrwt>
<pdfrwt beam="1">  1        2 0.30042916E+00 0.14666614E+04</pdfrwt>
<pdfrwt beam="2">  1       -2 0.42367313E-01 0.14666614E+04</pdfrwt>
<totfact> 0.36314606E+01</totfact>
</mgrwt>
</event>
<event>
12    2  0.3552864E-008  0.1367818E+04  0.7818608E-02  0.8977449E-01
         -2   -1    0    0    0  501 -0.00000000000E+00  0.00000000000E+00  0.26798751021E+03  0.26798751021E+03  0.00000000000E+00 0.  1.
          2   -1    0    0  501    0  0.00000000000E+00 -0.00000000000E+00 -0.17453481817E+04  0.17453481817E+04  0.00000000000E+00 0. -1.
         23    2    1    2    0    0 -0.27388002182E+03 -0.72229424645E+02 -0.53409713641E+02  0.30267860364E+03  0.92381726858E+02 0.  0.
        254    2    1    2    0    0  0.27388002182E+03  0.72229424645E+02 -0.14239509578E+04  0.17106570882E+04  0.90470104848E+03 0.  0.
         23    2    4    4    0    0 -0.16539618279E+03  0.16907448942E+03 -0.11462755026E+04  0.11741661512E+04  0.93683202976E+02 0.  0.
         23    2    4    4    0    0  0.43927620461E+03 -0.96845064770E+02 -0.27767545517E+03  0.53649093698E+03  0.91522218938E+02 0.  0.
          2    1    3    3  502    0 -0.25972091488E+02 -0.40316691191E+02 -0.98023470931E+01  0.48949679605E+02  0.00000000000E+00 0. -1.
         -2    1    3    3    0  502 -0.24790793033E+03 -0.31912733454E+02 -0.43607366548E+02  0.25372892404E+03  0.00000000000E+00 0.  1.
         11    1    5    5    0    0 -0.11126024156E+03  0.12525258353E+03 -0.58277493481E+03  0.60637750262E+03  0.00000000000E+00 0.  1.
        -11    1    5    5    0    0 -0.54135941225E+02  0.43821905890E+02 -0.56350056783E+03  0.56778864863E+03  0.00000000000E+00 0. -1.
          1    1    6    6  503    0  0.18568294313E+03 -0.57430016367E+02 -0.70803769570E+02  0.20685631713E+03  0.00000000000E+00 0. -1.
         -1    1    6    6    0  503  0.25359326147E+03 -0.39415048404E+02 -0.20687168560E+03  0.32963461986E+03  0.00000000000E+00 0.  1.
<mgrwt>
<rscale>  0 0.13678180E+04</rscale>
<asrwt>0</asrwt>
<pdfrwt beam="1">  1        2 0.26851511E+00 0.13678180E+04</pdfrwt>
<pdfrwt beam="2">  1       -2 0.41228847E-01 0.13678180E+04</pdfrwt>
<totfact> 0.50303363E+01</totfact>
</mgrwt>
</event>
<event>
12    2  0.3552864E-008  0.1981623E+04  0.7818608E-02  0.8615261E-01
         -1   -1    0    0    0  501 -0.00000000000E+00  0.00000000000E+00  0.18847939500E+04  0.18847939500E+04  0.00000000000E+00 0.  1.
          1   -1    0    0  501    0  0.00000000000E+00 -0.00000000000E+00 -0.52085675415E+03  0.52085675415E+03  0.00000000000E+00 0. -1.
         23    2    1    2    0    0  0.47548880752E+02  0.32401952062E+02 -0.36866356838E+03  0.38412735596E+03  0.91270019091E+02 0.  0.
        254    2    1    2    0    0 -0.47548880752E+02 -0.32401952062E+02  0.17326007642E+04  0.20215233482E+04  0.10398752120E+04 0.  0.
         23    2    4    4    0    0  0.11023412721E+03  0.36444713850E+03  0.22426914908E+03  0.45124280882E+03  0.91379109873E+02 0.  0.
         23    2    4    4    0    0 -0.15778300797E+03 -0.39684909056E+03  0.15083316151E+04  0.15702805394E+04  0.91279969201E+02 0.  0.
          4    1    3    3  502    0  0.70098810992E+02  0.40372308543E+02 -0.31760233162E+03  0.32774228846E+03  0.00000000000E+00 0. -1.
         -4    1    3    3    0  502 -0.22549930240E+02 -0.79703564809E+01 -0.51061236765E+02  0.56385067493E+02  0.00000000000E+00 0.  1.
         11    1    5    5    0    0 -0.13127542298E+01 -0.15914103682E+01  0.14919439100E+02  0.15061393484E+02  0.00000000000E+00 0.  1.
        -11    1    5    5    0    0  0.11154688144E+03  0.36603854887E+03  0.20934970998E+03  0.43618141534E+03  0.00000000000E+00 0. -1.
          1    1    6    6  503    0 -0.67424425066E+02 -0.19937518670E+03  0.90208365905E+03  0.92631066392E+03  0.00000000000E+00 0. -1.
         -1    1    6    6    0  503 -0.90358582901E+02 -0.19747390386E+03  0.60624795608E+03  0.64396987543E+03  0.00000000000E+00 0.  1.
<mgrwt>
<rscale>  0 0.19816232E+04</rscale>
<asrwt>0</asrwt>
<pdfrwt beam="1">  1        1 0.80131809E-01 0.19816232E+04</pdfrwt>
<pdfrwt beam="2">  1       -1 0.28996830E+00 0.19816232E+04</pdfrwt>
<totfact> 0.14932206E+00</totfact>
</mgrwt>
</event>
<event>
12    2  0.3552864E-008  0.2357112E+04  0.7818608E-02  0.8455737E-01
          2   -1    0    0  501    0  0.00000000000E+00  0.00000000000E+00  0.95152763905E+03  0.95152763905E+03  0.00000000000E+00 0.  1.
         -2   -1    0    0    0  501 -0.00000000000E+00 -0.00000000000E+00 -0.14597515029E+04  0.14597515029E+04  0.00000000000E+00 0. -1.
         23    2    1    2    0    0 -0.85832686268E+03 -0.32284100764E+03 -0.63895731254E+03  0.11212276578E+04  0.89071286459E+02 0.  0.
        254    2    1    2    0    0  0.85832686268E+03  0.32284100764E+03  0.13073344864E+03  0.12900514841E+04  0.89788099309E+03 0.  0.
         23    2    4    4    0    0  0.97229761452E+03  0.23044753430E+03 -0.92845872085E+02  0.10078076705E+04  0.92667294603E+02 0.  0.
         23    2    4    4    0    0 -0.11397075184E+03  0.92393473343E+02  0.22357932072E+03  0.28224381365E+03  0.90266114892E+02 0.  0.
          1    1    3    3  502    0 -0.47040737323E+03 -0.15924812827E+03 -0.39571417665E+03  0.63500612025E+03  0.00000000000E+00 0. -1.
         -1    1    3    3    0  502 -0.38791948945E+03 -0.16359287937E+03 -0.24324313589E+03  0.48622153760E+03  0.00000000000E+00 0.  1.
         11    1    5    5    0    0  0.30652593721E+03  0.34107957867E+02 -0.49204799913E+02  0.31231813157E+03  0.00000000000E+00 0.  1.
        -11    1    5    5    0    0  0.66577167730E+03  0.19633957643E+03 -0.43641072172E+02  0.69548953892E+03  0.00000000000E+00 0. -1.
          4    1    6    6  503    0 -0.54334003576E+02  0.29564915284E+02  0.27132970120E+02  0.67546030437E+02  0.00000000000E+00 0.  1.
         -4    1    6    6    0  503 -0.59636748263E+02  0.62828558059E+02  0.19644635060E+03  0.21469778321E+03  0.00000000000E+00 0. -1.
<mgrwt>
<rscale>  0 0.23571117E+04</rscale>
<asrwt>0</asrwt>
<pdfrwt beam="1">  1        2 0.14638887E+00 0.23571117E+04</pdfrwt>
<pdfrwt beam="2">  1       -2 0.22457715E+00 0.23571117E+04</pdfrwt>
<totfact> 0.22597044E+00</totfact>
</mgrwt>
</event>
<event>
12    2  0.3552864E-008  0.1724018E+04  0.7818608E-02  0.8747783E-01
         -1   -1    0    0    0  501 -0.00000000000E+00  0.00000000000E+00  0.17180931525E+04  0.17180931525E+04  0.00000000000E+00 0.  1.
          1   -1    0    0  501    0  0.00000000000E+00 -0.00000000000E+00 -0.43249092432E+03  0.43249092432E+03  0.00000000000E+00 0. -1.
         23    2    1    2    0    0  0.54218830644E+03  0.52901342996E+01  0.86509369504E+03  0.10251407659E+04  0.92359858596E+02 0.  0.
        254    2    1    2    0    0 -0.54218830644E+03 -0.52901342996E+01  0.42050853318E+03  0.11254433110E+04  0.89207571126E+03 0.  0.
         23    2    4    4    0    0 -0.61677174890E+03 -0.94302080446E+02 -0.49687418594E+02  0.63246646308E+03  0.90800411524E+02 0.  0.
         23    2    4    4    0    0  0.74583442457E+02  0.89011946146E+02  0.47019595177E+03  0.49297684792E+03  0.91957180676E+02 0.  0.
          1    1    3    3  502    0  0.74436503378E+02 -0.21295612725E+02  0.83386455786E+02  0.11378750883E+03  0.00000000000E+00 0. -1.
         -1    1    3    3    0  502  0.46775180307E+03  0.26585747025E+02  0.78170723925E+03  0.91135325704E+03  0.00000000000E+00 0.  1.
         11    1    5    5    0    0 -0.31741349810E+03 -0.89882685602E+02 -0.45735681969E+02  0.33304951366E+03  0.00000000000E+00 0.  1.
        -11    1    5    5    0    0 -0.29935825080E+03 -0.44193948436E+01 -0.39517366245E+01  0.29941694942E+03  0.00000000000E+00 0. -1.
          1    1    6    6  503    0  0.45927295877E+02  0.29151799970E+02  0.77340909255E+02  0.94555593132E+02  0.00000000000E+00 0. -1.
         -1    1    6    6    0  503  0.28656146580E+02  0.59860146176E+02  0.39285504252E+03  0.39842125479E+03  0.00000000000E+00 0.  1.
<mgrwt>
<rscale>  0 0.17240182E+04</rscale>
<asrwt>0</asrwt>
<pdfrwt beam="1">  1        1 0.66537066E-01 0.17240182E+04</pdfrwt>
<pdfrwt beam="2">  1       -1 0.26432202E+00 0.17240182E+04</pdfrwt>
<totfact> 0.28873497E+00</totfact>
</mgrwt>
</event>
<event>
12    2  0.3552864E-008  0.2383137E+04  0.7818608E-02  0.8445844E-01
         -2   -1    0    0    0  501 -0.00000000000E+00  0.00000000000E+00  0.12759575970E+04  0.12759575970E+04  0.00000000000E+00 0.  1.
          2   -1    0    0  501    0  0.00000000000E+00 -0.00000000000E+00 -0.11127603724E+04  0.11127603724E+04  0.00000000000E+00 0. -1.
         23    2    1    2    0    0  0.97440538454E+03 -0.21878276827E+03 -0.15577665304E+03  0.10148751911E+04  0.91507019841E+02 0.  0.
        254    2    1    2    0    0 -0.97440538454E+03  0.21878276827E+03  0.31897387765E+03  0.13738427784E+04  0.88790083450E+03 0.  0.
         23    2    4    4    0    0 -0.74762179778E+02  0.39033482516E+03  0.16637308075E+03  0.44064635895E+03  0.92404287782E+02 0.  0.
         23    2    4    4    0    0 -0.89964320477E+03 -0.17155205688E+03  0.15260079690E+03  0.93319641941E+03  0.93704588396E+02 0.  0.
          3    1    3    3  502    0  0.86170302197E+02 -0.26263063242E+02  0.11289525765E+02  0.90788341011E+02  0.00000000000E+00 0. -1.
         -3    1    3    3    0  502  0.88823508235E+03 -0.19251970503E+03 -0.16706617880E+03  0.92408685005E+03  0.00000000000E+00 0.  1.
         11    1    5    5    0    0  0.13318842907E+02  0.61397742425E+02  0.28434130098E+01  0.62890057631E+02  0.00000000000E+00 0. -1.
        -11    1    5    5    0    0 -0.88081022686E+02  0.32893708273E+03  0.16352966774E+03  0.37775630132E+03  0.00000000000E+00 0.  1.
          2    1    6    6  503    0 -0.81074839556E+02  0.25965168220E+01  0.33968838824E+02  0.87941762091E+02  0.00000000000E+00 0. -1.
         -2    1    6    6    0  503 -0.81856836521E+03 -0.17414857370E+03  0.11863195808E+03  0.84525465732E+03  0.00000000000E+00 0.  1.
<mgrwt>
<rscale>  0 0.23831366E+04</rscale>
<asrwt>0</asrwt>
<pdfrwt beam="1">  1        2 0.17119390E+00 0.23831366E+04</pdfrwt>
<pdfrwt beam="2">  1       -2 0.19630117E+00 0.23831366E+04</pdfrwt>
<totfact> 0.27102275E+00</totfact>
</mgrwt>
</event>
<event>
12    2  0.3552864E-008  0.1821793E+04  0.7818608E-02  0.8694795E-01
          2   -1    0    0  501    0  0.00000000000E+00  0.00000000000E+00  0.19089848407E+04  0.19089848407E+04  0.00000000000E+00 0. -1.
         -2   -1    0    0    0  501 -0.00000000000E+00 -0.00000000000E+00 -0.43464602881E+03  0.43464602881E+03  0.00000000000E+00 0.  1.
         23    2    1    2    0    0 -0.21542969999E+03 -0.23058295035E+03  0.13355422669E+04  0.13752018612E+04  0.89042460233E+02 0.  0.
        254    2    1    2    0    0  0.21542969999E+03  0.23058295035E+03  0.13879654495E+03  0.96842900828E+03  0.90499271298E+03 0.  0.
         23    2    4    4    0    0 -0.32312794882E+03 -0.48605828408E+02  0.81488563425E+01  0.34100687402E+03  0.97185834405E+02 0.  0.
         23    2    4    4    0    0  0.53855764880E+03  0.27918877876E+03  0.13064768861E+03  0.62742213425E+03  0.92730797199E+02 0.  0.
          4    1    3    3  502    0 -0.14846424184E+03 -0.18143978714E+03  0.81405252217E+03  0.84713843987E+03  0.00000000000E+00 0. -1.
         -4    1    3    3    0  502 -0.66965458149E+02 -0.49143163210E+02  0.52148974478E+03  0.52806342136E+03  0.00000000000E+00 0.  1.
         11    1    5    5    0    0 -0.60918325623E+02 -0.26978424142E+01 -0.36533779989E+02  0.71084722907E+02  0.00000000000E+00 0. -1.
        -11    1    5    5    0    0 -0.26220962319E+03 -0.45907985994E+02  0.44682636332E+02  0.26992215111E+03  0.00000000000E+00 0.  1.
          1    1    6    6  503    0  0.12803070193E+03  0.54386951871E+02  0.69177832352E+02  0.15535563607E+03  0.00000000000E+00 0. -1.
         -1    1    6    6    0  503  0.41052694687E+03  0.22480182688E+03  0.61469856254E+02  0.47206649818E+03  0.00000000000E+00 0.  1.
<mgrwt>
<rscale>  0 0.18217933E+04</rscale>
<asrwt>0</asrwt>
<pdfrwt beam="1">  1        2 0.29368997E+00 0.18217933E+04</pdfrwt>
<pdfrwt beam="2">  1       -2 0.66868621E-01 0.18217933E+04</pdfrwt>
<totfact> 0.14526857E+01</totfact>
</mgrwt>
</event>
<event>
12    2  0.3552864E-008  0.2766517E+04  0.7818608E-02  0.8313740E-01
          2   -1    0    0  501    0  0.00000000000E+00  0.00000000000E+00  0.37895220336E+04  0.37895220336E+04  0.00000000000E+00 0.  1.
         -2   -1    0    0    0  501 -0.00000000000E+00 -0.00000000000E+00 -0.50491955562E+03  0.50491955562E+03  0.00000000000E+00 0. -1.
         23    2    1    2    0    0 -0.97999255281E+03  0.66867270683E+03  0.94243624697E+03  0.15178128013E+04  0.89783227125E+02 0.  0.
        254    2    1    2    0    0  0.97999255281E+03 -0.66867270683E+03  0.23421662310E+04  0.27766287878E+04  0.90355751316E+03 0.  0.
         23    2    4    4    0    0  0.47665710638E+03 -0.15815723442E+02  0.29617327089E+03  0.56882704791E+03  0.91615882155E+02 0.  0.
         23    2    4    4    0    0  0.50333544642E+03 -0.65285698339E+03  0.20459929601E+04  0.22078017399E+04  0.93447941763E+02 0.  0.
          3    1    3    3  502    0 -0.94651156434E+03  0.62396880978E+03  0.89142666652E+03  0.14421729157E+04  0.00000000000E+00 0. -1.
         -3    1    3    3    0  502 -0.33480988463E+02  0.44703897052E+02  0.51009580452E+02  0.75639885629E+02  0.00000000000E+00 0.  1.
         11    1    5    5    0    0  0.66862573733E+02 -0.71766706643E+01  0.82996224439E+02  0.10681985602E+03  0.00000000000E+00 0. -1.
        -11    1    5    5    0    0  0.40979453265E+03 -0.86390527780E+01  0.21317704646E+03  0.46200719189E+03  0.00000000000E+00 0.  1.
          4    1    6    6  503    0  0.22324499979E+02 -0.69594061685E+02  0.20387160407E+03  0.21657642454E+03  0.00000000000E+00 0. -1.
         -4    1    6    6    0  503  0.48101094644E+03 -0.58326292171E+03  0.18421213560E+04  0.19912253154E+04  0.00000000000E+00 0.  1.
<mgrwt>
<rscale>  0 0.27665168E+04</rscale>
<asrwt>0</asrwt>
<pdfrwt beam="1">  1        2 0.58300337E+00 0.27665168E+04</pdfrwt>
<pdfrwt beam="2">  1       -2 0.77679934E-01 0.27665168E+04</pdfrwt>
<totfact> 0.64478543E-01</totfact>
</mgrwt>
</event>
<event>
12    2  0.3552864E-008  0.2688319E+04  0.7818608E-02  0.8338805E-01
          1   -1    0    0  501    0  0.00000000000E+00  0.00000000000E+00  0.35605331810E+04  0.35605331810E+04  0.00000000000E+00 0. -1.
         -1   -1    0    0    0  501 -0.00000000000E+00 -0.00000000000E+00 -0.50744219967E+03  0.50744219967E+03  0.00000000000E+00 0.  1.
         23    2    1    2    0    0  0.60691616398E+03  0.20446664816E+03 -0.15999309210E+03  0.66664704737E+03  0.93094875958E+02 0.  0.
        254    2    1    2    0    0 -0.60691616398E+03 -0.20446664816E+03  0.32130840734E+04  0.34013283333E+04  0.91376765515E+03 0.  0.
         23    2    4    4    0    0 -0.11586195973E+03  0.18453793559E+03  0.16112882883E+03  0.28434820694E+03  0.86099709218E+02 0.  0.
         23    2    4    4    0    0 -0.49105420426E+03 -0.38900458374E+03  0.30519552446E+04  0.31169801264E+04  0.93142339034E+02 0.  0.
          1    1    3    3  502    0  0.23516106326E+03  0.31985655726E+02 -0.56270523251E+02  0.24390608773E+03  0.00000000000E+00 0. -1.
         -1    1    3    3    0  502  0.37175510072E+03  0.17248099243E+03 -0.10372256885E+03  0.42274095963E+03  0.00000000000E+00 0.  1.
         11    1    5    5    0    0 -0.37166758736E+02  0.54823128666E+01  0.36807313771E+02  0.52594696085E+02  0.00000000000E+00 0.  1.
        -11    1    5    5    0    0 -0.78695200991E+02  0.17905562272E+03  0.12432151506E+03  0.23175351085E+03  0.00000000000E+00 0. -1.
          4    1    6    6  503    0 -0.34375034026E+03 -0.27298106420E+03  0.23355631801E+04  0.23764549913E+04  0.00000000000E+00 0. -1.
         -4    1    6    6    0  503 -0.14730386399E+03 -0.11602351955E+03  0.71639206455E+03  0.74052513502E+03  0.00000000000E+00 0.  1.
<mgrwt>
<rscale>  0 0.26883190E+04</rscale>
<asrwt>0</asrwt>
<pdfrwt beam="1">  1        1 0.54777432E+00 0.26883190E+04</pdfrwt>
<pdfrwt beam="2">  1       -1 0.78068033E-01 0.26883190E+04</pdfrwt>
<totfact> 0.32134131E-01</totfact>
</mgrwt>
</event>
<event>
12    2  0.3552864E-008  0.2091389E+04  0.7818608E-02  0.8565046E-01
         -2   -1    0    0    0  501 -0.00000000000E+00  0.00000000000E+00  0.22369301285E+04  0.22369301285E+04  0.00000000000E+00 0.  1.
          2   -1    0    0  501    0  0.00000000000E+00 -0.00000000000E+00 -0.48882933362E+03  0.48882933362E+03  0.00000000000E+00 0. -1.
         23    2    1    2    0    0 -0.32015209591E+03  0.77550367698E+03  0.53882789230E+03  0.10009058147E+04  0.87026632980E+02 0.  0.
        254    2    1    2    0    0  0.32015209591E+03 -0.77550367698E+03  0.12092729026E+04  0.17248536474E+04  0.89937524681E+03 0.  0.
         23    2    4    4    0    0  0.43724356694E+02 -0.89887058183E+03  0.98642966454E+03  0.13384024686E+04  0.91638106943E+02 0.  0.
         23    2    4    4    0    0  0.27642773921E+03  0.12336690484E+03  0.22284323802E+03  0.38645117880E+03  0.89742501899E+02 0.  0.
          3    1    3    3  502    0 -0.78670066191E+02  0.16977812384E+03  0.16369119103E+03  0.24861294550E+03  0.00000000000E+00 0. -1.
         -3    1    3    3    0  502 -0.24148202972E+03  0.60572555315E+03  0.37513670127E+03  0.75229286920E+03  0.00000000000E+00 0.  1.
         11    1    5    5    0    0  0.19137624891E+02 -0.60067117191E+03  0.59480183809E+03  0.84555386111E+03  0.00000000000E+00 0.  1.
        -11    1    5    5    0    0  0.24586731803E+02 -0.29819940991E+03  0.39162782646E+03  0.49284860750E+03  0.00000000000E+00 0. -1.
          4    1    6    6  503    0  0.83764198463E+01  0.32564599554E+01 -0.86419097229E+01  0.12468020875E+02  0.00000000000E+00 0. -1.
         -4    1    6    6    0  503  0.26805131937E+03  0.12011044489E+03  0.23148514775E+03  0.37398315793E+03  0.00000000000E+00 0.  1.
<mgrwt>
<rscale>  0 0.20913891E+04</rscale>
<asrwt>0</asrwt>
<pdfrwt beam="1">  1        2 0.75204514E-01 0.20913891E+04</pdfrwt>
<pdfrwt beam="2">  1       -2 0.34414309E+00 0.20913891E+04</pdfrwt>
<totfact> 0.98918576E-01</totfact>
</mgrwt>
</event>
<event>
12    2  0.3552864E-008  0.1997880E+04  0.7818608E-02  0.8607613E-01
         -2   -1    0    0    0  501 -0.00000000000E+00  0.00000000000E+00  0.27242766450E+03  0.27242766450E+03  0.00000000000E+00 0.  1.
          2   -1    0    0  501    0  0.00000000000E+00 -0.00000000000E+00 -0.36629208410E+04  0.36629208410E+04  0.00000000000E+00 0. -1.
         23    2    1    2    0    0  0.73560967459E+02  0.74077297980E+03 -0.81136830714E+03  0.11045513833E+04  0.86944838624E+02 0.  0.
        254    2    1    2    0    0 -0.73560967459E+02 -0.74077297980E+03 -0.25791248694E+04  0.28307971223E+04  0.89853849773E+03 0.  0.
         23    2    4    4    0    0 -0.27509785553E+03  0.92185660150E+02 -0.60816083507E+03  0.67969586093E+03  0.89161852829E+02 0.  0.
         23    2    4    4    0    0  0.20153688807E+03 -0.83295863995E+03 -0.19709640343E+04  0.21511012613E+04  0.90001104172E+02 0.  0.
          3    1    3    3  502    0  0.60480419348E+02  0.45659786275E+03 -0.44227055977E+03  0.63854736506E+03  0.00000000000E+00 0. -1.
         -3    1    3    3    0  502  0.13080548111E+02  0.28417511705E+03 -0.36909774737E+03  0.46600401822E+03  0.00000000000E+00 0.  1.
         11    1    5    5    0    0 -0.23016650463E+03  0.58186292727E+02 -0.54828661862E+03  0.59747843532E+03  0.00000000000E+00 0.  1.
        -11    1    5    5    0    0 -0.44931350894E+02  0.33999367423E+02 -0.59874216452E+02  0.82217425611E+02  0.00000000000E+00 0. -1.
          1    1    6    6  503    0  0.23975039439E+02 -0.53757691780E+02 -0.19316854143E+03  0.20193755802E+03  0.00000000000E+00 0. -1.
         -1    1    6    6    0  503  0.17756184863E+03 -0.77920094817E+03 -0.17777954929E+04  0.19491637033E+04  0.00000000000E+00 0.  1.
<mgrwt>
<rscale>  0 0.19978798E+04</rscale>
<asrwt>0</asrwt>
<pdfrwt beam="1">  1        2 0.56352621E+00 0.19978798E+04</pdfrwt>
<pdfrwt beam="2">  1       -2 0.41911954E-01 0.19978798E+04</pdfrwt>
<totfact> 0.31378321E+00</totfact>
</mgrwt>
</event>
<event>
12    2  0.3552864E-008  0.1350809E+04  0.7818608E-02  0.8990216E-01
         -1   -1    0    0    0  501 -0.00000000000E+00  0.00000000000E+00  0.15881575502E+03  0.15881575502E+03  0.00000000000E+00 0.  1.
          1   -1    0    0  501    0  0.00000000000E+00 -0.00000000000E+00 -0.28723295548E+04  0.28723295548E+04  0.00000000000E+00 0. -1.
         23    2    1    2    0    0  0.11126595661E+03 -0.11898784559E+03 -0.21842188668E+02  0.18897596548E+03  0.93255636962E+02 0.  0.
        254    2    1    2    0    0 -0.11126595661E+03  0.11898784559E+03 -0.26916716111E+04  0.28421693443E+04  0.89793780368E+03 0.  0.
         23    2    4    4    0    0 -0.27603884507E+03 -0.15839357487E+03 -0.37346246452E+03  0.50004000832E+03  0.96331868913E+02 0.  0.
         23    2    4    4    0    0  0.16477288846E+03  0.27738142046E+03 -0.23182091466E+04  0.23421293360E+04  0.85939642038E+02 0.  0.
          1    1    3    3  502    0  0.88152443166E+02 -0.44369208302E+02 -0.43592798802E+02  0.10788796035E+03  0.00000000000E+00 0. -1.
         -1    1    3    3    0  502  0.23113513446E+02 -0.74618637293E+02  0.21750610134E+02  0.81088005133E+02  0.00000000000E+00 0.  1.
         11    1    5    5    0    0 -0.82185304196E+02 -0.58443955503E+02 -0.57428828121E+02  0.11605253319E+03  0.00000000000E+00 0.  1.
        -11    1    5    5    0    0 -0.19385354087E+03 -0.99949619364E+02 -0.31603363640E+03  0.38398747513E+03  0.00000000000E+00 0. -1.
          4    1    6    6  503    0  0.13229151445E+03  0.25133285233E+03 -0.21574791988E+04  0.21760941480E+04  0.00000000000E+00 0. -1.
         -4    1    6    6    0  503  0.32481374009E+02  0.26048568135E+02 -0.16072994773E+03  0.16603518801E+03  0.00000000000E+00 0.  1.
<mgrwt>
<rscale>  0 0.13508089E+04</rscale>
<asrwt>0</asrwt>
<pdfrwt beam="1">  1        1 0.44189686E+00 0.13508089E+04</pdfrwt>
<pdfrwt beam="2">  1       -1 0.24433193E-01 0.13508089E+04</pdfrwt>
<totfact> 0.10626824E+01</totfact>
</mgrwt>
</event>
<event>
12    2  0.3552864E-008  0.2512372E+04  0.7818608E-02  0.8398591E-01
         -2   -1    0    0    0  501 -0.00000000000E+00  0.00000000000E+00  0.12123829078E+04  0.12123829078E+04  0.00000000000E+00 0.  1.
          2   -1    0    0  501    0  0.00000000000E+00 -0.00000000000E+00 -0.13015711918E+04  0.13015711918E+04  0.00000000000E+00 0. -1.
         23    2    1    2    0    0 -0.53720751266E+03  0.47198924168E+03  0.79648761226E+03  0.10744317494E+04  0.92980168671E+02 0.  0.
        254    2    1    2    0    0  0.53720751266E+03 -0.47198924168E+03 -0.88567589628E+03  0.14395223502E+04  0.88115665326E+03 0.  0.
         23    2    4    4    0    0  0.25065144295E+03  0.20876779879E+03 -0.49203349836E+03  0.59736549878E+03  0.91315036859E+02 0.  0.
         23    2    4    4    0    0  0.28655606971E+03 -0.68075704047E+03 -0.39364239792E+03  0.84215685143E+03  0.93430700195E+02 0.  0.
          2    1    3    3  502    0 -0.11198773551E+03  0.62630276698E+02  0.17879948096E+03  0.22007512094E+03  0.00000000000E+00 0. -1.
         -2    1    3    3    0  502 -0.42521977715E+03  0.40935896498E+03  0.61768813130E+03  0.85435662848E+03  0.00000000000E+00 0.  1.
         11    1    5    5    0    0  0.17971793538E+03  0.13579317625E+03 -0.40513644959E+03  0.46354489081E+03  0.00000000000E+00 0.  1.
        -11    1    5    5    0    0  0.70933507568E+02  0.72974622541E+02 -0.86897048776E+02  0.13382060797E+03  0.00000000000E+00 0. -1.
          4    1    6    6  503    0  0.54933281047E+02 -0.17217864872E+03 -0.13918492945E+03  0.22811312332E+03  0.00000000000E+00 0. -1.
         -4    1    6    6    0  503  0.23162278866E+03 -0.50857839174E+03 -0.25445746847E+03  0.61404372811E+03  0.00000000000E+00 0.  1.
<mgrwt>
<rscale>  0 0.25123715E+04</rscale>
<asrwt>0</asrwt>
<pdfrwt beam="1">  1        2 0.20024172E+00 0.25123715E+04</pdfrwt>
<pdfrwt beam="2">  1       -2 0.18652045E+00 0.25123715E+04</pdfrwt>
<totfact> 0.24049000E+00</totfact>
</mgrwt>
</event>
<event>
12    2  0.3552864E-008  0.2644682E+04  0.7818608E-02  0.8353180E-01
         -1   -1    0    0    0  501 -0.00000000000E+00  0.00000000000E+00  0.60086362391E+03  0.60086362391E+03  0.00000000000E+00 0.  1.
          1   -1    0    0  501    0  0.00000000000E+00 -0.00000000000E+00 -0.29101215560E+04  0.29101215560E+04  0.00000000000E+00 0. -1.
         23    2    1    2    0    0 -0.81159115697E+03  0.74831421279E+03 -0.52591538059E+03  0.12262202035E+04  0.91513019745E+02 0.  0.
        254    2    1    2    0    0  0.81159115697E+03 -0.74831421279E+03 -0.17833425515E+04  0.22847649765E+04  0.90619312201E+03 0.  0.
         23    2    4    4    0    0  0.12736244510E+03 -0.19170479285E+03 -0.11951615550E+04  0.12206557190E+04  0.92829530561E+02 0.  0.
         23    2    4    4    0    0  0.68422871187E+03 -0.55660941993E+03 -0.58818099651E+03  0.10641092574E+04  0.91589576850E+02 0.  0.
          1    1    3    3  502    0 -0.11099443472E+03  0.66085563522E+02 -0.48172476181E+02  0.13786824763E+03  0.00000000000E+00 0. -1.
         -1    1    3    3    0  502 -0.70059672225E+03  0.68222864927E+03 -0.47774290441E+03  0.10883519559E+04  0.00000000000E+00 0.  1.
         11    1    5    5    0    0  0.13275446332E+03 -0.15028450964E+03 -0.10723004442E+04  0.10908883646E+04  0.00000000000E+00 0.  1.
        -11    1    5    5    0    0 -0.53920182256E+01 -0.41420283214E+02 -0.12286111079E+03  0.12976735439E+03  0.00000000000E+00 0. -1.
          3    1    6    6  503    0  0.27532389884E+03 -0.25473629299E+03 -0.29626289146E+03  0.47798067858E+03  0.00000000000E+00 0. -1.
         -3    1    6    6    0  503  0.40890481303E+03 -0.30187312694E+03 -0.29191810505E+03  0.58612857885E+03  0.00000000000E+00 0.  1.
<mgrwt>
<rscale>  0 0.26446824E+04</rscale>
<asrwt>0</asrwt>
<pdfrwt beam="1">  1        1 0.44771102E+00 0.26446824E+04</pdfrwt>
<pdfrwt beam="2">  1       -1 0.92440555E-01 0.26446824E+04</pdfrwt>
<totfact> 0.69348672E-01</totfact>
</mgrwt>
</event>
<event>
12    2  0.3552864E-008  0.1200698E+04  0.7818608E-02  0.9112246E-01
         -2   -1    0    0    0  501 -0.00000000000E+00  0.00000000000E+00  0.42684728413E+03  0.42684728413E+03  0.00000000000E+00 0.  1.
          2   -1    0    0  501    0  0.00000000000E+00 -0.00000000000E+00 -0.84437466478E+03  0.84437466478E+03  0.00000000000E+00 0. -1.
         23    2    1    2    0    0  0.22256288765E+03  0.11952699460E+03 -0.94279912677E+02  0.28452696967E+03  0.90807230636E+02 0.  0.
        254    2    1    2    0    0 -0.22256288765E+03 -0.11952699460E+03 -0.32324746798E+03  0.98669497924E+03  0.89736119545E+03 0.  0.
         23    2    4    4    0    0 -0.40900902297E+03 -0.17963388114E+03 -0.52162694113E+03  0.69273253580E+03  0.90702747040E+02 0.  0.
         23    2    4    4    0    0  0.18644613532E+03  0.60106886540E+02  0.19837947315E+03  0.29396244344E+03  0.93190684087E+02 0.  0.
          4    1    3    3  502    0  0.20888062681E+03  0.12890627164E+03 -0.70217473931E+02  0.25530067914E+03  0.00000000000E+00 0. -1.
         -4    1    3    3    0  502  0.13682260849E+02 -0.93792770423E+01 -0.24062438747E+02  0.29226290531E+02  0.00000000000E+00 0.  1.
         11    1    5    5    0    0 -0.12313992145E+03 -0.16000369162E+02 -0.11316062693E+03  0.16800232008E+03  0.00000000000E+00 0.  1.
        -11    1    5    5    0    0 -0.28586910152E+03 -0.16363351198E+03 -0.40846631420E+03  0.52473021572E+03  0.00000000000E+00 0. -1.
          2    1    6    6  503    0  0.13711659608E+03  0.74546303567E+02  0.10735559975E+03  0.18942897639E+03  0.00000000000E+00 0. -1.
         -2    1    6    6    0  503  0.49329539233E+02 -0.14439417027E+02  0.91023873401E+02  0.10453346705E+03  0.00000000000E+00 0.  1.
<mgrwt>
<rscale>  0 0.12006982E+04</rscale>
<asrwt>0</asrwt>
<pdfrwt beam="1">  1        2 0.12990379E+00 0.12006982E+04</pdfrwt>
<pdfrwt beam="2">  1       -2 0.65668813E-01 0.12006982E+04</pdfrwt>
<totfact> 0.67510929E+01</totfact>
</mgrwt>
</event>
<event>
12    2  0.3552864E-008  0.2326314E+04  0.7818608E-02  0.8467618E-01
          1   -1    0    0  501    0  0.00000000000E+00  0.00000000000E+00  0.12448023469E+04  0.12448023469E+04  0.00000000000E+00 0. -1.
         -1   -1    0    0    0  501 -0.00000000000E+00 -0.00000000000E+00 -0.10868666307E+04  0.10868666307E+04  0.00000000000E+00 0.  1.
         23    2    1    2    0    0  0.76228188493E+03  0.10452531401E+02  0.69278245172E+03  0.10341807056E+04  0.91647579935E+02 0.  0.
        254    2    1    2    0    0 -0.76228188493E+03 -0.10452531401E+02 -0.53484673543E+03  0.12974882720E+04  0.90345550976E+03 0.  0.
         23    2    4    4    0    0 -0.40363002352E+03 -0.22380896368E+03  0.14638897658E+03  0.49328201445E+03  0.94285551373E+02 0.  0.
         23    2    4    4    0    0 -0.35865186140E+03  0.21335643228E+03 -0.68123571201E+03  0.80420625757E+03  0.92268545639E+02 0.  0.
          1    1    3    3  502    0  0.28942435230E+03  0.22403706564E+02  0.20989288749E+03  0.35822256489E+03  0.00000000000E+00 0. -1.
         -1    1    3    3    0  502  0.47285753262E+03 -0.11951175163E+02  0.48288956423E+03  0.67595814071E+03  0.00000000000E+00 0.  1.
         11    1    5    5    0    0 -0.45534520332E+02 -0.99355858445E+01 -0.10281258212E+02  0.47726435844E+02  0.00000000000E+00 0. -1.
        -11    1    5    5    0    0 -0.35809550319E+03 -0.21387337784E+03  0.15667023479E+03  0.44555557860E+03  0.00000000000E+00 0.  1.
          4    1    6    6  503    0 -0.46775224922E+02  0.25184266990E+02 -0.39123030200E+02  0.65975605055E+02  0.00000000000E+00 0. -1.
         -4    1    6    6    0  503 -0.31187663648E+03  0.18817216529E+03 -0.64211268181E+03  0.73823065251E+03  0.00000000000E+00 0.  1.
<mgrwt>
<rscale>  0 0.23263139E+04</rscale>
<asrwt>0</asrwt>
<pdfrwt beam="1">  1        1 0.19150805E+00 0.23263139E+04</pdfrwt>
<pdfrwt beam="2">  1       -1 0.16721025E+00 0.23263139E+04</pdfrwt>
<totfact> 0.23067187E+00</totfact>
</mgrwt>
</event>
<event>
12    2  0.3552864E-008  0.2796273E+04  0.7818608E-02  0.8304426E-01
         -2   -1    0    0    0  501 -0.00000000000E+00  0.00000000000E+00  0.85585187900E+03  0.85585187900E+03  0.00000000000E+00 0. -1.
          2   -1    0    0  501    0  0.00000000000E+00 -0.00000000000E+00 -0.22840237841E+04  0.22840237841E+04  0.00000000000E+00 0.  1.
         23    2    1    2    0    0  0.19590808019E+03 -0.38154039706E+03 -0.19867431931E+04  0.20345355715E+04  0.90738227808E+02 0.  0.
        254    2    1    2    0    0 -0.19590808019E+03  0.38154039706E+03  0.55857128801E+03  0.11053400916E+04  0.85195174967E+03 0.  0.
         23    2    4    4    0    0 -0.49621103003E+03  0.14425282551E+03  0.17341371125E+03  0.55265714035E+03  0.91232316282E+02 0.  0.
         23    2    4    4    0    0  0.30030294985E+03  0.23728757155E+03  0.38515757676E+03  0.55268295122E+03  0.10307682732E+03 0.  0.
          1    1    3    3  502    0  0.16070865862E+03 -0.35671296886E+03 -0.16909084443E+04  0.17355813960E+04  0.00000000000E+00 0.  1.
         -1    1    3    3    0  502  0.35199421564E+02 -0.24827428201E+02 -0.29583474873E+03  0.29895417546E+03  0.00000000000E+00 0. -1.
         11    1    5    5    0    0 -0.27685743161E+03  0.37916546212E+02  0.11365106414E+03  0.30166913381E+03  0.00000000000E+00 0. -1.
        -11    1    5    5    0    0 -0.21935359842E+03  0.10633627930E+03  0.59762647111E+02  0.25098800654E+03  0.00000000000E+00 0.  1.
          4    1    6    6  503    0  0.13875246481E+03  0.50867961979E+02  0.17100788420E+03  0.22601657573E+03  0.00000000000E+00 0.  1.
         -4    1    6    6    0  503  0.16155048504E+03  0.18641960958E+03  0.21414969256E+03  0.32666637549E+03  0.00000000000E+00 0. -1.
<mgrwt>
<rscale>  0 0.27962733E+04</rscale>
<asrwt>0</asrwt>
<pdfrwt beam="1">  1        2 0.35138827E+00 0.27962733E+04</pdfrwt>
<pdfrwt beam="2">  1       -2 0.13166952E+00 0.27962733E+04</pdfrwt>
<totfact> 0.16940118E+00</totfact>
</mgrwt>
</event>
<event>
12    2  0.3552864E-008  0.1558939E+04  0.7818608E-02  0.8846178E-01
         -2   -1    0    0    0  501 -0.00000000000E+00  0.00000000000E+00  0.86213221008E+03  0.86213221008E+03  0.00000000000E+00 0.  1.
          2   -1    0    0  501    0  0.00000000000E+00 -0.00000000000E+00 -0.70473244767E+03  0.70473244767E+03  0.00000000000E+00 0. -1.
         23    2    1    2    0    0 -0.92251250615E+02 -0.19229098428E+03  0.52341097097E+03  0.57265708425E+03  0.92146490614E+02 0.  0.
        254    2    1    2    0    0  0.92251250615E+02  0.19229098428E+03 -0.36601120857E+03  0.99420757350E+03  0.89944337150E+03 0.  0.
         23    2    4    4    0    0  0.20855845524E+03  0.10260713381E+03 -0.63051165191E+03  0.67798638385E+03  0.89976332022E+02 0.  0.
         23    2    4    4    0    0 -0.11630720463E+03  0.89683850469E+02  0.26450044334E+03  0.31622118965E+03  0.92004333454E+02 0.  0.
          1    1    3    3  502    0 -0.60422770214E+02 -0.10937650840E+03  0.18839145897E+03  0.22606519759E+03  0.00000000000E+00 0. -1.
         -1    1    3    3    0  502 -0.31828480401E+02 -0.82914475885E+02  0.33501951200E+03  0.34659188666E+03  0.00000000000E+00 0.  1.
         11    1    5    5    0    0  0.11684846515E+03  0.36294563515E+02 -0.21541830997E+03  0.24774161422E+03  0.00000000000E+00 0. -1.
        -11    1    5    5    0    0  0.91709990090E+02  0.66312570297E+02 -0.41509334194E+03  0.43024476962E+03  0.00000000000E+00 0.  1.
          2    1    6    6  503    0 -0.42417756519E+02  0.73109328594E+02  0.19859013088E+03  0.21582928457E+03  0.00000000000E+00 0.  1.
         -2    1    6    6    0  503 -0.73889448109E+02  0.16574521875E+02  0.65910312464E+02  0.10039190508E+03  0.00000000000E+00 0. -1.
<mgrwt>
<rscale>  0 0.15589388E+04</rscale>
<asrwt>0</asrwt>
<pdfrwt beam="1">  1        2 0.10842038E+00 0.15589388E+04</pdfrwt>
<pdfrwt beam="2">  1       -2 0.13263572E+00 0.15589388E+04</pdfrwt>
<totfact> 0.16122238E+01</totfact>
</mgrwt>
</event>
<event>
12    2  0.3552864E-008  0.2126496E+04  0.7818608E-02  0.8549661E-01
          2   -1    0    0  501    0  0.00000000000E+00  0.00000000000E+00  0.17438870657E+04  0.17438870657E+04  0.00000000000E+00 0. -1.
         -2   -1    0    0    0  501 -0.00000000000E+00 -0.00000000000E+00 -0.64826253038E+03  0.64826253038E+03  0.00000000000E+00 0.  1.
         23    2    1    2    0    0 -0.29406812316E+02  0.49072810133E+03  0.12511434585E+04  0.13472655122E+04  0.89919834011E+02 0.  0.
        254    2    1    2    0    0  0.29406812316E+02 -0.49072810133E+03 -0.15551892311E+03  0.10448840840E+04  0.90880018894E+03 0.  0.
         23    2    4    4    0    0 -0.36050124592E+03 -0.26828930541E+03  0.16232175808E+03  0.48730346721E+03  0.95791525213E+02 0.  0.
         23    2    4    4    0    0  0.38990805824E+03 -0.22243879591E+03 -0.31784068120E+03  0.55758061674E+03  0.91466571694E+02 0.  0.
          1    1    3    3  502    0  0.23082132567E+02  0.28719320674E+03  0.67216256563E+03  0.73131062995E+03  0.00000000000E+00 0. -1.
         -1    1    3    3    0  502 -0.52488944884E+02  0.20353489458E+03  0.57898089284E+03  0.61595488222E+03  0.00000000000E+00 0.  1.
         11    1    5    5    0    0 -0.16239843415E+03 -0.17167607871E+03  0.11055845151E+03  0.26090055312E+03  0.00000000000E+00 0. -1.
        -11    1    5    5    0    0 -0.19810281177E+03 -0.96613226696E+02  0.51763306579E+02  0.22640291410E+03  0.00000000000E+00 0.  1.
          4    1    6    6  503    0  0.71806975335E+02 -0.56016743244E+02 -0.10979367844E+03  0.14264911165E+03  0.00000000000E+00 0. -1.
         -4    1    6    6    0  503  0.31810108290E+03 -0.16642205267E+03 -0.20804700276E+03  0.41493150509E+03  0.00000000000E+00 0.  1.
<mgrwt>
<rscale>  0 0.21264963E+04</rscale>
<asrwt>0</asrwt>
<pdfrwt beam="1">  1        2 0.26829032E+00 0.21264963E+04</pdfrwt>
<pdfrwt beam="2">  1       -2 0.99732698E-01 0.21264963E+04</pdfrwt>
<totfact> 0.70868455E+00</totfact>
</mgrwt>
</event>
<event>
12    2  0.3552864E-008  0.1796401E+04  0.7818608E-02  0.8708216E-01
         -2   -1    0    0    0  501 -0.00000000000E+00  0.00000000000E+00  0.21704160100E+03  0.21704160100E+03  0.00000000000E+00 0. -1.
          2   -1    0    0  501    0  0.00000000000E+00 -0.00000000000E+00 -0.37170947519E+04  0.37170947519E+04  0.00000000000E+00 0.  1.
         23    2    1    2    0    0 -0.57215744752E+03 -0.27816977057E+03 -0.17600611301E+04  0.18737045942E+04  0.90615444771E+02 0.  0.
        254    2    1    2    0    0  0.57215744752E+03  0.27816977057E+03 -0.17399920208E+04  0.20604317586E+04  0.90170074502E+03 0.  0.
         23    2    4    4    0    0  0.60084047300E+03  0.39121646496E+03 -0.68845253818E+03  0.99834275342E+03  0.93068574336E+02 0.  0.
         23    2    4    4    0    0 -0.28683025475E+02 -0.11304669439E+03 -0.10515394826E+04  0.10620890052E+04  0.93249667353E+02 0.  0.
          2    1    3    3  502    0 -0.22296043594E+03 -0.13948329942E+03 -0.82790451928E+03  0.86867303392E+03  0.00000000000E+00 0. -1.
         -2    1    3    3    0  502 -0.34919701159E+03 -0.13868647115E+03 -0.93215661079E+03  0.10050315603E+04  0.00000000000E+00 0.  1.
         11    1    5    5    0    0  0.25353861307E+01 -0.48468266524E+01 -0.55248117859E+01  0.77745390024E+01  0.00000000000E+00 0. -1.
        -11    1    5    5    0    0  0.59830508687E+03  0.39606329161E+03 -0.68292772640E+03  0.99056821442E+03  0.00000000000E+00 0.  1.
          3    1    6    6  503    0 -0.18666468469E+02 -0.13768723795E+01 -0.37922353649E+02  0.42289924674E+02  0.00000000000E+00 0. -1.
         -3    1    6    6    0  503 -0.10016557005E+02 -0.11166982201E+03 -0.10136171289E+04  0.10197990805E+04  0.00000000000E+00 0.  1.
<mgrwt>
<rscale>  0 0.17964011E+04</rscale>
<asrwt>0</asrwt>
<pdfrwt beam="1">  1        2 0.57186066E+00 0.17964011E+04</pdfrwt>
<pdfrwt beam="2">  1       -2 0.33391020E-01 0.17964011E+04</pdfrwt>
<totfact> 0.45355858E+00</totfact>
</mgrwt>
</event>
<event>
12    2  0.3552864E-008  0.1648883E+04  0.7818608E-02  0.8791068E-01
          4   -1    0    0  501    0  0.00000000000E+00  0.00000000000E+00  0.48246576206E+03  0.48246576206E+03  0.00000000000E+00 0. -1.
         -4   -1    0    0    0  501 -0.00000000000E+00 -0.00000000000E+00 -0.14088123304E+04  0.14088123304E+04  0.00000000000E+00 0.  1.
         23    2    1    2    0    0 -0.31222821996E+03  0.22398167836E+03  0.60022449515E+02  0.40091695419E+03  0.97352227135E+02 0.  0.
        254    2    1    2    0    0  0.31222821996E+03 -0.22398167836E+03 -0.98636901785E+03  0.14903611383E+04  0.10490940041E+04 0.  0.
         23    2    4    4    0    0  0.43599480031E+03  0.25229828853E+03 -0.18218125427E+03  0.54315935325E+03  0.89923196781E+02 0.  0.
         23    2    4    4    0    0 -0.12376658036E+03 -0.47627996689E+03 -0.80418776357E+03  0.94720178500E+03  0.91172853194E+02 0.  0.
          4    1    3    3  502    0 -0.30287655669E+03  0.21221812291E+03  0.34672067458E+02  0.37144702522E+03  0.00000000000E+00 0. -1.
         -4    1    3    3    0  502 -0.93516632677E+01  0.11763555453E+02  0.25350382057E+02  0.29469928966E+02  0.00000000000E+00 0.  1.
         11    1    5    5    0    0  0.41872955164E+03  0.24296781435E+03 -0.19250365188E+03  0.52098507868E+03  0.00000000000E+00 0.  1.
        -11    1    5    5    0    0  0.17265248675E+02  0.93304741819E+01  0.10322397605E+02  0.22174274567E+02  0.00000000000E+00 0. -1.
          1    1    6    6  503    0 -0.87891538066E+02 -0.42676524741E+03 -0.73850770002E+03  0.85746552225E+03  0.00000000000E+00 0. -1.
         -1    1    6    6    0  503 -0.35875042290E+02 -0.49514719483E+02 -0.65680063556E+02  0.89736262757E+02  0.00000000000E+00 0.  1.
<mgrwt>
<rscale>  0 0.16488829E+04</rscale>
<asrwt>0</asrwt>
<pdfrwt beam="1">  1        4 0.74225502E-01 0.16488829E+04</pdfrwt>
<pdfrwt beam="2">  1       -4 0.21674036E+00 0.16488829E+04</pdfrwt>
<totfact> 0.32156931E-01</totfact>
</mgrwt>
</event>
<event>
12    2  0.3552864E-008  0.1896476E+04  0.7818608E-02  0.8656612E-01
          2   -1    0    0  501    0  0.00000000000E+00  0.00000000000E+00  0.27615320429E+04  0.27615320429E+04  0.00000000000E+00 0. -1.
         -2   -1    0    0    0  501 -0.00000000000E+00 -0.00000000000E+00 -0.32560027387E+03  0.32560027387E+03  0.00000000000E+00 0.  1.
         23    2    1    2    0    0  0.37062986925E+03  0.22973181327E+03 -0.73990225421E+01  0.44574599581E+03  0.92149559064E+02 0.  0.
        254    2    1    2    0    0 -0.37062986925E+03 -0.22973181327E+03  0.24433307915E+04  0.26413863209E+04  0.90383246980E+03 0.  0.
         23    2    4    4    0    0  0.16690011237E+03 -0.32837685953E+03  0.15012307482E+04  0.15483447449E+04  0.89390605948E+02 0.  0.
         23    2    4    4    0    0 -0.53752998162E+03  0.98645046264E+02  0.94210004332E+03  0.10930415760E+04  0.92293384836E+02 0.  0.
          1    1    3    3  502    0  0.10221122344E+03  0.11364784495E+03  0.63123336372E+01  0.15297977779E+03  0.00000000000E+00 0. -1.
         -1    1    3    3    0  502  0.26841864582E+03  0.11608396832E+03 -0.13711356179E+02  0.29276621801E+03  0.00000000000E+00 0.  1.
         11    1    5    5    0    0  0.95814982025E+02 -0.95934683003E+02  0.57175093269E+03  0.58760795026E+03  0.00000000000E+00 0. -1.
        -11    1    5    5    0    0  0.71085130347E+02 -0.23244217653E+03  0.92947981553E+03  0.96073679468E+03  0.00000000000E+00 0.  1.
          3    1    6    6  503    0 -0.55856407309E+02  0.27997687046E+02  0.66790362298E+02  0.91459068513E+02  0.00000000000E+00 0. -1.
         -3    1    6    6    0  503 -0.48167357431E+03  0.70647359218E+02  0.87530968103E+03  0.10015825075E+04  0.00000000000E+00 0.  1.
<mgrwt>
<rscale>  0 0.18964763E+04</rscale>
<asrwt>0</asrwt>
<pdfrwt beam="1">  1        2 0.42485107E+00 0.18964763E+04</pdfrwt>
<pdfrwt beam="2">  1       -2 0.50092352E-01 0.18964763E+04</pdfrwt>
<totfact> 0.86316021E+00</totfact>
</mgrwt>
</event>
<event>
12    2  0.3552864E-008  0.1109029E+04  0.7818608E-02  0.9196436E-01
          1   -1    0    0  501    0  0.00000000000E+00  0.00000000000E+00  0.95817435617E+03  0.95817435617E+03  0.00000000000E+00 0. -1.
         -1   -1    0    0    0  501 -0.00000000000E+00 -0.00000000000E+00 -0.32090840596E+03  0.32090840596E+03  0.00000000000E+00 0.  1.
         23    2    1    2    0    0  0.14547359301E+03  0.95500319131E+02  0.12707699780E+03  0.23276322304E+03  0.88018619690E+02 0.  0.
        254    2    1    2    0    0 -0.14547359301E+03 -0.95500319131E+02  0.51018895241E+03  0.10463195391E+04  0.89677696976E+03 0.  0.
         23    2    4    4    0    0  0.27258899403E+02  0.14677866061E+03  0.67290670730E+03  0.69528355610E+03  0.91262061381E+02 0.  0.
         23    2    4    4    0    0 -0.17273249241E+03 -0.24227897974E+03 -0.16271775488E+03  0.35103598299E+03  0.90628779326E+02 0.  0.
          1    1    3    3  502    0  0.11958270491E+03  0.97631705034E+02  0.13554738955E+03  0.20543872069E+03  0.00000000000E+00 0. -1.
         -1    1    3    3    0  502  0.25890888098E+02 -0.21313859027E+01 -0.84703917546E+01  0.27324502353E+02  0.00000000000E+00 0.  1.
         11    1    5    5    0    0  0.29937243131E+02  0.13770524202E+03  0.67099294137E+03  0.68563146047E+03  0.00000000000E+00 0. -1.
        -11    1    5    5    0    0 -0.26783437282E+01  0.90734185915E+01  0.19137659208E+01  0.96520956306E+01  0.00000000000E+00 0.  1.
          4    1    6    6  503    0 -0.70188582307E+02 -0.11898081879E+03 -0.12498258230E+03  0.18628880322E+03  0.00000000000E+00 0. -1.
         -4    1    6    6    0  503 -0.10254391011E+03 -0.12329816095E+03 -0.37735172583E+02  0.16474717978E+03  0.00000000000E+00 0.  1.
<mgrwt>
<rscale>  0 0.11090288E+04</rscale>
<asrwt>0</asrwt>
<pdfrwt beam="1">  1        1 0.14741144E+00 0.11090288E+04</pdfrwt>
<pdfrwt beam="2">  1       -1 0.49370525E-01 0.11090288E+04</pdfrwt>
<totfact> 0.66836224E+01</totfact>
</mgrwt>
</event>
<event>
12    2  0.3552864E-008  0.1989458E+04  0.7818608E-02  0.8611565E-01
          2   -1    0    0  501    0  0.00000000000E+00  0.00000000000E+00  0.18294622450E+04  0.18294622450E+04  0.00000000000E+00 0. -1.
         -2   -1    0    0    0  501 -0.00000000000E+00 -0.00000000000E+00 -0.54086180063E+03  0.54086180063E+03  0.00000000000E+00 0.  1.
         23    2    1    2    0    0 -0.40014902812E+03 -0.14630481044E+03  0.13048403329E+04  0.13758339344E+04  0.93735684242E+02 0.  0.
        254    2    1    2    0    0  0.40014902812E+03  0.14630481044E+03 -0.16239888570E+02  0.99449011116E+03  0.89845562213E+03 0.  0.
         23    2    4    4    0    0  0.21195274842E+03 -0.36367543053E+03 -0.80561764903E+02  0.43865709051E+03  0.93520365497E+02 0.  0.
         23    2    4    4    0    0  0.18819627970E+03  0.50998024097E+03  0.64321876333E+02  0.55583302064E+03  0.96516098093E+02 0.  0.
          3    1    3    3  502    0 -0.25139765138E+03 -0.13138622867E+03  0.92939462353E+03  0.97171883096E+03  0.00000000000E+00 0. -1.
         -3    1    3    3    0  502 -0.14875137674E+03 -0.14918581768E+02  0.37544570938E+03  0.40411510347E+03  0.00000000000E+00 0.  1.
         11    1    5    5    0    0  0.18591999640E+03 -0.23599291657E+03 -0.46897462096E+02  0.30406952113E+03  0.00000000000E+00 0. -1.
        -11    1    5    5    0    0  0.26032752024E+02 -0.12768251396E+03 -0.33664302807E+02  0.13458756938E+03  0.00000000000E+00 0.  1.
          4    1    6    6  503    0  0.33099399912E+02  0.21551959970E+03  0.72604130435E+01  0.21816732507E+03  0.00000000000E+00 0. -1.
         -4    1    6    6    0  503  0.15509687979E+03  0.29446064127E+03  0.57061463289E+02  0.33766569558E+03  0.00000000000E+00 0.  1.
<mgrwt>
<rscale>  0 0.19894585E+04</rscale>
<asrwt>0</asrwt>
<pdfrwt beam="1">  1        2 0.28145573E+00 0.19894585E+04</pdfrwt>
<pdfrwt beam="2">  1       -2 0.83209509E-01 0.19894585E+04</pdfrwt>
<totfact> 0.97714439E+00</totfact>
</mgrwt>
</event>
<event>
12    2  0.3552864E-008  0.1658943E+04  0.7818608E-02  0.8785133E-01
          2   -1    0    0  501    0  0.00000000000E+00  0.00000000000E+00  0.88377535514E+03  0.88377535514E+03  0.00000000000E+00 0. -1.
         -2   -1    0    0    0  501 -0.00000000000E+00 -0.00000000000E+00 -0.77850471606E+03  0.77850471606E+03  0.00000000000E+00 0.  1.
         23    2    1    2    0    0 -0.16714287796E+03  0.53428595337E+03  0.19100414117E+03  0.59752901333E+03  0.84617481671E+02 0.  0.
        254    2    1    2    0    0  0.16714287796E+03 -0.53428595337E+03 -0.85733502089E+02  0.10647510579E+04  0.90163538098E+03 0.  0.
         23    2    4    4    0    0  0.47241937233E+03 -0.31355541455E+03  0.17203316121E+03  0.59908647046E+03  0.88386249972E+02 0.  0.
         23    2    4    4    0    0 -0.30527649437E+03 -0.22073053882E+03 -0.25776666330E+03  0.46566458741E+03  0.92109426640E+02 0.  0.
          3    1    3    3  502    0 -0.17586748568E+03  0.49005998835E+03  0.18204390812E+03  0.55156880730E+03  0.00000000000E+00 0.  1.
         -3    1    3    3    0  502  0.87246077243E+01  0.44225965020E+02  0.89602330480E+01  0.45960206028E+02  0.00000000000E+00 0. -1.
         11    1    5    5    0    0  0.23487154129E+03 -0.13020898086E+03  0.12162245632E+03  0.29480678671E+03  0.00000000000E+00 0.  1.
        -11    1    5    5    0    0  0.23754783104E+03 -0.18334643369E+03  0.50410704890E+02  0.30427968376E+03  0.00000000000E+00 0. -1.
          1    1    6    6  503    0 -0.78834104963E+02 -0.26745122532E+02 -0.23584314849E+02  0.86523624470E+02  0.00000000000E+00 0. -1.
         -1    1    6    6    0  503 -0.22644238941E+03 -0.19398541629E+03 -0.23418234845E+03  0.37914096294E+03  0.00000000000E+00 0.  1.
<mgrwt>
<rscale>  0 0.16589434E+04</rscale>
<asrwt>0</asrwt>
<pdfrwt beam="1">  1        2 0.13596544E+00 0.16589434E+04</pdfrwt>
<pdfrwt beam="2">  1       -2 0.11976996E+00 0.16589434E+04</pdfrwt>
<totfact> 0.15318679E+01</totfact>
</mgrwt>
</event>
<event>
12    2  0.3552864E-008  0.1192034E+04  0.7818608E-02  0.9119858E-01
         -2   -1    0    0    0  501 -0.00000000000E+00  0.00000000000E+00  0.25039570360E+03  0.25039570360E+03  0.00000000000E+00 0.  1.
          2   -1    0    0  501    0  0.00000000000E+00 -0.00000000000E+00 -0.14186997337E+04  0.14186997337E+04  0.00000000000E+00 0. -1.
         23    2    1    2    0    0 -0.20524729985E+02 -0.21791695858E+03 -0.42116952629E+03  0.48316969159E+03  0.90333358248E+02 0.  0.
        254    2    1    2    0    0  0.20524729985E+02  0.21791695858E+03 -0.74713450385E+03  0.11859257458E+04  0.89459535112E+03 0.  0.
         23    2    4    4    0    0  0.37070984011E+03  0.29562827330E+03 -0.19476467220E+03  0.52103359768E+03  0.93385602949E+02 0.  0.
         23    2    4    4    0    0 -0.35018511013E+03 -0.77711314717E+02 -0.55236983165E+03  0.66489214809E+03  0.91106958422E+02 0.  0.
          3    1    3    3  502    0 -0.47936409082E+01 -0.20797017954E+03 -0.32981954215E+03  0.38994295090E+03  0.00000000000E+00 0. -1.
         -3    1    3    3    0  502 -0.15731089077E+02 -0.99467790436E+01 -0.91349984138E+02  0.93226740686E+02  0.00000000000E+00 0.  1.
         11    1    5    5    0    0  0.34994969377E+03  0.26064367635E+03 -0.15213753174E+03  0.46211009809E+03  0.00000000000E+00 0.  1.
        -11    1    5    5    0    0  0.20760146342E+02  0.34984596949E+02 -0.42627140455E+02  0.58923499584E+02  0.00000000000E+00 0. -1.
          2    1    6    6  503    0 -0.68687418191E+02  0.49471541788E+01 -0.16631740700E+03  0.18001087640E+03  0.00000000000E+00 0. -1.
         -2    1    6    6    0  503 -0.28149769194E+03 -0.82658468896E+02 -0.38605242465E+03  0.48488127168E+03  0.00000000000E+00 0.  1.
<mgrwt>
<rscale>  0 0.11920341E+04</rscale>
<asrwt>0</asrwt>
<pdfrwt beam="1">  1        2 0.21826150E+00 0.11920341E+04</pdfrwt>
<pdfrwt beam="2">  1       -2 0.38522416E-01 0.11920341E+04</pdfrwt>
<totfact> 0.88670653E+01</totfact>
</mgrwt>
</event>
<event>
12    2  0.3552864E-008  0.2614428E+04  0.7818608E-02  0.8363317E-01
          1   -1    0    0  501    0  0.00000000000E+00  0.00000000000E+00  0.32137959000E+04  0.32137959000E+04  0.00000000000E+00 0. -1.
         -1   -1    0    0    0  501 -0.00000000000E+00 -0.00000000000E+00 -0.53171043456E+03  0.53171043456E+03  0.00000000000E+00 0.  1.
         23    2    1    2    0    0  0.25495278808E+03 -0.56223703515E+02  0.28236896550E+04  0.28371998586E+04  0.91201650348E+02 0.  0.
        254    2    1    2    0    0 -0.25495278808E+03  0.56223703515E+02 -0.14160418956E+03  0.90830647594E+03  0.85837455621E+03 0.  0.
         23    2    4    4    0    0 -0.22719511426E+03 -0.72986200304E+01  0.33672774935E+03  0.41610863139E+03  0.89944016672E+02 0.  0.
         23    2    4    4    0    0 -0.27757673821E+02  0.63522323545E+02 -0.47833193891E+03  0.49219784455E+03  0.93014516878E+02 0.  0.
          1    1    3    3  502    0  0.23665578705E+03 -0.76934084686E+02  0.25597333837E+04  0.25718008886E+04  0.00000000000E+00 0. -1.
         -1    1    3    3    0  502  0.18297001032E+02  0.20710381172E+02  0.26395627127E+03  0.26539897000E+03  0.00000000000E+00 0.  1.
         11    1    5    5    0    0 -0.22580662825E+03  0.53596311861E+01  0.33380664520E+03  0.40304371399E+03  0.00000000000E+00 0. -1.
        -11    1    5    5    0    0 -0.13884860126E+01 -0.12658251217E+02  0.29211041567E+01  0.13064917404E+02  0.00000000000E+00 0.  1.
          3    1    6    6  503    0  0.30782324121E+01  0.23813852552E+02 -0.38860239434E+03  0.38934354492E+03  0.00000000000E+00 0. -1.
         -3    1    6    6    0  503 -0.30835906233E+02  0.39708470993E+02 -0.89729544572E+02  0.10285429962E+03  0.00000000000E+00 0.  1.
<mgrwt>
<rscale>  0 0.26144283E+04</rscale>
<asrwt>0</asrwt>
<pdfrwt beam="1">  1        1 0.49443012E+00 0.26144283E+04</pdfrwt>
<pdfrwt beam="2">  1       -1 0.81801608E-01 0.26144283E+04</pdfrwt>
<totfact> 0.54295726E-01</totfact>
</mgrwt>
</event>
<event>
12    2  0.3552864E-008  0.1745144E+04  0.7818608E-02  0.8736028E-01
          1   -1    0    0  501    0  0.00000000000E+00  0.00000000000E+00  0.79430050795E+03  0.79430050795E+03  0.00000000000E+00 0. -1.
         -1   -1    0    0    0  501 -0.00000000000E+00 -0.00000000000E+00 -0.95855610119E+03  0.95855610119E+03  0.00000000000E+00 0.  1.
         23    2    1    2    0    0  0.14181408498E+03 -0.40885993391E+03  0.40567674298E+03  0.60004662830E+03  0.90579556600E+02 0.  0.
        254    2    1    2    0    0 -0.14181408498E+03  0.40885993391E+03 -0.56993233622E+03  0.11528099808E+04  0.90380877612E+03 0.  0.
         23    2    4    4    0    0 -0.28551270125E+03  0.25136297046E+03  0.13256760615E+03  0.41329191351E+03  0.92386092486E+02 0.  0.
         23    2    4    4    0    0  0.14369861627E+03  0.15749696345E+03 -0.70249994237E+03  0.73951806732E+03  0.89029304487E+02 0.  0.
          1    1    3    3  502    0  0.13800443201E+03 -0.38953860288E+03  0.35193758596E+03  0.54281268482E+03  0.00000000000E+00 0. -1.
         -1    1    3    3    0  502  0.38096529733E+01 -0.19321331033E+02  0.53739157021E+02  0.57233943478E+02  0.00000000000E+00 0.  1.
         11    1    5    5    0    0 -0.24343792842E+03  0.21241444732E+03  0.74237187156E+02  0.33150125547E+03  0.00000000000E+00 0. -1.
        -11    1    5    5    0    0 -0.42074772829E+02  0.38948523140E+02  0.58330418989E+02  0.81790658042E+02  0.00000000000E+00 0.  1.
          1    1    6    6  503    0  0.37565263117E+02 -0.38047662853E+01 -0.12665399441E+03  0.13216224703E+03  0.00000000000E+00 0. -1.
         -1    1    6    6    0  503  0.10613335315E+03  0.16130172974E+03 -0.57584594796E+03  0.60735582030E+03  0.00000000000E+00 0.  1.
<mgrwt>
<rscale>  0 0.17451437E+04</rscale>
<asrwt>0</asrwt>
<pdfrwt beam="1">  1        1 0.12220008E+00 0.17451437E+04</pdfrwt>
<pdfrwt beam="2">  1       -1 0.14747017E+00 0.17451437E+04</pdfrwt>
<totfact> 0.77444477E+00</totfact>
</mgrwt>
</event>
<event>
12    2  0.3552864E-008  0.1464472E+04  0.7818608E-02  0.8908428E-01
          3   -1    0    0  501    0  0.00000000000E+00  0.00000000000E+00  0.13014726547E+04  0.13014726547E+04  0.00000000000E+00 0. -1.
         -3   -1    0    0    0  501 -0.00000000000E+00 -0.00000000000E+00 -0.41197145987E+03  0.41197145987E+03  0.00000000000E+00 0.  1.
         23    2    1    2    0    0  0.92608585856E+02  0.10439389807E+03  0.78603323483E+03  0.80350611161E+03  0.91100982466E+02 0.  0.
        254    2    1    2    0    0 -0.92608585856E+02 -0.10439389807E+03  0.10346795996E+03  0.90993800292E+03  0.89320048941E+03 0.  0.
         23    2    4    4    0    0 -0.21531091579E+03 -0.59700543577E+02 -0.35241731710E+03  0.42796410752E+03  0.95038763516E+02 0.  0.
         23    2    4    4    0    0  0.12270232993E+03 -0.44693354493E+02  0.45588527706E+03  0.48197389540E+03  0.86105123540E+02 0.  0.
          2    1    3    3  502    0  0.48645207849E+02  0.92060227028E+02  0.68187732158E+03  0.68978121411E+03  0.00000000000E+00 0. -1.
         -2    1    3    3    0  502  0.43963378007E+02  0.12333671042E+02  0.10415591325E+03  0.11372489750E+03  0.00000000000E+00 0.  1.
         11    1    5    5    0    0 -0.19096800708E+03 -0.43460595297E+02 -0.34663206208E+03  0.39813488862E+03  0.00000000000E+00 0. -1.
        -11    1    5    5    0    0 -0.24342908715E+02 -0.16239948279E+02 -0.57852550201E+01  0.29829218905E+02  0.00000000000E+00 0.  1.
          3    1    6    6  503    0  0.10861910887E+03 -0.66897656926E+02  0.34001837598E+03  0.36316098816E+03  0.00000000000E+00 0. -1.
         -3    1    6    6    0  503  0.14083221064E+02  0.22204302433E+02  0.11586690107E+03  0.11881290724E+03  0.00000000000E+00 0.  1.
<mgrwt>
<rscale>  0 0.14644720E+04</rscale>
<asrwt>0</asrwt>
<pdfrwt beam="1">  1        3 0.20022656E+00 0.14644720E+04</pdfrwt>
<pdfrwt beam="2">  1       -3 0.63380225E-01 0.14644720E+04</pdfrwt>
<totfact> 0.90094776E-01</totfact>
</mgrwt>
</event>
<event>
12    2  0.3552864E-008  0.1826061E+04  0.7818608E-02  0.8692562E-01
         -2   -1    0    0    0  501 -0.00000000000E+00  0.00000000000E+00  0.11601129648E+04  0.11601129648E+04  0.00000000000E+00 0.  1.
          2   -1    0    0  501    0  0.00000000000E+00 -0.00000000000E+00 -0.71857170269E+03  0.71857170269E+03  0.00000000000E+00 0. -1.
         23    2    1    2    0    0  0.19850464833E+03 -0.15451113563E+03 -0.48471428857E+03  0.55385015188E+03  0.92326934050E+02 0.  0.
        254    2    1    2    0    0 -0.19850464833E+03  0.15451113563E+03  0.92625555064E+03  0.13248345156E+04  0.91321375490E+03 0.  0.
         23    2    4    4    0    0 -0.91643393191E+02  0.15455978695E+03  0.10901765038E+04  0.11090274303E+04  0.95759033494E+02 0.  0.
         23    2    4    4    0    0 -0.10686125514E+03 -0.48651323216E-01 -0.16392095311E+03  0.21580708531E+03  0.91012575956E+02 0.  0.
          3    1    3    3  502    0  0.17727329168E+03 -0.98591457447E+02 -0.32282086456E+03  0.38126028644E+03  0.00000000000E+00 0. -1.
         -3    1    3    3    0  502  0.21231356651E+02 -0.55919678184E+02 -0.16189342401E+03  0.17258986543E+03  0.00000000000E+00 0.  1.
         11    1    5    5    0    0 -0.90895709161E+02  0.63413293447E+02  0.52764573059E+03  0.53915980260E+03  0.00000000000E+00 0.  1.
        -11    1    5    5    0    0 -0.74768402921E+00  0.91146493507E+02  0.56253077316E+03  0.56986762767E+03  0.00000000000E+00 0. -1.
          4    1    6    6  503    0 -0.11256945311E+03  0.34034463834E+01 -0.17183755391E+03  0.20545464257E+03  0.00000000000E+00 0. -1.
         -4    1    6    6    0  503  0.57081979655E+01 -0.34520977066E+01  0.79166007926E+01  0.10352442741E+02  0.00000000000E+00 0.  1.
<mgrwt>
<rscale>  0 0.18260606E+04</rscale>
<asrwt>0</asrwt>
<pdfrwt beam="1">  1        2 0.11054949E+00 0.18260606E+04</pdfrwt>
<pdfrwt beam="2">  1       -2 0.17847892E+00 0.18260606E+04</pdfrwt>
<totfact> 0.69313968E+00</totfact>
</mgrwt>
</event>
<event>
12    2  0.3552864E-008  0.1363741E+04  0.7818608E-02  0.8980491E-01
         -1   -1    0    0    0  501 -0.00000000000E+00  0.00000000000E+00  0.13192505282E+04  0.13192505282E+04  0.00000000000E+00 0.  1.
          1   -1    0    0  501    0  0.00000000000E+00 -0.00000000000E+00 -0.35243283572E+03  0.35243283572E+03  0.00000000000E+00 0. -1.
         23    2    1    2    0    0  0.30022750362E+03 -0.17180093508E+03  0.75901400656E+02  0.36621209735E+03  0.93263939440E+02 0.  0.
        254    2    1    2    0    0 -0.30022750362E+03  0.17180093508E+03  0.89091629186E+03  0.13054712666E+04  0.88930943635E+03 0.  0.
         23    2    4    4    0    0  0.11021345753E+03  0.40960396653E+03  0.59972298451E+03  0.74033072137E+03  0.92192750408E+02 0.  0.
         23    2    4    4    0    0 -0.41044096115E+03 -0.23780303146E+03  0.29119330734E+03  0.56514054523E+03  0.97868428297E+02 0.  0.
          2    1    3    3  502    0  0.26463951824E+03 -0.18041227958E+03  0.77620700268E+02  0.32955673009E+03  0.00000000000E+00 0. -1.
         -2    1    3    3    0  502  0.35587985377E+02  0.86113445067E+01 -0.17192996119E+01  0.36655367255E+02  0.00000000000E+00 0.  1.
         11    1    5    5    0    0 -0.16110401213E+02  0.36684941226E+02  0.63347854875E+02  0.74955190996E+02  0.00000000000E+00 0.  1.
        -11    1    5    5    0    0  0.12632385874E+03  0.37291902531E+03  0.53637512964E+03  0.66537553037E+03  0.00000000000E+00 0. -1.
          1    1    6    6  503    0 -0.36958322362E+03 -0.23879952687E+03  0.24564001787E+03  0.50394046434E+03  0.00000000000E+00 0. -1.
         -1    1    6    6    0  503 -0.40857737530E+02  0.99649541520E+00  0.45553289473E+02  0.61200080891E+02  0.00000000000E+00 0.  1.
<mgrwt>
<rscale>  0 0.13637407E+04</rscale>
<asrwt>0</asrwt>
<pdfrwt beam="1">  1        1 0.54220437E-01 0.13637407E+04</pdfrwt>
<pdfrwt beam="2">  1       -1 0.20296162E+00 0.13637407E+04</pdfrwt>
<totfact> 0.99647035E+00</totfact>
</mgrwt>
</event>
<event>
12    2  0.3552864E-008  0.4602017E+04  0.7818608E-02  0.7893016E-01
         -1   -1    0    0    0  501 -0.00000000000E+00  0.00000000000E+00  0.16541240918E+04  0.16541240918E+04  0.00000000000E+00 0.  1.
          1   -1    0    0  501    0  0.00000000000E+00 -0.00000000000E+00 -0.32008718215E+04  0.32008718215E+04  0.00000000000E+00 0. -1.
         23    2    1    2    0    0 -0.12710320310E+04 -0.42424147446E+03 -0.26008609632E+04  0.29271811344E+04  0.91697279904E+02 0.  0.
        254    2    1    2    0    0  0.12710320310E+04  0.42424147446E+03  0.10541132335E+04  0.19278147788E+04  0.89989547174E+03 0.  0.
         23    2    4    4    0    0  0.10249689237E+04  0.49427990629E+03  0.38292515572E+03  0.12042007407E+04  0.92702905654E+02 0.  0.
         23    2    4    4    0    0  0.24606310724E+03 -0.70038431837E+02  0.67118807779E+03  0.72361403812E+03  0.87586561260E+02 0.  0.
          2    1    3    3  502    0 -0.31069004166E+01 -0.59324187433E+01 -0.60694415663E+01  0.90379501698E+01  0.00000000000E+00 0.  1.
         -2    1    3    3    0  502 -0.12679251305E+04 -0.41830905571E+03 -0.25947915217E+04  0.29181431842E+04  0.00000000000E+00 0. -1.
         11    1    5    5    0    0  0.85743605776E+03  0.39580507772E+03  0.34970307577E+03  0.10070503929E+04  0.00000000000E+00 0.  1.
        -11    1    5    5    0    0  0.16753286595E+03  0.98474828577E+02  0.33222079959E+02  0.19715034779E+03  0.00000000000E+00 0. -1.
          1    1    6    6  503    0  0.19175619675E+02  0.33351553355E+01  0.12600622370E+02  0.23186274715E+02  0.00000000000E+00 0. -1.
         -1    1    6    6    0  503  0.22688748756E+03 -0.73373587172E+02  0.65858745542E+03  0.70042776340E+03  0.00000000000E+00 0.  1.
<mgrwt>
<rscale>  0 0.46020166E+04</rscale>
<asrwt>0</asrwt>
<pdfrwt beam="1">  1        1 0.49244181E+00 0.46020166E+04</pdfrwt>
<pdfrwt beam="2">  1       -1 0.25448063E+00 0.46020166E+04</pdfrwt>
<totfact> 0.20604726E-02</totfact>
</mgrwt>
</event>
<event>
12    2  0.3552864E-008  0.1590953E+04  0.7818608E-02  0.8826125E-01
          2   -1    0    0  501    0  0.00000000000E+00  0.00000000000E+00  0.76041091678E+03  0.76041091678E+03  0.00000000000E+00 0. -1.
         -2   -1    0    0    0  501 -0.00000000000E+00 -0.00000000000E+00 -0.83215884669E+03  0.83215884669E+03  0.00000000000E+00 0.  1.
         23    2    1    2    0    0 -0.53182283055E+02  0.33817154055E+03 -0.43800065627E+03  0.56048060468E+03  0.71453392199E+02 0.  0.
        254    2    1    2    0    0  0.53182283055E+02 -0.33817154055E+03  0.36625272636E+03  0.10320891588E+04  0.90215221890E+03 0.  0.
         23    2    4    4    0    0 -0.34780829593E+03 -0.26956096816E+03 -0.38326815972E+02  0.45127231962E+03  0.92433951320E+02 0.  0.
         23    2    4    4    0    0  0.40099057899E+03 -0.68610572386E+02  0.40457954233E+03  0.58081683918E+03  0.90347880532E+02 0.  0.
          3    1    3    3  502    0  0.66481453843E+01  0.10194998896E+03 -0.93393453857E+02  0.13842086298E+03  0.00000000000E+00 0. -1.
         -3    1    3    3    0  502 -0.59830428440E+02  0.23622155159E+03 -0.34460720242E+03  0.42205974170E+03  0.00000000000E+00 0.  1.
         11    1    5    5    0    0 -0.25020151475E+03 -0.21314019388E+03  0.94787956376E+01  0.32881512708E+03  0.00000000000E+00 0. -1.
        -11    1    5    5    0    0 -0.97606781182E+02 -0.56420774288E+02 -0.47805611610E+02  0.12245719254E+03  0.00000000000E+00 0.  1.
          2    1    6    6  503    0  0.47572960601E+02  0.19863538805E+02  0.38504263203E+02  0.64345357556E+02  0.00000000000E+00 0. -1.
         -2    1    6    6    0  503  0.35341761839E+03 -0.88474111191E+02  0.36607527913E+03  0.51647148162E+03  0.00000000000E+00 0.  1.
<mgrwt>
<rscale>  0 0.15909528E+04</rscale>
<asrwt>0</asrwt>
<pdfrwt beam="1">  1        2 0.11698630E+00 0.15909528E+04</pdfrwt>
<pdfrwt beam="2">  1       -2 0.12802444E+00 0.15909528E+04</pdfrwt>
<totfact> 0.15953212E+01</totfact>
</mgrwt>
</event>
<event>
12    2  0.3552864E-008  0.2740690E+04  0.7818608E-02  0.8321922E-01
          1   -1    0    0  501    0  0.00000000000E+00  0.00000000000E+00  0.17857971348E+04  0.17857971348E+04  0.00000000000E+00 0. -1.
         -1   -1    0    0    0  501 -0.00000000000E+00 -0.00000000000E+00 -0.10515447883E+04  0.10515447883E+04  0.00000000000E+00 0.  1.
         23    2    1    2    0    0  0.52812139618E+03 -0.80373439061E+03 -0.39971324082E+03  0.10458032332E+04  0.95039718160E+02 0.  0.
        254    2    1    2    0    0 -0.52812139618E+03  0.80373439061E+03  0.11339655873E+04  0.17915386899E+04  0.99941570154E+03 0.  0.
         23    2    4    4    0    0 -0.47009247562E+02  0.84512481476E+03  0.49304132245E+03  0.98400452602E+03  0.93430935535E+02 0.  0.
         23    2    4    4    0    0 -0.48111214862E+03 -0.41390424153E+02  0.64092426488E+03  0.80753416390E+03  0.90252123454E+02 0.  0.
          1    1    3    3  502    0  0.23351076508E+03 -0.37810810940E+03 -0.23424291459E+03  0.50235720642E+03  0.00000000000E+00 0. -1.
         -1    1    3    3    0  502  0.29461063110E+03 -0.42562628120E+03 -0.16547032623E+03  0.54344602683E+03  0.00000000000E+00 0.  1.
         11    1    5    5    0    0 -0.45665781058E+02  0.32715611111E+03  0.15036765361E+03  0.36294202821E+03  0.00000000000E+00 0.  1.
        -11    1    5    5    0    0 -0.13434665041E+01  0.51796870365E+03  0.34267366885E+03  0.62106249781E+03  0.00000000000E+00 0. -1.
          2    1    6    6  503    0 -0.36328824770E+03 -0.44117019332E+02  0.41944350827E+03  0.55664846981E+03  0.00000000000E+00 0. -1.
         -2    1    6    6    0  503 -0.11782390092E+03  0.27265951791E+01  0.22148075661E+03  0.25088569409E+03  0.00000000000E+00 0.  1.
<mgrwt>
<rscale>  0 0.27406902E+04</rscale>
<asrwt>0</asrwt>
<pdfrwt beam="1">  1        1 0.27473802E+00 0.27406902E+04</pdfrwt>
<pdfrwt beam="2">  1       -1 0.16177612E+00 0.27406902E+04</pdfrwt>
<totfact> 0.10270012E+00</totfact>
</mgrwt>
</event>
<event>
12    2  0.3552864E-008  0.1943433E+04  0.7818608E-02  0.8633534E-01
          1   -1    0    0  501    0  0.00000000000E+00  0.00000000000E+00  0.19902039281E+04  0.19902039281E+04  0.00000000000E+00 0. -1.
         -1   -1    0    0    0  501 -0.00000000000E+00 -0.00000000000E+00 -0.47444006388E+03  0.47444006388E+03  0.00000000000E+00 0.  1.
         23    2    1    2    0    0 -0.30052330859E+03 -0.19396924849E+03 -0.25308602685E+03  0.44770323592E+03  0.91909314530E+02 0.  0.
        254    2    1    2    0    0  0.30052330859E+03  0.19396924849E+03  0.17688498911E+04  0.20169407561E+04  0.90071180073E+03 0.  0.
         23    2    4    4    0    0  0.38323985250E+03  0.48731512411E+03  0.94576494409E+03  0.11345341454E+04  0.91365108096E+02 0.  0.
         23    2    4    4    0    0 -0.82716543913E+02 -0.29334587562E+03  0.82308494699E+03  0.88240661063E+03  0.90987730719E+02 0.  0.
          1    1    3    3  502    0 -0.82195602170E+02 -0.26848518404E+02 -0.10291150750E+03  0.13441628746E+03  0.00000000000E+00 0. -1.
         -1    1    3    3    0  502 -0.21832770642E+03 -0.16712073009E+03 -0.15017451935E+03  0.31328694846E+03  0.00000000000E+00 0.  1.
         11    1    5    5    0    0  0.26664890758E+03  0.28935815640E+03  0.53855067541E+03  0.66698321761E+03  0.00000000000E+00 0. -1.
        -11    1    5    5    0    0  0.11659094493E+03  0.19795696771E+03  0.40721426868E+03  0.46755092784E+03  0.00000000000E+00 0.  1.
          1    1    6    6  503    0 -0.88806995535E+02 -0.28644063784E+03  0.73477261075E+03  0.79361559396E+03  0.00000000000E+00 0. -1.
         -1    1    6    6    0  503  0.60904516219E+01 -0.69052377793E+01  0.88312336237E+02  0.88791016671E+02  0.00000000000E+00 0.  1.
<mgrwt>
<rscale>  0 0.19434325E+04</rscale>
<asrwt>0</asrwt>
<pdfrwt beam="1">  1        1 0.30618522E+00 0.19434325E+04</pdfrwt>
<pdfrwt beam="2">  1       -1 0.72990780E-01 0.19434325E+04</pdfrwt>
<totfact> 0.53370607E+00</totfact>
</mgrwt>
</event>
<event>
12    2  0.3697256E-008  0.1891410E+04  0.7818608E-02  0.8659144E-01
          2   -1    0    0  501    0  0.00000000000E+00  0.00000000000E+00  0.16916845524E+04  0.16916845524E+04  0.00000000000E+00 0. -1.
         -2   -1    0    0    0  501 -0.00000000000E+00 -0.00000000000E+00 -0.52867916086E+03  0.52867916086E+03  0.00000000000E+00 0.  1.
         23    2    1    2    0    0 -0.17495123639E+03  0.66849113819E+03  0.21819083666E+03  0.72960191980E+03  0.84990488950E+02 0.  0.
        254    2    1    2    0    0  0.17495123639E+03 -0.66849113819E+03  0.94481455486E+03  0.14907617935E+04  0.92315104115E+03 0.  0.
         23    2    4    4    0    0 -0.32938268537E+03 -0.26484665530E+03  0.63644941354E+03  0.76948215010E+03  0.91641797730E+02 0.  0.
         23    2    4    4    0    0  0.50433392176E+03 -0.40364448290E+03  0.30836514133E+03  0.72127964335E+03  0.88733817192E+02 0.  0.
          1    1    3    3  502    0  0.95338371711E+01  0.23926920079E+02  0.73342551230E+01  0.26780269862E+02  0.00000000000E+00 0.  1.
         -1    1    3    3    0  502 -0.18448507356E+03  0.64456421811E+03  0.21085658154E+03  0.70282164994E+03  0.00000000000E+00 0. -1.
         11    1    5    5    0    0 -0.33401056066E+02 -0.23512113289E+01  0.27601950318E+02  0.43393852127E+02  0.00000000000E+00 0.  1.
        -11    1    5    5    0    0 -0.29598162931E+03 -0.26249544397E+03  0.60884746322E+03  0.72608829798E+03  0.00000000000E+00 0. -1.
          3    1    6    6  503    0  0.49782281159E+03 -0.40692396633E+03  0.29816824689E+03  0.70874464342E+03  0.00000000000E+00 0. -1.
         -3    1    6    6    0  503  0.65111101687E+01  0.32794834360E+01  0.10196894431E+02  0.12534999931E+02  0.00000000000E+00 0.  1.
<mgrwt>
<rscale>  0 0.18914104E+04</rscale>
<asrwt>0</asrwt>
<pdfrwt beam="1">  1        2 0.26025916E+00 0.18914104E+04</pdfrwt>
<pdfrwt beam="2">  1       -2 0.81335256E-01 0.18914104E+04</pdfrwt>
<totfact> 0.12369787E+01</totfact>
</mgrwt>
</event>
<event>
12    2  0.3552864E-008  0.2451832E+04  0.7818608E-02  0.8420349E-01
          1   -1    0    0  501    0  0.00000000000E+00  0.00000000000E+00  0.87939890643E+03  0.87939890643E+03  0.00000000000E+00 0. -1.
         -1   -1    0    0    0  501 -0.00000000000E+00 -0.00000000000E+00 -0.17089741122E+04  0.17089741122E+04  0.00000000000E+00 0.  1.
         23    2    1    2    0    0  0.25031815225E+03 -0.93007013547E+03 -0.83427345533E+03  0.12775397573E+04  0.91684235463E+02 0.  0.
        254    2    1    2    0    0 -0.25031815225E+03  0.93007013547E+03  0.46982495894E+01  0.13108332613E+04  0.88914123236E+03 0.  0.
         23    2    4    4    0    0  0.17267177280E+03  0.62094442119E+03  0.28188074709E+03  0.70944979678E+03  0.92058368623E+02 0.  0.
         23    2    4    4    0    0 -0.42298992505E+03  0.30912571428E+03 -0.27718249750E+03  0.60138346450E+03  0.10174846697E+03 0.  0.
          3    1    3    3  502    0  0.19929205063E+02 -0.19574221986E+03 -0.14540526820E+03  0.24465257381E+03  0.00000000000E+00 0. -1.
         -3    1    3    3    0  502  0.23038894718E+03 -0.73432791561E+03 -0.68886818713E+03  0.10328871835E+04  0.00000000000E+00 0.  1.
         11    1    5    5    0    0  0.12284836821E+03  0.50217143928E+03  0.18814196505E+03  0.55015022949E+03  0.00000000000E+00 0. -1.
        -11    1    5    5    0    0  0.49823404594E+02  0.11877298192E+03  0.93738782046E+02  0.15929956729E+03  0.00000000000E+00 0.  1.
          1    1    6    6  503    0 -0.40700619119E+03  0.30501475598E+03 -0.28510990844E+03  0.58307435283E+03  0.00000000000E+00 0. -1.
         -1    1    6    6    0  503 -0.15983733851E+02  0.41109582969E+01  0.79274109353E+01  0.18309111668E+02  0.00000000000E+00 0.  1.
<mgrwt>
<rscale>  0 0.24518319E+04</rscale>
<asrwt>0</asrwt>
<pdfrwt beam="1">  1        1 0.13529214E+00 0.24518319E+04</pdfrwt>
<pdfrwt beam="2">  1       -1 0.26291909E+00 0.24518319E+04</pdfrwt>
<totfact> 0.96963847E-01</totfact>
</mgrwt>
</event>
<event>
12    2  0.3552864E-008  0.1550504E+04  0.7818608E-02  0.8851546E-01
         -2   -1    0    0    0  501 -0.00000000000E+00  0.00000000000E+00  0.30168699243E+03  0.30168699243E+03  0.00000000000E+00 0.  1.
          2   -1    0    0  501    0  0.00000000000E+00 -0.00000000000E+00 -0.19921832298E+04  0.19921832298E+04  0.00000000000E+00 0. -1.
         23    2    1    2    0    0  0.11291635080E+03  0.43760865812E+03 -0.21971033813E+03  0.51082288698E+03  0.91738482857E+02 0.  0.
        254    2    1    2    0    0 -0.11291635080E+03 -0.43760865812E+03 -0.14707858992E+04  0.17830473352E+04  0.90099678047E+03 0.  0.
         23    2    4    4    0    0  0.33761689146E+03 -0.36908050623E+03 -0.99807843194E+03  0.11202928063E+04  0.93219257675E+02 0.  0.
         23    2    4    4    0    0 -0.45053324227E+03 -0.68528151889E+02 -0.47270746728E+03  0.66275452896E+03  0.90082773352E+02 0.  0.
          3    1    3    3  502    0  0.63848995574E+01  0.14489100550E+01  0.54756056098E+01  0.85351355876E+01  0.00000000000E+00 0. -1.
         -3    1    3    3    0  502  0.10653145125E+03  0.43615974807E+03 -0.22518594374E+03  0.50228775139E+03  0.00000000000E+00 0.  1.
         11    1    5    5    0    0  0.26151824955E+03 -0.26438401641E+03 -0.81762486438E+03  0.89822108740E+03  0.00000000000E+00 0. -1.
        -11    1    5    5    0    0  0.76098641914E+02 -0.10469648982E+03 -0.18045356756E+03  0.22207171888E+03  0.00000000000E+00 0.  1.
          4    1    6    6  503    0 -0.37126306885E+03 -0.86106762846E+02 -0.41293349004E+03  0.56192945118E+03  0.00000000000E+00 0. -1.
         -4    1    6    6    0  503 -0.79270173416E+02  0.17578610957E+02 -0.59773977233E+02  0.10082507779E+03  0.00000000000E+00 0.  1.
<mgrwt>
<rscale>  0 0.15505041E+04</rscale>
<asrwt>0</asrwt>
<pdfrwt beam="1">  1        2 0.30648973E+00 0.15505041E+04</pdfrwt>
<pdfrwt beam="2">  1       -2 0.46413384E-01 0.15505041E+04</pdfrwt>
<totfact> 0.28595974E+01</totfact>
</mgrwt>
</event>
<event>
12    2  0.3552864E-008  0.1732542E+04  0.7818608E-02  0.8743019E-01
         -1   -1    0    0    0  501 -0.00000000000E+00  0.00000000000E+00  0.10679739625E+04  0.10679739625E+04  0.00000000000E+00 0.  1.
          1   -1    0    0  501    0  0.00000000000E+00 -0.00000000000E+00 -0.70266281582E+03  0.70266281582E+03  0.00000000000E+00 0. -1.
         23    2    1    2    0    0 -0.52553985385E+03 -0.34766670609E+02 -0.21731467435E+03  0.57679187413E+03  0.89790528439E+02 0.  0.
        254    2    1    2    0    0  0.52553985385E+03  0.34766670609E+02  0.58262582104E+03  0.11938449042E+04  0.89911731637E+03 0.  0.
         23    2    4    4    0    0 -0.20504264679E+03  0.14290952269E+03  0.31288937568E+02  0.26760520408E+03  0.90376595172E+02 0.  0.
         23    2    4    4    0    0  0.73058250065E+03 -0.10814285208E+03  0.55133688347E+03  0.92623970014E+03  0.92206053609E+02 0.  0.
          1    1    3    3  502    0 -0.16417198178E+03  0.11262206360E+02 -0.30371209411E+02  0.16733704687E+03  0.00000000000E+00 0.  1.
         -1    1    3    3    0  502 -0.36136787207E+03 -0.46028876968E+02 -0.18694346493E+03  0.40945482726E+03  0.00000000000E+00 0. -1.
         11    1    5    5    0    0 -0.13433195987E+03  0.10492055181E+03 -0.21101184239E+02  0.17175173248E+03  0.00000000000E+00 0.  1.
        -11    1    5    5    0    0 -0.70710686925E+02  0.37988970886E+02  0.52390121807E+02  0.95853471598E+02  0.00000000000E+00 0. -1.
          2    1    6    6  503    0  0.11178888144E+03  0.16654563144E+02  0.84324626673E+02  0.14101337224E+03  0.00000000000E+00 0. -1.
         -2    1    6    6    0  503  0.61879361921E+03 -0.12479741523E+03  0.46701225680E+03  0.78522632790E+03  0.00000000000E+00 0.  1.
<mgrwt>
<rscale>  0 0.17325422E+04</rscale>
<asrwt>0</asrwt>
<pdfrwt beam="1">  1        1 0.10810197E+00 0.17325422E+04</pdfrwt>
<pdfrwt beam="2">  1       -1 0.16430369E+00 0.17325422E+04</pdfrwt>
<totfact> 0.69717618E+00</totfact>
</mgrwt>
</event>
<event>
12    2  0.3552864E-008  0.1865000E+04  0.7818608E-02  0.8672477E-01
         -2   -1    0    0    0  501 -0.00000000000E+00  0.00000000000E+00  0.51764401998E+03  0.51764401998E+03  0.00000000000E+00 0.  1.
          2   -1    0    0  501    0  0.00000000000E+00 -0.00000000000E+00 -0.16798344179E+04  0.16798344179E+04  0.00000000000E+00 0. -1.
         23    2    1    2    0    0  0.22444079396E+02 -0.25386623599E+03  0.33603556888E+03  0.43112168012E+03  0.89410273697E+02 0.  0.
        254    2    1    2    0    0 -0.22444079396E+02  0.25386623599E+03 -0.14982259668E+04  0.17663567578E+04  0.90021294460E+03 0.  0.
         23    2    4    4    0    0 -0.42716052922E+02  0.17268117138E+03 -0.15961037316E+04  0.16084733944E+04  0.89420859726E+02 0.  0.
         23    2    4    4    0    0  0.20271973527E+02  0.81185064611E+02  0.97877764777E+02  0.15788336344E+03  0.91351693939E+02 0.  0.
          2    1    3    3  502    0  0.47382136595E+02 -0.85367999295E+02  0.14908136936E+03  0.17820779125E+03  0.00000000000E+00 0.  1.
         -2    1    3    3    0  502 -0.24938057199E+02 -0.16849823670E+03  0.18695419953E+03  0.25291388888E+03  0.00000000000E+00 0. -1.
         11    1    5    5    0    0 -0.58688986525E+01  0.14903947877E+03 -0.13758157036E+04  0.13838771840E+04  0.00000000000E+00 0.  1.
        -11    1    5    5    0    0 -0.36847154270E+02  0.23641692612E+02 -0.22028802802E+03  0.22459621033E+03  0.00000000000E+00 0. -1.
          1    1    6    6  503    0  0.36234694883E+02  0.18301615613E+02  0.81376728579E+02  0.90939948326E+02  0.00000000000E+00 0. -1.
         -1    1    6    6    0  503 -0.15962721356E+02  0.62883448998E+02  0.16501036199E+02  0.66943415111E+02  0.00000000000E+00 0.  1.
<mgrwt>
<rscale>  0 0.18650000E+04</rscale>
<asrwt>0</asrwt>
<pdfrwt beam="1">  1        2 0.25843606E+00 0.18650000E+04</pdfrwt>
<pdfrwt beam="2">  1       -2 0.79637543E-01 0.18650000E+04</pdfrwt>
<totfact> 0.13198511E+01</totfact>
</mgrwt>
</event>
<event>
12    2  0.3552864E-008  0.1385399E+04  0.7818608E-02  0.8964456E-01
          1   -1    0    0  501    0  0.00000000000E+00  0.00000000000E+00  0.51450821201E+03  0.51450821201E+03  0.00000000000E+00 0. -1.
         -1   -1    0    0    0  501 -0.00000000000E+00 -0.00000000000E+00 -0.93260391083E+03  0.93260391083E+03  0.00000000000E+00 0.  1.
         23    2    1    2    0    0  0.10032139415E+03 -0.16454347820E+03 -0.48346891963E+03  0.52922072328E+03  0.95882424653E+02 0.  0.
        254    2    1    2    0    0 -0.10032139415E+03  0.16454347820E+03  0.65373220815E+02  0.91789139956E+03  0.89504861602E+03 0.  0.
         23    2    4    4    0    0  0.35713218025E+02 -0.14351589893E+02  0.45121835285E+03  0.46203207406E+03  0.91620049357E+02 0.  0.
         23    2    4    4    0    0 -0.13603461218E+03  0.17889506809E+03 -0.38584513203E+03  0.45585932550E+03  0.91773621657E+02 0.  0.
          3    1    3    3  502    0  0.49277240554E+02 -0.71894870119E+01 -0.10852394562E+03  0.11940427938E+03  0.00000000000E+00 0. -1.
         -3    1    3    3    0  502  0.51044153599E+02 -0.15735399118E+03 -0.37494497401E+03  0.40981644390E+03  0.00000000000E+00 0.  1.
         11    1    5    5    0    0  0.29515638277E+02  0.33544524818E+02  0.13642460051E+03  0.14355514506E+03  0.00000000000E+00 0.  1.
        -11    1    5    5    0    0  0.61975797484E+01 -0.47896114711E+02  0.31479375234E+03  0.31847692901E+03  0.00000000000E+00 0. -1.
          2    1    6    6  503    0 -0.82021109345E+02  0.13503106915E+03 -0.33268984226E+03  0.36829795432E+03  0.00000000000E+00 0. -1.
         -2    1    6    6    0  503 -0.54013502833E+02  0.43863998940E+02 -0.53155289770E+02  0.87561371174E+02  0.00000000000E+00 0.  1.
<mgrwt>
<rscale>  0 0.13853987E+04</rscale>
<asrwt>0</asrwt>
<pdfrwt beam="1">  1        1 0.79155110E-01 0.13853987E+04</pdfrwt>
<pdfrwt beam="2">  1       -1 0.14347752E+00 0.13853987E+04</pdfrwt>
<totfact> 0.16341233E+01</totfact>
</mgrwt>
</event>
<event>
12    2  0.3552864E-008  0.1683777E+04  0.7818608E-02  0.8770671E-01
         -2   -1    0    0    0  501 -0.00000000000E+00  0.00000000000E+00  0.29355487853E+03  0.29355487853E+03  0.00000000000E+00 0.  1.
          2   -1    0    0  501    0  0.00000000000E+00 -0.00000000000E+00 -0.24144592292E+04  0.24144592292E+04  0.00000000000E+00 0. -1.
         23    2    1    2    0    0 -0.56286459331E+03  0.54051845423E+02 -0.10994808472E+04  0.12399946300E+04  0.94817702766E+02 0.  0.
        254    2    1    2    0    0  0.56286459331E+03 -0.54051845423E+02 -0.10214235035E+04  0.14680194778E+04  0.88996464037E+03 0.  0.
         23    2    4    4    0    0  0.56042140880E+03  0.29831124753E+03 -0.85027165480E+03  0.10648323122E+04  0.88567545993E+02 0.  0.
         23    2    4    4    0    0  0.24431845037E+01 -0.35236309296E+03 -0.17115184873E+03  0.40318716560E+03  0.95400297445E+02 0.  0.
          3    1    3    3  502    0 -0.27806461659E+02  0.23045564099E+02 -0.91814513464E+02  0.98662060678E+02  0.00000000000E+00 0. -1.
         -3    1    3    3    0  502 -0.53505813165E+03  0.31006281323E+02 -0.10076663337E+04  0.11413325693E+04  0.00000000000E+00 0.  1.
         11    1    5    5    0    0  0.33226038255E+03  0.22499974078E+03 -0.52347166772E+03  0.65957898092E+03  0.00000000000E+00 0.  1.
        -11    1    5    5    0    0  0.22816102626E+03  0.73311506755E+02 -0.32679998707E+03  0.40525333123E+03  0.00000000000E+00 0. -1.
          3    1    6    6  503    0 -0.37246480742E+02 -0.15801667158E+03 -0.46348818033E+02  0.16883359191E+03  0.00000000000E+00 0. -1.
         -3    1    6    6    0  503  0.39689665246E+02 -0.19434642138E+03 -0.12480303070E+03  0.23435357369E+03  0.00000000000E+00 0.  1.
<mgrwt>
<rscale>  0 0.16837770E+04</rscale>
<asrwt>0</asrwt>
<pdfrwt beam="1">  1        2 0.37145526E+00 0.16837770E+04</pdfrwt>
<pdfrwt beam="2">  1       -2 0.45162289E-01 0.16837770E+04</pdfrwt>
<totfact> 0.17300392E+01</totfact>
</mgrwt>
</event>
<event>
12    2  0.3552864E-008  0.1120341E+04  0.7818608E-02  0.9185590E-01
          2   -1    0    0  501    0  0.00000000000E+00  0.00000000000E+00  0.10794038889E+04  0.10794038889E+04  0.00000000000E+00 0. -1.
         -2   -1    0    0    0  501 -0.00000000000E+00 -0.00000000000E+00 -0.29070762380E+03  0.29070762380E+03  0.00000000000E+00 0.  1.
         23    2    1    2    0    0  0.28762637438E+02  0.77035479988E+02 -0.35466012042E+02  0.12775335339E+03  0.91111617283E+02 0.  0.
        254    2    1    2    0    0 -0.28762637438E+02 -0.77035479988E+02  0.82416227710E+03  0.12423581593E+04  0.92598519555E+03 0.  0.
         23    2    4    4    0    0 -0.11344983752E+03 -0.48158878298E+03  0.49779347321E+03  0.70793002839E+03  0.92563284302E+02 0.  0.
         23    2    4    4    0    0  0.84687200081E+02  0.40455330299E+03  0.32636880388E+03  0.53442813086E+03  0.90892981501E+02 0.  0.
          3    1    3    3  502    0 -0.31641401931E+02  0.17381204897E+02 -0.20602926573E+02  0.41566394878E+02  0.00000000000E+00 0. -1.
         -3    1    3    3    0  502  0.60404039368E+02  0.59654275090E+02 -0.14863085469E+02  0.86186958516E+02  0.00000000000E+00 0.  1.
         11    1    5    5    0    0 -0.10625519861E+03 -0.35329478751E+03  0.31878002069E+03  0.48757366182E+03  0.00000000000E+00 0. -1.
        -11    1    5    5    0    0 -0.71946389096E+01 -0.12829399547E+03  0.17901345253E+03  0.22035636657E+03  0.00000000000E+00 0.  1.
          3    1    6    6  503    0  0.80036911364E+02  0.40760355091E+03  0.31350992188E+03  0.52041813287E+03  0.00000000000E+00 0. -1.
         -3    1    6    6    0  503  0.46502887173E+01 -0.30502479181E+01  0.12858882000E+02  0.14009997994E+02  0.00000000000E+00 0.  1.
<mgrwt>
<rscale>  0 0.11203409E+04</rscale>
<asrwt>0</asrwt>
<pdfrwt beam="1">  1        2 0.16606213E+00 0.11203409E+04</pdfrwt>
<pdfrwt beam="2">  1       -2 0.44724251E-01 0.11203409E+04</pdfrwt>
<totfact> 0.10543597E+02</totfact>
</mgrwt>
</event>
<event>
12    2  0.3552864E-008  0.1288512E+04  0.7818608E-02  0.9038725E-01
         -2   -1    0    0    0  501 -0.00000000000E+00  0.00000000000E+00  0.61363873335E+03  0.61363873335E+03  0.00000000000E+00 0.  1.
          2   -1    0    0  501    0  0.00000000000E+00 -0.00000000000E+00 -0.67640105569E+03  0.67640105569E+03  0.00000000000E+00 0. -1.
         23    2    1    2    0    0  0.30182923935E+03  0.16909794843E+01 -0.87361648457E+02  0.33600403088E+03  0.11900799136E+03 0.  0.
        254    2    1    2    0    0 -0.30182923935E+03 -0.16909794843E+01  0.24599326123E+02  0.95403575816E+03  0.90469627603E+03 0.  0.
         23    2    4    4    0    0 -0.35490071303E+03  0.32615568459E+03  0.24014778750E+03  0.54651146884E+03  0.93122387412E+02 0.  0.
         23    2    4    4    0    0  0.53071473674E+02 -0.32784666407E+03 -0.21554846137E+03  0.40752428932E+03  0.96513681555E+02 0.  0.
          2    1    3    3  502    0  0.25329545512E+03  0.46453860255E+02 -0.79505149730E+02  0.26951366858E+03  0.00000000000E+00 0. -1.
         -2    1    3    3    0  502  0.48533784229E+02 -0.44762880771E+02 -0.78564987267E+01  0.66490362300E+02  0.00000000000E+00 0.  1.
         11    1    5    5    0    0 -0.66102748977E+02  0.18151134212E+02  0.38285209488E+02  0.78516204449E+02  0.00000000000E+00 0.  1.
        -11    1    5    5    0    0 -0.28879796405E+03  0.30800455037E+03  0.20186257801E+03  0.46799526439E+03  0.00000000000E+00 0. -1.
          3    1    6    6  503    0  0.97062591195E+01 -0.26734787970E+03 -0.14196918484E+03  0.30286028080E+03  0.00000000000E+00 0. -1.
         -3    1    6    6    0  503  0.43365214555E+02 -0.60498784374E+02 -0.73579276532E+02  0.10466400852E+03  0.00000000000E+00 0.  1.
<mgrwt>
<rscale>  0 0.12885121E+04</rscale>
<asrwt>0</asrwt>
<pdfrwt beam="1">  1        2 0.10406170E+00 0.12885121E+04</pdfrwt>
<pdfrwt beam="2">  1       -2 0.94405959E-01 0.12885121E+04</pdfrwt>
<totfact> 0.39706946E+01</totfact>
</mgrwt>
</event>
<event>
12    2  0.3552864E-008  0.1216912E+04  0.7818608E-02  0.9098181E-01
         -1   -1    0    0    0  501 -0.00000000000E+00  0.00000000000E+00  0.37711923594E+03  0.37711923594E+03  0.00000000000E+00 0.  1.
          1   -1    0    0  501    0  0.00000000000E+00 -0.00000000000E+00 -0.98170181988E+03  0.98170181988E+03  0.00000000000E+00 0. -1.
         23    2    1    2    0    0  0.11220907529E+03  0.23614226317E+03 -0.24697803693E+03  0.37103176247E+03  0.91172216172E+02 0.  0.
        254    2    1    2    0    0 -0.11220907529E+03 -0.23614226317E+03 -0.35760454702E+03  0.98778929335E+03  0.88288879876E+03 0.  0.
         23    2    4    4    0    0 -0.19435213544E+03  0.29999925545E+03 -0.11805041717E+03  0.38769582410E+03  0.92735350385E+02 0.  0.
         23    2    4    4    0    0  0.82143060145E+02 -0.53614151862E+03 -0.23955412985E+03  0.60009346925E+03  0.92362223872E+02 0.  0.
          3    1    3    3  502    0  0.82930395363E+02  0.13943338495E+03 -0.20546695224E+03  0.26179340667E+03  0.00000000000E+00 0. -1.
         -3    1    3    3    0  502  0.29278679931E+02  0.96708878221E+02 -0.41511084687E+02  0.10923835580E+03  0.00000000000E+00 0.  1.
         11    1    5    5    0    0 -0.17698095364E+02  0.10329675613E+03 -0.29441221639E+02  0.10885875224E+03  0.00000000000E+00 0. -1.
        -11    1    5    5    0    0 -0.17665404007E+03  0.19670249931E+03 -0.88609195530E+02  0.27883707186E+03  0.00000000000E+00 0.  1.
          2    1    6    6  503    0  0.12986823081E+02 -0.30335025479E+03 -0.16758858969E+03  0.34680826122E+03  0.00000000000E+00 0. -1.
         -2    1    6    6    0  503  0.69156237064E+02 -0.23279126383E+03 -0.71965540157E+02  0.25328520804E+03  0.00000000000E+00 0.  1.
<mgrwt>
<rscale>  0 0.12169119E+04</rscale>
<asrwt>0</asrwt>
<pdfrwt beam="1">  1        1 0.15103105E+00 0.12169119E+04</pdfrwt>
<pdfrwt beam="2">  1       -1 0.58018344E-01 0.12169119E+04</pdfrwt>
<totfact> 0.46531174E+01</totfact>
</mgrwt>
</event>
<event>
12    2  0.3552864E-008  0.1682163E+04  0.7818608E-02  0.8771604E-01
         -1   -1    0    0    0  501 -0.00000000000E+00  0.00000000000E+00  0.25730002834E+04  0.25730002834E+04  0.00000000000E+00 0. -1.
          1   -1    0    0  501    0  0.00000000000E+00 -0.00000000000E+00 -0.27493886383E+03  0.27493886383E+03  0.00000000000E+00 0.  1.
         23    2    1    2    0    0  0.48881938080E+03  0.23410063018E+01  0.13975908170E+04  0.14834399280E+04  0.91564516996E+02 0.  0.
        254    2    1    2    0    0 -0.48881938080E+03 -0.23410063018E+01  0.90047060254E+03  0.13644992192E+04  0.90114424255E+03 0.  0.
         23    2    4    4    0    0 -0.44444361939E+03 -0.36985604525E+03  0.31245772369E+03  0.66377740212E+03  0.92989168423E+02 0.  0.
         23    2    4    4    0    0 -0.44375761407E+02  0.36751503895E+03  0.58801287885E+03  0.70072181711E+03  0.90638883583E+02 0.  0.
          4    1    3    3  502    0  0.33313993189E+03  0.11828630454E+02  0.82016671426E+03  0.88532229719E+03  0.00000000000E+00 0. -1.
         -4    1    3    3    0  502  0.15567944891E+03 -0.94876241525E+01  0.57742410277E+03  0.59811763081E+03  0.00000000000E+00 0.  1.
         11    1    5    5    0    0 -0.36804309442E+03 -0.25543486865E+03  0.23518007459E+03  0.50597663875E+03  0.00000000000E+00 0.  1.
        -11    1    5    5    0    0 -0.76400524974E+02 -0.11442117661E+03  0.77277649094E+02  0.15780076337E+03  0.00000000000E+00 0. -1.
          4    1    6    6  503    0 -0.28780739460E+02  0.99980369106E+02  0.10188208419E+03  0.14561718391E+03  0.00000000000E+00 0. -1.
         -4    1    6    6    0  503 -0.15595021947E+02  0.26753466984E+03  0.48613079467E+03  0.55510463320E+03  0.00000000000E+00 0.  1.
<mgrwt>
<rscale>  0 0.16821626E+04</rscale>
<asrwt>0</asrwt>
<pdfrwt beam="1">  1        1 0.42298289E-01 0.16821626E+04</pdfrwt>
<pdfrwt beam="2">  1       -1 0.39584618E+00 0.16821626E+04</pdfrwt>
<totfact> 0.71812449E-01</totfact>
</mgrwt>
</event>
<event>
12    2  0.3552864E-008  0.1308220E+04  0.7818608E-02  0.9023072E-01
         -2   -1    0    0    0  501 -0.00000000000E+00  0.00000000000E+00  0.36307506256E+03  0.36307506256E+03  0.00000000000E+00 0.  1.
          2   -1    0    0  501    0  0.00000000000E+00 -0.00000000000E+00 -0.11784330802E+04  0.11784330802E+04  0.00000000000E+00 0. -1.
         23    2    1    2    0    0  0.22669059498E+02  0.14314594634E+03  0.13893464955E+03  0.22063870830E+03  0.91509313964E+02 0.  0.
        254    2    1    2    0    0 -0.22669059498E+02 -0.14314594634E+03 -0.95429266714E+03  0.13208694344E+04  0.90167450891E+03 0.  0.
         23    2    4    4    0    0 -0.44704400601E+03 -0.10017000859E+02 -0.42376481043E+03  0.62268574618E+03  0.90621412053E+02 0.  0.
         23    2    4    4    0    0  0.42437494651E+03 -0.13312894548E+03 -0.53052785670E+03  0.69818368824E+03  0.90461286898E+02 0.  0.
          4    1    3    3  502    0 -0.31364911598E+02  0.21751964181E+02  0.25240717207E+02  0.45760238531E+02  0.00000000000E+00 0. -1.
         -4    1    3    3    0  502  0.54033971096E+02  0.12139398216E+03  0.11369393234E+03  0.17487846977E+03  0.00000000000E+00 0.  1.
         11    1    5    5    0    0 -0.15880084396E+03 -0.88067449356E+01 -0.21193215672E+03  0.26497265114E+03  0.00000000000E+00 0.  1.
        -11    1    5    5    0    0 -0.28824316205E+03 -0.12102559238E+01 -0.21183265371E+03  0.35771309504E+03  0.00000000000E+00 0. -1.
          3    1    6    6  503    0  0.24926854022E+03 -0.60937476696E+02 -0.36783430692E+03  0.44849777988E+03  0.00000000000E+00 0. -1.
         -3    1    6    6    0  503  0.17510640630E+03 -0.72191468783E+02 -0.16269354978E+03  0.24968590836E+03  0.00000000000E+00 0.  1.
<mgrwt>
<rscale>  0 0.13082197E+04</rscale>
<asrwt>0</asrwt>
<pdfrwt beam="1">  1        2 0.18129740E+00 0.13082197E+04</pdfrwt>
<pdfrwt beam="2">  1       -2 0.55857702E-01 0.13082197E+04</pdfrwt>
<totfact> 0.57540916E+01</totfact>
</mgrwt>
</event>
<event>
12    2  0.3552864E-008  0.1779337E+04  0.7818608E-02  0.8717366E-01
         -2   -1    0    0    0  501 -0.00000000000E+00  0.00000000000E+00  0.55921926128E+03  0.55921926128E+03  0.00000000000E+00 0.  1.
          2   -1    0    0  501    0  0.00000000000E+00 -0.00000000000E+00 -0.14153833651E+04  0.14153833651E+04  0.00000000000E+00 0. -1.
         23    2    1    2    0    0 -0.26805686140E+03  0.46964947105E+03  0.92376436566E+02  0.55607921755E+03  0.90915254831E+02 0.  0.
        254    2    1    2    0    0  0.26805686140E+03 -0.46964947105E+03 -0.94854054042E+03  0.14185234089E+04  0.90556854961E+03 0.  0.
         23    2    4    4    0    0  0.33601956722E+03 -0.15684113189E+03  0.32756318926E+02  0.38235086871E+03  0.87240587843E+02 0.  0.
         23    2    4    4    0    0 -0.67962705816E+02 -0.31280833916E+03 -0.98129685934E+03  0.10361725401E+04  0.90785573543E+02 0.  0.
          1    1    3    3  502    0 -0.20505826904E+03  0.28849569249E+03  0.33898034697E+02  0.35556678000E+03  0.00000000000E+00 0. -1.
         -1    1    3    3    0  502 -0.62998592358E+02  0.18115377856E+03  0.58478401869E+02  0.20051243755E+03  0.00000000000E+00 0.  1.
         11    1    5    5    0    0  0.33709289033E+03 -0.14554173565E+03  0.39270065801E+02  0.36926433837E+03  0.00000000000E+00 0.  1.
        -11    1    5    5    0    0 -0.10733231117E+01 -0.11299396238E+02 -0.65137468749E+01  0.13086530334E+02  0.00000000000E+00 0. -1.
          4    1    6    6  503    0 -0.87687693430E+01 -0.15240190596E+03 -0.34422686775E+03  0.37655725824E+03  0.00000000000E+00 0. -1.
         -4    1    6    6    0  503 -0.59193936473E+02 -0.16040643320E+03 -0.63706999160E+03  0.65961528190E+03  0.00000000000E+00 0.  1.
<mgrwt>
<rscale>  0 0.17793366E+04</rscale>
<asrwt>0</asrwt>
<pdfrwt beam="1">  1        2 0.21775129E+00 0.17793366E+04</pdfrwt>
<pdfrwt beam="2">  1       -2 0.86033732E-01 0.17793366E+04</pdfrwt>
<totfact> 0.15717935E+01</totfact>
</mgrwt>
</event>
<event>
12    2  0.3552864E-008  0.1478391E+04  0.7818608E-02  0.8898951E-01
          2   -1    0    0  501    0  0.00000000000E+00  0.00000000000E+00  0.34381639037E+04  0.34381639037E+04  0.00000000000E+00 0. -1.
         -2   -1    0    0    0  501 -0.00000000000E+00 -0.00000000000E+00 -0.15892483811E+03  0.15892483811E+03  0.00000000000E+00 0.  1.
         23    2    1    2    0    0 -0.85699076338E+02 -0.23765119524E+03  0.10592115810E+03  0.28835924706E+03  0.90051881424E+02 0.  0.
        254    2    1    2    0    0  0.85699076338E+02  0.23765119524E+03  0.31733179075E+04  0.33087294948E+04  0.90217620513E+03 0.  0.
         23    2    4    4    0    0  0.32635057158E+03  0.24362080972E+03  0.65108225893E+03  0.77336850844E+03  0.91295933339E+02 0.  0.
         23    2    4    4    0    0 -0.24065149524E+03 -0.59696144814E+01  0.25222356486E+04  0.25353609863E+04  0.91836188783E+02 0.  0.
          1    1    3    3  502    0  0.47130905990E+01 -0.69159865419E+02  0.60061064781E+02  0.91720399641E+02  0.00000000000E+00 0. -1.
         -1    1    3    3    0  502 -0.90412166937E+02 -0.16849132982E+03  0.45860093318E+02  0.19663884742E+03  0.00000000000E+00 0.  1.
         11    1    5    5    0    0  0.19018933882E+03  0.19595908467E+03  0.42970312985E+03  0.50913330992E+03  0.00000000000E+00 0. -1.
        -11    1    5    5    0    0  0.13616123277E+03  0.47661725047E+02  0.22137912909E+03  0.26423519852E+03  0.00000000000E+00 0.  1.
          2    1    6    6  503    0 -0.16401186813E+03  0.16972615713E+02  0.20280495045E+04  0.20347414468E+04  0.00000000000E+00 0. -1.
         -2    1    6    6    0  503 -0.76639627113E+02 -0.22942230195E+02  0.49418614412E+03  0.50061953958E+03  0.00000000000E+00 0.  1.
<mgrwt>
<rscale>  0 0.14783905E+04</rscale>
<asrwt>0</asrwt>
<pdfrwt beam="1">  1        2 0.52894824E+00 0.14783905E+04</pdfrwt>
<pdfrwt beam="2">  1       -2 0.24449978E-01 0.14783905E+04</pdfrwt>
<totfact> 0.13154486E+01</totfact>
</mgrwt>
</event>
<event>
12    2  0.3552864E-008  0.2289261E+04  0.7818608E-02  0.8482167E-01
          1   -1    0    0  501    0  0.00000000000E+00  0.00000000000E+00  0.39568785963E+04  0.39568785963E+04  0.00000000000E+00 0. -1.
         -1   -1    0    0    0  501 -0.00000000000E+00 -0.00000000000E+00 -0.33111438487E+03  0.33111438487E+03  0.00000000000E+00 0.  1.
         23    2    1    2    0    0 -0.57058393198E+03  0.29513786602E+03  0.29096866328E+04  0.29812715890E+04  0.95034746436E+02 0.  0.
        254    2    1    2    0    0  0.57058393198E+03 -0.29513786602E+03  0.71607757868E+03  0.13067213922E+04  0.88435361408E+03 0.  0.
         23    2    4    4    0    0 -0.75817952115E+02  0.16552051796E+03  0.39763258874E+03  0.44638380135E+03  0.89450649803E+02 0.  0.
         23    2    4    4    0    0  0.64640188409E+03 -0.46065838398E+03  0.31844498995E+03  0.86033759085E+03  0.93445257288E+02 0.  0.
          4    1    3    3  502    0 -0.43743086048E+03  0.24123896253E+03  0.24163988953E+04  0.24674937925E+04  0.00000000000E+00 0. -1.
         -4    1    3    3    0  502 -0.13315307150E+03  0.53898903494E+02  0.49328773745E+03  0.51377779649E+03  0.00000000000E+00 0.  1.
         11    1    5    5    0    0 -0.45991923249E+02  0.12901626228E+03  0.36273208872E+03  0.38773060380E+03  0.00000000000E+00 0. -1.
        -11    1    5    5    0    0 -0.29826028866E+02  0.36504255684E+02  0.34900500015E+02  0.58653197545E+02  0.00000000000E+00 0.  1.
          1    1    6    6  503    0  0.47535862327E+03 -0.38500934782E+03  0.25653899378E+03  0.66333270231E+03  0.00000000000E+00 0. -1.
         -1    1    6    6    0  503  0.17104326083E+03 -0.75649036161E+02  0.61905996171E+02  0.19700488854E+03  0.00000000000E+00 0.  1.
<mgrwt>
<rscale>  0 0.22892614E+04</rscale>
<asrwt>0</asrwt>
<pdfrwt beam="1">  1        1 0.60875052E+00 0.22892614E+04</pdfrwt>
<pdfrwt beam="2">  1       -1 0.50940677E-01 0.22892614E+04</pdfrwt>
<totfact> 0.36839983E-01</totfact>
</mgrwt>
</event>
<event>
12    2  0.3552864E-008  0.1249143E+04  0.7818608E-02  0.9070897E-01
          2   -1    0    0  501    0  0.00000000000E+00  0.00000000000E+00  0.45066821179E+03  0.45066821179E+03  0.00000000000E+00 0. -1.
         -2   -1    0    0    0  501 -0.00000000000E+00 -0.00000000000E+00 -0.86558004770E+03  0.86558004770E+03  0.00000000000E+00 0.  1.
         23    2    1    2    0    0  0.27584749244E+03 -0.10449666235E+03 -0.88449530285E+02  0.31980652865E+03  0.86264157288E+02 0.  0.
        254    2    1    2    0    0 -0.27584749244E+03  0.10449666235E+03 -0.32646230562E+03  0.99644173084E+03  0.89403976110E+03 0.  0.
         23    2    4    4    0    0 -0.23510866620E+03 -0.12170454464E+03 -0.57918497909E+03  0.64247523491E+03  0.85035912177E+02 0.  0.
         23    2    4    4    0    0 -0.40738826244E+02  0.22620120699E+03  0.25272267347E+03  0.35396649592E+03  0.92719429144E+02 0.  0.
          4    1    3    3  502    0  0.16385529856E+03 -0.83512921415E+02 -0.15607177430E+02  0.18457126238E+03  0.00000000000E+00 0. -1.
         -4    1    3    3    0  502  0.11199219388E+03 -0.20983740933E+02 -0.72842352855E+02  0.13523526627E+03  0.00000000000E+00 0.  1.
         11    1    5    5    0    0 -0.18257354384E+03 -0.11948226100E+03 -0.39886848544E+03  0.45464841172E+03  0.00000000000E+00 0. -1.
        -11    1    5    5    0    0 -0.52535122356E+02 -0.22222836377E+01 -0.18031649365E+03  0.18782682319E+03  0.00000000000E+00 0.  1.
          2    1    6    6  503    0 -0.42520589643E+02  0.20845566419E+03  0.17874588689E+03  0.27787021531E+03  0.00000000000E+00 0. -1.
         -2    1    6    6    0  503  0.17817633992E+01  0.17745542802E+02  0.73976786582E+02  0.76096280613E+02  0.00000000000E+00 0.  1.
<mgrwt>
<rscale>  0 0.12491428E+04</rscale>
<asrwt>0</asrwt>
<pdfrwt beam="1">  1        2 0.69333571E-01 0.12491428E+04</pdfrwt>
<pdfrwt beam="2">  1       -2 0.13316616E+00 0.12491428E+04</pdfrwt>
<totfact> 0.27879579E+01</totfact>
</mgrwt>
</event>
<event>
12    2  0.3552864E-008  0.2179144E+04  0.7818608E-02  0.8527159E-01
         -2   -1    0    0    0  501 -0.00000000000E+00  0.00000000000E+00  0.15397734188E+04  0.15397734188E+04  0.00000000000E+00 0.  1.
          2   -1    0    0  501    0  0.00000000000E+00 -0.00000000000E+00 -0.77100097003E+03  0.77100097003E+03  0.00000000000E+00 0. -1.
         23    2    1    2    0    0  0.26517543195E+03 -0.54991158154E+03  0.10286498659E+04  0.11998584061E+04  0.93908950601E+02 0.  0.
        254    2    1    2    0    0 -0.26517543195E+03  0.54991158154E+03 -0.25987741709E+03  0.11109159827E+04  0.89099791890E+03 0.  0.
         23    2    4    4    0    0 -0.24970511823E+03 -0.18523491122E+03  0.44747615701E+01  0.32431618747E+03  0.92175634312E+02 0.  0.
         23    2    4    4    0    0 -0.15470313720E+02  0.73514649276E+03 -0.26435217866E+03  0.78659979524E+03  0.90429348556E+02 0.  0.
          1    1    3    3  502    0  0.87324318855E+02 -0.20270764165E+03  0.28905934317E+03  0.36369111691E+03  0.00000000000E+00 0. -1.
         -1    1    3    3    0  502  0.17785111309E+03 -0.34720393989E+03  0.73959052268E+03  0.83616728921E+03  0.00000000000E+00 0.  1.
         11    1    5    5    0    0 -0.24013921214E+03 -0.19559972226E+03  0.71887945799E+00  0.30972021139E+03  0.00000000000E+00 0. -1.
        -11    1    5    5    0    0 -0.95659060899E+01  0.10364811045E+02  0.37558821121E+01  0.14595976081E+02  0.00000000000E+00 0.  1.
          3    1    6    6  503    0 -0.31285911942E+02  0.63531121669E+03 -0.25426260521E+03  0.68501724266E+03  0.00000000000E+00 0. -1.
         -3    1    6    6    0  503  0.15815598222E+02  0.99835276072E+02 -0.10089573454E+02  0.10158255258E+03  0.00000000000E+00 0.  1.
<mgrwt>
<rscale>  0 0.21791437E+04</rscale>
<asrwt>0</asrwt>
<pdfrwt beam="1">  1        2 0.11861553E+00 0.21791437E+04</pdfrwt>
<pdfrwt beam="2">  1       -2 0.23688822E+00 0.21791437E+04</pdfrwt>
<totfact> 0.25640059E+00</totfact>
</mgrwt>
</event>
<event>
12    2  0.3552864E-008  0.1531056E+04  0.7818608E-02  0.8864060E-01
         -1   -1    0    0    0  501 -0.00000000000E+00  0.00000000000E+00  0.59312515163E+03  0.59312515163E+03  0.00000000000E+00 0.  1.
          1   -1    0    0  501    0  0.00000000000E+00 -0.00000000000E+00 -0.98804270300E+03  0.98804270300E+03  0.00000000000E+00 0. -1.
         23    2    1    2    0    0  0.88785371116E+02 -0.11702941905E+03  0.33985319234E+03  0.38100299453E+03  0.89913082767E+02 0.  0.
        254    2    1    2    0    0 -0.88785371116E+02  0.11702941905E+03 -0.73477074370E+03  0.12001648601E+04  0.93751208983E+03 0.  0.
         23    2    4    4    0    0 -0.25577490732E+02  0.48694647815E+03 -0.19182278345E+03  0.53369934722E+03  0.10133080657E+03 0.  0.
         23    2    4    4    0    0 -0.63207880384E+02 -0.36991705910E+03 -0.54294796025E+03  0.66646551288E+03  0.92465807536E+02 0.  0.
          4    1    3    3  502    0  0.32132792573E+00 -0.13172668181E+02 -0.16293635626E+01  0.13276944839E+02  0.00000000000E+00 0. -1.
         -4    1    3    3    0  502  0.88464043190E+02 -0.10385675087E+03  0.34148255590E+03  0.36772604969E+03  0.00000000000E+00 0.  1.
         11    1    5    5    0    0 -0.32252673583E+02  0.19549682519E+03 -0.12608122036E+03  0.23485254467E+03  0.00000000000E+00 0. -1.
        -11    1    5    5    0    0  0.66751828502E+01  0.29144965296E+03 -0.65741563092E+02  0.29884680255E+03  0.00000000000E+00 0.  1.
          3    1    6    6  503    0 -0.37206102155E+02 -0.12902496926E+03 -0.12550400179E+03  0.18380149943E+03  0.00000000000E+00 0. -1.
         -3    1    6    6    0  503 -0.26001778229E+02 -0.24089208984E+03 -0.41744395846E+03  0.48266401345E+03  0.00000000000E+00 0.  1.
<mgrwt>
<rscale>  0 0.15310558E+04</rscale>
<asrwt>0</asrwt>
<pdfrwt beam="1">  1        1 0.15200657E+00 0.15310558E+04</pdfrwt>
<pdfrwt beam="2">  1       -1 0.91250024E-01 0.15310558E+04</pdfrwt>
<totfact> 0.17483627E+01</totfact>
</mgrwt>
</event>
<event>
12    2  0.3552864E-008  0.1453044E+04  0.7818608E-02  0.8916293E-01
         -2   -1    0    0    0  501 -0.00000000000E+00  0.00000000000E+00  0.49969874993E+03  0.49969874993E+03  0.00000000000E+00 0.  1.
          2   -1    0    0  501    0  0.00000000000E+00 -0.00000000000E+00 -0.10563041866E+04  0.10563041866E+04  0.00000000000E+00 0. -1.
         23    2    1    2    0    0 -0.41843579782E+03 -0.24325719334E+02 -0.34725601560E+03  0.55182430291E+03  0.90791317871E+02 0.  0.
        254    2    1    2    0    0  0.41843579782E+03  0.24325719334E+02 -0.20934942102E+03  0.10041786336E+04  0.88818201430E+03 0.  0.
         23    2    4    4    0    0  0.62854699621E+03  0.70482608006E+02 -0.35294561712E+03  0.72989432170E+03  0.90199710248E+02 0.  0.
         23    2    4    4    0    0 -0.21011119839E+03 -0.46156888672E+02  0.14359619610E+03  0.27428431187E+03  0.91295356651E+02 0.  0.
          2    1    3    3  502    0 -0.83081519508E+02 -0.33088091410E+02 -0.44274554069E+02  0.99787758843E+02  0.00000000000E+00 0.  1.
         -2    1    3    3    0  502 -0.33535427831E+03  0.87623720758E+01 -0.30298146153E+03  0.45203654407E+03  0.00000000000E+00 0. -1.
         11    1    5    5    0    0  0.52181251854E+03  0.84916019094E+02 -0.31657483979E+03  0.61621316441E+03  0.00000000000E+00 0. -1.
        -11    1    5    5    0    0  0.10673447767E+03 -0.14433411088E+02 -0.36370777329E+02  0.11368115729E+03  0.00000000000E+00 0.  1.
          4    1    6    6  503    0 -0.21593808734E+03 -0.50899847128E+02  0.14689447942E+03  0.26607901099E+03  0.00000000000E+00 0. -1.
         -4    1    6    6    0  503  0.58268889533E+01  0.47429584560E+01 -0.32982833230E+01  0.82053008884E+01  0.00000000000E+00 0.  1.
<mgrwt>
<rscale>  0 0.14530435E+04</rscale>
<asrwt>0</asrwt>
<pdfrwt beam="1">  1        2 0.16250834E+00 0.14530435E+04</pdfrwt>
<pdfrwt beam="2">  1       -2 0.76876731E-01 0.14530435E+04</pdfrwt>
<totfact> 0.33996851E+01</totfact>
</mgrwt>
</event>
<event>
12    2  0.3552864E-008  0.1607420E+04  0.7818608E-02  0.8816002E-01
          2   -1    0    0  501    0  0.00000000000E+00  0.00000000000E+00  0.74167343962E+03  0.74167343962E+03  0.00000000000E+00 0. -1.
         -2   -1    0    0    0  501 -0.00000000000E+00 -0.00000000000E+00 -0.87093595027E+03  0.87093595027E+03  0.00000000000E+00 0.  1.
         23    2    1    2    0    0 -0.15726836722E+03  0.23056659116E+03 -0.51862454472E+03  0.59503812266E+03  0.84880249417E+02 0.  0.
        254    2    1    2    0    0  0.15726836722E+03 -0.23056659116E+03  0.38936203406E+03  0.10175712672E+04  0.89774951854E+03 0.  0.
         23    2    4    4    0    0  0.65368121450E+01 -0.34079554310E+03  0.61615611271E+03  0.71017674315E+03  0.92294740783E+02 0.  0.
         23    2    4    4    0    0  0.15073155507E+03  0.11022895193E+03 -0.22679407865E+03  0.30739452408E+03  0.90473287696E+02 0.  0.
          1    1    3    3  502    0 -0.81446741973E+02  0.10318766748E+03 -0.16062179699E+03  0.20755873426E+03  0.00000000000E+00 0. -1.
         -1    1    3    3    0  502 -0.75821625245E+02  0.12737892369E+03 -0.35800274772E+03  0.38747938840E+03  0.00000000000E+00 0.  1.
         11    1    5    5    0    0  0.46907217134E+02 -0.16956867344E+03  0.33822716567E+03  0.38124983624E+03  0.00000000000E+00 0.  1.
        -11    1    5    5    0    0 -0.40370404989E+02 -0.17122686966E+03  0.27792894703E+03  0.32892690691E+03  0.00000000000E+00 0. -1.
          1    1    6    6  503    0  0.11503249529E+03  0.65278783843E+02 -0.92653541957E+02  0.16148830741E+03  0.00000000000E+00 0. -1.
         -1    1    6    6    0  503  0.35699059788E+02  0.44950168091E+02 -0.13414053669E+03  0.14590621668E+03  0.00000000000E+00 0.  1.
<mgrwt>
<rscale>  0 0.16074204E+04</rscale>
<asrwt>0</asrwt>
<pdfrwt beam="1">  1        2 0.11410361E+00 0.16074204E+04</pdfrwt>
<pdfrwt beam="2">  1       -2 0.13399015E+00 0.16074204E+04</pdfrwt>
<totfact> 0.14659624E+01</totfact>
</mgrwt>
</event>
<event>
12    2  0.3552864E-008  0.1978562E+04  0.7818608E-02  0.8616710E-01
         -2   -1    0    0    0  501 -0.00000000000E+00  0.00000000000E+00  0.53498946621E+03  0.53498946621E+03  0.00000000000E+00 0.  1.
          2   -1    0    0  501    0  0.00000000000E+00 -0.00000000000E+00 -0.18293390039E+04  0.18293390039E+04  0.00000000000E+00 0. -1.
         23    2    1    2    0    0 -0.42059918920E+02 -0.78359684218E+03 -0.49985031383E+03  0.93484938981E+03  0.91104322340E+02 0.  0.
        254    2    1    2    0    0  0.42059918920E+02  0.78359684218E+03 -0.79449922380E+03  0.14294790803E+04  0.89240594821E+03 0.  0.
         23    2    4    4    0    0 -0.62959118406E+02  0.88715543385E+03 -0.36389555477E+03  0.96507509178E+03  0.89114216662E+02 0.  0.
         23    2    4    4    0    0  0.10501903733E+03 -0.10355859167E+03 -0.43060366904E+03  0.46440398847E+03  0.92185490210E+02 0.  0.
          3    1    3    3  502    0  0.15919225049E+02 -0.70432916824E+02 -0.26442739238E+02  0.76898868372E+02  0.00000000000E+00 0. -1.
         -3    1    3    3    0  502 -0.57979143969E+02 -0.71316392535E+03 -0.47340757459E+03  0.85795052144E+03  0.00000000000E+00 0.  1.
         11    1    5    5    0    0 -0.10491160073E+02  0.10473144229E+03 -0.75543196751E+02  0.12955892103E+03  0.00000000000E+00 0.  1.
        -11    1    5    5    0    0 -0.52467958334E+02  0.78242399156E+03 -0.28835235801E+03  0.83551617075E+03  0.00000000000E+00 0. -1.
          1    1    6    6  503    0  0.40763811133E+02 -0.98702306641E+02 -0.30645808421E+03  0.32453103243E+03  0.00000000000E+00 0. -1.
         -1    1    6    6    0  503  0.64255226193E+02 -0.48562850295E+01 -0.12414558483E+03  0.13987295604E+03  0.00000000000E+00 0.  1.
<mgrwt>
<rscale>  0 0.19785622E+04</rscale>
<asrwt>0</asrwt>
<pdfrwt beam="1">  1        2 0.28143677E+00 0.19785622E+04</pdfrwt>
<pdfrwt beam="2">  1       -2 0.82306071E-01 0.19785622E+04</pdfrwt>
<totfact> 0.10026709E+01</totfact>
</mgrwt>
</event>
<event>
12    2  0.3552864E-008  0.1571225E+04  0.7818608E-02  0.8838423E-01
          2   -1    0    0  501    0  0.00000000000E+00  0.00000000000E+00  0.13997044795E+04  0.13997044795E+04  0.00000000000E+00 0. -1.
         -2   -1    0    0    0  501 -0.00000000000E+00 -0.00000000000E+00 -0.44094077359E+03  0.44094077359E+03  0.00000000000E+00 0.  1.
         23    2    1    2    0    0 -0.27046697223E+03 -0.41275891014E+03  0.58176164587E+03  0.76851333869E+03  0.92972244068E+02 0.  0.
        254    2    1    2    0    0  0.27046697223E+03  0.41275891014E+03  0.37700206002E+03  0.10721319144E+04  0.87396452308E+03 0.  0.
         23    2    4    4    0    0  0.68944700681E+02 -0.18768083851E+03 -0.13037852580E+03  0.25552729265E+03  0.91203993346E+02 0.  0.
         23    2    4    4    0    0  0.20152227155E+03  0.60043974864E+03  0.50738058582E+03  0.81660462173E+03  0.90933666356E+02 0.  0.
          1    1    3    3  502    0 -0.18190596656E+03 -0.22801978170E+03  0.28423546950E+03  0.40727460470E+03  0.00000000000E+00 0. -1.
         -1    1    3    3    0  502 -0.88561005668E+02 -0.18473912844E+03  0.29752617638E+03  0.36123873399E+03  0.00000000000E+00 0.  1.
         11    1    5    5    0    0  0.20490820069E+02 -0.14457196765E+03 -0.54860489402E+02  0.15598269403E+03  0.00000000000E+00 0. -1.
        -11    1    5    5    0    0  0.48453880612E+02 -0.43108870854E+02 -0.75518036402E+02  0.99544598622E+02  0.00000000000E+00 0.  1.
          1    1    6    6  503    0  0.20313354050E+03  0.51090349992E+03  0.42488701157E+03  0.69484861237E+03  0.00000000000E+00 0. -1.
         -1    1    6    6    0  503 -0.16112689470E+01  0.89536248723E+02  0.82493574249E+02  0.12175600936E+03  0.00000000000E+00 0.  1.
<mgrwt>
<rscale>  0 0.15712247E+04</rscale>
<asrwt>0</asrwt>
<pdfrwt beam="1">  1        2 0.21533915E+00 0.15712247E+04</pdfrwt>
<pdfrwt beam="2">  1       -2 0.67837043E-01 0.15712247E+04</pdfrwt>
<totfact> 0.27691289E+01</totfact>
</mgrwt>
</event>
<event>
12    2  0.3552864E-008  0.3197488E+04  0.7818608E-02  0.8189481E-01
         -2   -1    0    0    0  501 -0.00000000000E+00  0.00000000000E+00  0.15688953923E+04  0.15688953923E+04  0.00000000000E+00 0.  1.
          2   -1    0    0  501    0  0.00000000000E+00 -0.00000000000E+00 -0.16291607076E+04  0.16291607076E+04  0.00000000000E+00 0. -1.
         23    2    1    2    0    0 -0.44928215109E+03 -0.43095010926E+01 -0.14464242967E+04  0.15174705559E+04  0.93277107962E+02 0.  0.
        254    2    1    2    0    0  0.44928215109E+03  0.43095010926E+01  0.13861589814E+04  0.16805855439E+04  0.83729207903E+03 0.  0.
         23    2    4    4    0    0  0.13283796158E+03  0.38473746162E+03  0.42428544613E+03  0.59513557418E+03  0.92192046541E+02 0.  0.
         23    2    4    4    0    0  0.31644418951E+03 -0.38042796052E+03  0.96187353526E+03  0.10854499697E+04  0.90214082765E+02 0.  0.
          4    1    3    3  502    0 -0.42640568487E+03  0.15263031337E+02 -0.13818212560E+04  0.14461966505E+04  0.00000000000E+00 0. -1.
         -4    1    3    3    0  502 -0.22876466217E+02 -0.19572532430E+02 -0.64603040696E+02  0.71273905459E+02  0.00000000000E+00 0.  1.
         11    1    5    5    0    0  0.43847123499E+02  0.66410570323E+02  0.13082787691E+03  0.15313023041E+03  0.00000000000E+00 0.  1.
        -11    1    5    5    0    0  0.88990838078E+02  0.31832689129E+03  0.29345756922E+03  0.44200534377E+03  0.00000000000E+00 0. -1.
          3    1    6    6  503    0  0.23179408990E+03 -0.22596316996E+03  0.67906846254E+03  0.75227776194E+03  0.00000000000E+00 0. -1.
         -3    1    6    6    0  503  0.84650099608E+02 -0.15446479057E+03  0.28280507272E+03  0.33317220779E+03  0.00000000000E+00 0.  1.
<mgrwt>
<rscale>  0 0.31974882E+04</rscale>
<asrwt>0</asrwt>
<pdfrwt beam="1">  1        2 0.25064011E+00 0.31974882E+04</pdfrwt>
<pdfrwt beam="2">  1       -2 0.24136852E+00 0.31974882E+04</pdfrwt>
<totfact> 0.65719445E-01</totfact>
</mgrwt>
</event>
<event>
12    2  0.3552864E-008  0.1345033E+04  0.7818608E-02  0.8994596E-01
         -2   -1    0    0    0  501 -0.00000000000E+00  0.00000000000E+00  0.13664096881E+03  0.13664096881E+03  0.00000000000E+00 0.  1.
          2   -1    0    0  501    0  0.00000000000E+00 -0.00000000000E+00 -0.33099784061E+04  0.33099784061E+04  0.00000000000E+00 0. -1.
         23    2    1    2    0    0 -0.25257324047E+03  0.18160561049E+03 -0.13517754522E+04  0.13911016267E+04  0.10532342143E+03 0.  0.
        254    2    1    2    0    0  0.25257324047E+03 -0.18160561049E+03 -0.18215619851E+04  0.20555177482E+04  0.90016182329E+03 0.  0.
         23    2    4    4    0    0  0.46724485198E+03 -0.10383888684E+03 -0.17234742820E+04  0.17908821583E+04  0.88289513390E+02 0.  0.
         23    2    4    4    0    0 -0.21467161151E+03 -0.77766723656E+02 -0.98087703118E+02  0.26463558991E+03  0.90990295345E+02 0.  0.
          3    1    3    3  502    0 -0.18591906549E+03  0.95389593040E+02 -0.10412017390E+04  0.10619633396E+04  0.00000000000E+00 0. -1.
         -3    1    3    3    0  502 -0.66654174975E+02  0.86216017454E+02 -0.31057371326E+03  0.32913828716E+03  0.00000000000E+00 0.  1.
         11    1    5    5    0    0  0.86614453789E+02 -0.38141499576E+02 -0.24106514602E+03  0.25897730059E+03  0.00000000000E+00 0. -1.
        -11    1    5    5    0    0  0.38063039819E+03 -0.65697387262E+02 -0.14824091360E+04  0.15319048577E+04  0.00000000000E+00 0.  1.
          3    1    6    6  503    0 -0.34985874956E+02  0.20041285958E+02 -0.80374147906E+01  0.41112827996E+02  0.00000000000E+00 0. -1.
         -3    1    6    6    0  503 -0.17968573655E+03 -0.97808009614E+02 -0.90050288327E+02  0.22352276191E+03  0.00000000000E+00 0.  1.
<mgrwt>
<rscale>  0 0.13450333E+04</rscale>
<asrwt>0</asrwt>
<pdfrwt beam="1">  1        2 0.50922737E+00 0.13450333E+04</pdfrwt>
<pdfrwt beam="2">  1       -2 0.21021691E-01 0.13450333E+04</pdfrwt>
<totfact> 0.21307567E+01</totfact>
</mgrwt>
</event>
<event>
12    2  0.3552864E-008  0.1970568E+04  0.7818608E-02  0.8620506E-01
          2   -1    0    0  501    0  0.00000000000E+00  0.00000000000E+00  0.13651216997E+04  0.13651216997E+04  0.00000000000E+00 0. -1.
         -2   -1    0    0    0  501 -0.00000000000E+00 -0.00000000000E+00 -0.71113406493E+03  0.71113406493E+03  0.00000000000E+00 0.  1.
         23    2    1    2    0    0 -0.29895268314E+03  0.77232659609E+02  0.10121537808E+04  0.10621873029E+04  0.91918441718E+02 0.  0.
        254    2    1    2    0    0  0.29895268314E+03 -0.77232659609E+02 -0.35816614606E+03  0.10140684617E+04  0.89705867501E+03 0.  0.
         23    2    4    4    0    0  0.37930020593E+03  0.96023569470E+02 -0.58110637578E+03  0.70649609148E+03  0.91449085209E+02 0.  0.
         23    2    4    4    0    0 -0.80347522796E+02 -0.17325622908E+03  0.22294022972E+03  0.30757237025E+03  0.91787643943E+02 0.  0.
          4    1    3    3  502    0 -0.29034475617E+03  0.63711149487E+02  0.99607829228E+03  0.10394860039E+04  0.00000000000E+00 0. -1.
         -4    1    3    3    0  502 -0.86079269676E+01  0.13521510122E+02  0.16075488517E+02  0.22701298944E+02  0.00000000000E+00 0.  1.
         11    1    5    5    0    0  0.11077730432E+03  0.55510661687E+02 -0.12732905145E+03  0.17766747608E+03  0.00000000000E+00 0. -1.
        -11    1    5    5    0    0  0.26852290162E+03  0.40512907783E+02 -0.45377732433E+03  0.52882861540E+03  0.00000000000E+00 0.  1.
          4    1    6    6  503    0  0.83775895371E+01 -0.21281405542E+02 -0.84002430809E+00  0.22886412326E+02  0.00000000000E+00 0. -1.
         -4    1    6    6    0  503 -0.88725112334E+02 -0.15197482354E+03  0.22378025402E+03  0.28468595792E+03  0.00000000000E+00 0.  1.
<mgrwt>
<rscale>  0 0.19705680E+04</rscale>
<asrwt>0</asrwt>
<pdfrwt beam="1">  1        2 0.21001872E+00 0.19705680E+04</pdfrwt>
<pdfrwt beam="2">  1       -2 0.10940524E+00 0.19705680E+04</pdfrwt>
<totfact> 0.93964674E+00</totfact>
</mgrwt>
</event>
<event>
12    2  0.3552864E-008  0.1402774E+04  0.7818608E-02  0.8951813E-01
         -1   -1    0    0    0  501 -0.00000000000E+00  0.00000000000E+00  0.23701292785E+03  0.23701292785E+03  0.00000000000E+00 0.  1.
          1   -1    0    0  501    0  0.00000000000E+00 -0.00000000000E+00 -0.20755996228E+04  0.20755996228E+04  0.00000000000E+00 0. -1.
         23    2    1    2    0    0 -0.59772807122E+02 -0.17325171471E+03 -0.11635155441E+04  0.11816389300E+04  0.94409715751E+02 0.  0.
        254    2    1    2    0    0  0.59772807122E+02  0.17325171471E+03 -0.67507115084E+03  0.11309736206E+04  0.88870204609E+03 0.  0.
         23    2    4    4    0    0 -0.35311885284E+03  0.28425943486E+03 -0.40803751567E+03  0.61679943170E+03  0.91927004770E+02 0.  0.
         23    2    4    4    0    0  0.41289165996E+03 -0.11100772015E+03 -0.26703363516E+03  0.51417418892E+03  0.10132076514E+03 0.  0.
          4    1    3    3  502    0 -0.55601054539E+02 -0.62795496038E+02 -0.70578788619E+03  0.71075403050E+03  0.00000000000E+00 0. -1.
         -4    1    3    3    0  502 -0.41717525829E+01 -0.11045621867E+03 -0.45772765789E+03  0.47088489948E+03  0.00000000000E+00 0.  1.
         11    1    5    5    0    0 -0.35063864140E+03  0.28088855508E+03 -0.41303456157E+03  0.61028139925E+03  0.00000000000E+00 0.  1.
        -11    1    5    5    0    0 -0.24802114367E+01  0.33708797824E+01  0.49970458968E+01  0.65180324465E+01  0.00000000000E+00 0. -1.
          4    1    6    6  503    0  0.27043407600E+03 -0.93308160633E+02 -0.12488229446E+03  0.31214834577E+03  0.00000000000E+00 0.  1.
         -4    1    6    6    0  503  0.14245758396E+03 -0.17699559519E+02 -0.14215134071E+03  0.20202584315E+03  0.00000000000E+00 0. -1.
<mgrwt>
<rscale>  0 0.14027743E+04</rscale>
<asrwt>0</asrwt>
<pdfrwt beam="1">  1        1 0.31932301E+00 0.14027743E+04</pdfrwt>
<pdfrwt beam="2">  1       -1 0.36463529E-01 0.14027743E+04</pdfrwt>
<totfact> 0.18626808E+01</totfact>
</mgrwt>
</event>
<event>
12    2  0.3552864E-008  0.1493424E+04  0.7818608E-02  0.8888838E-01
          1   -1    0    0  501    0  0.00000000000E+00  0.00000000000E+00  0.19052488293E+04  0.19052488293E+04  0.00000000000E+00 0. -1.
         -1   -1    0    0    0  501 -0.00000000000E+00 -0.00000000000E+00 -0.29265405455E+03  0.29265405455E+03  0.00000000000E+00 0.  1.
         23    2    1    2    0    0 -0.18731080662E+03  0.39784213065E+03  0.88714320802E+03  0.99393151116E+03  0.86678014153E+02 0.  0.
        254    2    1    2    0    0  0.18731080662E+03 -0.39784213065E+03  0.72545156672E+03  0.12039713727E+04  0.85434383674E+03 0.  0.
         23    2    4    4    0    0 -0.76100277715E+02 -0.40524635489E+03  0.80951800211E+03  0.91258270959E+03  0.86440416900E+02 0.  0.
         23    2    4    4    0    0  0.26341108434E+03  0.74042242347E+01 -0.84066435388E+02  0.29138866310E+03  0.91651325870E+02 0.  0.
          4    1    3    3  502    0 -0.16818637732E+03  0.39309635034E+03  0.83317238528E+03  0.93647617255E+03  0.00000000000E+00 0. -1.
         -4    1    3    3    0  502 -0.19124429306E+02  0.47457803118E+01  0.53970822735E+02  0.57455338601E+02  0.00000000000E+00 0.  1.
         11    1    5    5    0    0  0.25923250275E+01  0.69479260772E+00 -0.84994030524E+00  0.28151881533E+01  0.00000000000E+00 0. -1.
        -11    1    5    5    0    0 -0.78692602742E+02 -0.40594114750E+03  0.81036794242E+03  0.90976752143E+03  0.00000000000E+00 0.  1.
          3    1    6    6  503    0  0.27196302794E+02  0.17235790473E+02  0.14415592164E+02  0.35277764334E+02  0.00000000000E+00 0. -1.
         -3    1    6    6    0  503  0.23621478154E+03 -0.98315662385E+01 -0.98482027553E+02  0.25611089876E+03  0.00000000000E+00 0.  1.
<mgrwt>
<rscale>  0 0.14934240E+04</rscale>
<asrwt>0</asrwt>
<pdfrwt beam="1">  1        1 0.29311520E+00 0.14934240E+04</pdfrwt>
<pdfrwt beam="2">  1       -1 0.45023702E-01 0.14934240E+04</pdfrwt>
<totfact> 0.16370527E+01</totfact>
</mgrwt>
</event>
<event>
12    2  0.3552864E-008  0.1536375E+04  0.7818608E-02  0.8860618E-01
         -1   -1    0    0    0  501 -0.00000000000E+00  0.00000000000E+00  0.72136839240E+03  0.72136839240E+03  0.00000000000E+00 0. -1.
          1   -1    0    0  501    0  0.00000000000E+00 -0.00000000000E+00 -0.81804501971E+03  0.81804501971E+03  0.00000000000E+00 0.  1.
         23    2    1    2    0    0 -0.10305800003E+03  0.12021315613E+03 -0.58347374655E+03  0.61117010330E+03  0.89527247156E+02 0.  0.
        254    2    1    2    0    0  0.10305800003E+03 -0.12021315613E+03  0.48679711923E+03  0.92824330881E+03  0.77433329438E+03 0.  0.
         23    2    4    4    0    0 -0.85860582618E+02 -0.14508328122E+03 -0.15906714116E+03  0.24858942911E+03  0.89850713586E+02 0.  0.
         23    2    4    4    0    0  0.18891858264E+03  0.24870125090E+02  0.64586426039E+03  0.67965387970E+03  0.92086911954E+02 0.  0.
          4    1    3    3  502    0 -0.37040218145E+02  0.38027216200E+02 -0.75014794907E+02  0.91898130488E+02  0.00000000000E+00 0. -1.
         -4    1    3    3    0  502 -0.66017781880E+02  0.82185939926E+02 -0.50845895164E+03  0.51927197281E+03  0.00000000000E+00 0.  1.
         11    1    5    5    0    0 -0.22430794598E+02 -0.93082358037E+02 -0.39456925882E+02  0.10355826826E+03  0.00000000000E+00 0. -1.
        -11    1    5    5    0    0 -0.63429788019E+02 -0.52000923179E+02 -0.11961021528E+03  0.14503116085E+03  0.00000000000E+00 0.  1.
          1    1    6    6  503    0  0.52719274544E+02 -0.18699763642E+02  0.92382473226E+02  0.10799779826E+03  0.00000000000E+00 0. -1.
         -1    1    6    6    0  503  0.13619930810E+03  0.43569888732E+02  0.55348178717E+03  0.57165608145E+03  0.00000000000E+00 0.  1.
<mgrwt>
<rscale>  0 0.15363747E+04</rscale>
<asrwt>0</asrwt>
<pdfrwt beam="1">  1        1 0.12585308E+00 0.15363747E+04</pdfrwt>
<pdfrwt beam="2">  1       -1 0.11097975E+00 0.15363747E+04</pdfrwt>
<totfact> 0.15376470E+01</totfact>
</mgrwt>
</event>
<event>
12    2  0.3552864E-008  0.1642571E+04  0.7818608E-02  0.8794814E-01
         -2   -1    0    0    0  501 -0.00000000000E+00  0.00000000000E+00  0.25750526220E+03  0.25750526220E+03  0.00000000000E+00 0.  1.
          2   -1    0    0  501    0  0.00000000000E+00 -0.00000000000E+00 -0.26194020926E+04  0.26194020926E+04  0.00000000000E+00 0. -1.
         23    2    1    2    0    0  0.23800420123E+03 -0.40971021670E+03 -0.27643975035E+03  0.55635953445E+03  0.92782188625E+02 0.  0.
        254    2    1    2    0    0 -0.23800420123E+03  0.40971021670E+03 -0.20854570800E+04  0.23205478204E+04  0.90072331621E+03 0.  0.
         23    2    4    4    0    0 -0.14412697585E+03 -0.72747968316E+02 -0.16433058988E+04  0.16536303498E+04  0.89298403292E+02 0.  0.
         23    2    4    4    0    0 -0.93877225383E+02  0.48245818501E+03 -0.44215118129E+03  0.66691747055E+03  0.87763384614E+02 0.  0.
          3    1    3    3  502    0  0.16361534578E+03 -0.29468657825E+03 -0.14639821606E+03  0.36748142598E+03  0.00000000000E+00 0. -1.
         -3    1    3    3    0  502  0.74388855451E+02 -0.11502363845E+03 -0.13004153429E+03  0.18887810847E+03  0.00000000000E+00 0.  1.
         11    1    5    5    0    0 -0.34332744146E+02 -0.26759227292E+02 -0.88208785175E+03  0.88316123770E+03  0.00000000000E+00 0. -1.
        -11    1    5    5    0    0 -0.10979423170E+03 -0.45988741024E+02 -0.76121804701E+03  0.77046911211E+03  0.00000000000E+00 0.  1.
          2    1    6    6  503    0 -0.83109805156E+02  0.40524736451E+03 -0.41047044932E+03  0.58276809789E+03  0.00000000000E+00 0. -1.
         -2    1    6    6    0  503 -0.10767420227E+02  0.77210820500E+02 -0.31680731972E+02  0.84149372659E+02  0.00000000000E+00 0.  1.
<mgrwt>
<rscale>  0 0.16425709E+04</rscale>
<asrwt>0</asrwt>
<pdfrwt beam="1">  1        2 0.40298495E+00 0.16425709E+04</pdfrwt>
<pdfrwt beam="2">  1       -2 0.39616193E-01 0.16425709E+04</pdfrwt>
<totfact> 0.17120639E+01</totfact>
</mgrwt>
</event>
<event>
12    2  0.3552864E-008  0.2088485E+04  0.7818608E-02  0.8566333E-01
         -2   -1    0    0    0  501 -0.00000000000E+00  0.00000000000E+00  0.74155741641E+03  0.74155741641E+03  0.00000000000E+00 0.  1.
          2   -1    0    0  501    0  0.00000000000E+00 -0.00000000000E+00 -0.14704763932E+04  0.14704763932E+04  0.00000000000E+00 0. -1.
         23    2    1    2    0    0  0.62998302708E+03  0.61007444883E+02 -0.89676068504E+03  0.11013569154E+04  0.90591423959E+02 0.  0.
        254    2    1    2    0    0 -0.62998302708E+03 -0.61007444883E+02  0.16784170824E+03  0.11106768942E+04  0.89712418405E+03 0.  0.
         23    2    4    4    0    0 -0.49073624490E+03 -0.10334750776E+03  0.51505167935E+03  0.72369510786E+03  0.83388292448E+02 0.  0.
         23    2    4    4    0    0 -0.13924678218E+03  0.42340062873E+02 -0.34720997111E+03  0.38698178637E+03  0.89542122321E+02 0.  0.
          3    1    3    3  502    0  0.30250939463E+03 -0.87555836163E+01 -0.46849145873E+03  0.55773904381E+03  0.00000000000E+00 0. -1.
         -3    1    3    3    0  502  0.32747363245E+03  0.69763028499E+02 -0.42826922630E+03  0.54361787158E+03  0.00000000000E+00 0.  1.
         11    1    5    5    0    0 -0.48202410219E+02 -0.35506160066E+02  0.74617452555E+02  0.95665688621E+02  0.00000000000E+00 0. -1.
        -11    1    5    5    0    0 -0.44253383468E+03 -0.67841347690E+02  0.44043422680E+03  0.62802941924E+03  0.00000000000E+00 0.  1.
          2    1    6    6  503    0 -0.14232231813E+03  0.46049682155E+02 -0.26246151036E+03  0.30209644137E+03  0.00000000000E+00 0. -1.
         -2    1    6    6    0  503  0.30755359499E+01 -0.37096192825E+01 -0.84748460751E+02  0.84885345003E+02  0.00000000000E+00 0.  1.
<mgrwt>
<rscale>  0 0.20884853E+04</rscale>
<asrwt>0</asrwt>
<pdfrwt beam="1">  1        2 0.22622713E+00 0.20884853E+04</pdfrwt>
<pdfrwt beam="2">  1       -2 0.11408576E+00 0.20884853E+04</pdfrwt>
<totfact> 0.73175315E+00</totfact>
</mgrwt>
</event>
<event>
12    2  0.3552864E-008  0.1482224E+04  0.7818608E-02  0.8896361E-01
          2   -1    0    0  501    0  0.00000000000E+00  0.00000000000E+00  0.10457293682E+04  0.10457293682E+04  0.00000000000E+00 0. -1.
         -2   -1    0    0    0  501 -0.00000000000E+00 -0.00000000000E+00 -0.52522835873E+03  0.52522835873E+03  0.00000000000E+00 0.  1.
         23    2    1    2    0    0 -0.15890569149E+03  0.13299062792E+03  0.59430946278E+03  0.63583339265E+03  0.90237684800E+02 0.  0.
        254    2    1    2    0    0  0.15890569149E+03 -0.13299062792E+03 -0.73808453351E+02  0.93512433423E+03  0.90888520000E+03 0.  0.
         23    2    4    4    0    0  0.28615195228E+03 -0.22677748780E+03 -0.40768287048E+03  0.55449475592E+03  0.89152356652E+02 0.  0.
         23    2    4    4    0    0 -0.12724626079E+03  0.93786859878E+02  0.33387441713E+03  0.38062957831E+03  0.91755999800E+02 0.  0.
          2    1    3    3  502    0 -0.14322299114E+03  0.11201053905E+03  0.39533776318E+03  0.43514495636E+03  0.00000000000E+00 0. -1.
         -2    1    3    3    0  502 -0.15682700350E+02  0.20980088871E+02  0.19897169960E+03  0.20068843629E+03  0.00000000000E+00 0.  1.
         11    1    5    5    0    0  0.17523248094E+02 -0.40150094885E+02 -0.81668763865E+02  0.92676217739E+02  0.00000000000E+00 0. -1.
        -11    1    5    5    0    0  0.26862870419E+03 -0.18662739291E+03 -0.32601410662E+03  0.46181853818E+03  0.00000000000E+00 0.  1.
          1    1    6    6  503    0 -0.40696725142E+01 -0.14799046904E+02  0.12733068816E+02  0.19942544098E+02  0.00000000000E+00 0. -1.
         -1    1    6    6    0  503 -0.12317658827E+03  0.10858590678E+03  0.32114134831E+03  0.36068703421E+03  0.00000000000E+00 0.  1.
<mgrwt>
<rscale>  0 0.14822236E+04</rscale>
<asrwt>0</asrwt>
<pdfrwt beam="1">  1        2 0.16088144E+00 0.14822236E+04</pdfrwt>
<pdfrwt beam="2">  1       -2 0.80804363E-01 0.14822236E+04</pdfrwt>
<totfact> 0.30804234E+01</totfact>
</mgrwt>
</event>
<event>
12    2  0.3552864E-008  0.2218477E+04  0.7818608E-02  0.8510777E-01
          2   -1    0    0  501    0  0.00000000000E+00  0.00000000000E+00  0.95887437176E+03  0.95887437176E+03  0.00000000000E+00 0.  1.
         -2   -1    0    0    0  501 -0.00000000000E+00 -0.00000000000E+00 -0.12831816428E+04  0.12831816428E+04  0.00000000000E+00 0. -1.
         23    2    1    2    0    0 -0.55161721553E+03  0.59291951536E+03  0.31936225345E+03  0.87530706721E+03  0.91296817107E+02 0.  0.
        254    2    1    2    0    0  0.55161721553E+03 -0.59291951536E+03 -0.64366952454E+03  0.13667489474E+04  0.89322848377E+03 0.  0.
         23    2    4    4    0    0  0.64472249821E+03 -0.50721725559E+03 -0.13710107267E+03  0.83677673778E+03  0.91990003221E+02 0.  0.
         23    2    4    4    0    0 -0.93105282679E+02 -0.85702259773E+02 -0.50656845187E+03  0.52997220962E+03  0.90804600897E+02 0.  0.
          3    1    3    3  502    0 -0.10458328195E+03  0.78549180116E+02  0.25950186809E+02  0.13334559894E+03  0.00000000000E+00 0. -1.
         -3    1    3    3    0  502 -0.44703393358E+03  0.51437033524E+03  0.29341206664E+03  0.74196146827E+03  0.00000000000E+00 0.  1.
         11    1    5    5    0    0  0.49661058438E+03 -0.43643413912E+03 -0.10285352267E+03  0.66908570260E+03  0.00000000000E+00 0.  1.
        -11    1    5    5    0    0  0.14811191383E+03 -0.70783116470E+02 -0.34247549997E+02  0.16769103517E+03  0.00000000000E+00 0. -1.
          3    1    6    6  503    0 -0.42701401454E+02  0.78922305222E+01 -0.88211792448E+02  0.98320991226E+02  0.00000000000E+00 0. -1.
         -3    1    6    6    0  503 -0.50403881225E+02 -0.93594490295E+02 -0.41835665942E+03  0.43165121839E+03  0.00000000000E+00 0.  1.
<mgrwt>
<rscale>  0 0.22184769E+04</rscale>
<asrwt>0</asrwt>
<pdfrwt beam="1">  1        2 0.14751914E+00 0.22184769E+04</pdfrwt>
<pdfrwt beam="2">  1       -2 0.19741256E+00 0.22184769E+04</pdfrwt>
<totfact> 0.33808357E+00</totfact>
</mgrwt>
</event>
<event>
12    2  0.3552864E-008  0.3838838E+04  0.7818608E-02  0.8037871E-01
         -2   -1    0    0    0  501 -0.00000000000E+00  0.00000000000E+00  0.96500444771E+03  0.96500444771E+03  0.00000000000E+00 0.  1.
          2   -1    0    0  501    0  0.00000000000E+00 -0.00000000000E+00 -0.38177740708E+04  0.38177740708E+04  0.00000000000E+00 0. -1.
         23    2    1    2    0    0  0.34758453793E+02  0.65846237919E+03  0.75582585513E+03  0.10069377568E+04  0.88713402865E+02 0.  0.
        254    2    1    2    0    0 -0.34758453793E+02 -0.65846237919E+03 -0.36085954782E+04  0.37758407617E+04  0.89455646967E+03 0.  0.
         23    2    4    4    0    0 -0.29569693285E+03 -0.73273760199E+03 -0.22254647542E+04  0.23633465848E+04  0.91502120148E+02 0.  0.
         23    2    4    4    0    0  0.26093847905E+03  0.74275222804E+02 -0.13831307240E+04  0.14124941769E+04  0.92105926198E+02 0.  0.
          2    1    3    3  502    0 -0.47048761471E+01  0.47525780101E+03  0.50044640975E+03  0.69017296550E+03  0.00000000000E+00 0. -1.
         -2    1    3    3    0  502  0.39463329941E+02  0.18320457818E+03  0.25537944539E+03  0.31676479129E+03  0.00000000000E+00 0.  1.
         11    1    5    5    0    0 -0.65261293577E+02 -0.27902502598E+03 -0.80018177965E+03  0.84994404642E+03  0.00000000000E+00 0. -1.
        -11    1    5    5    0    0 -0.23043563927E+03 -0.45371257602E+03 -0.14252829746E+04  0.15134025384E+04  0.00000000000E+00 0.  1.
          3    1    6    6  503    0  0.23095648198E+02  0.28007862714E+02 -0.93528997425E+02  0.10032707859E+03  0.00000000000E+00 0. -1.
         -3    1    6    6    0  503  0.23784283086E+03  0.46267360089E+02 -0.12896017266E+04  0.13121670984E+04  0.00000000000E+00 0.  1.
<mgrwt>
<rscale>  0 0.38388378E+04</rscale>
<asrwt>0</asrwt>
<pdfrwt beam="1">  1        2 0.58734985E+00 0.38388378E+04</pdfrwt>
<pdfrwt beam="2">  1       -2 0.14846222E+00 0.38388378E+04</pdfrwt>
<totfact> 0.11682698E-01</totfact>
</mgrwt>
</event>
<event>
12    2  0.3552864E-008  0.1725371E+04  0.7818608E-02  0.8747025E-01
         -2   -1    0    0    0  501 -0.00000000000E+00  0.00000000000E+00  0.63083057542E+03  0.63083057542E+03  0.00000000000E+00 0.  1.
          2   -1    0    0  501    0  0.00000000000E+00 -0.00000000000E+00 -0.11797559388E+04  0.11797559388E+04  0.00000000000E+00 0. -1.
         23    2    1    2    0    0 -0.23614463256E+03  0.21367230315E+03 -0.76016705972E+03  0.82934663403E+03  0.92421534659E+02 0.  0.
        254    2    1    2    0    0  0.23614463256E+03 -0.21367230315E+03  0.21124169631E+03  0.98123988021E+03  0.90376352418E+03 0.  0.
         23    2    4    4    0    0  0.24328812729E+03 -0.28961832793E+03  0.52067422798E+03  0.65037290839E+03  0.93890252536E+02 0.  0.
         23    2    4    4    0    0 -0.71434947302E+01  0.75946024783E+02 -0.30943253167E+03  0.33086697182E+03  0.88913627691E+02 0.  0.
          2    1    3    3  502    0 -0.22993786497E+03  0.21820456807E+03 -0.69681065779E+03  0.76552579844E+03  0.00000000000E+00 0. -1.
         -2    1    3    3    0  502 -0.62067675963E+01 -0.45322649187E+01 -0.63356401932E+02  0.63820835587E+02  0.00000000000E+00 0.  1.
         11    1    5    5    0    0  0.11453316256E+03 -0.20457214365E+03  0.29138192411E+03  0.37399335954E+03  0.00000000000E+00 0. -1.
        -11    1    5    5    0    0  0.12875496474E+03 -0.85046184288E+02  0.22929230387E+03  0.27637954885E+03  0.00000000000E+00 0.  1.
          1    1    6    6  503    0  0.34482655461E+02  0.60553834523E+02 -0.22408821297E+03  0.23467285228E+03  0.00000000000E+00 0. -1.
         -1    1    6    6    0  503 -0.41626150191E+02  0.15392190260E+02 -0.85344318698E+02  0.96194119544E+02  0.00000000000E+00 0.  1.
<mgrwt>
<rscale>  0 0.17253708E+04</rscale>
<asrwt>0</asrwt>
<pdfrwt beam="1">  1        2 0.18150091E+00 0.17253708E+04</pdfrwt>
<pdfrwt beam="2">  1       -2 0.97050858E-01 0.17253708E+04</pdfrwt>
<totfact> 0.16400693E+01</totfact>
</mgrwt>
</event>
<event>
12    2  0.3552864E-008  0.2461488E+04  0.7818608E-02  0.8416835E-01
         -2   -1    0    0    0  501 -0.00000000000E+00  0.00000000000E+00  0.15979577645E+04  0.15979577645E+04  0.00000000000E+00 0.  1.
          2   -1    0    0  501    0  0.00000000000E+00 -0.00000000000E+00 -0.94791694413E+03  0.94791694413E+03  0.00000000000E+00 0. -1.
         23    2    1    2    0    0 -0.44781659568E+03 -0.96811323606E+03  0.20835479513E+03  0.10905162726E+04  0.89616286753E+02 0.  0.
        254    2    1    2    0    0  0.44781659568E+03  0.96811323606E+03  0.44168602526E+03  0.14553584361E+04  0.88611437829E+03 0.  0.
         23    2    4    4    0    0  0.30855036099E+03 -0.57117015486E+02 -0.12285819814E+01  0.32657435525E+03  0.90463370321E+02 0.  0.
         23    2    4    4    0    0  0.13926623469E+03  0.10252302515E+04  0.44291460724E+03  0.11287840808E+04  0.86533225173E+02 0.  0.
          2    1    3    3  502    0 -0.13556153780E+02 -0.78205233922E+02  0.42274880968E+01  0.79483957964E+02  0.00000000000E+00 0. -1.
         -2    1    3    3    0  502 -0.43426044190E+03 -0.88990800214E+03  0.20412730703E+03  0.10110323146E+04  0.00000000000E+00 0.  1.
         11    1    5    5    0    0  0.18769621781E+03 -0.76639248374E+02  0.13934368899E+02  0.20321813701E+03  0.00000000000E+00 0. -1.
        -11    1    5    5    0    0  0.12085414317E+03  0.19522232888E+02 -0.15162950881E+02  0.12335621824E+03  0.00000000000E+00 0.  1.
          2    1    6    6  503    0  0.81743379115E+02  0.30857562128E+03  0.14264841749E+03  0.34964190980E+03  0.00000000000E+00 0. -1.
         -2    1    6    6    0  503  0.57522855577E+02  0.71665463026E+03  0.30026618975E+03  0.77914217104E+03  0.00000000000E+00 0.  1.
<mgrwt>
<rscale>  0 0.24614884E+04</rscale>
<asrwt>0</asrwt>
<pdfrwt beam="1">  1        2 0.14583338E+00 0.24614884E+04</pdfrwt>
<pdfrwt beam="2">  1       -2 0.24583966E+00 0.24614884E+04</pdfrwt>
<totfact> 0.16609171E+00</totfact>
</mgrwt>
</event>
<event>
12    2  0.3552864E-008  0.2884074E+04  0.7818608E-02  0.8277632E-01
          2   -1    0    0  501    0  0.00000000000E+00  0.00000000000E+00  0.25443054645E+04  0.25443054645E+04  0.00000000000E+00 0.  1.
         -2   -1    0    0    0  501 -0.00000000000E+00 -0.00000000000E+00 -0.81730392649E+03  0.81730392649E+03  0.00000000000E+00 0. -1.
         23    2    1    2    0    0 -0.77744052385E+03  0.87855683964E+03  0.14252357078E+04  0.18480505451E+04  0.87852750891E+02 0.  0.
        254    2    1    2    0    0  0.77744052385E+03 -0.87855683964E+03  0.30176583020E+03  0.15135588459E+04  0.90748106046E+03 0.  0.
         23    2    4    4    0    0  0.40140055159E+03 -0.95898021123E+03  0.38079747536E+03  0.11107620105E+04  0.89554890175E+02 0.  0.
         23    2    4    4    0    0  0.37603997226E+03  0.80423371588E+02 -0.79031645160E+02  0.40279683541E+03  0.90140502791E+02 0.  0.
          2    1    3    3  502    0 -0.17795558863E+03  0.22096646014E+03  0.29096448068E+03  0.40639229453E+03  0.00000000000E+00 0. -1.
         -2    1    3    3    0  502 -0.59948493522E+03  0.65759037949E+03  0.11342712272E+04  0.14416582506E+04  0.00000000000E+00 0.  1.
         11    1    5    5    0    0  0.27142507448E+02 -0.13831311059E+03  0.63598392823E+02  0.15463501493E+03  0.00000000000E+00 0.  1.
        -11    1    5    5    0    0  0.37425804414E+03 -0.82066710063E+03  0.31719908254E+03  0.95612699555E+03  0.00000000000E+00 0. -1.
          4    1    6    6  503    0  0.22250492005E+03  0.83381354783E+02 -0.20652438787E+02  0.23851082365E+03  0.00000000000E+00 0. -1.
         -4    1    6    6    0  503  0.15353505221E+03 -0.29579831944E+01 -0.58379206372E+02  0.16428601175E+03  0.00000000000E+00 0.  1.
<mgrwt>
<rscale>  0 0.28840741E+04</rscale>
<asrwt>0</asrwt>
<pdfrwt beam="1">  1        2 0.39143161E+00 0.28840741E+04</pdfrwt>
<pdfrwt beam="2">  1       -2 0.12573907E+00 0.28840741E+04</pdfrwt>
<totfact> 0.13389962E+00</totfact>
</mgrwt>
</event>
<event>
12    2  0.3552864E-008  0.1423662E+04  0.7818608E-02  0.8936867E-01
         -2   -1    0    0    0  501 -0.00000000000E+00  0.00000000000E+00  0.51946163304E+03  0.51946163304E+03  0.00000000000E+00 0.  1.
          2   -1    0    0  501    0  0.00000000000E+00 -0.00000000000E+00 -0.97543918680E+03  0.97543918680E+03  0.00000000000E+00 0. -1.
         23    2    1    2    0    0  0.14036362647E+03 -0.28792747329E+03  0.15226124149E+03  0.36383637192E+03  0.81174148349E+02 0.  0.
        254    2    1    2    0    0 -0.14036362647E+03  0.28792747329E+03 -0.60823879525E+03  0.11310644479E+04  0.89819161419E+03 0.  0.
         23    2    4    4    0    0  0.31225295589E+03 -0.76396537310E+02 -0.88744624940E+02  0.34645147490E+03  0.93886509299E+02 0.  0.
         23    2    4    4    0    0 -0.45261658236E+03  0.36432401060E+03 -0.51949417031E+03  0.78461297303E+03  0.90274964016E+02 0.  0.
          3    1    3    3  502    0  0.25943592565E+02 -0.46331735127E+02 -0.55817011534E+01  0.53393399057E+02  0.00000000000E+00 0. -1.
         -3    1    3    3    0  502  0.11442003391E+03 -0.24159573816E+03  0.15784294264E+03  0.31044297286E+03  0.00000000000E+00 0.  1.
         11    1    5    5    0    0  0.28404607016E+03 -0.76968339900E+02 -0.10667069119E+03  0.31302544893E+03  0.00000000000E+00 0. -1.
        -11    1    5    5    0    0  0.28206885729E+02  0.57180259035E+00  0.17926066248E+02  0.33426025966E+02  0.00000000000E+00 0.  1.
          1    1    6    6  503    0 -0.37895627920E+03  0.32911575550E+03 -0.41036611883E+03  0.64832506781E+03  0.00000000000E+00 0. -1.
         -1    1    6    6    0  503 -0.73660303161E+02  0.35208255097E+02 -0.10912805148E+03  0.13628790522E+03  0.00000000000E+00 0.  1.
<mgrwt>
<rscale>  0 0.14236618E+04</rscale>
<asrwt>0</asrwt>
<pdfrwt beam="1">  1        2 0.15006757E+00 0.14236618E+04</pdfrwt>
<pdfrwt beam="2">  1       -2 0.79917174E-01 0.14236618E+04</pdfrwt>
<totfact> 0.35183620E+01</totfact>
</mgrwt>
</event>
<event>
12    2  0.3552864E-008  0.1314497E+04  0.7818608E-02  0.9018147E-01
         -1   -1    0    0    0  501 -0.00000000000E+00  0.00000000000E+00  0.18437325532E+03  0.18437325532E+03  0.00000000000E+00 0.  1.
          1   -1    0    0  501    0  0.00000000000E+00 -0.00000000000E+00 -0.23429399749E+04  0.23429399749E+04  0.00000000000E+00 0. -1.
         23    2    1    2    0    0  0.46264472796E+02 -0.31358020515E+03 -0.31474292068E+03  0.45604946075E+03  0.91896996799E+02 0.  0.
        254    2    1    2    0    0 -0.46264472796E+02  0.31358020515E+03 -0.18438237989E+04  0.20712637695E+04  0.88880507135E+03 0.  0.
         23    2    4    4    0    0 -0.75776150336E+01 -0.28907800028E+03 -0.86986729062E+03  0.92166951583E+03  0.95823184167E+02 0.  0.
         23    2    4    4    0    0 -0.38686857762E+02  0.60265820543E+03 -0.97395650832E+03  0.11495942537E+04  0.91005947429E+02 0.  0.
          3    1    3    3  502    0 -0.52706416398E+01 -0.34450691263E+01  0.46937911948E+01  0.78536514031E+01  0.00000000000E+00 0. -1.
         -3    1    3    3    0  502  0.51535114436E+02 -0.31013513603E+03 -0.31943671188E+03  0.44819580934E+03  0.00000000000E+00 0.  1.
         11    1    5    5    0    0  0.16654958352E+02 -0.12002947640E+03 -0.49690836066E+03  0.51147080243E+03  0.00000000000E+00 0. -1.
        -11    1    5    5    0    0 -0.24232573386E+02 -0.16904852388E+03 -0.37295892996E+03  0.41019871340E+03  0.00000000000E+00 0.  1.
          3    1    6    6  503    0 -0.32010397865E+02  0.31244160319E+03 -0.42315589953E+03  0.52697754817E+03  0.00000000000E+00 0. -1.
         -3    1    6    6    0  503 -0.66764598973E+01  0.29021660224E+03 -0.55080060879E+03  0.62261670551E+03  0.00000000000E+00 0.  1.
<mgrwt>
<rscale>  0 0.13144968E+04</rscale>
<asrwt>0</asrwt>
<pdfrwt beam="1">  1        1 0.36045230E+00 0.13144968E+04</pdfrwt>
<pdfrwt beam="2">  1       -1 0.28365117E-01 0.13144968E+04</pdfrwt>
<totfact> 0.19274778E+01</totfact>
</mgrwt>
</event>
<event>
12    2  0.3552864E-008  0.1039455E+04  0.7818608E-02  0.9266300E-01
         -2   -1    0    0    0  501 -0.00000000000E+00  0.00000000000E+00  0.15496966831E+03  0.15496966831E+03  0.00000000000E+00 0.  1.
          2   -1    0    0  501    0  0.00000000000E+00 -0.00000000000E+00 -0.17430284485E+04  0.17430284485E+04  0.00000000000E+00 0. -1.
         23    2    1    2    0    0 -0.56845798200E+02 -0.66897997294E+02 -0.42572611652E+02  0.13448703303E+03  0.92561049995E+02 0.  0.
        254    2    1    2    0    0  0.56845798200E+02  0.66897997294E+02 -0.15454861685E+04  0.17635110838E+04  0.84482960331E+03 0.  0.
         23    2    4    4    0    0 -0.50467517026E+02  0.42864923459E+03 -0.62852941050E+03  0.76756634403E+03  0.88440579133E+02 0.  0.
         23    2    4    4    0    0  0.10731331523E+03 -0.36175123730E+03 -0.91695675802E+03  0.99594473973E+03  0.93360179944E+02 0.  0.
          4    1    3    3  502    0  0.11268244736E+02 -0.29006020925E+01 -0.39279668280E+02  0.40966805735E+02  0.00000000000E+00 0. -1.
         -4    1    3    3    0  502 -0.68114042936E+02 -0.63997395201E+02 -0.32929433718E+01  0.93520227297E+02  0.00000000000E+00 0.  1.
         11    1    5    5    0    0 -0.64458279037E+02  0.18390248750E+03 -0.25923450938E+03  0.32431084703E+03  0.00000000000E+00 0.  1.
        -11    1    5    5    0    0  0.13990762011E+02  0.24474674709E+03 -0.36929490112E+03  0.44325549701E+03  0.00000000000E+00 0. -1.
          3    1    6    6  503    0 -0.31664629868E+01 -0.12179725420E+02 -0.96332041929E+02  0.97150576434E+02  0.00000000000E+00 0. -1.
         -3    1    6    6    0  503  0.11047977821E+03 -0.34957151187E+03 -0.82062471609E+03  0.89879416329E+03  0.00000000000E+00 0.  1.
<mgrwt>
<rscale>  0 0.10394547E+04</rscale>
<asrwt>0</asrwt>
<pdfrwt beam="1">  1        2 0.26815824E+00 0.10394547E+04</pdfrwt>
<pdfrwt beam="2">  1       -2 0.23841486E-01 0.10394547E+04</pdfrwt>
<totfact> 0.14461605E+02</totfact>
</mgrwt>
</event>
<event>
12    2  0.3552864E-008  0.1820183E+04  0.7818608E-02  0.8695639E-01
          1   -1    0    0  501    0  0.00000000000E+00  0.00000000000E+00  0.20438892296E+04  0.20438892296E+04  0.00000000000E+00 0. -1.
         -1   -1    0    0    0  501 -0.00000000000E+00 -0.00000000000E+00 -0.40524056631E+03  0.40524056631E+03  0.00000000000E+00 0.  1.
         23    2    1    2    0    0  0.34166842574E+02  0.66381986402E+03  0.83475038252E+03  0.10711309765E+04  0.93215786226E+02 0.  0.
        254    2    1    2    0    0 -0.34166842574E+02 -0.66381986402E+03  0.80389828074E+03  0.13779988193E+04  0.90044661991E+03 0.  0.
         23    2    4    4    0    0 -0.91041396292E+02 -0.66396410698E+03  0.96943290918E+03  0.11820052578E+04  0.90550499453E+02 0.  0.
         23    2    4    4    0    0  0.56874553718E+02  0.14424296960E+00 -0.16553462845E+03  0.19599356149E+03  0.88187455253E+02 0.  0.
          3    1    3    3  502    0  0.42278144301E+02  0.66070521655E+03  0.82791108916E+03  0.10600733919E+04  0.00000000000E+00 0. -1.
         -3    1    3    3    0  502 -0.81113017272E+01  0.31146474700E+01  0.68392933695E+01  0.11057584653E+02  0.00000000000E+00 0.  1.
         11    1    5    5    0    0 -0.50361920724E+02 -0.28487897957E+03  0.34343972746E+03  0.44904699359E+03  0.00000000000E+00 0. -1.
        -11    1    5    5    0    0 -0.40679475568E+02 -0.37908512742E+03  0.62599318173E+03  0.73295826425E+03  0.00000000000E+00 0.  1.
          1    1    6    6  503    0  0.23382694157E+02 -0.35771885815E+02 -0.31055478977E+02  0.52828221391E+02  0.00000000000E+00 0. -1.
         -1    1    6    6    0  503  0.33491859561E+02  0.35916128785E+02 -0.13447914947E+03  0.14316534010E+03  0.00000000000E+00 0.  1.
<mgrwt>
<rscale>  0 0.18201833E+04</rscale>
<asrwt>0</asrwt>
<pdfrwt beam="1">  1        1 0.31444449E+00 0.18201833E+04</pdfrwt>
<pdfrwt beam="2">  1       -1 0.62344704E-01 0.18201833E+04</pdfrwt>
<totfact> 0.68403234E+00</totfact>
</mgrwt>
</event>
<event>
12    2  0.3552864E-008  0.1217717E+04  0.7818608E-02  0.9097489E-01
         -1   -1    0    0    0  501 -0.00000000000E+00  0.00000000000E+00  0.30239146516E+03  0.30239146516E+03  0.00000000000E+00 0.  1.
          1   -1    0    0  501    0  0.00000000000E+00 -0.00000000000E+00 -0.12259222316E+04  0.12259222316E+04  0.00000000000E+00 0. -1.
         23    2    1    2    0    0 -0.16987115856E+03 -0.14973007219E+02 -0.46299876717E+03  0.50281561638E+03  0.96826051379E+02 0.  0.
        254    2    1    2    0    0  0.16987115856E+03  0.14973007219E+02 -0.46053199931E+03  0.10254980804E+04  0.90026451063E+03 0.  0.
         23    2    4    4    0    0 -0.21294941266E+03  0.28631598789E+03 -0.89557343679E+01  0.36838285410E+03  0.91112154735E+02 0.  0.
         23    2    4    4    0    0  0.38282057122E+03 -0.27134298068E+03 -0.45157626494E+03  0.65711522632E+03  0.87753602125E+02 0.  0.
          3    1    3    3  502    0 -0.75163344717E+02  0.36813943964E+02 -0.15059530774E+03  0.17228970246E+03  0.00000000000E+00 0.  1.
         -3    1    3    3    0  502 -0.94707813842E+02 -0.51786951182E+02 -0.31240345943E+03  0.33052591393E+03  0.00000000000E+00 0. -1.
         11    1    5    5    0    0 -0.55187467348E+02  0.14780708913E+03  0.62346508083E+01  0.15789700131E+03  0.00000000000E+00 0.  1.
        -11    1    5    5    0    0 -0.15776194532E+03  0.13850889876E+03 -0.15190385176E+02  0.21048585280E+03  0.00000000000E+00 0. -1.
          4    1    6    6  503    0  0.10183510141E+03 -0.28230947708E+02 -0.93647570676E+02  0.14119929809E+03  0.00000000000E+00 0. -1.
         -4    1    6    6    0  503  0.28098546981E+03 -0.24311203297E+03 -0.35792869426E+03  0.51591592822E+03  0.00000000000E+00 0.  1.
<mgrwt>
<rscale>  0 0.12177166E+04</rscale>
<asrwt>0</asrwt>
<pdfrwt beam="1">  1        1 0.18860342E+00 0.12177166E+04</pdfrwt>
<pdfrwt beam="2">  1       -1 0.46521763E-01 0.12177166E+04</pdfrwt>
<totfact> 0.46512022E+01</totfact>
</mgrwt>
</event>
<event>
12    2  0.3552864E-008  0.1621542E+04  0.7818608E-02  0.8807422E-01
         -2   -1    0    0    0  501 -0.00000000000E+00  0.00000000000E+00  0.20677357641E+03  0.20677357641E+03  0.00000000000E+00 0.  1.
          2   -1    0    0  501    0  0.00000000000E+00 -0.00000000000E+00 -0.31790807791E+04  0.31790807791E+04  0.00000000000E+00 0. -1.
         23    2    1    2    0    0  0.52847726007E+02 -0.21465846786E+03  0.26456822042E+02  0.23944179954E+03  0.88098081510E+02 0.  0.
        254    2    1    2    0    0 -0.52847726007E+02  0.21465846786E+03 -0.29987640247E+04  0.31464125560E+04  0.92652855127E+03 0.  0.
         23    2    4    4    0    0 -0.19117267501E+03 -0.14239251351E+03 -0.24905780346E+04  0.25036312462E+04  0.91475958291E+02 0.  0.
         23    2    4    4    0    0  0.13832494900E+03  0.35705098137E+03 -0.50818599019E+03  0.64278130982E+03  0.91080276746E+02 0.  0.
          3    1    3    3  502    0  0.63721681700E+02 -0.84865244398E+02  0.25695373685E+02  0.10919164187E+03  0.00000000000E+00 0. -1.
         -3    1    3    3    0  502 -0.10873955693E+02 -0.12979322347E+03  0.76144835717E+00  0.13025015767E+03  0.00000000000E+00 0.  1.
         11    1    5    5    0    0 -0.86579106627E+02 -0.84419828283E+02 -0.16716419755E+04  0.16760100069E+04  0.00000000000E+00 0. -1.
        -11    1    5    5    0    0 -0.10459356838E+03 -0.57972685225E+02 -0.81893605905E+03  0.82762123921E+03  0.00000000000E+00 0.  1.
          2    1    6    6  503    0  0.45170624191E+02  0.92573504300E+02 -0.20736942049E+03  0.23154333405E+03  0.00000000000E+00 0.  1.
         -2    1    6    6    0  503  0.93154324810E+02  0.26447747707E+03 -0.30081656970E+03  0.41123797577E+03  0.00000000000E+00 0. -1.
<mgrwt>
<rscale>  0 0.16215424E+04</rscale>
<asrwt>0</asrwt>
<pdfrwt beam="1">  1        2 0.48908933E+00 0.16215424E+04</pdfrwt>
<pdfrwt beam="2">  1       -2 0.31811321E-01 0.16215424E+04</pdfrwt>
<totfact> 0.11856488E+01</totfact>
</mgrwt>
</event>
<event>
12    2  0.3552864E-008  0.2322922E+04  0.7818608E-02  0.8468938E-01
         -2   -1    0    0    0  501 -0.00000000000E+00  0.00000000000E+00  0.56415652347E+03  0.56415652347E+03  0.00000000000E+00 0.  1.
          2   -1    0    0  501    0  0.00000000000E+00 -0.00000000000E+00 -0.23911656628E+04  0.23911656628E+04  0.00000000000E+00 0. -1.
         23    2    1    2    0    0  0.77878870622E+03 -0.24661250270E+03 -0.14704913712E+04  0.16847700226E+04  0.93678069474E+02 0.  0.
        254    2    1    2    0    0 -0.77878870622E+03  0.24661250270E+03 -0.35651776810E+03  0.12705521637E+04  0.90546579518E+03 0.  0.
         23    2    4    4    0    0  0.12806255166E+02 -0.14938045868E+03  0.16378068536E+03  0.23975014259E+03  0.90429510510E+02 0.  0.
         23    2    4    4    0    0 -0.79159496138E+03  0.39599296138E+03 -0.52029845345E+03  0.10308020211E+04  0.91702331852E+02 0.  0.
          1    1    3    3  502    0  0.38474886603E+03 -0.73702829846E+02 -0.68205724866E+03  0.78655316889E+03  0.00000000000E+00 0. -1.
         -1    1    3    3    0  502  0.39403984018E+03 -0.17290967285E+03 -0.78843412257E+03  0.89821685369E+03  0.00000000000E+00 0.  1.
         11    1    5    5    0    0 -0.17223924425E+02  0.32933111654E+01  0.29019457504E+02  0.33906317772E+02  0.00000000000E+00 0.  1.
        -11    1    5    5    0    0  0.30030179591E+02 -0.15267376984E+03  0.13476122785E+03  0.20584382482E+03  0.00000000000E+00 0. -1.
          4    1    6    6  503    0 -0.62665445265E+03  0.28950819681E+03 -0.36754173033E+03  0.78204713578E+03  0.00000000000E+00 0. -1.
         -4    1    6    6    0  503 -0.16494050873E+03  0.10648476456E+03 -0.15275672312E+03  0.24875488531E+03  0.00000000000E+00 0.  1.
<mgrwt>
<rscale>  0 0.23229220E+04</rscale>
<asrwt>0</asrwt>
<pdfrwt beam="1">  1        2 0.36787164E+00 0.23229220E+04</pdfrwt>
<pdfrwt beam="2">  1       -2 0.86793312E-01 0.23229220E+04</pdfrwt>
<totfact> 0.41807428E+00</totfact>
</mgrwt>
</event>
<event>
12    2  0.3552864E-008  0.1488874E+04  0.7818608E-02  0.8891886E-01
          2   -1    0    0  501    0  0.00000000000E+00  0.00000000000E+00  0.15230813472E+04  0.15230813472E+04  0.00000000000E+00 0. -1.
         -2   -1    0    0    0  501 -0.00000000000E+00 -0.00000000000E+00 -0.36385861874E+03  0.36385861874E+03  0.00000000000E+00 0.  1.
         23    2    1    2    0    0  0.27672329105E+03 -0.12324230864E+03 -0.78659482331E+02  0.32592111005E+03  0.90954985378E+02 0.  0.
        254    2    1    2    0    0 -0.27672329105E+03  0.12324230864E+03  0.12378822108E+04  0.15610188559E+04  0.90147826052E+03 0.  0.
         23    2    4    4    0    0  0.39473364560E+02 -0.17422990255E+02  0.11965066985E+04  0.12009198349E+04  0.93372711963E+02 0.  0.
         23    2    4    4    0    0 -0.31619665561E+03  0.14066529890E+03  0.41375512315E+02  0.36009902095E+03  0.90511438714E+02 0.  0.
          2    1    3    3  502    0  0.27997534200E+03 -0.10839486117E+03 -0.79885300518E+02  0.31067233429E+03  0.00000000000E+00 0.  1.
         -2    1    3    3    0  502 -0.32520509478E+01 -0.14847447475E+02  0.12258181869E+01  0.15248775758E+02  0.00000000000E+00 0. -1.
         11    1    5    5    0    0  0.13509249680E+01  0.18733978651E+02  0.53412542737E+02  0.56618783774E+02  0.00000000000E+00 0. -1.
        -11    1    5    5    0    0  0.38122439592E+02 -0.36156968906E+02  0.11430941557E+04  0.11443010512E+04  0.00000000000E+00 0.  1.
          2    1    6    6  503    0  0.74487879214E-01 -0.66264094601E+01 -0.47815924488E+01  0.81718099049E+01  0.00000000000E+00 0. -1.
         -2    1    6    6    0  503 -0.31627114349E+03  0.14729170836E+03  0.46157104763E+02  0.35192721105E+03  0.00000000000E+00 0.  1.
<mgrwt>
<rscale>  0 0.14888738E+04</rscale>
<asrwt>0</asrwt>
<pdfrwt beam="1">  1        2 0.23432020E+00 0.14888738E+04</pdfrwt>
<pdfrwt beam="2">  1       -2 0.55978250E-01 0.14888738E+04</pdfrwt>
<totfact> 0.35691670E+01</totfact>
</mgrwt>
</event>
<event>
12    2  0.3552864E-008  0.2933280E+04  0.7818608E-02  0.8263044E-01
         -2   -1    0    0    0  501 -0.00000000000E+00  0.00000000000E+00  0.86547304415E+03  0.86547304415E+03  0.00000000000E+00 0.  1.
          2   -1    0    0  501    0  0.00000000000E+00 -0.00000000000E+00 -0.24853833139E+04  0.24853833139E+04  0.00000000000E+00 0. -1.
         23    2    1    2    0    0  0.35927992456E+02  0.48917581552E+03 -0.21361402123E+04  0.21935985414E+04  0.90530407703E+02 0.  0.
        254    2    1    2    0    0 -0.35927992456E+02 -0.48917581552E+03  0.51622994256E+03  0.11572578167E+04  0.91223270148E+03 0.  0.
         23    2    4    4    0    0 -0.58225663664E+02  0.52876183744E+02 -0.21234582976E+03  0.24432537529E+03  0.91749762271E+02 0.  0.
         23    2    4    4    0    0  0.22297671208E+02 -0.54205199926E+03  0.72857577231E+03  0.91293244144E+03  0.91134135125E+02 0.  0.
          1    1    3    3  502    0  0.61205504626E+02  0.25800759707E+03 -0.10663273044E+04  0.10988029642E+04  0.00000000000E+00 0. -1.
         -1    1    3    3    0  502 -0.25277512170E+02  0.23116821846E+03 -0.10698129079E+04  0.10947955772E+04  0.00000000000E+00 0.  1.
         11    1    5    5    0    0 -0.19888030546E+02 -0.29849222882E+01  0.13406958767E+01  0.20155420748E+02  0.00000000000E+00 0. -1.
        -11    1    5    5    0    0 -0.38337633118E+02  0.55861106032E+02 -0.21368652563E+03  0.22416995454E+03  0.00000000000E+00 0.  1.
          3    1    6    6  503    0  0.45503173088E+02 -0.26150196306E+03  0.40263290789E+03  0.48225208549E+03  0.00000000000E+00 0. -1.
         -3    1    6    6    0  503 -0.23205501880E+02 -0.28055003620E+03  0.32594286442E+03  0.43068035595E+03  0.00000000000E+00 0.  1.
<mgrwt>
<rscale>  0 0.29332796E+04</rscale>
<asrwt>0</asrwt>
<pdfrwt beam="1">  1        2 0.38236666E+00 0.29332796E+04</pdfrwt>
<pdfrwt beam="2">  1       -2 0.13314970E+00 0.29332796E+04</pdfrwt>
<totfact> 0.12483154E+00</totfact>
</mgrwt>
</event>
<event>
12    2  0.3552864E-008  0.1214029E+04  0.7818608E-02  0.9100665E-01
          1   -1    0    0  501    0  0.00000000000E+00  0.00000000000E+00  0.15895494618E+03  0.15895494618E+03  0.00000000000E+00 0. -1.
         -1   -1    0    0    0  501 -0.00000000000E+00 -0.00000000000E+00 -0.23180573056E+04  0.23180573056E+04  0.00000000000E+00 0.  1.
         23    2    1    2    0    0 -0.16899094965E+03 -0.20613539420E+03 -0.44553545565E+03  0.52691199461E+03  0.89914770832E+02 0.  0.
        254    2    1    2    0    0  0.16899094965E+03  0.20613539420E+03 -0.17135669038E+04  0.19501002572E+04  0.89192473761E+03 0.  0.
         23    2    4    4    0    0 -0.19523037791E+03  0.31480443107E+03 -0.30769709523E+03  0.49104169991E+03  0.96061013751E+02 0.  0.
         23    2    4    4    0    0  0.36422132756E+03 -0.10866903687E+03 -0.14058698086E+04  0.14590585573E+04  0.88970893749E+02 0.  0.
          2    1    3    3  502    0  0.11034144469E+02 -0.81827230701E+01 -0.21867663125E+02  0.25824484343E+02  0.00000000000E+00 0. -1.
         -2    1    3    3    0  502 -0.18002509412E+03 -0.19795267113E+03 -0.42366779253E+03  0.50108751027E+03  0.00000000000E+00 0.  1.
         11    1    5    5    0    0 -0.13881112999E+03  0.22719100357E+03 -0.27269508206E+03  0.38111269946E+03  0.00000000000E+00 0. -1.
        -11    1    5    5    0    0 -0.56419247919E+02  0.87613427503E+02 -0.35002013166E+02  0.10992900045E+03  0.00000000000E+00 0.  1.
          4    1    6    6  503    0  0.10204149120E+03 -0.74814750448E+01 -0.26448096211E+03  0.28358176548E+03  0.00000000000E+00 0. -1.
         -4    1    6    6    0  503  0.26217983636E+03 -0.10118756183E+03 -0.11413888464E+04  0.11754767918E+04  0.00000000000E+00 0.  1.
<mgrwt>
<rscale>  0 0.12140291E+04</rscale>
<asrwt>0</asrwt>
<pdfrwt beam="1">  1        1 0.24454607E-01 0.12140291E+04</pdfrwt>
<pdfrwt beam="2">  1       -1 0.35662420E+00 0.12140291E+04</pdfrwt>
<totfact> 0.28238637E+00</totfact>
</mgrwt>
</event>
<event>
12    2  0.3552864E-008  0.1611955E+04  0.7818608E-02  0.8813237E-01
         -2   -1    0    0    0  501 -0.00000000000E+00  0.00000000000E+00  0.75421832747E+03  0.75421832747E+03  0.00000000000E+00 0.  1.
          2   -1    0    0  501    0  0.00000000000E+00 -0.00000000000E+00 -0.86128920257E+03  0.86128920257E+03  0.00000000000E+00 0. -1.
         23    2    1    2    0    0 -0.48724582337E+02  0.14070676788E+03 -0.57024178148E+03  0.59620484078E+03  0.90066882729E+02 0.  0.
        254    2    1    2    0    0  0.48724582337E+02 -0.14070676788E+03  0.46317090638E+03  0.10193026893E+04  0.89569984056E+03 0.  0.
         23    2    4    4    0    0  0.23467510811E+03  0.20484536250E+03  0.51917637029E+03  0.61246376894E+03  0.92378221954E+02 0.  0.
         23    2    4    4    0    0 -0.18595052577E+03 -0.34555213038E+03 -0.56005463913E+02  0.40683892033E+03  0.91637450098E+02 0.  0.
          1    1    3    3  502    0 -0.52519851979E+02  0.10148554279E+03 -0.51971674506E+03  0.53213075963E+03  0.00000000000E+00 0. -1.
         -1    1    3    3    0  502  0.37952696418E+01  0.39221225091E+02 -0.50525036421E+02  0.64074081146E+02  0.00000000000E+00 0.  1.
         11    1    5    5    0    0  0.56222380514E+02  0.59150470603E+02  0.69422226629E+02  0.10714093426E+03  0.00000000000E+00 0. -1.
        -11    1    5    5    0    0  0.17845272759E+03  0.14569489190E+03  0.44975414366E+03  0.50532283468E+03  0.00000000000E+00 0.  1.
          1    1    6    6  503    0 -0.22999540981E+02 -0.43549307453E+01 -0.11611451822E+02  0.26129870275E+02  0.00000000000E+00 0. -1.
         -1    1    6    6    0  503 -0.16295098479E+03 -0.34119719964E+03 -0.44394012091E+02  0.38070905005E+03  0.00000000000E+00 0.  1.
<mgrwt>
<rscale>  0 0.16119555E+04</rscale>
<asrwt>0</asrwt>
<pdfrwt beam="1">  1        2 0.13250603E+00 0.16119555E+04</pdfrwt>
<pdfrwt beam="2">  1       -2 0.11603359E+00 0.16119555E+04</pdfrwt>
<totfact> 0.17227379E+01</totfact>
</mgrwt>
</event>
<event>
12    2  0.3552864E-008  0.1518581E+04  0.7818608E-02  0.8872190E-01
          1   -1    0    0  501    0  0.00000000000E+00  0.00000000000E+00  0.90657672761E+03  0.90657672761E+03  0.00000000000E+00 0. -1.
         -1   -1    0    0    0  501 -0.00000000000E+00 -0.00000000000E+00 -0.63593328418E+03  0.63593328418E+03  0.00000000000E+00 0.  1.
         23    2    1    2    0    0 -0.36465672356E+03 -0.24068822423E+03 -0.11532439651E+03  0.46093939633E+03  0.90884890573E+02 0.  0.
        254    2    1    2    0    0  0.36465672356E+03  0.24068822423E+03  0.38596783994E+03  0.10815706155E+04  0.91099861440E+03 0.  0.
         23    2    4    4    0    0  0.19205276657E+03  0.36102191054E+03  0.62376423635E+03  0.75128019003E+03  0.90105584438E+02 0.  0.
         23    2    4    4    0    0  0.17260395699E+03 -0.12033368631E+03 -0.23779639641E+03  0.33029042543E+03  0.90952278462E+02 0.  0.
          1    1    3    3  502    0 -0.58934693496E+02 -0.77738301740E+02 -0.63161377145E+01  0.97757021489E+02  0.00000000000E+00 0. -1.
         -1    1    3    3    0  502 -0.30572203007E+03 -0.16294992249E+03 -0.10900825880E+03  0.36318237484E+03  0.00000000000E+00 0.  1.
         11    1    5    5    0    0  0.83917403484E+01  0.26057519574E+02  0.11668782816E+02  0.29758631098E+02  0.00000000000E+00 0.  1.
        -11    1    5    5    0    0  0.18366102622E+03  0.33496439096E+03  0.61209545353E+03  0.72152155893E+03  0.00000000000E+00 0. -1.
          4    1    6    6  503    0  0.16817218776E+03 -0.76161743828E+02 -0.18586412503E+03  0.26196940457E+03  0.00000000000E+00 0. -1.
         -4    1    6    6    0  503  0.44317692342E+01 -0.44171942478E+02 -0.51932271379E+02  0.68321020861E+02  0.00000000000E+00 0.  1.
<mgrwt>
<rscale>  0 0.15185813E+04</rscale>
<asrwt>0</asrwt>
<pdfrwt beam="1">  1        1 0.13947334E+00 0.15185813E+04</pdfrwt>
<pdfrwt beam="2">  1       -1 0.97835890E-01 0.15185813E+04</pdfrwt>
<totfact> 0.17397213E+01</totfact>
</mgrwt>
</event>
<event>
12    2  0.3552864E-008  0.1734377E+04  0.7818608E-02  0.8741997E-01
         -2   -1    0    0    0  501 -0.00000000000E+00  0.00000000000E+00  0.83829562645E+03  0.83829562645E+03  0.00000000000E+00 0.  1.
          2   -1    0    0  501    0  0.00000000000E+00 -0.00000000000E+00 -0.89707739108E+03  0.89707739108E+03  0.00000000000E+00 0. -1.
         23    2    1    2    0    0 -0.42047364771E+03  0.26547807299E+03  0.35025114600E+03  0.61542055822E+03  0.93754480158E+02 0.  0.
        254    2    1    2    0    0  0.42047364771E+03 -0.26547807299E+03 -0.40903291063E+03  0.11199524593E+04  0.91635631360E+03 0.  0.
         23    2    4    4    0    0 -0.16830954474E+03 -0.38158372891E+03 -0.23906839551E+03  0.48950819044E+03  0.92359762650E+02 0.  0.
         23    2    4    4    0    0  0.58878319245E+03  0.11610565593E+03 -0.16996451512E+03  0.63044426886E+03  0.91792530736E+02 0.  0.
          4    1    3    3  502    0 -0.14548948911E+03  0.68314406922E+02  0.66948022292E+02  0.17411515535E+03  0.00000000000E+00 0. -1.
         -4    1    3    3    0  502 -0.27498415860E+03  0.19716366606E+03  0.28330312371E+03  0.44130540287E+03  0.00000000000E+00 0.  1.
         11    1    5    5    0    0 -0.24911618363E+00  0.64329302724E+00  0.55460202044E+01  0.55887587978E+01  0.00000000000E+00 0. -1.
        -11    1    5    5    0    0 -0.16806042855E+03 -0.38222702194E+03 -0.24461441572E+03  0.48391943165E+03  0.00000000000E+00 0.  1.
          1    1    6    6  503    0  0.18610762752E+03  0.51396518611E+02 -0.97205441118E+02  0.21616324602E+03  0.00000000000E+00 0. -1.
         -1    1    6    6    0  503  0.40267556492E+03  0.64709137317E+02 -0.72759074000E+02  0.41428102284E+03  0.00000000000E+00 0.  1.
<mgrwt>
<rscale>  0 0.17343772E+04</rscale>
<asrwt>0</asrwt>
<pdfrwt beam="1">  1        2 0.13801191E+00 0.17343772E+04</pdfrwt>
<pdfrwt beam="2">  1       -2 0.12896856E+00 0.17343772E+04</pdfrwt>
<totfact> 0.12386454E+01</totfact>
</mgrwt>
</event>
<event>
12    2  0.3552864E-008  0.2074060E+04  0.7818608E-02  0.8572757E-01
         -2   -1    0    0    0  501 -0.00000000000E+00  0.00000000000E+00  0.11065650368E+04  0.11065650368E+04  0.00000000000E+00 0.  1.
          2   -1    0    0  501    0  0.00000000000E+00 -0.00000000000E+00 -0.97186481791E+03  0.97186481791E+03  0.00000000000E+00 0. -1.
         23    2    1    2    0    0 -0.23359206502E+03  0.28907778682E+03  0.80558209353E+03  0.89186006702E+03  0.91217597301E+02 0.  0.
        254    2    1    2    0    0  0.23359206502E+03 -0.28907778682E+03 -0.67088187461E+03  0.11865697877E+04  0.90539171179E+03 0.  0.
         23    2    4    4    0    0  0.43580598560E+03 -0.49319090156E+03 -0.36870887461E+03  0.75976340025E+03  0.90166887920E+02 0.  0.
         23    2    4    4    0    0 -0.20221392058E+03  0.20411311474E+03 -0.30217299999E+03  0.42680638747E+03  0.91118259279E+02 0.  0.
          3    1    3    3  502    0 -0.49332393032E+02  0.62793711996E+02  0.97661086979E+02  0.12615238079E+03  0.00000000000E+00 0. -1.
         -3    1    3    3    0  502 -0.18425967199E+03  0.22628407482E+03  0.70792100655E+03  0.76570768623E+03  0.00000000000E+00 0.  1.
         11    1    5    5    0    0  0.49469688315E+02 -0.20223646509E+02 -0.34231591415E+02  0.63466903114E+02  0.00000000000E+00 0. -1.
        -11    1    5    5    0    0  0.38633629728E+03 -0.47296725505E+03 -0.33447728320E+03  0.69629649713E+03  0.00000000000E+00 0.  1.
          1    1    6    6  503    0 -0.22964729393E+02  0.78775977145E+02 -0.70301445069E+02  0.10805242501E+03  0.00000000000E+00 0. -1.
         -1    1    6    6    0  503 -0.17924919119E+03  0.12533713760E+03 -0.23187155493E+03  0.31875396246E+03  0.00000000000E+00 0.  1.
<mgrwt>
<rscale>  0 0.20740604E+04</rscale>
<asrwt>0</asrwt>
<pdfrwt beam="1">  1        2 0.14951766E+00 0.20740604E+04</pdfrwt>
<pdfrwt beam="2">  1       -2 0.17024077E+00 0.20740604E+04</pdfrwt>
<totfact> 0.51487940E+00</totfact>
</mgrwt>
</event>
<event>
12    2  0.3552864E-008  0.1410277E+04  0.7818608E-02  0.8946413E-01
          2   -1    0    0  501    0  0.00000000000E+00  0.00000000000E+00  0.10695926361E+04  0.10695926361E+04  0.00000000000E+00 0. -1.
         -2   -1    0    0    0  501 -0.00000000000E+00 -0.00000000000E+00 -0.46486886136E+03  0.46486886136E+03  0.00000000000E+00 0.  1.
         23    2    1    2    0    0  0.14790324650E+03  0.31925519116E+03 -0.79363930996E+02  0.37215002387E+03  0.91639289158E+02 0.  0.
        254    2    1    2    0    0 -0.14790324650E+03 -0.31925519116E+03  0.68408770571E+03  0.11623114736E+04  0.87131666177E+03 0.  0.
         23    2    4    4    0    0 -0.24015766748E+03  0.10418406600E+03  0.66292786181E+03  0.71905813991E+03  0.95085402408E+02 0.  0.
         23    2    4    4    0    0  0.92254420986E+02 -0.42343925716E+03  0.21159843897E+02  0.44325333365E+03  0.90631650654E+02 0.  0.
          1    1    3    3  502    0  0.16915169206E+02  0.14081719054E+03 -0.39576287337E+02  0.14724770497E+03  0.00000000000E+00 0. -1.
         -1    1    3    3    0  502  0.13098807729E+03  0.17843800063E+03 -0.39787643659E+02  0.22490231890E+03  0.00000000000E+00 0.  1.
         11    1    5    5    0    0 -0.88745505414E+02  0.16822521676E+02  0.13083312245E+03  0.15898448949E+03  0.00000000000E+00 0. -1.
        -11    1    5    5    0    0 -0.15141216207E+03  0.87361544326E+02  0.53209473936E+03  0.56007365043E+03  0.00000000000E+00 0.  1.
          2    1    6    6  503    0 -0.42601650787E+01  0.14138194094E+01  0.57612675416E+01  0.73034303931E+01  0.00000000000E+00 0. -1.
         -2    1    6    6    0  503  0.96514586065E+02 -0.42485307657E+03  0.15398576356E+02  0.43594990326E+03  0.00000000000E+00 0.  1.
<mgrwt>
<rscale>  0 0.14102770E+04</rscale>
<asrwt>0</asrwt>
<pdfrwt beam="1">  1        2 0.16455271E+00 0.14102770E+04</pdfrwt>
<pdfrwt beam="2">  1       -2 0.71518287E-01 0.14102770E+04</pdfrwt>
<totfact> 0.39257670E+01</totfact>
</mgrwt>
</event>
<event>
12    2  0.3552864E-008  0.1345786E+04  0.7818608E-02  0.8994024E-01
          1   -1    0    0  501    0  0.00000000000E+00  0.00000000000E+00  0.75330125386E+03  0.75330125386E+03  0.00000000000E+00 0. -1.
         -1   -1    0    0    0  501 -0.00000000000E+00 -0.00000000000E+00 -0.60106750345E+03  0.60106750345E+03  0.00000000000E+00 0.  1.
         23    2    1    2    0    0 -0.21789562407E+03  0.29157059212E+03  0.12781491208E+02  0.37388717832E+03  0.84476875055E+02 0.  0.
        254    2    1    2    0    0  0.21789562407E+03 -0.29157059212E+03  0.13945225921E+03  0.98048157899E+03  0.89966953986E+03 0.  0.
         23    2    4    4    0    0  0.42957385808E+03 -0.42532496890E+03 -0.10330448141E+03  0.62023075939E+03  0.92624782309E+02 0.  0.
         23    2    4    4    0    0 -0.21167823401E+03  0.13375437678E+03  0.24275674062E+03  0.36025081959E+03  0.90287927406E+02 0.  0.
          3    1    3    3  502    0 -0.20465372613E+03  0.23958573996E+03  0.32426223479E+02  0.31675847957E+03  0.00000000000E+00 0. -1.
         -3    1    3    3    0  502 -0.13241897941E+02  0.51984852163E+02 -0.19644732271E+02  0.57128698756E+02  0.00000000000E+00 0.  1.
         11    1    5    5    0    0  0.15108367830E+03 -0.18214870774E+03 -0.11346147519E+01  0.23665527024E+03  0.00000000000E+00 0.  1.
        -11    1    5    5    0    0  0.27849017978E+03 -0.24317626116E+03 -0.10216986666E+03  0.38357548916E+03  0.00000000000E+00 0. -1.
          1    1    6    6  503    0 -0.14713494098E+03  0.12327889493E+03  0.21766362833E+03  0.29021342472E+03  0.00000000000E+00 0. -1.
         -1    1    6    6    0  503 -0.64543293034E+02  0.10475481853E+02  0.25093112299E+02  0.70037394873E+02  0.00000000000E+00 0.  1.
<mgrwt>
<rscale>  0 0.13457859E+04</rscale>
<asrwt>0</asrwt>
<pdfrwt beam="1">  1        1 0.11589250E+00 0.13457859E+04</pdfrwt>
<pdfrwt beam="2">  1       -1 0.92471924E-01 0.13457859E+04</pdfrwt>
<totfact> 0.27102982E+01</totfact>
</mgrwt>
</event>
<event>
12    2  0.3552864E-008  0.2333170E+04  0.7818608E-02  0.8464956E-01
         -2   -1    0    0    0  501 -0.00000000000E+00  0.00000000000E+00  0.13572478127E+04  0.13572478127E+04  0.00000000000E+00 0.  1.
          2   -1    0    0  501    0  0.00000000000E+00 -0.00000000000E+00 -0.10027061223E+04  0.10027061223E+04  0.00000000000E+00 0. -1.
         23    2    1    2    0    0 -0.25559047113E+03 -0.88908691524E+03  0.50857913235E+03  0.10596230323E+04  0.91357566572E+02 0.  0.
        254    2    1    2    0    0  0.25559047113E+03  0.88908691524E+03 -0.15403744199E+03  0.13003309027E+04  0.90073908047E+03 0.  0.
         23    2    4    4    0    0  0.26881274100E+03  0.98272073635E+03 -0.33577825775E+03  0.10765736586E+04  0.90903623011E+02 0.  0.
         23    2    4    4    0    0 -0.13222269870E+02 -0.93633821115E+02  0.18174081576E+03  0.22375724403E+03  0.89974770177E+02 0.  0.
          4    1    3    3  502    0 -0.12182340794E+03 -0.27107228526E+03  0.15608178967E+03  0.33568236716E+03  0.00000000000E+00 0. -1.
         -4    1    3    3    0  502 -0.13376706318E+03 -0.61801462998E+03  0.35249734268E+03  0.72394066516E+03  0.00000000000E+00 0.  1.
         11    1    5    5    0    0  0.25346867249E+03  0.79284947585E+03 -0.27329207900E+03  0.87609658129E+03  0.00000000000E+00 0.  1.
        -11    1    5    5    0    0  0.15344068506E+02  0.18987126050E+03 -0.62486178747E+02  0.20047707734E+03  0.00000000000E+00 0. -1.
          1    1    6    6  503    0 -0.24859187890E+01  0.65622816476E+01 -0.69296624613E+01  0.98622286769E+01  0.00000000000E+00 0. -1.
         -1    1    6    6    0  503 -0.10736351081E+02 -0.10019610276E+03  0.18867047822E+03  0.21389501536E+03  0.00000000000E+00 0.  1.
<mgrwt>
<rscale>  0 0.23331701E+04</rscale>
<asrwt>0</asrwt>
<pdfrwt beam="1">  1        2 0.15426248E+00 0.23331701E+04</pdfrwt>
<pdfrwt beam="2">  1       -2 0.20880735E+00 0.23331701E+04</pdfrwt>
<totfact> 0.26432393E+00</totfact>
</mgrwt>
</event>
<event>
12    2  0.4514837E-008  0.1742390E+04  0.7818608E-02  0.8737550E-01
          1   -1    0    0  501    0  0.00000000000E+00  0.00000000000E+00  0.95207807055E+03  0.95207807055E+03  0.00000000000E+00 0. -1.
         -1   -1    0    0    0  501 -0.00000000000E+00 -0.00000000000E+00 -0.79718365092E+03  0.79718365092E+03  0.00000000000E+00 0.  1.
         23    2    1    2    0    0  0.20253617558E+03  0.16723137524E+03 -0.51439592466E+03  0.58478644446E+03  0.91568460913E+02 0.  0.
        254    2    1    2    0    0 -0.20253617558E+03 -0.16723137524E+03  0.66929034429E+03  0.11644752770E+04  0.91600538782E+03 0.  0.
         23    2    4    4    0    0 -0.24254778484E+03 -0.29223023262E+03  0.84202513250E+03  0.92823408934E+03  0.91565627097E+02 0.  0.
         23    2    4    4    0    0  0.40011609260E+02  0.12499885738E+03 -0.17273478821E+03  0.23624118767E+03  0.93525122133E+02 0.  0.
          1    1    3    3  502    0 -0.22826883615E+01 -0.63813202861E+01 -0.34889867930E+01  0.76226598764E+01  0.00000000000E+00 0. -1.
         -1    1    3    3    0  502  0.20481886394E+03  0.17361269553E+03 -0.51090693787E+03  0.57716378459E+03  0.00000000000E+00 0.  1.
         11    1    5    5    0    0  0.57999529884E+01  0.12703318758E+01  0.92487923771E+01  0.10990603176E+02  0.00000000000E+00 0.  1.
        -11    1    5    5    0    0 -0.24834773783E+03 -0.29350056449E+03  0.83277634012E+03  0.91724348617E+03  0.00000000000E+00 0. -1.
          3    1    6    6  503    0  0.42623936000E+02  0.12228803301E+03 -0.18363655897E+03  0.22470769620E+03  0.00000000000E+00 0. -1.
         -3    1    6    6    0  503 -0.26123267408E+01  0.27108243687E+01  0.10901770762E+02  0.11533491471E+02  0.00000000000E+00 0.  1.
<mgrwt>
<rscale>  0 0.17423904E+04</rscale>
<asrwt>0</asrwt>
<pdfrwt beam="1">  1        1 0.14647355E+00 0.17423904E+04</pdfrwt>
<pdfrwt beam="2">  1       -1 0.12264364E+00 0.17423904E+04</pdfrwt>
<totfact> 0.91876598E+00</totfact>
</mgrwt>
</event>
<event>
12    2  0.3552864E-008  0.1842323E+04  0.7818608E-02  0.8684111E-01
          2   -1    0    0  501    0  0.00000000000E+00  0.00000000000E+00  0.97705749764E+03  0.97705749764E+03  0.00000000000E+00 0.  1.
         -2   -1    0    0    0  501 -0.00000000000E+00 -0.00000000000E+00 -0.86846285567E+03  0.86846285567E+03  0.00000000000E+00 0. -1.
         23    2    1    2    0    0  0.11154635447E+03  0.68569762882E+03  0.15483306149E+02  0.70081213056E+03  0.90961982214E+02 0.  0.
        254    2    1    2    0    0 -0.11154635447E+03 -0.68569762882E+03  0.93111335821E+02  0.11447082228E+04  0.90502119699E+03 0.  0.
         23    2    4    4    0    0 -0.39742009897E+03 -0.17337829434E+03 -0.19542020886E+03  0.48408046614E+03  0.90233428700E+02 0.  0.
         23    2    4    4    0    0  0.28587374451E+03 -0.51231933449E+03  0.28853154468E+03  0.66062775661E+03  0.94782288601E+02 0.  0.
          3    1    3    3  502    0  0.42395916507E+02  0.37241163801E+03 -0.33317368164E+02  0.37629494932E+03  0.00000000000E+00 0. -1.
         -3    1    3    3    0  502  0.69150437959E+02  0.31328599081E+03  0.48800674313E+02  0.32451718124E+03  0.00000000000E+00 0.  1.
         11    1    5    5    0    0 -0.16208589454E+02 -0.24826471401E+02  0.21786679447E+01  0.29729087579E+02  0.00000000000E+00 0.  1.
        -11    1    5    5    0    0 -0.38121150952E+03 -0.14855182293E+03 -0.19759887681E+03  0.45435137856E+03  0.00000000000E+00 0. -1.
          1    1    6    6  503    0  0.18545999414E+03 -0.34558641016E+03  0.14246136859E+03  0.41727762683E+03  0.00000000000E+00 0. -1.
         -1    1    6    6    0  503  0.10041375037E+03 -0.16673292433E+03  0.14607017609E+03  0.24335012977E+03  0.00000000000E+00 0.  1.
<mgrwt>
<rscale>  0 0.18423226E+04</rscale>
<asrwt>0</asrwt>
<pdfrwt beam="1">  1        2 0.15031654E+00 0.18423226E+04</pdfrwt>
<pdfrwt beam="2">  1       -2 0.13360967E+00 0.18423226E+04</pdfrwt>
<totfact> 0.99337291E+00</totfact>
</mgrwt>
</event>
<event>
12    2  0.3552864E-008  0.1532214E+04  0.7818608E-02  0.8863309E-01
         -2   -1    0    0    0  501 -0.00000000000E+00  0.00000000000E+00  0.10600872594E+04  0.10600872594E+04  0.00000000000E+00 0.  1.
          2   -1    0    0  501    0  0.00000000000E+00 -0.00000000000E+00 -0.55365211577E+03  0.55365211577E+03  0.00000000000E+00 0. -1.
         23    2    1    2    0    0  0.36685759576E+03 -0.22801033093E+03  0.41048031898E+03  0.60267386598E+03  0.90268986326E+02 0.  0.
        254    2    1    2    0    0 -0.36685759576E+03  0.22801033093E+03  0.95954824699E+02  0.10110655092E+04  0.90910556539E+03 0.  0.
         23    2    4    4    0    0 -0.85273160342E+02  0.31586283175E+03 -0.33762337617E+03  0.47896514825E+03  0.91527202211E+02 0.  0.
         23    2    4    4    0    0 -0.28158443542E+03 -0.87852500815E+02  0.43357820087E+03  0.53210036099E+03  0.90182491255E+02 0.  0.
          1    1    3    3  502    0  0.13684017052E+03 -0.11935476905E+03  0.21772725207E+03  0.28350652454E+03  0.00000000000E+00 0. -1.
         -1    1    3    3    0  502  0.23001742524E+03 -0.10865556189E+03  0.19275306691E+03  0.31916734144E+03  0.00000000000E+00 0.  1.
         11    1    5    5    0    0 -0.68915358367E+02  0.13952246637E+03 -0.11002051246E+03  0.19057900830E+03  0.00000000000E+00 0. -1.
        -11    1    5    5    0    0 -0.16357801974E+02  0.17634036538E+03 -0.22760286371E+03  0.28838613995E+03  0.00000000000E+00 0.  1.
          3    1    6    6  503    0 -0.82650869747E+02 -0.48454613330E+02  0.20653167855E+03  0.22767158379E+03  0.00000000000E+00 0. -1.
         -3    1    6    6    0  503 -0.19893356567E+03 -0.39397887485E+02  0.22704652233E+03  0.30442877720E+03  0.00000000000E+00 0.  1.
<mgrwt>
<rscale>  0 0.15322135E+04</rscale>
<asrwt>0</asrwt>
<pdfrwt beam="1">  1        2 0.85177249E-01 0.15322135E+04</pdfrwt>
<pdfrwt beam="2">  1       -2 0.16309035E+00 0.15322135E+04</pdfrwt>
<totfact> 0.12573425E+01</totfact>
</mgrwt>
</event>
<event>
12    2  0.3552864E-008  0.1974959E+04  0.7818608E-02  0.8618418E-01
         -1   -1    0    0    0  501 -0.00000000000E+00  0.00000000000E+00  0.12386728613E+04  0.12386728613E+04  0.00000000000E+00 0.  1.
          1   -1    0    0  501    0  0.00000000000E+00 -0.00000000000E+00 -0.78722620284E+03  0.78722620284E+03  0.00000000000E+00 0. -1.
         23    2    1    2    0    0 -0.31404754751E+03  0.37275730872E+03 -0.44118091939E+03  0.66372468754E+03  0.91192016658E+02 0.  0.
        254    2    1    2    0    0  0.31404754751E+03 -0.37275730872E+03  0.89262757787E+03  0.13621743766E+04  0.90617943380E+03 0.  0.
         23    2    4    4    0    0  0.46572228629E+03 -0.50100973998E+03  0.91041419407E+03  0.11424579206E+04  0.91913481024E+02 0.  0.
         23    2    4    4    0    0 -0.15167473878E+03  0.12825243125E+03 -0.17786616204E+02  0.21971645606E+03  0.92222800006E+02 0.  0.
          2    1    3    3  502    0 -0.97053403852E+02  0.70443037516E+02 -0.14465871234E+03  0.18790350659E+03  0.00000000000E+00 0.  1.
         -2    1    3    3    0  502 -0.21699414366E+03  0.30231427121E+03 -0.29652220705E+03  0.47582118094E+03  0.00000000000E+00 0. -1.
         11    1    5    5    0    0  0.45613542000E+03 -0.47135907861E+03  0.88838934581E+03  0.11042982080E+04  0.00000000000E+00 0. -1.
        -11    1    5    5    0    0  0.95868662892E+01 -0.29650661364E+02  0.22024848262E+02  0.38159712598E+02  0.00000000000E+00 0.  1.
          3    1    6    6  503    0 -0.99475888942E+02  0.12947943817E+03  0.35330696136E+01  0.16331827813E+03  0.00000000000E+00 0. -1.
         -3    1    6    6    0  503 -0.52198849834E+02 -0.12270069214E+01 -0.21319685817E+02  0.56398177926E+02  0.00000000000E+00 0.  1.
<mgrwt>
<rscale>  0 0.19749590E+04</rscale>
<asrwt>0</asrwt>
<pdfrwt beam="1">  1        1 0.12111172E+00 0.19749590E+04</pdfrwt>
<pdfrwt beam="2">  1       -1 0.19056506E+00 0.19749590E+04</pdfrwt>
<totfact> 0.36925631E+00</totfact>
</mgrwt>
</event>
<event>
12    2  0.3552864E-008  0.1686254E+04  0.7818608E-02  0.8769243E-01
         -2   -1    0    0    0  501 -0.00000000000E+00  0.00000000000E+00  0.19094294342E+04  0.19094294342E+04  0.00000000000E+00 0.  1.
          2   -1    0    0  501    0  0.00000000000E+00 -0.00000000000E+00 -0.37229085154E+03  0.37229085154E+03  0.00000000000E+00 0. -1.
         23    2    1    2    0    0  0.21621398710E+03  0.41289706820E+03  0.53324759405E+02  0.48074872599E+03  0.10508725153E+03 0.  0.
        254    2    1    2    0    0 -0.21621398710E+03 -0.41289706820E+03  0.14838138233E+04  0.18009715598E+04  0.90805430444E+03 0.  0.
         23    2    4    4    0    0  0.12107201051E+03  0.20643157921E+03  0.68552683462E+03  0.73199813080E+03  0.92745856396E+02 0.  0.
         23    2    4    4    0    0 -0.33728599761E+03 -0.61932864741E+03  0.79828698866E+03  0.10689734290E+04  0.90068073783E+02 0.  0.
          1    1    3    3  502    0  0.19455873315E+03  0.40653736865E+03  0.35688507623E+02  0.45210552123E+03  0.00000000000E+00 0. -1.
         -1    1    3    3    0  502  0.21655253950E+02  0.63596995481E+01  0.17636251781E+02  0.28643204759E+02  0.00000000000E+00 0.  1.
         11    1    5    5    0    0  0.83946690900E+02  0.17801909709E+03  0.43934257932E+03  0.48141432036E+03  0.00000000000E+00 0. -1.
        -11    1    5    5    0    0  0.37125319607E+02  0.28412482127E+02  0.24618425530E+03  0.25058381044E+03  0.00000000000E+00 0.  1.
          2    1    6    6  503    0 -0.59386997063E+02 -0.17891606001E+03  0.18068352364E+03  0.26112125089E+03  0.00000000000E+00 0.  1.
         -2    1    6    6    0  503 -0.27789900055E+03 -0.44041258740E+03  0.61760346502E+03  0.80785217809E+03  0.00000000000E+00 0. -1.
<mgrwt>
<rscale>  0 0.16862540E+04</rscale>
<asrwt>0</asrwt>
<pdfrwt beam="1">  1        2 0.57275516E-01 0.16862540E+04</pdfrwt>
<pdfrwt beam="2">  1       -2 0.29375837E+00 0.16862540E+04</pdfrwt>
<totfact> 0.28560383E+00</totfact>
</mgrwt>
</event>
<event>
12    2  0.3552864E-008  0.1080559E+04  0.7818608E-02  0.9224350E-01
          1   -1    0    0  501    0  0.00000000000E+00  0.00000000000E+00  0.49661871631E+03  0.49661871631E+03  0.00000000000E+00 0. -1.
         -1   -1    0    0    0  501 -0.00000000000E+00 -0.00000000000E+00 -0.58777916714E+03  0.58777916714E+03  0.00000000000E+00 0.  1.
         23    2    1    2    0    0  0.94772848676E+02  0.82445308310E+02 -0.76008585702E+02  0.17555957719E+03  0.96253510755E+02 0.  0.
        254    2    1    2    0    0 -0.94772848676E+02 -0.82445308310E+02 -0.15151865122E+02  0.90883830626E+03  0.89998798115E+03 0.  0.
         23    2    4    4    0    0 -0.45975735101E+03 -0.11073434315E+03  0.13801391002E+03  0.50144366929E+03  0.93589516219E+02 0.  0.
         23    2    4    4    0    0  0.36498450234E+03  0.28289034841E+02 -0.15316577514E+03  0.40739463697E+03  0.92177432827E+02 0.  0.
          1    1    3    3  502    0  0.53443933578E+02  0.13862747007E+02  0.12077797297E+02  0.56518165030E+02  0.00000000000E+00 0. -1.
         -1    1    3    3    0  502  0.41328915098E+02  0.68582561303E+02 -0.88086382999E+02  0.11904141216E+03  0.00000000000E+00 0.  1.
         11    1    5    5    0    0 -0.25611092630E+03 -0.21388880803E+02  0.47550958677E+02  0.26136446672E+03  0.00000000000E+00 0. -1.
        -11    1    5    5    0    0 -0.20364642472E+03 -0.89345462349E+02  0.90462951342E+02  0.24007920257E+03  0.00000000000E+00 0.  1.
          1    1    6    6  503    0  0.27612734608E+03 -0.53604103761E+01 -0.14526170393E+03  0.31205129047E+03  0.00000000000E+00 0. -1.
         -1    1    6    6    0  503  0.88857156253E+02  0.33649445218E+02 -0.79040712067E+01  0.95343346504E+02  0.00000000000E+00 0.  1.
<mgrwt>
<rscale>  0 0.10805594E+04</rscale>
<asrwt>0</asrwt>
<pdfrwt beam="1">  1        1 0.76402880E-01 0.10805594E+04</pdfrwt>
<pdfrwt beam="2">  1       -1 0.90427564E-01 0.10805594E+04</pdfrwt>
<totfact> 0.53390962E+01</totfact>
</mgrwt>
</event>
<event>
12    2  0.3552864E-008  0.1583761E+04  0.7818608E-02  0.8830587E-01
         -2   -1    0    0    0  501 -0.00000000000E+00  0.00000000000E+00  0.75714710734E+03  0.75714710734E+03  0.00000000000E+00 0.  1.
          2   -1    0    0  501    0  0.00000000000E+00 -0.00000000000E+00 -0.82820736960E+03  0.82820736960E+03  0.00000000000E+00 0. -1.
         23    2    1    2    0    0 -0.33071449161E+03  0.39212727761E+03  0.12855768204E+03  0.53659070159E+03  0.90920991056E+02 0.  0.
        254    2    1    2    0    0  0.33071449161E+03 -0.39212727761E+03 -0.19961794430E+03  0.10487637754E+04  0.89270502184E+03 0.  0.
         23    2    4    4    0    0  0.63150945679E+02 -0.30061146185E+03  0.31845515194E+03  0.45186048643E+03  0.91700176996E+02 0.  0.
         23    2    4    4    0    0  0.26756354593E+03 -0.91515815753E+02 -0.51807309624E+03  0.59690328893E+03  0.89041606246E+02 0.  0.
          4    1    3    3  502    0 -0.31578911878E+03  0.32974070804E+03  0.10719848280E+03  0.46898104097E+03  0.00000000000E+00 0.  1.
         -4    1    3    3    0  502 -0.14925372836E+02  0.62386569569E+02  0.21359199234E+02  0.67609660617E+02  0.00000000000E+00 0. -1.
         11    1    5    5    0    0  0.35943370854E+02 -0.52431467715E+02  0.29784154787E+02  0.70200289113E+02  0.00000000000E+00 0. -1.
        -11    1    5    5    0    0  0.27207574824E+02 -0.24817999414E+03  0.28867099715E+03  0.38166019732E+03  0.00000000000E+00 0.  1.
          3    1    6    6  503    0  0.15700494444E+03 -0.54738269410E+02 -0.38884950021E+03  0.42290751298E+03  0.00000000000E+00 0. -1.
         -3    1    6    6    0  503  0.11055860149E+03 -0.36777546343E+02 -0.12922359602E+03  0.17399577595E+03  0.00000000000E+00 0.  1.
<mgrwt>
<rscale>  0 0.15837611E+04</rscale>
<asrwt>0</asrwt>
<pdfrwt beam="1">  1        2 0.12741652E+00 0.15837611E+04</pdfrwt>
<pdfrwt beam="2">  1       -2 0.11648417E+00 0.15837611E+04</pdfrwt>
<totfact> 0.18039578E+01</totfact>
</mgrwt>
</event>
<event>
12    2  0.3552864E-008  0.2416722E+04  0.7818608E-02  0.8433270E-01
         -2   -1    0    0    0  501 -0.00000000000E+00  0.00000000000E+00  0.73613839834E+03  0.73613839834E+03  0.00000000000E+00 0. -1.
          2   -1    0    0  501    0  0.00000000000E+00 -0.00000000000E+00 -0.19835075951E+04  0.19835075951E+04  0.00000000000E+00 0.  1.
         23    2    1    2    0    0 -0.79635755849E+03  0.62165470572E+02 -0.12734317163E+04  0.15062802313E+04  0.95926493795E+02 0.  0.
        254    2    1    2    0    0  0.79635755849E+03 -0.62165470572E+02  0.26062519581E+02  0.12133657622E+04  0.91297716905E+03 0.  0.
         23    2    4    4    0    0  0.96604100942E+03 -0.29753730035E+02  0.14970616438E+03  0.98275468746E+03  0.96303290375E+02 0.  0.
         23    2    4    4    0    0 -0.16968345093E+03 -0.32411740537E+02 -0.12364364480E+03  0.23061107472E+03  0.89725818155E+02 0.  0.
          3    1    3    3  502    0 -0.25775142921E+03 -0.11299258227E+02 -0.35150302236E+03  0.43602505343E+03  0.00000000000E+00 0. -1.
         -3    1    3    3    0  502 -0.53860612928E+03  0.73464728799E+02 -0.92192869399E+03  0.10702551778E+04  0.00000000000E+00 0.  1.
         11    1    5    5    0    0  0.65990895551E+03 -0.39599705942E+02  0.61143446683E+02  0.66391753053E+03  0.00000000000E+00 0. -1.
        -11    1    5    5    0    0  0.30613205391E+03  0.98459759072E+01  0.88562717695E+02  0.31883715693E+03  0.00000000000E+00 0.  1.
          3    1    6    6  503    0 -0.16588812431E+03 -0.56031434744E+01 -0.95222642554E+02  0.19135730103E+03  0.00000000000E+00 0. -1.
         -3    1    6    6    0  503 -0.37953266196E+01 -0.26808597063E+02 -0.28421002243E+02  0.39253773693E+02  0.00000000000E+00 0.  1.
<mgrwt>
<rscale>  0 0.24167218E+04</rscale>
<asrwt>0</asrwt>
<pdfrwt beam="1">  1        2 0.30515502E+00 0.24167218E+04</pdfrwt>
<pdfrwt beam="2">  1       -2 0.11325206E+00 0.24167218E+04</pdfrwt>
<totfact> 0.37508338E+00</totfact>
</mgrwt>
</event>
<event>
12    2  0.3552864E-008  0.1915900E+04  0.7818608E-02  0.8646982E-01
          2   -1    0    0  501    0  0.00000000000E+00  0.00000000000E+00  0.34740201447E+04  0.34740201447E+04  0.00000000000E+00 0. -1.
         -2   -1    0    0    0  501 -0.00000000000E+00 -0.00000000000E+00 -0.26415171975E+03  0.26415171975E+03  0.00000000000E+00 0.  1.
         23    2    1    2    0    0 -0.23975768617E+03  0.57478423663E+03  0.46678929911E+03  0.78352670069E+03  0.90339217250E+02 0.  0.
        254    2    1    2    0    0  0.23975768617E+03 -0.57478423663E+03  0.27430791259E+04  0.29546451638E+04  0.90420367526E+03 0.  0.
         23    2    4    4    0    0 -0.13245803001E+02  0.11160948207E+03  0.35909583476E+02  0.14879265484E+03  0.90651134374E+02 0.  0.
         23    2    4    4    0    0  0.25300348917E+03 -0.68639371870E+03  0.27071695424E+04  0.28058525090E+04  0.94309427484E+02 0.  0.
          4    1    3    3  502    0 -0.35010173998E+02  0.17925761703E+03  0.11346761658E+03  0.21502070961E+03  0.00000000000E+00 0. -1.
         -4    1    3    3    0  502 -0.20474751217E+03  0.39552661959E+03  0.35332168253E+03  0.56850599108E+03  0.00000000000E+00 0.  1.
         11    1    5    5    0    0 -0.43186065428E+02  0.98761833556E+02  0.41932663253E+02  0.11566021037E+03  0.00000000000E+00 0.  1.
        -11    1    5    5    0    0  0.29940262428E+02  0.12847648512E+02 -0.60230797771E+01  0.33132444470E+02  0.00000000000E+00 0. -1.
          3    1    6    6  503    0  0.11375138514E+02 -0.15765626072E+02  0.14765328761E+03  0.14892764043E+03  0.00000000000E+00 0. -1.
         -3    1    6    6    0  503  0.24162835065E+03 -0.67062809262E+03  0.25595162548E+04  0.26569248685E+04  0.00000000000E+00 0.  1.
<mgrwt>
<rscale>  0 0.19159002E+04</rscale>
<asrwt>0</asrwt>
<pdfrwt beam="1">  1        2 0.53446461E+00 0.19159002E+04</pdfrwt>
<pdfrwt beam="2">  1       -2 0.40638729E-01 0.19159002E+04</pdfrwt>
<totfact> 0.45749225E+00</totfact>
</mgrwt>
</event>
<event>
12    2  0.3552864E-008  0.2285434E+04  0.7818608E-02  0.8483686E-01
          2   -1    0    0  501    0  0.00000000000E+00  0.00000000000E+00  0.23707154932E+04  0.23707154932E+04  0.00000000000E+00 0. -1.
         -2   -1    0    0    0  501 -0.00000000000E+00 -0.00000000000E+00 -0.55080516203E+03  0.55080516203E+03  0.00000000000E+00 0.  1.
         23    2    1    2    0    0 -0.13126381956E+03  0.13073005371E+03 -0.43463068469E+03  0.48138127778E+03  0.92214777850E+02 0.  0.
        254    2    1    2    0    0  0.13126381956E+03 -0.13073005371E+03  0.22545410158E+04  0.24401393774E+04  0.91487947399E+03 0.  0.
         23    2    4    4    0    0  0.15502371275E+03  0.11633987298E+03  0.21424087680E+04  0.21533381433E+04  0.96863370715E+02 0.  0.
         23    2    4    4    0    0 -0.23759893188E+02 -0.24706992669E+03  0.11213224783E+03  0.28680123413E+03  0.89851130764E+02 0.  0.
          2    1    3    3  502    0 -0.11985306600E+03  0.11969456500E+03 -0.43355692614E+03  0.46547089547E+03  0.00000000000E+00 0.  1.
         -2    1    3    3    0  502 -0.11410753563E+02  0.11035488709E+02 -0.10737585466E+01  0.15910382313E+02  0.00000000000E+00 0. -1.
         11    1    5    5    0    0  0.52524146688E+02  0.14186087409E+02  0.10469050958E+04  0.10483178481E+04  0.00000000000E+00 0.  1.
        -11    1    5    5    0    0  0.10249956606E+03  0.10215378557E+03  0.10955036722E+04  0.11050202952E+04  0.00000000000E+00 0. -1.
          4    1    6    6  503    0 -0.20737311315E+02 -0.20906691352E+03  0.12743590824E+03  0.24572122643E+03  0.00000000000E+00 0. -1.
         -4    1    6    6    0  503 -0.30225818729E+01 -0.38003013163E+02 -0.15303660411E+02  0.41080007700E+02  0.00000000000E+00 0.  1.
<mgrwt>
<rscale>  0 0.22854342E+04</rscale>
<asrwt>0</asrwt>
<pdfrwt beam="1">  1        2 0.36472546E+00 0.22854342E+04</pdfrwt>
<pdfrwt beam="2">  1       -2 0.84739257E-01 0.22854342E+04</pdfrwt>
<totfact> 0.45503994E+00</totfact>
</mgrwt>
</event>
<event>
12    2  0.3552864E-008  0.2331364E+04  0.7818608E-02  0.8465656E-01
          2   -1    0    0  501    0  0.00000000000E+00  0.00000000000E+00  0.12938697277E+04  0.12938697277E+04  0.00000000000E+00 0. -1.
         -2   -1    0    0    0  501 -0.00000000000E+00 -0.00000000000E+00 -0.10501944347E+04  0.10501944347E+04  0.00000000000E+00 0.  1.
         23    2    1    2    0    0 -0.59718988772E+03  0.78227694504E+03  0.20710213514E+03  0.10098775862E+04  0.91479308618E+02 0.  0.
        254    2    1    2    0    0  0.59718988772E+03 -0.78227694504E+03  0.36573157956E+02  0.13341865762E+04  0.90006846608E+03 0.  0.
         23    2    4    4    0    0 -0.19870100379E+03 -0.13174983602E+03  0.14924531449E+03  0.29602546162E+03  0.92286520320E+02 0.  0.
         23    2    4    4    0    0  0.79589089151E+03 -0.65052710902E+03 -0.11267215654E+03  0.10381611146E+04  0.91954631841E+02 0.  0.
          3    1    3    3  502    0 -0.40019498216E+01  0.30586387219E+02  0.56000142096E+01  0.31351281387E+02  0.00000000000E+00 0. -1.
         -3    1    3    3    0  502 -0.59318793789E+03  0.75169055782E+03  0.20150212093E+03  0.97852630476E+03  0.00000000000E+00 0.  1.
         11    1    5    5    0    0 -0.19585730392E+03 -0.93612328140E+02  0.13210857071E+03  0.25411813382E+03  0.00000000000E+00 0.  1.
        -11    1    5    5    0    0 -0.28436998662E+01 -0.38137507883E+02  0.17136743786E+02  0.41907327809E+02  0.00000000000E+00 0. -1.
          2    1    6    6  503    0  0.19377583645E+03 -0.11225884281E+03 -0.11864800382E+02  0.22425854737E+03  0.00000000000E+00 0. -1.
         -2    1    6    6    0  503  0.60211505505E+03 -0.53826826620E+03 -0.10080735616E+03  0.81390256725E+03  0.00000000000E+00 0.  1.
<mgrwt>
<rscale>  0 0.23313642E+04</rscale>
<asrwt>0</asrwt>
<pdfrwt beam="1">  1        2 0.19905688E+00 0.23313642E+04</pdfrwt>
<pdfrwt beam="2">  1       -2 0.16156837E+00 0.23313642E+04</pdfrwt>
<totfact> 0.36973732E+00</totfact>
</mgrwt>
</event>
<event>
12    2  0.3552864E-008  0.1967972E+04  0.7818608E-02  0.8621743E-01
         -2   -1    0    0    0  501 -0.00000000000E+00  0.00000000000E+00  0.66109288680E+03  0.66109288680E+03  0.00000000000E+00 0.  1.
          2   -1    0    0  501    0  0.00000000000E+00 -0.00000000000E+00 -0.14645872720E+04  0.14645872720E+04  0.00000000000E+00 0. -1.
         23    2    1    2    0    0 -0.20300796751E+03  0.41269771955E+03 -0.98930589330E+03  0.10953008003E+04  0.97087847193E+02 0.  0.
        254    2    1    2    0    0  0.20300796751E+03 -0.41269771955E+03  0.18581150806E+03  0.10303793585E+04  0.90311907484E+03 0.  0.
         23    2    4    4    0    0 -0.14911547848E+03  0.45591425670E+02 -0.24461882952E+03  0.30443004965E+03  0.92332439337E+02 0.  0.
         23    2    4    4    0    0  0.35212344599E+03 -0.45828914521E+03  0.43043033758E+03  0.72594930887E+03  0.87819483623E+02 0.  0.
          1    1    3    3  502    0 -0.81837804954E+02  0.14129585875E+03 -0.25127255548E+03  0.29966621958E+03  0.00000000000E+00 0.  1.
         -1    1    3    3    0  502 -0.12117016256E+03  0.27140186080E+03 -0.73803333782E+03  0.79563458074E+03  0.00000000000E+00 0. -1.
         11    1    5    5    0    0  0.88842771166E+01  0.26469149381E+01 -0.46476711791E+02  0.47392206928E+02  0.00000000000E+00 0. -1.
        -11    1    5    5    0    0 -0.15799975560E+03  0.42944510731E+02 -0.19814211773E+03  0.25703784272E+03  0.00000000000E+00 0.  1.
          3    1    6    6  503    0  0.29232978509E+01 -0.37565445893E+02  0.23973690247E+02  0.44659223231E+02  0.00000000000E+00 0. -1.
         -3    1    6    6    0  503  0.34920014814E+03 -0.42072369932E+03  0.40645664734E+03  0.68129008564E+03  0.00000000000E+00 0.  1.
<mgrwt>
<rscale>  0 0.19679718E+04</rscale>
<asrwt>0</asrwt>
<pdfrwt beam="1">  1        2 0.22532112E+00 0.19679718E+04</pdfrwt>
<pdfrwt beam="2">  1       -2 0.10170660E+00 0.19679718E+04</pdfrwt>
<totfact> 0.98255273E+00</totfact>
</mgrwt>
</event>
<event>
12    2  0.3552864E-008  0.1803305E+04  0.7818608E-02  0.8704544E-01
         -2   -1    0    0    0  501 -0.00000000000E+00  0.00000000000E+00  0.30225521938E+03  0.30225521938E+03  0.00000000000E+00 0.  1.
          2   -1    0    0  501    0  0.00000000000E+00 -0.00000000000E+00 -0.26897050029E+04  0.26897050029E+04  0.00000000000E+00 0. -1.
         23    2    1    2    0    0  0.19958725480E+03 -0.38658467736E+03 -0.17541796262E+04  0.18097049340E+04  0.92752370003E+02 0.  0.
        254    2    1    2    0    0 -0.19958725480E+03  0.38658467736E+03 -0.63327015735E+03  0.11822552883E+04  0.89856201205E+03 0.  0.
         23    2    4    4    0    0 -0.35610306178E+03  0.60825847307E+03 -0.47808615861E+03  0.85668188770E+03  0.92464701319E+02 0.  0.
         23    2    4    4    0    0  0.15651580698E+03 -0.22167379571E+03 -0.15518399874E+03  0.32557340061E+03  0.90991736894E+02 0.  0.
          3    1    3    3  502    0  0.44451370391E+02 -0.78795480251E+02 -0.54101515701E+03  0.54852716629E+03  0.00000000000E+00 0. -1.
         -3    1    3    3    0  502  0.15513588441E+03 -0.30778919711E+03 -0.12131644692E+04  0.12611777677E+04  0.00000000000E+00 0.  1.
         11    1    5    5    0    0 -0.32233505535E+02  0.28453223095E+02 -0.99130373637E+01  0.44123158243E+02  0.00000000000E+00 0.  1.
        -11    1    5    5    0    0 -0.32386955625E+03  0.57980524997E+03 -0.46817312124E+03  0.81255872945E+03  0.00000000000E+00 0. -1.
          1    1    6    6  503    0  0.11552067178E+03 -0.18333355053E+03 -0.15981490142E+03  0.26925270486E+03  0.00000000000E+00 0. -1.
         -1    1    6    6    0  503  0.40995135204E+02 -0.38340245176E+02  0.46309026780E+01  0.56320695753E+02  0.00000000000E+00 0.  1.
<mgrwt>
<rscale>  0 0.18033052E+04</rscale>
<asrwt>0</asrwt>
<pdfrwt beam="1">  1        2 0.41380076E+00 0.18033052E+04</pdfrwt>
<pdfrwt beam="2">  1       -2 0.46500804E-01 0.18033052E+04</pdfrwt>
<totfact> 0.11167418E+01</totfact>
</mgrwt>
</event>
<event>
12    2  0.3552864E-008  0.2573424E+04  0.7818608E-02  0.8377285E-01
         -1   -1    0    0    0  501 -0.00000000000E+00  0.00000000000E+00  0.69257378995E+03  0.69257378995E+03  0.00000000000E+00 0.  1.
          1   -1    0    0  501    0  0.00000000000E+00 -0.00000000000E+00 -0.23905441953E+04  0.23905441953E+04  0.00000000000E+00 0. -1.
         23    2    1    2    0    0  0.81300098699E+03  0.51806851926E+03 -0.52360647527E+02  0.96983495173E+03  0.92046731033E+02 0.  0.
        254    2    1    2    0    0 -0.81300098699E+03 -0.51806851926E+03 -0.16456097578E+04  0.21132830335E+04  0.91025716654E+03 0.  0.
         23    2    4    4    0    0 -0.59877641951E+03 -0.32769601473E+03 -0.16748556120E+04  0.18108742810E+04  0.90589524743E+02 0.  0.
         23    2    4    4    0    0 -0.21422456749E+03 -0.19037250453E+03  0.29245854166E+02  0.30240875251E+03  0.91988465650E+02 0.  0.
          3    1    3    3  502    0  0.28174741881E+03  0.13034915378E+03 -0.27888922605E+02  0.31168943181E+03  0.00000000000E+00 0. -1.
         -3    1    3    3    0  502  0.53125356818E+03  0.38771936548E+03 -0.24471724922E+02  0.65814551992E+03  0.00000000000E+00 0.  1.
         11    1    5    5    0    0 -0.50952605565E+03 -0.24762244911E+03 -0.13244566272E+04  0.14405273465E+04  0.00000000000E+00 0. -1.
        -11    1    5    5    0    0 -0.89250363856E+02 -0.80073565612E+02 -0.35039898477E+03  0.37034693449E+03  0.00000000000E+00 0.  1.
          1    1    6    6  503    0 -0.20646656498E+03 -0.16341746144E+03  0.49351531257E+02  0.26789789621E+03  0.00000000000E+00 0. -1.
         -1    1    6    6    0  503 -0.77580025034E+01 -0.26955043095E+02 -0.20105677090E+02  0.34510856297E+02  0.00000000000E+00 0.  1.
<mgrwt>
<rscale>  0 0.25734244E+04</rscale>
<asrwt>0</asrwt>
<pdfrwt beam="1">  1        1 0.36777603E+00 0.25734244E+04</pdfrwt>
<pdfrwt beam="2">  1       -1 0.10654981E+00 0.25734244E+04</pdfrwt>
<totfact> 0.11708110E+00</totfact>
</mgrwt>
</event>
<event>
12    2  0.3552864E-008  0.2198714E+04  0.7818608E-02  0.8518963E-01
          1   -1    0    0  501    0  0.00000000000E+00  0.00000000000E+00  0.29377563701E+04  0.29377563701E+04  0.00000000000E+00 0. -1.
         -1   -1    0    0    0  501 -0.00000000000E+00 -0.00000000000E+00 -0.41139771413E+03  0.41139771413E+03  0.00000000000E+00 0.  1.
         23    2    1    2    0    0 -0.50098750032E+03 -0.60830023309E+03  0.34457779131E+03  0.86479036172E+03  0.90060348727E+02 0.  0.
        254    2    1    2    0    0  0.50098750032E+03  0.60830023309E+03  0.21817808647E+04  0.24843637225E+04  0.88931305809E+03 0.  0.
         23    2    4    4    0    0 -0.18099246359E+03  0.22401725585E+03  0.23071130556E+03  0.38012716307E+03  0.91252127617E+02 0.  0.
         23    2    4    4    0    0  0.68197996391E+03  0.38428297724E+03  0.19510695591E+04  0.21042365595E+04  0.91482216182E+02 0.  0.
          2    1    3    3  502    0 -0.16979928863E+02 -0.11092904738E+02 -0.41048800456E+01  0.20693490761E+02  0.00000000000E+00 0. -1.
         -2    1    3    3    0  502 -0.48400757145E+03 -0.59720732835E+03  0.34868267136E+03  0.84409687096E+03  0.00000000000E+00 0.  1.
         11    1    5    5    0    0 -0.12703606893E+03  0.15526855461E+03  0.20977203992E+03  0.29025987596E+03  0.00000000000E+00 0.  1.
        -11    1    5    5    0    0 -0.53956394660E+02  0.68748701242E+02  0.20939265642E+02  0.89867287112E+02  0.00000000000E+00 0. -1.
          1    1    6    6  503    0  0.20031828638E+03  0.14915972009E+03  0.54608983644E+03  0.60049158813E+03  0.00000000000E+00 0. -1.
         -1    1    6    6    0  503  0.48166167753E+03  0.23512325715E+03  0.14049797227E+04  0.15037449713E+04  0.00000000000E+00 0.  1.
<mgrwt>
<rscale>  0 0.21987144E+04</rscale>
<asrwt>0</asrwt>
<pdfrwt beam="1">  1        1 0.45196251E+00 0.21987144E+04</pdfrwt>
<pdfrwt beam="2">  1       -1 0.63291958E-01 0.21987144E+04</pdfrwt>
<totfact> 0.15327948E+00</totfact>
</mgrwt>
</event>
<event>
12    2  0.3552864E-008  0.2013903E+04  0.7818608E-02  0.8600148E-01
         -2   -1    0    0    0  501 -0.00000000000E+00  0.00000000000E+00  0.31497699882E+03  0.31497699882E+03  0.00000000000E+00 0.  1.
          2   -1    0    0  501    0  0.00000000000E+00 -0.00000000000E+00 -0.32191291160E+04  0.32191291160E+04  0.00000000000E+00 0. -1.
         23    2    1    2    0    0  0.39373172509E+03  0.69391061106E+03 -0.10767481961E+04  0.13436399982E+04  0.97186210719E+02 0.  0.
        254    2    1    2    0    0 -0.39373172509E+03 -0.69391061106E+03 -0.18274039211E+04  0.21904661166E+04  0.90675250742E+03 0.  0.
         23    2    4    4    0    0  0.17210932996E+03 -0.16501617736E+03 -0.66818858419E+02  0.26487789026E+03  0.94040292752E+02 0.  0.
         23    2    4    4    0    0 -0.56584105504E+03 -0.52889443370E+03 -0.17605850627E+04  0.19255882264E+04  0.91240522592E+02 0.  0.
          2    1    3    3  502    0  0.96642000733E+02  0.13906195183E+03 -0.29351954115E+03  0.33886815104E+03  0.00000000000E+00 0. -1.
         -2    1    3    3    0  502  0.29708972436E+03  0.55484865924E+03 -0.78322865493E+03  0.10047718472E+04  0.00000000000E+00 0.  1.
         11    1    5    5    0    0  0.10704267913E+03 -0.15742438581E+03 -0.42930915864E+02  0.19515029065E+03  0.00000000000E+00 0. -1.
        -11    1    5    5    0    0  0.65066650822E+02 -0.75917915515E+01 -0.23887942556E+02  0.69727599613E+02  0.00000000000E+00 0.  1.
          2    1    6    6  503    0 -0.38126106758E+03 -0.29598438031E+03 -0.10995043240E+04  0.12007816261E+04  0.00000000000E+00 0. -1.
         -2    1    6    6    0  503 -0.18457998746E+03 -0.23291005339E+03 -0.66108073871E+03  0.72480660030E+03  0.00000000000E+00 0.  1.
<mgrwt>
<rscale>  0 0.20139033E+04</rscale>
<asrwt>0</asrwt>
<pdfrwt beam="1">  1        2 0.49525064E+00 0.20139033E+04</pdfrwt>
<pdfrwt beam="2">  1       -2 0.48457999E-01 0.20139033E+04</pdfrwt>
<totfact> 0.47327969E+00</totfact>
</mgrwt>
</event>
<event>
12    2  0.3552864E-008  0.1897782E+04  0.7818608E-02  0.8655961E-01
          2   -1    0    0  501    0  0.00000000000E+00  0.00000000000E+00  0.29412106487E+04  0.29412106487E+04  0.00000000000E+00 0. -1.
         -2   -1    0    0    0  501 -0.00000000000E+00 -0.00000000000E+00 -0.30613042706E+03  0.30613042706E+03  0.00000000000E+00 0.  1.
         23    2    1    2    0    0  0.42094047538E+03 -0.57329166715E+03  0.67796275475E+03  0.98633622607E+03  0.85857059121E+02 0.  0.
        254    2    1    2    0    0 -0.42094047538E+03  0.57329166715E+03  0.19571174669E+04  0.22610048497E+04  0.88089723107E+03 0.  0.
         23    2    4    4    0    0 -0.33922073568E+03  0.73339556325E+03  0.10286369747E+04  0.13112168327E+04  0.90861415791E+02 0.  0.
         23    2    4    4    0    0 -0.81719739701E+02 -0.16010389609E+03  0.92848049220E+03  0.94978801703E+03  0.87805919440E+02 0.  0.
          1    1    3    3  502    0  0.16009715091E+03 -0.23142283117E+03  0.32593035480E+03  0.43060216058E+03  0.00000000000E+00 0. -1.
         -1    1    3    3    0  502  0.26084332447E+03 -0.34186883598E+03  0.35203239994E+03  0.55573406549E+03  0.00000000000E+00 0.  1.
         11    1    5    5    0    0 -0.13052259011E+03  0.18756498344E+03  0.30425474577E+03  0.38050981573E+03  0.00000000000E+00 0. -1.
        -11    1    5    5    0    0 -0.20869814558E+03  0.54583057980E+03  0.72438222896E+03  0.93070701697E+03  0.00000000000E+00 0.  1.
          4    1    6    6  503    0 -0.12654446422E+02 -0.19338747373E+01  0.13240569438E+02  0.18417045496E+02  0.00000000000E+00 0. -1.
         -4    1    6    6    0  503 -0.69065293278E+02 -0.15817002136E+03  0.91523992276E+03  0.93137097153E+03  0.00000000000E+00 0.  1.
<mgrwt>
<rscale>  0 0.18977819E+04</rscale>
<asrwt>0</asrwt>
<pdfrwt beam="1">  1        2 0.45249393E+00 0.18977819E+04</pdfrwt>
<pdfrwt beam="2">  1       -2 0.47096991E-01 0.18977819E+04</pdfrwt>
<totfact> 0.76045560E+00</totfact>
</mgrwt>
</event>
<event>
12    2  0.3552864E-008  0.1070637E+04  0.7818608E-02  0.9234294E-01
          1   -1    0    0  501    0  0.00000000000E+00  0.00000000000E+00  0.61992382188E+03  0.61992382188E+03  0.00000000000E+00 0. -1.
         -1   -1    0    0    0  501 -0.00000000000E+00 -0.00000000000E+00 -0.46225944737E+03  0.46225944737E+03  0.00000000000E+00 0.  1.
         23    2    1    2    0    0 -0.95758860004E+02  0.74761867091E+02 -0.18781412994E+02  0.15385771868E+03  0.92522214000E+02 0.  0.
        254    2    1    2    0    0  0.95758860004E+02 -0.74761867091E+02  0.17644578751E+03  0.92832555057E+03  0.90326968059E+03 0.  0.
         23    2    4    4    0    0  0.20412335674E+03  0.13845225773E+03  0.47009452518E+03  0.53915482499E+03  0.94147173435E+02 0.  0.
         23    2    4    4    0    0 -0.10836449673E+03 -0.21321412482E+03 -0.29364873767E+03  0.38917072558E+03  0.89560847133E+02 0.  0.
          1    1    3    3  502    0 -0.62145229872E+02  0.45322725593E+02  0.34517602153E+02  0.84306843787E+02  0.00000000000E+00 0. -1.
         -1    1    3    3    0  502 -0.33613630132E+02  0.29439141498E+02 -0.53299015147E+02  0.69550874893E+02  0.00000000000E+00 0.  1.
         11    1    5    5    0    0  0.16148602270E+03  0.13429803442E+03  0.31767502273E+03  0.38082951257E+03  0.00000000000E+00 0.  1.
        -11    1    5    5    0    0  0.42637334034E+02  0.41542233090E+01  0.15241950245E+03  0.15832531242E+03  0.00000000000E+00 0. -1.
          1    1    6    6  503    0 -0.62721320272E+01  0.15444532664E+01  0.44530693452E+01  0.78456868821E+01  0.00000000000E+00 0. -1.
         -1    1    6    6    0  503 -0.10209236471E+03 -0.21475857808E+03 -0.29810180702E+03  0.38132503870E+03  0.00000000000E+00 0.  1.
<mgrwt>
<rscale>  0 0.10706365E+04</rscale>
<asrwt>0</asrwt>
<pdfrwt beam="1">  1        1 0.95372896E-01 0.10706365E+04</pdfrwt>
<pdfrwt beam="2">  1       -1 0.71116838E-01 0.10706365E+04</pdfrwt>
<totfact> 0.65139466E+01</totfact>
</mgrwt>
</event>
<event>
12    2  0.3552864E-008  0.1200848E+04  0.7818608E-02  0.9112114E-01
          1   -1    0    0  501    0  0.00000000000E+00  0.00000000000E+00  0.90413521549E+03  0.90413521549E+03  0.00000000000E+00 0. -1.
         -1   -1    0    0    0  501 -0.00000000000E+00 -0.00000000000E+00 -0.39873363120E+03  0.39873363120E+03  0.00000000000E+00 0.  1.
         23    2    1    2    0    0 -0.11580530288E+03 -0.95592487783E+02  0.37542183358E+03  0.41423164198E+03  0.89986155585E+02 0.  0.
        254    2    1    2    0    0  0.11580530288E+03  0.95592487783E+02  0.12997975071E+03  0.88863720470E+03  0.86615965854E+03 0.  0.
         23    2    4    4    0    0 -0.20038757276E+03  0.87613436794E+01 -0.27922636550E+03  0.35633772307E+03  0.93687081458E+02 0.  0.
         23    2    4    4    0    0  0.31619287564E+03  0.86831144103E+02  0.40920611621E+03  0.53229948163E+03  0.91517814734E+02 0.  0.
          4    1    3    3  502    0 -0.88482312632E+01 -0.37799316634E+02  0.17954505906E+03  0.18369406024E+03  0.00000000000E+00 0. -1.
         -4    1    3    3    0  502 -0.10695707162E+03 -0.57793171148E+02  0.19587677452E+03  0.23053758174E+03  0.00000000000E+00 0.  1.
         11    1    5    5    0    0 -0.20197070553E+03  0.24375578997E+02 -0.27023484013E+03  0.33825020852E+03  0.00000000000E+00 0.  1.
        -11    1    5    5    0    0  0.15831327754E+01 -0.15614235317E+02 -0.89915253663E+01  0.18087514543E+02  0.00000000000E+00 0. -1.
          3    1    6    6  503    0  0.45379680354E+02  0.47507641822E+02  0.96779439537E+02  0.11697243837E+03  0.00000000000E+00 0. -1.
         -3    1    6    6    0  503  0.27081319528E+03  0.39323502281E+02  0.31242667667E+03  0.41532704327E+03  0.00000000000E+00 0.  1.
<mgrwt>
<rscale>  0 0.12008482E+04</rscale>
<asrwt>0</asrwt>
<pdfrwt beam="1">  1        1 0.13909772E+00 0.12008482E+04</pdfrwt>
<pdfrwt beam="2">  1       -1 0.61343636E-01 0.12008482E+04</pdfrwt>
<totfact> 0.48162835E+01</totfact>
</mgrwt>
</event>
<event>
12    2  0.3552864E-008  0.1276993E+04  0.7818608E-02  0.9048011E-01
         -1   -1    0    0    0  501 -0.00000000000E+00  0.00000000000E+00  0.82003824217E+03  0.82003824217E+03  0.00000000000E+00 0.  1.
          1   -1    0    0  501    0  0.00000000000E+00 -0.00000000000E+00 -0.49714522194E+03  0.49714522194E+03  0.00000000000E+00 0. -1.
         23    2    1    2    0    0 -0.28214217038E+02 -0.27775407198E+03  0.21356905889E+03  0.36286206217E+03  0.90076449227E+02 0.  0.
        254    2    1    2    0    0  0.28214217038E+02  0.27775407198E+03  0.10932396133E+03  0.95432140193E+03  0.90599903042E+03 0.  0.
         23    2    4    4    0    0  0.20531442944E+03  0.10944435042E+03  0.45656415112E+03  0.52026392010E+03  0.89953553018E+02 0.  0.
         23    2    4    4    0    0 -0.17710021240E+03  0.16830972156E+03 -0.34724018978E+03  0.43405748183E+03  0.90208095690E+02 0.  0.
          2    1    3    3  502    0 -0.15877862470E+02 -0.70437596148E+02  0.11534792757E+02  0.73120536866E+02  0.00000000000E+00 0. -1.
         -2    1    3    3    0  502 -0.12336354568E+02 -0.20731647583E+03  0.20203426613E+03  0.28974152531E+03  0.00000000000E+00 0.  1.
         11    1    5    5    0    0  0.21346557951E+03  0.11052454399E+03  0.43220879426E+03  0.49455805554E+03  0.00000000000E+00 0. -1.
        -11    1    5    5    0    0 -0.81511500674E+01 -0.10801935701E+01  0.24355356854E+02  0.25705864566E+02  0.00000000000E+00 0.  1.
          4    1    6    6  503    0 -0.10284462783E+03  0.38089631385E+02 -0.12940880763E+03  0.16963041292E+03  0.00000000000E+00 0. -1.
         -4    1    6    6    0  503 -0.74255584569E+02  0.13022009017E+03 -0.21783138215E+03  0.26442706892E+03  0.00000000000E+00 0.  1.
<mgrwt>
<rscale>  0 0.12769935E+04</rscale>
<asrwt>0</asrwt>
<pdfrwt beam="1">  1        1 0.76483881E-01 0.12769935E+04</pdfrwt>
<pdfrwt beam="2">  1       -1 0.12615973E+00 0.12769935E+04</pdfrwt>
<totfact> 0.24053346E+01</totfact>
</mgrwt>
</event>
<event>
12    2  0.3552864E-008  0.1469284E+04  0.7818608E-02  0.8905139E-01
         -2   -1    0    0    0  501 -0.00000000000E+00  0.00000000000E+00  0.20275975028E+03  0.20275975028E+03  0.00000000000E+00 0.  1.
          2   -1    0    0  501    0  0.00000000000E+00 -0.00000000000E+00 -0.26617662218E+04  0.26617662218E+04  0.00000000000E+00 0. -1.
         23    2    1    2    0    0  0.78282586934E+02  0.23484419277E+02 -0.16452198027E+04  0.16497896341E+04  0.91531176023E+02 0.  0.
        254    2    1    2    0    0 -0.78282586934E+02 -0.23484419277E+02 -0.81378666886E+03  0.12147363380E+04  0.89814027143E+03 0.  0.
         23    2    4    4    0    0  0.24377434990E+03 -0.30876341148E+03 -0.17904187989E+03  0.44230528497E+03  0.93899906403E+02 0.  0.
         23    2    4    4    0    0 -0.32205693683E+03  0.28527899221E+03 -0.63474478897E+03  0.77243105306E+03  0.92973171665E+02 0.  0.
          3    1    3    3  502    0  0.92116026283E+02 -0.32850278957E+01 -0.11795628038E+04  0.11831587222E+04  0.00000000000E+00 0. -1.
         -3    1    3    3    0  502 -0.13833439348E+02  0.26769447173E+02 -0.46565699885E+03  0.46663091188E+03  0.00000000000E+00 0.  1.
         11    1    5    5    0    0  0.33813376463E+02 -0.11359283807E+02  0.19935660878E+01  0.35726069784E+02  0.00000000000E+00 0.  1.
        -11    1    5    5    0    0  0.20996097343E+03 -0.29740412768E+03 -0.18103544597E+03  0.40657921519E+03  0.00000000000E+00 0. -1.
          4    1    6    6  503    0 -0.20608519755E+03  0.17270874858E+03 -0.47106577949E+03  0.54240426722E+03  0.00000000000E+00 0. -1.
         -4    1    6    6    0  503 -0.11597173928E+03  0.11257024362E+03 -0.16367900948E+03  0.23002678584E+03  0.00000000000E+00 0.  1.
<mgrwt>
<rscale>  0 0.14692843E+04</rscale>
<asrwt>0</asrwt>
<pdfrwt beam="1">  1        2 0.40950247E+00 0.14692843E+04</pdfrwt>
<pdfrwt beam="2">  1       -2 0.31193810E-01 0.14692843E+04</pdfrwt>
<totfact> 0.25940659E+01</totfact>
</mgrwt>
</event>
<event>
12    2  0.3552864E-008  0.2484693E+04  0.7818608E-02  0.8408459E-01
          2   -1    0    0  501    0  0.00000000000E+00  0.00000000000E+00  0.17156180591E+04  0.17156180591E+04  0.00000000000E+00 0. -1.
         -2   -1    0    0    0  501 -0.00000000000E+00 -0.00000000000E+00 -0.89963193603E+03  0.89963193603E+03  0.00000000000E+00 0.  1.
         23    2    1    2    0    0  0.55898885746E+03  0.89786772651E+03  0.98418017654E+02  0.10660153361E+04  0.89819783079E+02 0.  0.
        254    2    1    2    0    0 -0.55898885746E+03 -0.89786772651E+03  0.71756810539E+03  0.15492346590E+04  0.87555071004E+03 0.  0.
         23    2    4    4    0    0 -0.77804412602E+02 -0.27762977019E+03  0.69615070492E+03  0.75872684726E+03  0.88931484144E+02 0.  0.
         23    2    4    4    0    0 -0.48118444486E+03 -0.62023795632E+03  0.21417400469E+02  0.79050781179E+03  0.90610722468E+02 0.  0.
          2    1    3    3  502    0  0.40378827678E+03  0.67472872019E+03  0.36065402488E+02  0.78714962463E+03  0.00000000000E+00 0. -1.
         -2    1    3    3    0  502  0.15520058068E+03  0.22313900632E+03  0.62352615166E+02  0.27886571142E+03  0.00000000000E+00 0.  1.
         11    1    5    5    0    0 -0.69554818727E+02 -0.26168496367E+03  0.68729445144E+03  0.73870870849E+03  0.00000000000E+00 0. -1.
        -11    1    5    5    0    0 -0.82495938759E+01 -0.15944806513E+02  0.88562534783E+01  0.20018138763E+02  0.00000000000E+00 0.  1.
          4    1    6    6  503    0 -0.32311018730E+03 -0.35680100279E+03 -0.11717448412E+02  0.48150228175E+03  0.00000000000E+00 0. -1.
         -4    1    6    6    0  503 -0.15807425755E+03 -0.26343695353E+03  0.33134848882E+02  0.30900553004E+03  0.00000000000E+00 0.  1.
<mgrwt>
<rscale>  0 0.24846930E+04</rscale>
<asrwt>0</asrwt>
<pdfrwt beam="1">  1        2 0.26394124E+00 0.24846930E+04</pdfrwt>
<pdfrwt beam="2">  1       -2 0.13840491E+00 0.24846930E+04</pdfrwt>
<totfact> 0.31766365E+00</totfact>
</mgrwt>
</event>
<event>
12    2  0.3552864E-008  0.1341818E+04  0.7818608E-02  0.8997045E-01
         -2   -1    0    0    0  501 -0.00000000000E+00  0.00000000000E+00  0.20425463023E+03  0.20425463023E+03  0.00000000000E+00 0. -1.
          2   -1    0    0  501    0  0.00000000000E+00 -0.00000000000E+00 -0.22037130279E+04  0.22037130279E+04  0.00000000000E+00 0.  1.
         23    2    1    2    0    0  0.19925175165E+03 -0.12100101606E+03 -0.10446474144E+04  0.10742225401E+04  0.91232334684E+02 0.  0.
        254    2    1    2    0    0 -0.19925175165E+03  0.12100101606E+03 -0.95481098326E+03  0.13337451180E+04  0.90159276816E+03 0.  0.
         23    2    4    4    0    0 -0.36531913780E+03 -0.11823865957E+03 -0.74471077940E+02  0.40200341998E+03  0.92856637703E+02 0.  0.
         23    2    4    4    0    0  0.16606738615E+03  0.23923967563E+03 -0.88033990532E+03  0.93174169802E+03  0.91270169225E+02 0.  0.
          1    1    3    3  502    0 -0.89752494150E+01 -0.43952112397E+01 -0.23111686246E+02  0.25179813840E+02  0.00000000000E+00 0. -1.
         -1    1    3    3    0  502  0.20822700106E+03 -0.11660580482E+03 -0.10215357281E+04  0.10490427263E+04  0.00000000000E+00 0.  1.
         11    1    5    5    0    0 -0.35759017594E+03 -0.10281409953E+03 -0.55219647014E+02  0.37615247229E+03  0.00000000000E+00 0.  1.
        -11    1    5    5    0    0 -0.77289618560E+01 -0.15424560035E+02 -0.19251430926E+02  0.25850947687E+02  0.00000000000E+00 0. -1.
          4    1    6    6  503    0  0.89162484718E+01  0.62300409861E+02 -0.26732644684E+03  0.27463479338E+03  0.00000000000E+00 0. -1.
         -4    1    6    6    0  503  0.15715113768E+03  0.17693926577E+03 -0.61301345848E+03  0.65710690464E+03  0.00000000000E+00 0.  1.
<mgrwt>
<rscale>  0 0.13418176E+04</rscale>
<asrwt>0</asrwt>
<pdfrwt beam="1">  1        2 0.33903279E+00 0.13418176E+04</pdfrwt>
<pdfrwt beam="2">  1       -2 0.31423788E-01 0.13418176E+04</pdfrwt>
<totfact> 0.47303626E+01</totfact>
</mgrwt>
</event>
<event>
12    2  0.3552864E-008  0.3322732E+04  0.7818608E-02  0.8157135E-01
          1   -1    0    0  501    0  0.00000000000E+00  0.00000000000E+00  0.16259218411E+04  0.16259218411E+04  0.00000000000E+00 0. -1.
         -1   -1    0    0    0  501 -0.00000000000E+00 -0.00000000000E+00 -0.16975830858E+04  0.16975830858E+04  0.00000000000E+00 0.  1.
         23    2    1    2    0    0 -0.96431922010E+03 -0.11833080598E+04 -0.23236140747E+03  0.15467982850E+04  0.91997762020E+02 0.  0.
        254    2    1    2    0    0  0.96431922010E+03  0.11833080598E+04  0.16070016277E+03  0.17767066418E+04  0.89483653591E+03 0.  0.
         23    2    4    4    0    0  0.10296656799E+04  0.96920091604E+03 -0.97414694534E+02  0.14204701961E+04  0.93188664934E+02 0.  0.
         23    2    4    4    0    0 -0.65346459807E+02  0.21410714377E+03  0.25811485731E+03  0.35623644569E+03  0.10084193995E+03 0.  0.
          2    1    3    3  502    0 -0.51131669823E+03 -0.65629790117E+03 -0.16908544775E+03  0.84897678979E+03  0.00000000000E+00 0. -1.
         -2    1    3    3    0  502 -0.45300252188E+03 -0.52701015865E+03 -0.63275959721E+02  0.69782149524E+03  0.00000000000E+00 0.  1.
         11    1    5    5    0    0  0.58133373770E+03  0.60777250757E+03 -0.70058070587E+02  0.84394577362E+03  0.00000000000E+00 0.  1.
        -11    1    5    5    0    0  0.44833194221E+03  0.36142840847E+03 -0.27356623947E+02  0.57652442249E+03  0.00000000000E+00 0. -1.
          1    1    6    6  503    0 -0.56162542530E+02  0.13123118117E+03  0.90467930827E+02  0.16899793077E+03  0.00000000000E+00 0. -1.
         -1    1    6    6    0  503 -0.91839172767E+01  0.82875962603E+02  0.16764692648E+03  0.18723851493E+03  0.00000000000E+00 0.  1.
<mgrwt>
<rscale>  0 0.33227323E+04</rscale>
<asrwt>0</asrwt>
<pdfrwt beam="1">  1        1 0.25014182E+00 0.33227323E+04</pdfrwt>
<pdfrwt beam="2">  1       -1 0.26116663E+00 0.33227323E+04</pdfrwt>
<totfact> 0.26150132E-01</totfact>
</mgrwt>
</event>
<event>
12    2  0.3552864E-008  0.2113806E+04  0.7818608E-02  0.8555186E-01
         -2   -1    0    0    0  501 -0.00000000000E+00  0.00000000000E+00  0.33133908685E+03  0.33133908685E+03  0.00000000000E+00 0.  1.
          2   -1    0    0  501    0  0.00000000000E+00 -0.00000000000E+00 -0.33713010568E+04  0.33713010568E+04  0.00000000000E+00 0. -1.
         23    2    1    2    0    0  0.30597099117E+03 -0.80849539986E+03 -0.11066718567E+04  0.14072930561E+04  0.92022217442E+02 0.  0.
        254    2    1    2    0    0 -0.30597099117E+03  0.80849539986E+03 -0.19332901133E+04  0.22953470875E+04  0.88528217591E+03 0.  0.
         23    2    4    4    0    0  0.22289646515E+03  0.60656129498E+03 -0.87290496174E+03  0.10898771573E+04  0.90937930025E+02 0.  0.
         23    2    4    4    0    0 -0.52886745632E+03  0.20193410488E+03 -0.10603851515E+04  0.12054699302E+04  0.90900571315E+02 0.  0.
          3    1    3    3  502    0  0.25457117821E+03 -0.74650433109E+03 -0.10100387899E+04  0.12815044121E+04  0.00000000000E+00 0. -1.
         -3    1    3    3    0  502  0.51399812957E+02 -0.61991068767E+02 -0.96633066735E+02  0.12578864403E+03  0.00000000000E+00 0.  1.
         11    1    5    5    0    0  0.81330561601E+02  0.23456821318E+03 -0.26374903995E+03  0.36221604459E+03  0.00000000000E+00 0.  1.
        -11    1    5    5    0    0  0.14156590354E+03  0.37199308180E+03 -0.60915592179E+03  0.72766111275E+03  0.00000000000E+00 0. -1.
          4    1    6    6  503    0 -0.19853712624E+03  0.10580432253E+03 -0.34839147083E+03  0.41471455498E+03  0.00000000000E+00 0. -1.
         -4    1    6    6    0  503 -0.33033033007E+03  0.96129782352E+02 -0.71199368071E+03  0.79075537519E+03  0.00000000000E+00 0.  1.
<mgrwt>
<rscale>  0 0.21138059E+04</rscale>
<asrwt>0</asrwt>
<pdfrwt beam="1">  1        2 0.51866168E+00 0.21138059E+04</pdfrwt>
<pdfrwt beam="2">  1       -2 0.50975246E-01 0.21138059E+04</pdfrwt>
<totfact> 0.33512934E+00</totfact>
</mgrwt>
</event>
<event>
12    2  0.3552864E-008  0.1519714E+04  0.7818608E-02  0.8871448E-01
         -1   -1    0    0    0  501 -0.00000000000E+00  0.00000000000E+00  0.14091568791E+04  0.14091568791E+04  0.00000000000E+00 0.  1.
          1   -1    0    0  501    0  0.00000000000E+00 -0.00000000000E+00 -0.40973619109E+03  0.40973619109E+03  0.00000000000E+00 0. -1.
         23    2    1    2    0    0 -0.42398947895E+03  0.50187320130E+02  0.42998859849E+03  0.61270888559E+03  0.90753172319E+02 0.  0.
        254    2    1    2    0    0  0.42398947895E+03 -0.50187320130E+02  0.56943208955E+03  0.12061841846E+04  0.97382828944E+03 0.  0.
         23    2    4    4    0    0  0.51592402916E+03  0.34827689957E+03  0.44193804576E+03  0.76844035361E+03  0.87846104792E+02 0.  0.
         23    2    4    4    0    0 -0.91934550211E+02 -0.39846421970E+03  0.12749404380E+03  0.43774383104E+03  0.90217706174E+02 0.  0.
          3    1    3    3  502    0 -0.10482911973E+03 -0.66430313176E+01  0.60703661710E+02  0.12131862493E+03  0.00000000000E+00 0. -1.
         -3    1    3    3    0  502 -0.31916035922E+03  0.56830351448E+02  0.36928493678E+03  0.49139026067E+03  0.00000000000E+00 0.  1.
         11    1    5    5    0    0  0.18009912365E+03  0.10274802647E+03  0.10133384000E+03  0.23078431145E+03  0.00000000000E+00 0. -1.
        -11    1    5    5    0    0  0.33582490551E+03  0.24552887309E+03  0.34060420576E+03  0.53765604215E+03  0.00000000000E+00 0.  1.
          4    1    6    6  503    0 -0.87443233064E+02 -0.17991040196E+03  0.55456723919E+02  0.20758015312E+03  0.00000000000E+00 0. -1.
         -4    1    6    6    0  503 -0.44913171470E+01 -0.21855381774E+03  0.72037319877E+02  0.23016367792E+03  0.00000000000E+00 0.  1.
<mgrwt>
<rscale>  0 0.15197139E+04</rscale>
<asrwt>0</asrwt>
<pdfrwt beam="1">  1        1 0.63036338E-01 0.15197139E+04</pdfrwt>
<pdfrwt beam="2">  1       -1 0.21679336E+00 0.15197139E+04</pdfrwt>
<totfact> 0.64888906E+00</totfact>
</mgrwt>
</event>
<event>
12    2  0.3552864E-008  0.1656398E+04  0.7818608E-02  0.8786630E-01
         -2   -1    0    0    0  501 -0.00000000000E+00  0.00000000000E+00  0.29885530719E+03  0.29885530719E+03  0.00000000000E+00 0.  1.
          2   -1    0    0  501    0  0.00000000000E+00 -0.00000000000E+00 -0.22951361609E+04  0.22951361609E+04  0.00000000000E+00 0. -1.
         23    2    1    2    0    0 -0.31695291435E+03 -0.47867281355E+03 -0.49889029871E+03  0.76751136474E+03  0.10293372871E+03 0.  0.
        254    2    1    2    0    0  0.31695291435E+03  0.47867281355E+03 -0.14973905550E+04  0.18264801034E+04  0.87422210073E+03 0.  0.
         23    2    4    4    0    0 -0.18931081249E+03  0.34250574932E+03 -0.25667471901E+03  0.47652481819E+03  0.89695144404E+02 0.  0.
         23    2    4    4    0    0  0.50626372684E+03  0.13616706424E+03 -0.12407158360E+04  0.13499552852E+04  0.90327491830E+02 0.  0.
          4    1    3    3  502    0 -0.80521168778E+02 -0.16957456796E+03 -0.11113438973E+03  0.21815142745E+03  0.00000000000E+00 0. -1.
         -4    1    3    3    0  502 -0.23643174557E+03 -0.30909824560E+03 -0.38775590898E+03  0.54935993728E+03  0.00000000000E+00 0.  1.
         11    1    5    5    0    0 -0.29124589478E+02  0.13913943886E+02 -0.40658675808E+02  0.51913076052E+02  0.00000000000E+00 0.  1.
        -11    1    5    5    0    0 -0.16018622302E+03  0.32859180543E+03 -0.21601604320E+03  0.42461174214E+03  0.00000000000E+00 0. -1.
          1    1    6    6  503    0  0.40327069892E+03  0.13556959405E+03 -0.93207167208E+03  0.10245799009E+04  0.00000000000E+00 0. -1.
         -1    1    6    6    0  503  0.10299302792E+03  0.59747018815E+00 -0.30864416391E+03  0.32537538427E+03  0.00000000000E+00 0.  1.
<mgrwt>
<rscale>  0 0.16563980E+04</rscale>
<asrwt>0</asrwt>
<pdfrwt beam="1">  1        2 0.35309786E+00 0.16563980E+04</pdfrwt>
<pdfrwt beam="2">  1       -2 0.45977742E-01 0.16563980E+04</pdfrwt>
<totfact> 0.19558026E+01</totfact>
</mgrwt>
</event>
<event>
12    2  0.3552864E-008  0.1257736E+04  0.7818608E-02  0.9063769E-01
          2   -1    0    0  501    0  0.00000000000E+00  0.00000000000E+00  0.28501883658E+04  0.28501883658E+04  0.00000000000E+00 0. -1.
         -2   -1    0    0    0  501 -0.00000000000E+00 -0.00000000000E+00 -0.13875387750E+03  0.13875387750E+03  0.00000000000E+00 0.  1.
         23    2    1    2    0    0  0.18541463859E+03  0.13475035148E+03  0.24090891528E+03  0.34502015473E+03  0.92008457653E+02 0.  0.
        254    2    1    2    0    0 -0.18541463859E+03 -0.13475035148E+03  0.24705255730E+04  0.26439220885E+04  0.91339540070E+03 0.  0.
         23    2    4    4    0    0  0.27676498767E+03  0.18098296437E+03  0.63052568073E+03  0.71812794057E+03  0.93762536124E+02 0.  0.
         23    2    4    4    0    0 -0.46217962626E+03 -0.31573331585E+03  0.18399998923E+04  0.19257941480E+04  0.98924027112E+02 0.  0.
          1    1    3    3  502    0  0.15047641450E+02  0.22538248263E+02 -0.27476141847E+01  0.27238823977E+02  0.00000000000E+00 0. -1.
         -1    1    3    3    0  502  0.17036699714E+03  0.11221210322E+03  0.24365652946E+03  0.31778133075E+03  0.00000000000E+00 0.  1.
         11    1    5    5    0    0  0.24948242916E+03  0.18917319132E+03  0.59712463787E+03  0.67422979164E+03  0.00000000000E+00 0.  1.
        -11    1    5    5    0    0  0.27282558506E+02 -0.81902269496E+01  0.33401042854E+02  0.43898148934E+02  0.00000000000E+00 0. -1.
          1    1    6    6  503    0 -0.11164604433E+03 -0.90483520101E+02  0.34297952483E+03  0.37186968292E+03  0.00000000000E+00 0. -1.
         -1    1    6    6    0  503 -0.35053358193E+03 -0.22524979575E+03  0.14970203674E+04  0.15539244651E+04  0.00000000000E+00 0.  1.
<mgrwt>
<rscale>  0 0.12577356E+04</rscale>
<asrwt>0</asrwt>
<pdfrwt beam="1">  1        2 0.43849048E+00 0.12577356E+04</pdfrwt>
<pdfrwt beam="2">  1       -2 0.21346752E-01 0.12577356E+04</pdfrwt>
<totfact> 0.40774275E+01</totfact>
</mgrwt>
</event>
<event>
12    2  0.3552864E-008  0.2219983E+04  0.7818608E-02  0.8510157E-01
          2   -1    0    0  501    0  0.00000000000E+00  0.00000000000E+00  0.25204908356E+04  0.25204908356E+04  0.00000000000E+00 0.  1.
         -2   -1    0    0    0  501 -0.00000000000E+00 -0.00000000000E+00 -0.48882578448E+03  0.48882578448E+03  0.00000000000E+00 0. -1.
         23    2    1    2    0    0 -0.41321270554E+03  0.45555335681E+03 -0.85350695403E+02  0.62780427843E+03  0.92627587056E+02 0.  0.
        254    2    1    2    0    0  0.41321270554E+03 -0.45555335681E+03  0.21170157466E+04  0.23815123417E+04  0.90087277765E+03 0.  0.
         23    2    4    4    0    0  0.46447672234E+03  0.12643661392E+03  0.11181500783E+04  0.12208169665E+04  0.91704008344E+02 0.  0.
         23    2    4    4    0    0 -0.51264016804E+02 -0.58198997073E+03  0.99886566824E+03  0.11606953752E+04  0.90226411410E+02 0.  0.
          3    1    3    3  502    0 -0.32535341562E+03  0.38636394044E+03 -0.10032864370E+03  0.51497356852E+03  0.00000000000E+00 0. -1.
         -3    1    3    3    0  502 -0.87859289921E+02  0.69189416376E+02  0.14977948296E+02  0.11283070991E+03  0.00000000000E+00 0.  1.
         11    1    5    5    0    0  0.21367127274E+02  0.88511320167E+01  0.12286482312E+03  0.12502264365E+03  0.00000000000E+00 0. -1.
        -11    1    5    5    0    0  0.44310959507E+03  0.11758548190E+03  0.99528525521E+03  0.10957943229E+04  0.00000000000E+00 0.  1.
          2    1    6    6  503    0  0.90111049854E+01 -0.45934178540E+02  0.45391830683E+02  0.65204041776E+02  0.00000000000E+00 0. -1.
         -2    1    6    6    0  503 -0.60275121790E+02 -0.53605579219E+03  0.95347383756E+03  0.10954913334E+04  0.00000000000E+00 0.  1.
<mgrwt>
<rscale>  0 0.22199828E+04</rscale>
<asrwt>0</asrwt>
<pdfrwt beam="1">  1        2 0.38776781E+00 0.22199828E+04</pdfrwt>
<pdfrwt beam="2">  1       -2 0.75203968E-01 0.22199828E+04</pdfrwt>
<totfact> 0.49061620E+00</totfact>
</mgrwt>
</event>
<event>
12    2  0.3552864E-008  0.1473059E+04  0.7818608E-02  0.8902569E-01
          2   -1    0    0  501    0  0.00000000000E+00  0.00000000000E+00  0.62898685896E+03  0.62898685896E+03  0.00000000000E+00 0. -1.
         -2   -1    0    0    0  501 -0.00000000000E+00 -0.00000000000E+00 -0.86245974076E+03  0.86245974076E+03  0.00000000000E+00 0.  1.
         23    2    1    2    0    0  0.38683712440E+03  0.31731003122E+02  0.16706086720E+03  0.43261486878E+03  0.92717171921E+02 0.  0.
        254    2    1    2    0    0 -0.38683712440E+03 -0.31731003122E+02 -0.40053374900E+03  0.10588317309E+04  0.90002640683E+03 0.  0.
         23    2    4    4    0    0 -0.40718587760E+03  0.11773348723E+03 -0.63343086716E+03  0.76701607957E+03  0.86124850769E+02 0.  0.
         23    2    4    4    0    0  0.20348753199E+02 -0.14946449035E+03  0.23289711816E+03  0.29181565137E+03  0.90341580145E+02 0.  0.
          2    1    3    3  502    0  0.28663035928E+03  0.13704068232E+02  0.78064998496E+02  0.29738679920E+03  0.00000000000E+00 0. -1.
         -2    1    3    3    0  502  0.10020676512E+03  0.18026934890E+02  0.88995868700E+02  0.13522806958E+03  0.00000000000E+00 0.  1.
         11    1    5    5    0    0 -0.65960127650E+02  0.21138316061E+02 -0.54649200295E+02  0.88227557704E+02  0.00000000000E+00 0. -1.
        -11    1    5    5    0    0 -0.34122574995E+03  0.96595171170E+02 -0.57878166686E+03  0.67878852187E+03  0.00000000000E+00 0.  1.
          1    1    6    6  503    0  0.30515143939E+02 -0.63097858169E+01  0.29700692378E+02  0.43047863297E+02  0.00000000000E+00 0. -1.
         -1    1    6    6    0  503 -0.10166390740E+02 -0.14315470454E+03  0.20319642579E+03  0.24876778807E+03  0.00000000000E+00 0.  1.
<mgrwt>
<rscale>  0 0.14730592E+04</rscale>
<asrwt>0</asrwt>
<pdfrwt beam="1">  1        2 0.96767209E-01 0.14730592E+04</pdfrwt>
<pdfrwt beam="2">  1       -2 0.13268611E+00 0.14730592E+04</pdfrwt>
<totfact> 0.18682262E+01</totfact>
</mgrwt>
</event>
<event>
12    2  0.3552864E-008  0.1035192E+04  0.7818608E-02  0.9270768E-01
          1   -1    0    0  501    0  0.00000000000E+00  0.00000000000E+00  0.44484239634E+04  0.44484239634E+04  0.00000000000E+00 0. -1.
         -1   -1    0    0    0  501 -0.00000000000E+00 -0.00000000000E+00 -0.60224792433E+02  0.60224792433E+02  0.00000000000E+00 0.  1.
         23    2    1    2    0    0 -0.11590879010E+02 -0.42304125901E+02  0.19827688514E+03  0.22281929377E+03  0.91710015536E+02 0.  0.
        254    2    1    2    0    0  0.11590879010E+02  0.42304125901E+02  0.41899222858E+04  0.42858294620E+04  0.90053396887E+03 0.  0.
         23    2    4    4    0    0 -0.35651052709E+03  0.23238435819E+03  0.27687198750E+04  0.28027424732E+04  0.91942258939E+02 0.  0.
         23    2    4    4    0    0  0.36810140610E+03 -0.19008023229E+03  0.14212024108E+04  0.14830869888E+04  0.90008800303E+02 0.  0.
          3    1    3    3  502    0 -0.25413189085E+02 -0.37323739302E+02  0.20254703623E+03  0.20751914028E+03  0.00000000000E+00 0. -1.
         -3    1    3    3    0  502  0.13822310075E+02 -0.49803865993E+01 -0.42701510922E+01  0.15300153490E+02  0.00000000000E+00 0.  1.
         11    1    5    5    0    0 -0.80274942820E+02  0.99138452564E+02  0.72457161947E+03  0.73571497943E+03  0.00000000000E+00 0. -1.
        -11    1    5    5    0    0 -0.27623558427E+03  0.13324590563E+03  0.20441482555E+04  0.20670274938E+04  0.00000000000E+00 0.  1.
          3    1    6    6  503    0  0.21581394387E+02  0.28880554919E+01  0.34663552967E+02  0.40934818340E+02  0.00000000000E+00 0. -1.
         -3    1    6    6    0  503  0.34652001171E+03 -0.19296828778E+03  0.13865388578E+04  0.14421521705E+04  0.00000000000E+00 0.  1.
<mgrwt>
<rscale>  0 0.10351916E+04</rscale>
<asrwt>0</asrwt>
<pdfrwt beam="1">  1        1 0.68437266E+00 0.10351916E+04</pdfrwt>
<pdfrwt beam="2">  1       -1 0.92653562E-02 0.10351916E+04</pdfrwt>
<totfact> 0.27586079E+00</totfact>
</mgrwt>
</event>
<event>
12    2  0.3552864E-008  0.1855037E+04  0.7818608E-02  0.8677567E-01
          2   -1    0    0  501    0  0.00000000000E+00  0.00000000000E+00  0.20639918200E+04  0.20639918200E+04  0.00000000000E+00 0. -1.
         -2   -1    0    0    0  501 -0.00000000000E+00 -0.00000000000E+00 -0.41680915672E+03  0.41680915672E+03  0.00000000000E+00 0.  1.
         23    2    1    2    0    0 -0.23900697133E+03  0.70020126515E+02 -0.25252423445E+03  0.36598239900E+03  0.90263375359E+02 0.  0.
        254    2    1    2    0    0  0.23900697133E+03 -0.70020126515E+02  0.18997068978E+04  0.21148185778E+04  0.89528999155E+03 0.  0.
         23    2    4    4    0    0  0.14079651866E+03  0.34834584162E+02  0.19338880777E+04  0.19414338987E+04  0.90583540616E+02 0.  0.
         23    2    4    4    0    0  0.98210452670E+02 -0.10485471068E+03 -0.34181179968E+02  0.17338467908E+03  0.90852025356E+02 0.  0.
          1    1    3    3  502    0 -0.49033006268E+01  0.87101181968E+01 -0.48309130791E+02  0.49332348756E+02  0.00000000000E+00 0. -1.
         -1    1    3    3    0  502 -0.23410367070E+03  0.61310008319E+02 -0.20421510366E+03  0.31665005024E+03  0.00000000000E+00 0.  1.
         11    1    5    5    0    0  0.71172177081E+02 -0.85766853551E+01  0.13385700992E+04  0.13404883248E+04  0.00000000000E+00 0.  1.
        -11    1    5    5    0    0  0.69624341576E+02  0.43411269517E+02  0.59531797851E+03  0.60094557391E+03  0.00000000000E+00 0. -1.
          1    1    6    6  503    0  0.50974092005E+01 -0.66984598357E+02 -0.27672605192E+02  0.72654614965E+02  0.00000000000E+00 0. -1.
         -1    1    6    6    0  503  0.93113043469E+02 -0.37870112320E+02 -0.65085747766E+01  0.10073006412E+03  0.00000000000E+00 0.  1.
<mgrwt>
<rscale>  0 0.18550371E+04</rscale>
<asrwt>0</asrwt>
<pdfrwt beam="1">  1        2 0.31753720E+00 0.18550371E+04</pdfrwt>
<pdfrwt beam="2">  1       -2 0.64124487E-01 0.18550371E+04</pdfrwt>
<totfact> 0.13002619E+01</totfact>
</mgrwt>
</event>
<event>
12    2  0.3552864E-008  0.2135156E+04  0.7818608E-02  0.8545913E-01
         -1   -1    0    0    0  501 -0.00000000000E+00  0.00000000000E+00  0.45307700884E+03  0.45307700884E+03  0.00000000000E+00 0.  1.
          1   -1    0    0  501    0  0.00000000000E+00 -0.00000000000E+00 -0.25155157096E+04  0.25155157096E+04  0.00000000000E+00 0. -1.
         23    2    1    2    0    0  0.25024082917E+03  0.67112800270E+03 -0.15260199220E+04  0.16883689287E+04  0.93912557145E+02 0.  0.
        254    2    1    2    0    0 -0.25024082917E+03 -0.67112800270E+03 -0.53641877874E+03  0.12802237897E+04  0.91552967023E+03 0.  0.
         23    2    4    4    0    0 -0.11727312056E+03 -0.88240658180E+03 -0.42907400766E+03  0.99239265376E+03  0.91347221061E+02 0.  0.
         23    2    4    4    0    0 -0.13296770860E+03  0.21127857910E+03 -0.10734477108E+03  0.28783113598E+03  0.94893695510E+02 0.  0.
          4    1    3    3  502    0  0.16861065814E+03  0.37862210804E+03 -0.78906233671E+03  0.89129323230E+03  0.00000000000E+00 0. -1.
         -4    1    3    3    0  502  0.81630171027E+02  0.29250589466E+03 -0.73695758530E+03  0.79707569638E+03  0.00000000000E+00 0.  1.
         11    1    5    5    0    0 -0.25169439188E+02 -0.29504810906E+03 -0.98141153150E+02  0.31195924937E+03  0.00000000000E+00 0. -1.
        -11    1    5    5    0    0 -0.92103681377E+02 -0.58735847274E+03 -0.33093285451E+03  0.68043340439E+03  0.00000000000E+00 0.  1.
          3    1    6    6  503    0  0.49916034573E+01  0.42502787187E+02  0.41325783327E+01  0.42993967337E+02  0.00000000000E+00 0. -1.
         -3    1    6    6    0  503 -0.13795931206E+03  0.16877579191E+03 -0.11147734942E+03  0.24483716865E+03  0.00000000000E+00 0.  1.
<mgrwt>
<rscale>  0 0.21351556E+04</rscale>
<asrwt>0</asrwt>
<pdfrwt beam="1">  1        1 0.38700242E+00 0.21351556E+04</pdfrwt>
<pdfrwt beam="2">  1       -1 0.69704154E-01 0.21351556E+04</pdfrwt>
<totfact> 0.25223147E+00</totfact>
</mgrwt>
</event>
<event>
12    2  0.3552864E-008  0.1455213E+04  0.7818608E-02  0.8914794E-01
         -2   -1    0    0    0  501 -0.00000000000E+00  0.00000000000E+00  0.23666750646E+03  0.23666750646E+03  0.00000000000E+00 0.  1.
          2   -1    0    0  501    0  0.00000000000E+00 -0.00000000000E+00 -0.22369415259E+04  0.22369415259E+04  0.00000000000E+00 0. -1.
         23    2    1    2    0    0 -0.32754731840E+03 -0.59796532246E+02 -0.19304032894E+03  0.39493915751E+03  0.88597395418E+02 0.  0.
        254    2    1    2    0    0  0.32754731840E+03  0.59796532246E+02 -0.18072336905E+04  0.20786698749E+04  0.97155131902E+03 0.  0.
         23    2    4    4    0    0  0.26455784188E+02 -0.39325197092E+03 -0.40627361632E+03  0.57301264136E+03  0.89096659265E+02 0.  0.
         23    2    4    4    0    0  0.30109153421E+03  0.45304850317E+03 -0.14009600742E+04  0.15056572335E+04  0.91681607354E+02 0.  0.
          3    1    3    3  502    0 -0.44576928576E+02 -0.66092347125E+01 -0.66741800578E+02  0.80531065367E+02  0.00000000000E+00 0. -1.
         -3    1    3    3    0  502 -0.28297038983E+03 -0.53187297533E+02 -0.12629852836E+03  0.31440809214E+03  0.00000000000E+00 0.  1.
         11    1    5    5    0    0 -0.12905423133E+02 -0.31369323963E+03 -0.29643284804E+03  0.43178980064E+03  0.00000000000E+00 0.  1.
        -11    1    5    5    0    0  0.39361207321E+02 -0.79558731291E+02 -0.10984076828E+03  0.14122284073E+03  0.00000000000E+00 0. -1.
          4    1    6    6  503    0  0.12750411248E+03  0.25082004087E+03 -0.63142366894E+03  0.69127696425E+03  0.00000000000E+00 0. -1.
         -4    1    6    6    0  503  0.17358742173E+03  0.20222846230E+03 -0.76953640525E+03  0.81438026926E+03  0.00000000000E+00 0.  1.
<mgrwt>
<rscale>  0 0.14552132E+04</rscale>
<asrwt>0</asrwt>
<pdfrwt beam="1">  1        2 0.34414486E+00 0.14552132E+04</pdfrwt>
<pdfrwt beam="2">  1       -2 0.36410384E-01 0.14552132E+04</pdfrwt>
<totfact> 0.33930064E+01</totfact>
</mgrwt>
</event>
<event>
12    2  0.3552864E-008  0.1165801E+04  0.7818608E-02  0.9143329E-01
          2   -1    0    0  501    0  0.00000000000E+00  0.00000000000E+00  0.58325761253E+03  0.58325761253E+03  0.00000000000E+00 0. -1.
         -2   -1    0    0    0  501 -0.00000000000E+00 -0.00000000000E+00 -0.58254353509E+03  0.58254353509E+03  0.00000000000E+00 0.  1.
         23    2    1    2    0    0 -0.13803760862E+03 -0.14795168943E+02  0.17135064365E+03  0.23961170586E+03  0.93698709109E+02 0.  0.
        254    2    1    2    0    0  0.13803760862E+03  0.14795168943E+02 -0.17063656621E+03  0.92618944176E+03  0.89968703774E+03 0.  0.
         23    2    4    4    0    0 -0.29618912392E+03  0.14324652605E+03 -0.29249007905E+03  0.44897822587E+03  0.88223787087E+02 0.  0.
         23    2    4    4    0    0  0.43422673254E+03 -0.12845135710E+03  0.12185351284E+03  0.47721121589E+03  0.88485363705E+02 0.  0.
          4    1    3    3  502    0 -0.14468417011E+03 -0.32707016869E+02  0.14991188072E+03  0.21089530582E+03  0.00000000000E+00 0. -1.
         -4    1    3    3    0  502  0.66465614892E+01  0.17911847926E+02  0.21438762924E+02  0.28716400044E+02  0.00000000000E+00 0.  1.
         11    1    5    5    0    0 -0.17933872020E+03  0.12789407113E+03 -0.21582359686E+03  0.30838141149E+03  0.00000000000E+00 0. -1.
        -11    1    5    5    0    0 -0.11685040371E+03  0.15352454919E+02 -0.76666482192E+02  0.14059681437E+03  0.00000000000E+00 0.  1.
          4    1    6    6  503    0  0.23390683835E+03 -0.11219049957E+03  0.84140581131E+02  0.27272468648E+03  0.00000000000E+00 0. -1.
         -4    1    6    6    0  503  0.20031989419E+03 -0.16260857538E+02  0.37712931707E+02  0.20448652942E+03  0.00000000000E+00 0.  1.
<mgrwt>
<rscale>  0 0.11658009E+04</rscale>
<asrwt>0</asrwt>
<pdfrwt beam="1">  1        2 0.89731941E-01 0.11658009E+04</pdfrwt>
<pdfrwt beam="2">  1       -2 0.89622082E-01 0.11658009E+04</pdfrwt>
<totfact> 0.54182437E+01</totfact>
</mgrwt>
</event>
<event>
12    2  0.3552864E-008  0.1439081E+04  0.7818608E-02  0.8926006E-01
         -3   -1    0    0    0  501 -0.00000000000E+00  0.00000000000E+00  0.11406028964E+04  0.11406028964E+04  0.00000000000E+00 0.  1.
          3   -1    0    0  501    0  0.00000000000E+00 -0.00000000000E+00 -0.45391648684E+03  0.45391648684E+03  0.00000000000E+00 0. -1.
         23    2    1    2    0    0 -0.13195456127E+03 -0.22359929153E+03  0.61679398543E+03  0.67559154978E+03  0.92630838597E+02 0.  0.
        254    2    1    2    0    0  0.13195456127E+03  0.22359929153E+03  0.69892424093E+02  0.91892783342E+03  0.87871199074E+03 0.  0.
         23    2    4    4    0    0 -0.19281650816E+03 -0.18941415768E+02  0.35536761259E+03  0.41495545633E+03  0.91459868845E+02 0.  0.
         23    2    4    4    0    0  0.32477106943E+03  0.24254070730E+03 -0.28547518850E+03  0.50397237709E+03  0.90497687198E+02 0.  0.
          4    1    3    3  502    0  0.14192652416E+02 -0.27915766779E+02  0.64250807420E+02  0.71476483346E+02  0.00000000000E+00 0. -1.
         -4    1    3    3    0  502 -0.14614721368E+03 -0.19568352475E+03  0.55254317802E+03  0.60411506644E+03  0.00000000000E+00 0.  1.
         11    1    5    5    0    0 -0.17816141800E+02 -0.28549555714E+02  0.28647131555E+02  0.44194458775E+02  0.00000000000E+00 0. -1.
        -11    1    5    5    0    0 -0.17500036636E+03  0.96081399462E+01  0.32672048104E+03  0.37076099756E+03  0.00000000000E+00 0.  1.
          3    1    6    6  503    0  0.19510108199E+02  0.10923191345E+02 -0.48563311377E+02  0.53463591752E+02  0.00000000000E+00 0. -1.
         -3    1    6    6    0  503  0.30526096123E+03  0.23161751595E+03 -0.23691187712E+03  0.45050878534E+03  0.00000000000E+00 0.  1.
<mgrwt>
<rscale>  0 0.14390809E+04</rscale>
<asrwt>0</asrwt>
<pdfrwt beam="1">  1        3 0.69833306E-01 0.14390809E+04</pdfrwt>
<pdfrwt beam="2">  1       -3 0.17547737E+00 0.14390809E+04</pdfrwt>
<totfact> 0.10580662E+00</totfact>
</mgrwt>
</event>
<event>
12    2  0.3552864E-008  0.2827177E+04  0.7818608E-02  0.8294880E-01
         -2   -1    0    0    0  501 -0.00000000000E+00  0.00000000000E+00  0.17256413290E+04  0.17256413290E+04  0.00000000000E+00 0. -1.
          2   -1    0    0  501    0  0.00000000000E+00 -0.00000000000E+00 -0.11579654172E+04  0.11579654172E+04  0.00000000000E+00 0.  1.
         23    2    1    2    0    0 -0.29970060538E+03  0.10345112286E+04 -0.42687958202E+03  0.11622431072E+04  0.92460410966E+02 0.  0.
        254    2    1    2    0    0  0.29970060538E+03 -0.10345112286E+04  0.99455549390E+03  0.17213636390E+04  0.90217415845E+03 0.  0.
         23    2    4    4    0    0  0.19079935693E+03 -0.43539974898E+01 -0.79935548580E+02  0.22616064506E+03  0.91299471781E+02 0.  0.
         23    2    4    4    0    0  0.10890124845E+03 -0.10301572312E+04  0.10744910425E+04  0.14952029939E+04  0.89540995610E+02 0.  0.
          1    1    3    3  502    0 -0.10952739272E+02  0.15265502279E+03 -0.63810626855E+02  0.16581711185E+03  0.00000000000E+00 0. -1.
         -1    1    3    3    0  502 -0.28874786611E+03  0.88185620585E+03 -0.36306895516E+03  0.99642599534E+03  0.00000000000E+00 0.  1.
         11    1    5    5    0    0 -0.91417523711E+01 -0.68413326459E+01 -0.22174069361E+01  0.11631524505E+02  0.00000000000E+00 0.  1.
        -11    1    5    5    0    0  0.19994110931E+03  0.24873351562E+01 -0.77718141644E+02  0.21452912056E+03  0.00000000000E+00 0. -1.
          1    1    6    6  503    0  0.53840290919E+02 -0.74650662681E+03  0.72888299185E+03  0.10447206979E+04  0.00000000000E+00 0. -1.
         -1    1    6    6    0  503  0.55060957527E+02 -0.28365060435E+03  0.34560805063E+03  0.45048229605E+03  0.00000000000E+00 0.  1.
<mgrwt>
<rscale>  0 0.28271774E+04</rscale>
<asrwt>0</asrwt>
<pdfrwt beam="1">  1        2 0.17814853E+00 0.28271774E+04</pdfrwt>
<pdfrwt beam="2">  1       -2 0.26548328E+00 0.28271774E+04</pdfrwt>
<totfact> 0.90029703E-01</totfact>
</mgrwt>
</event>
<event>
12    2  0.3552864E-008  0.3456779E+04  0.7818608E-02  0.8124110E-01
         -1   -1    0    0    0  501 -0.00000000000E+00  0.00000000000E+00  0.91549071152E+03  0.91549071152E+03  0.00000000000E+00 0.  1.
          1   -1    0    0  501    0  0.00000000000E+00 -0.00000000000E+00 -0.32630919256E+04  0.32630919256E+04  0.00000000000E+00 0. -1.
         23    2    1    2    0    0  0.27357359098E+03 -0.62657416973E+03 -0.28577495330E+04  0.29398525173E+04  0.92535022040E+02 0.  0.
        254    2    1    2    0    0 -0.27357359098E+03  0.62657416973E+03  0.51014831894E+03  0.12387301198E+04  0.89820003479E+03 0.  0.
         23    2    4    4    0    0 -0.27875669595E+03 -0.14533846694E+03  0.39944573175E+02  0.33009551306E+03  0.92406240611E+02 0.  0.
         23    2    4    4    0    0  0.51831049694E+01  0.77191263668E+03  0.47020374576E+03  0.90863460673E+03  0.93001627814E+02 0.  0.
          4    1    3    3  502    0  0.22193261745E+03 -0.40807273708E+03 -0.19951944775E+04  0.20485552100E+04  0.00000000000E+00 0. -1.
         -4    1    3    3    0  502  0.51640973531E+02 -0.21850143265E+03 -0.86255505549E+03  0.89129730728E+03  0.00000000000E+00 0.  1.
         11    1    5    5    0    0 -0.76133284617E+02  0.34442052038E+01  0.62667047000E+01  0.76468367079E+02  0.00000000000E+00 0. -1.
        -11    1    5    5    0    0 -0.20262341134E+03 -0.14878267215E+03  0.33677868475E+02  0.25362714598E+03  0.00000000000E+00 0.  1.
          1    1    6    6  503    0 -0.78654492563E+01  0.52338809104E+02  0.85783518834E+01  0.53617202011E+02  0.00000000000E+00 0. -1.
         -1    1    6    6    0  503  0.13048554226E+02  0.71957382757E+03  0.46162539388E+03  0.85501740472E+03  0.00000000000E+00 0.  1.
<mgrwt>
<rscale>  0 0.34567790E+04</rscale>
<asrwt>0</asrwt>
<pdfrwt beam="1">  1        1 0.50201415E+00 0.34567790E+04</pdfrwt>
<pdfrwt beam="2">  1       -1 0.14084472E+00 0.34567790E+04</pdfrwt>
<totfact> 0.12855358E-01</totfact>
</mgrwt>
</event>
<event>
12    2  0.3552864E-008  0.1822955E+04  0.7818608E-02  0.8694187E-01
          2   -1    0    0  501    0  0.00000000000E+00  0.00000000000E+00  0.12021896918E+04  0.12021896918E+04  0.00000000000E+00 0. -1.
         -2   -1    0    0    0  501 -0.00000000000E+00 -0.00000000000E+00 -0.69106487996E+03  0.69106487996E+03  0.00000000000E+00 0.  1.
         23    2    1    2    0    0  0.31075690702E+03 -0.24626281102E+03  0.77884322527E+03  0.87889688920E+03  0.92993252088E+02 0.  0.
        254    2    1    2    0    0 -0.31075690702E+03  0.24626281102E+03 -0.26771841341E+03  0.10143576826E+04  0.89444571216E+03 0.  0.
         23    2    4    4    0    0 -0.33232268703E+03  0.72136559290E+02 -0.56001303097E+03  0.66169409798E+03  0.92641421307E+02 0.  0.
         23    2    4    4    0    0  0.21565780009E+02  0.17412625173E+03  0.29229461756E+03  0.35266358461E+03  0.90279710048E+02 0.  0.
          3    1    3    3  502    0  0.15150058744E+03 -0.15198908344E+03  0.33288297531E+03  0.39606083464E+03  0.00000000000E+00 0. -1.
         -3    1    3    3    0  502  0.15925631958E+03 -0.94273727573E+02  0.44596024996E+03  0.48283605456E+03  0.00000000000E+00 0.  1.
         11    1    5    5    0    0 -0.27571400037E+02  0.27871730279E+02 -0.32729278216E+02  0.51070746042E+02  0.00000000000E+00 0.  1.
        -11    1    5    5    0    0 -0.30475128699E+03  0.44264829011E+02 -0.52728375275E+03  0.61062335193E+03  0.00000000000E+00 0. -1.
          2    1    6    6  503    0  0.13739428206E+02  0.16017974825E+03  0.29545409950E+03  0.33636207953E+03  0.00000000000E+00 0. -1.
         -2    1    6    6    0  503  0.78263518035E+01  0.13946503474E+02 -0.31594819346E+01  0.16301505078E+02  0.00000000000E+00 0.  1.
<mgrwt>
<rscale>  0 0.18229548E+04</rscale>
<asrwt>0</asrwt>
<pdfrwt beam="1">  1        2 0.18495226E+00 0.18229548E+04</pdfrwt>
<pdfrwt beam="2">  1       -2 0.10631767E+00 0.18229548E+04</pdfrwt>
<totfact> 0.12696424E+01</totfact>
</mgrwt>
</event>
<event>
12    2  0.3552864E-008  0.1446986E+04  0.7818608E-02  0.8920493E-01
         -1   -1    0    0    0  501 -0.00000000000E+00  0.00000000000E+00  0.34126761798E+03  0.34126761798E+03  0.00000000000E+00 0.  1.
          1   -1    0    0  501    0  0.00000000000E+00 -0.00000000000E+00 -0.15338160912E+04  0.15338160912E+04  0.00000000000E+00 0. -1.
         23    2    1    2    0    0 -0.39204398910E+03 -0.17297502021E+03 -0.35199208248E+03  0.56211218203E+03  0.91939284615E+02 0.  0.
        254    2    1    2    0    0  0.39204398910E+03  0.17297502021E+03 -0.84055639079E+03  0.13129715272E+04  0.91309382765E+03 0.  0.
         23    2    4    4    0    0  0.44450837650E+03  0.48872303506E+03 -0.64385672853E+03  0.92662802783E+03  0.87464926161E+02 0.  0.
         23    2    4    4    0    0 -0.52464387405E+02 -0.31574801485E+03 -0.19669966225E+03  0.38634349935E+03  0.90117820286E+02 0.  0.
          1    1    3    3  502    0 -0.39082455720E+03 -0.17761018877E+03 -0.33521377505E+03  0.54466272927E+03  0.00000000000E+00 0. -1.
         -1    1    3    3    0  502 -0.12194318934E+01  0.46351685574E+01 -0.16778307423E+02  0.17449452761E+02  0.00000000000E+00 0.  1.
         11    1    5    5    0    0  0.14025736174E+03  0.11127814365E+03 -0.13875040532E+03  0.22650966371E+03  0.00000000000E+00 0. -1.
        -11    1    5    5    0    0  0.30425101476E+03  0.37744489141E+03 -0.50510632321E+03  0.70011836412E+03  0.00000000000E+00 0.  1.
          3    1    6    6  503    0 -0.97693614611E-01  0.22328541676E+01 -0.17430484563E+02  0.17573189064E+02  0.00000000000E+00 0. -1.
         -3    1    6    6    0  503 -0.52366693790E+02 -0.31798086902E+03 -0.17926917769E+03  0.36877031029E+03  0.00000000000E+00 0.  1.
<mgrwt>
<rscale>  0 0.14469855E+04</rscale>
<asrwt>0</asrwt>
<pdfrwt beam="1">  1        1 0.23597171E+00 0.14469855E+04</pdfrwt>
<pdfrwt beam="2">  1       -1 0.52502709E-01 0.14469855E+04</pdfrwt>
<totfact> 0.22008618E+01</totfact>
</mgrwt>
</event>
<event>
12    2  0.3552864E-008  0.1850809E+04  0.7818608E-02  0.8679737E-01
         -1   -1    0    0    0  501 -0.00000000000E+00  0.00000000000E+00  0.10339402221E+04  0.10339402221E+04  0.00000000000E+00 0.  1.
          1   -1    0    0  501    0  0.00000000000E+00 -0.00000000000E+00 -0.82826215221E+03  0.82826215221E+03  0.00000000000E+00 0. -1.
         23    2    1    2    0    0  0.67563176251E+03  0.17269029545E+03  0.36029442059E+02  0.70431603077E+03  0.91993118508E+02 0.  0.
        254    2    1    2    0    0 -0.67563176251E+03 -0.17269029545E+03  0.16964862782E+03  0.11578863435E+04  0.90863629189E+03 0.  0.
         23    2    4    4    0    0 -0.74100427703E+03 -0.33383596186E+03  0.35209105474E+03  0.88997251813E+03  0.86886041408E+02 0.  0.
         23    2    4    4    0    0  0.65372514522E+02  0.16114566641E+03 -0.18244242692E+03  0.26791382539E+03  0.90835495472E+02 0.  0.
          1    1    3    3  502    0  0.52676697786E+03  0.12567800868E+03  0.65330706089E+02  0.54547824153E+03  0.00000000000E+00 0. -1.
         -1    1    3    3    0  502  0.14886478465E+03  0.47012286769E+02 -0.29301264029E+02  0.15883778924E+03  0.00000000000E+00 0.  1.
         11    1    5    5    0    0 -0.51778290661E+03 -0.21293870065E+03  0.28059103036E+03  0.62623745890E+03  0.00000000000E+00 0. -1.
        -11    1    5    5    0    0 -0.22322137042E+03 -0.12089726120E+03  0.71500024372E+02  0.26373505922E+03  0.00000000000E+00 0.  1.
          2    1    6    6  503    0  0.48676941197E+02  0.79382498543E+02 -0.15359615287E+03  0.17961849530E+03  0.00000000000E+00 0. -1.
         -2    1    6    6    0  503  0.16695573325E+02  0.81763167870E+02 -0.28846274049E+02  0.88295330088E+02  0.00000000000E+00 0.  1.
<mgrwt>
<rscale>  0 0.18508091E+04</rscale>
<asrwt>0</asrwt>
<pdfrwt beam="1">  1        1 0.12742495E+00 0.18508091E+04</pdfrwt>
<pdfrwt beam="2">  1       -1 0.15906773E+00 0.18508091E+04</pdfrwt>
<totfact> 0.58328131E+00</totfact>
</mgrwt>
</event>
<event>
12    2  0.3552864E-008  0.2290050E+04  0.7818608E-02  0.8481855E-01
         -1   -1    0    0    0  501 -0.00000000000E+00  0.00000000000E+00  0.46326631860E+03  0.46326631860E+03  0.00000000000E+00 0.  1.
          1   -1    0    0  501    0  0.00000000000E+00 -0.00000000000E+00 -0.28300822157E+04  0.28300822157E+04  0.00000000000E+00 0. -1.
         23    2    1    2    0    0 -0.81120800229E+03 -0.21811075688E+03 -0.31528020664E+03  0.90191359958E+03  0.91737708514E+02 0.  0.
        254    2    1    2    0    0  0.81120800229E+03  0.21811075688E+03 -0.20515356905E+04  0.23914349348E+04  0.89695687330E+03 0.  0.
         23    2    4    4    0    0  0.98574195275E+03  0.11182463074E+03 -0.17786648296E+04  0.20386210355E+04  0.90195371856E+02 0.  0.
         23    2    4    4    0    0 -0.17453395046E+03  0.10628612614E+03 -0.27287086093E+03  0.35281389924E+03  0.90886194099E+02 0.  0.
          2    1    3    3  502    0 -0.64228923694E+03 -0.18476514676E+03 -0.21209478611E+03  0.70118315842E+03  0.00000000000E+00 0.  1.
         -2    1    3    3    0  502 -0.16891876534E+03 -0.33345610119E+02 -0.10318542053E+03  0.20073044116E+03  0.00000000000E+00 0. -1.
         11    1    5    5    0    0  0.90702428947E+03  0.78135663555E+02 -0.16354225045E+04  0.18717384998E+04  0.00000000000E+00 0. -1.
        -11    1    5    5    0    0  0.78717663275E+02  0.33688967188E+02 -0.14324232507E+03  0.16688253567E+03  0.00000000000E+00 0.  1.
          2    1    6    6  503    0 -0.16749049013E+03  0.63386304341E+02 -0.20491379538E+03  0.27214068310E+03  0.00000000000E+00 0. -1.
         -2    1    6    6    0  503 -0.70434603309E+01  0.42899821797E+02 -0.67957065552E+02  0.80673216139E+02  0.00000000000E+00 0.  1.
<mgrwt>
<rscale>  0 0.22900496E+04</rscale>
<asrwt>0</asrwt>
<pdfrwt beam="1">  1        1 0.43539727E+00 0.22900496E+04</pdfrwt>
<pdfrwt beam="2">  1       -1 0.71271741E-01 0.22900496E+04</pdfrwt>
<totfact> 0.14268482E+00</totfact>
</mgrwt>
</event>
<event>
12    2  0.3552864E-008  0.1710511E+04  0.7818608E-02  0.8755392E-01
          2   -1    0    0  501    0  0.00000000000E+00  0.00000000000E+00  0.72665965214E+03  0.72665965214E+03  0.00000000000E+00 0.  1.
         -2   -1    0    0    0  501 -0.00000000000E+00 -0.00000000000E+00 -0.10066083602E+04  0.10066083602E+04  0.00000000000E+00 0. -1.
         23    2    1    2    0    0  0.27344223440E+03  0.15695931839E+03 -0.63835177152E+03  0.71775871219E+03  0.90981874760E+02 0.  0.
        254    2    1    2    0    0 -0.27344223440E+03 -0.15695931839E+03  0.35840306344E+03  0.10155093002E+04  0.89632555450E+03 0.  0.
         23    2    4    4    0    0 -0.24933647632E+03  0.13278014664E+03 -0.21425252121E+03  0.36667583387E+03  0.93529559669E+02 0.  0.
         23    2    4    4    0    0 -0.24105758078E+02 -0.28973946504E+03  0.57265558465E+03  0.64883346630E+03  0.92306030080E+02 0.  0.
          1    1    3    3  502    0  0.11909829161E+03  0.37902294770E+02 -0.17476319277E+03  0.21485613922E+03  0.00000000000E+00 0. -1.
         -1    1    3    3    0  502  0.15434394278E+03  0.11905702362E+03 -0.46358857875E+03  0.50290257297E+03  0.00000000000E+00 0.  1.
         11    1    5    5    0    0 -0.17550294708E+02 -0.79557430545E+01 -0.39856586772E+02  0.44270240580E+02  0.00000000000E+00 0. -1.
        -11    1    5    5    0    0 -0.23178618161E+03  0.14073588969E+03 -0.17439593444E+03  0.32240559329E+03  0.00000000000E+00 0.  1.
          3    1    6    6  503    0 -0.28652358099E+02 -0.46082919471E+02  0.16710169841E+03  0.17569169219E+03  0.00000000000E+00 0. -1.
         -3    1    6    6    0  503  0.45466000204E+01 -0.24365654556E+03  0.40555388624E+03  0.47314177411E+03  0.00000000000E+00 0.  1.
<mgrwt>
<rscale>  0 0.17105107E+04</rscale>
<asrwt>0</asrwt>
<pdfrwt beam="1">  1        2 0.11179379E+00 0.17105107E+04</pdfrwt>
<pdfrwt beam="2">  1       -2 0.15486283E+00 0.17105107E+04</pdfrwt>
<totfact> 0.10214502E+01</totfact>
</mgrwt>
</event>
<event>
12    2  0.3552864E-008  0.1419960E+04  0.7818608E-02  0.8939496E-01
          2   -1    0    0  501    0  0.00000000000E+00  0.00000000000E+00  0.20865643891E+04  0.20865643891E+04  0.00000000000E+00 0.  1.
         -2   -1    0    0    0  501 -0.00000000000E+00 -0.00000000000E+00 -0.24157980576E+03  0.24157980576E+03  0.00000000000E+00 0. -1.
         23    2    1    2    0    0 -0.20307499003E+03 -0.34651258689E+03  0.74451740505E+03  0.85085078161E+03  0.91271362875E+02 0.  0.
        254    2    1    2    0    0  0.20307499003E+03  0.34651258689E+03  0.11004671783E+04  0.14772934132E+04  0.90003188493E+03 0.  0.
         23    2    4    4    0    0  0.47213425271E+03  0.34924486171E+03  0.38464008981E+03  0.70731497100E+03  0.86392959776E+02 0.  0.
         23    2    4    4    0    0 -0.26905926268E+03 -0.27322748275E+01  0.71582708847E+03  0.76997844224E+03  0.89766523696E+02 0.  0.
          4    1    3    3  502    0 -0.15909441909E+02 -0.69497483075E+01  0.76671010596E+02  0.78612042393E+02  0.00000000000E+00 0. -1.
         -4    1    3    3    0  502 -0.18716554812E+03 -0.33956283858E+03  0.66784639446E+03  0.77223873921E+03  0.00000000000E+00 0.  1.
         11    1    5    5    0    0  0.98031768729E+01  0.46730083590E+01  0.26234634955E+02  0.28393579471E+02  0.00000000000E+00 0. -1.
        -11    1    5    5    0    0  0.46233107583E+03  0.34457185336E+03  0.35840545486E+03  0.67892139153E+03  0.00000000000E+00 0.  1.
          3    1    6    6  503    0 -0.67923927272E+02 -0.37994920840E+02  0.16257628285E+03  0.18024517095E+03  0.00000000000E+00 0. -1.
         -3    1    6    6    0  503 -0.20113533540E+03  0.35262646013E+02  0.55325080561E+03  0.58973327129E+03  0.00000000000E+00 0.  1.
<mgrwt>
<rscale>  0 0.14199603E+04</rscale>
<asrwt>0</asrwt>
<pdfrwt beam="1">  1        2 0.32100989E+00 0.14199603E+04</pdfrwt>
<pdfrwt beam="2">  1       -2 0.37166125E-01 0.14199603E+04</pdfrwt>
<totfact> 0.39687763E+01</totfact>
</mgrwt>
</event>
<event>
12    2  0.3552864E-008  0.1768491E+04  0.7818608E-02  0.8723238E-01
         -1   -1    0    0    0  501 -0.00000000000E+00  0.00000000000E+00  0.15235772862E+04  0.15235772862E+04  0.00000000000E+00 0.  1.
          1   -1    0    0  501    0  0.00000000000E+00 -0.00000000000E+00 -0.51319340829E+03  0.51319340829E+03  0.00000000000E+00 0. -1.
         23    2    1    2    0    0  0.78557881540E+01  0.21792209464E+03 -0.32762431127E+03  0.40445674094E+03  0.93251344312E+02 0.  0.
        254    2    1    2    0    0 -0.78557881540E+01 -0.21792209464E+03  0.13380081892E+04  0.16323139535E+04  0.90919259557E+03 0.  0.
         23    2    4    4    0    0  0.44310834936E+02 -0.10702021310E+03  0.14414722689E+04  0.14486395848E+04  0.85425808355E+02 0.  0.
         23    2    4    4    0    0 -0.52166623090E+02 -0.11090188154E+03 -0.10346407972E+03  0.18367436867E+03  0.89503486075E+02 0.  0.
          4    1    3    3  502    0  0.28890118395E+02  0.21209258230E+03 -0.28353708839E+03  0.35526213266E+03  0.00000000000E+00 0. -1.
         -4    1    3    3    0  502 -0.21034330241E+02  0.58295123426E+01 -0.44087222883E+02  0.49194608286E+02  0.00000000000E+00 0.  1.
         11    1    5    5    0    0  0.67182069747E+02 -0.66796140845E+02  0.82193425523E+03  0.82737601781E+03  0.00000000000E+00 0.  1.
        -11    1    5    5    0    0 -0.22871234811E+02 -0.40224072256E+02  0.61953801365E+03  0.62126356703E+03  0.00000000000E+00 0. -1.
          1    1    6    6  503    0  0.38409444003E+01 -0.41967265085E+02 -0.82157294423E+02  0.92335395269E+02  0.00000000000E+00 0. -1.
         -1    1    6    6    0  503 -0.56007567490E+02 -0.68934616453E+02 -0.21306785297E+02  0.91338973398E+02  0.00000000000E+00 0.  1.
<mgrwt>
<rscale>  0 0.17684907E+04</rscale>
<asrwt>0</asrwt>
<pdfrwt beam="1">  1        1 0.78952833E-01 0.17684907E+04</pdfrwt>
<pdfrwt beam="2">  1       -1 0.23439650E+00 0.17684907E+04</pdfrwt>
<totfact> 0.35701200E+00</totfact>
</mgrwt>
</event>
<event>
12    2  0.3552864E-008  0.1722828E+04  0.7818608E-02  0.8748451E-01
          2   -1    0    0  501    0  0.00000000000E+00  0.00000000000E+00  0.70613080656E+03  0.70613080656E+03  0.00000000000E+00 0. -1.
         -2   -1    0    0    0  501 -0.00000000000E+00 -0.00000000000E+00 -0.10508445151E+04  0.10508445151E+04  0.00000000000E+00 0.  1.
         23    2    1    2    0    0  0.38782722198E+03  0.12676855966E+03 -0.61350596207E+03  0.74247373999E+03  0.91637695628E+02 0.  0.
        254    2    1    2    0    0 -0.38782722198E+03 -0.12676855966E+03  0.26879225357E+03  0.10145015816E+04  0.88909164977E+03 0.  0.
         23    2    4    4    0    0 -0.33062244829E+02  0.23478102112E+03 -0.19668546478E+03  0.32106610675E+03  0.90460117918E+02 0.  0.
         23    2    4    4    0    0 -0.35476497715E+03 -0.36154958078E+03  0.46547771835E+03  0.69343547487E+03  0.87217906109E+02 0.  0.
          4    1    3    3  502    0  0.29222604610E+03  0.12354681635E+03 -0.41749973497E+03  0.52437191625E+03  0.00000000000E+00 0. -1.
         -4    1    3    3    0  502  0.95601175884E+02  0.32217433010E+01 -0.19600622709E+03  0.21810182374E+03  0.00000000000E+00 0.  1.
         11    1    5    5    0    0 -0.31919664394E+02  0.29782858774E+02 -0.12334385872E+02  0.45365413330E+02  0.00000000000E+00 0. -1.
        -11    1    5    5    0    0 -0.11425804354E+01  0.20499816235E+03 -0.18435107891E+03  0.27570069342E+03  0.00000000000E+00 0.  1.
          3    1    6    6  503    0 -0.18652751594E+03 -0.15142277602E+03  0.17376671974E+03  0.29650673549E+03  0.00000000000E+00 0. -1.
         -3    1    6    6    0  503 -0.16823746121E+03 -0.21012680476E+03  0.29171099861E+03  0.39692873938E+03  0.00000000000E+00 0.  1.
<mgrwt>
<rscale>  0 0.17228275E+04</rscale>
<asrwt>0</asrwt>
<pdfrwt beam="1">  1        2 0.10863551E+00 0.17228275E+04</pdfrwt>
<pdfrwt beam="2">  1       -2 0.16166839E+00 0.17228275E+04</pdfrwt>
<totfact> 0.94183260E+00</totfact>
</mgrwt>
</event>
<event>
12    2  0.3552864E-008  0.2142121E+04  0.7818608E-02  0.8542912E-01
          2   -1    0    0  501    0  0.00000000000E+00  0.00000000000E+00  0.10769282797E+04  0.10769282797E+04  0.00000000000E+00 0. -1.
         -2   -1    0    0    0  501 -0.00000000000E+00 -0.00000000000E+00 -0.10652248433E+04  0.10652248433E+04  0.00000000000E+00 0.  1.
         23    2    1    2    0    0  0.38346169845E+03  0.68250310926E+03 -0.38754912276E+03  0.87829134582E+03  0.91367375231E+02 0.  0.
        254    2    1    2    0    0 -0.38346169845E+03 -0.68250310926E+03  0.39925255923E+03  0.12638617772E+04  0.90834498813E+03 0.  0.
         23    2    4    4    0    0  0.23420320777E+03 -0.32506216818E+03  0.35524615316E+03  0.54339333307E+03  0.92519886415E+02 0.  0.
         23    2    4    4    0    0 -0.61766490622E+03 -0.35744094109E+03  0.44006406072E+02  0.72046844412E+03  0.88680620513E+02 0.  0.
          3    1    3    3  502    0  0.28488176726E+03  0.44537116504E+03 -0.22651319851E+03  0.57517069211E+03  0.00000000000E+00 0. -1.
         -3    1    3    3    0  502  0.98579931192E+02  0.23713194422E+03 -0.16103592425E+03  0.30312065371E+03  0.00000000000E+00 0.  1.
         11    1    5    5    0    0  0.17672368173E+02 -0.21708775312E+02  0.65761770477E+02  0.71471630587E+02  0.00000000000E+00 0.  1.
        -11    1    5    5    0    0  0.21653083960E+03 -0.30335339286E+03  0.28948438268E+03  0.47192170248E+03  0.00000000000E+00 0. -1.
          2    1    6    6  503    0 -0.46949480871E+03 -0.25611037665E+03  0.68969924734E+02  0.53923533912E+03  0.00000000000E+00 0. -1.
         -2    1    6    6    0  503 -0.14817009751E+03 -0.10133056443E+03 -0.24963518662E+02  0.18123310501E+03  0.00000000000E+00 0.  1.
<mgrwt>
<rscale>  0 0.21421212E+04</rscale>
<asrwt>0</asrwt>
<pdfrwt beam="1">  1        2 0.16568127E+00 0.21421212E+04</pdfrwt>
<pdfrwt beam="2">  1       -2 0.16388074E+00 0.21421212E+04</pdfrwt>
<totfact> 0.48777039E+00</totfact>
</mgrwt>
</event>
<event>
12    2  0.3552864E-008  0.1843274E+04  0.7818608E-02  0.8683620E-01
          1   -1    0    0  501    0  0.00000000000E+00  0.00000000000E+00  0.19552747282E+04  0.19552747282E+04  0.00000000000E+00 0. -1.
         -1   -1    0    0    0  501 -0.00000000000E+00 -0.00000000000E+00 -0.43442210987E+03  0.43442210987E+03  0.00000000000E+00 0.  1.
         23    2    1    2    0    0 -0.20150234658E+03 -0.44441996320E+03  0.12292568871E+04  0.13257078162E+04  0.91194408150E+02 0.  0.
        254    2    1    2    0    0  0.20150234658E+03  0.44441996320E+03  0.29159573124E+03  0.10639890219E+04  0.89940662041E+03 0.  0.
         23    2    4    4    0    0  0.36450862418E+03  0.56503066168E+03 -0.22040713453E+02  0.67917402084E+03  0.93087978809E+02 0.  0.
         23    2    4    4    0    0 -0.16300627759E+03 -0.12061069848E+03  0.31363644469E+03  0.38481500104E+03  0.92718813948E+02 0.  0.
          3    1    3    3  502    0 -0.18828248987E+03 -0.41543841775E+03  0.10677532447E+04  0.11610927467E+04  0.00000000000E+00 0. -1.
         -3    1    3    3    0  502 -0.13219856713E+02 -0.28981545456E+02  0.16150364245E+03  0.16461506952E+03  0.00000000000E+00 0.  1.
         11    1    5    5    0    0  0.36090141426E+03  0.56542155776E+03 -0.14653876000E+02  0.67094418909E+03  0.00000000000E+00 0.  1.
        -11    1    5    5    0    0  0.36072099122E+01 -0.39089607506E+00 -0.73868374531E+01  0.82298317510E+01  0.00000000000E+00 0. -1.
          3    1    6    6  503    0 -0.18217863580E+02 -0.64421120188E+02  0.10896942763E+03  0.12789178018E+03  0.00000000000E+00 0. -1.
         -3    1    6    6    0  503 -0.14478841401E+03 -0.56189578292E+02  0.20466701706E+03  0.25692322085E+03  0.00000000000E+00 0.  1.
<mgrwt>
<rscale>  0 0.18432738E+04</rscale>
<asrwt>0</asrwt>
<pdfrwt beam="1">  1        1 0.30081149E+00 0.18432738E+04</pdfrwt>
<pdfrwt beam="2">  1       -1 0.66834172E-01 0.18432738E+04</pdfrwt>
<totfact> 0.68144146E+00</totfact>
</mgrwt>
</event>
<event>
12    2  0.3552864E-008  0.2484312E+04  0.7818608E-02  0.8408596E-01
          2   -1    0    0  501    0  0.00000000000E+00  0.00000000000E+00  0.23225747675E+04  0.23225747675E+04  0.00000000000E+00 0. -1.
         -2   -1    0    0    0  501 -0.00000000000E+00 -0.00000000000E+00 -0.66432781905E+03  0.66432781905E+03  0.00000000000E+00 0.  1.
         23    2    1    2    0    0 -0.10462087967E+04 -0.23859635189E+03  0.62032091306E+03  0.12427440912E+04  0.90187447223E+02 0.  0.
        254    2    1    2    0    0  0.10462087967E+04  0.23859635189E+03  0.10379260354E+04  0.17441584954E+04  0.90184108175E+03 0.  0.
         23    2    4    4    0    0 -0.45463683125E+02 -0.82994858084E+02  0.43045963666E+03  0.45082923494E+03  0.94849392883E+02 0.  0.
         23    2    4    4    0    0  0.10916724798E+04  0.32159120997E+03  0.60746639871E+03  0.12933292604E+04  0.92279146474E+02 0.  0.
          1    1    3    3  502    0 -0.56661832304E+03 -0.10627022259E+03  0.37786952692E+03  0.68930041607E+03  0.00000000000E+00 0. -1.
         -1    1    3    3    0  502 -0.47959047361E+03 -0.13232612930E+03  0.24245138614E+03  0.55344367510E+03  0.00000000000E+00 0.  1.
         11    1    5    5    0    0 -0.69073521437E+02 -0.81491984650E+02  0.30522496289E+03  0.32337961113E+03  0.00000000000E+00 0.  1.
        -11    1    5    5    0    0  0.23609838312E+02 -0.15028734349E+01  0.12523467377E+03  0.12744962381E+03  0.00000000000E+00 0. -1.
          1    1    6    6  503    0  0.11562172852E+03  0.11683935823E+02  0.42382261441E+02  0.12369783566E+03  0.00000000000E+00 0. -1.
         -1    1    6    6    0  503  0.97605075125E+03  0.30990727415E+03  0.56508413727E+03  0.11696314248E+04  0.00000000000E+00 0.  1.
<mgrwt>
<rscale>  0 0.24843116E+04</rscale>
<asrwt>0</asrwt>
<pdfrwt beam="1">  1        2 0.35731919E+00 0.24843116E+04</pdfrwt>
<pdfrwt beam="2">  1       -2 0.10220428E+00 0.24843116E+04</pdfrwt>
<totfact> 0.30819782E+00</totfact>
</mgrwt>
</event>
<event>
12    2  0.3552864E-008  0.1748869E+04  0.7818608E-02  0.8733973E-01
         -1   -1    0    0    0  501 -0.00000000000E+00  0.00000000000E+00  0.55690225425E+03  0.55690225425E+03  0.00000000000E+00 0.  1.
          1   -1    0    0  501    0  0.00000000000E+00 -0.00000000000E+00 -0.13730157943E+04  0.13730157943E+04  0.00000000000E+00 0. -1.
         23    2    1    2    0    0  0.25860161869E+02 -0.58392225005E+02  0.39982445634E+03  0.41521214193E+03  0.91995255320E+02 0.  0.
        254    2    1    2    0    0 -0.25860161869E+02  0.58392225005E+02 -0.12159379964E+04  0.15147059066E+04  0.90097190444E+03 0.  0.
         23    2    4    4    0    0 -0.25203520269E+02 -0.11670713091E+03 -0.12941299054E+04  0.13027535143E+04  0.90214938298E+02 0.  0.
         23    2    4    4    0    0 -0.65664159970E+00  0.17509935592E+03  0.78191909003E+02  0.21195239234E+03  0.90275281033E+02 0.  0.
          1    1    3    3  502    0 -0.62608118645E+01  0.21799686707E+02  0.12791062828E+03  0.12990593878E+03  0.00000000000E+00 0. -1.
         -1    1    3    3    0  502  0.32120973734E+02 -0.80191911712E+02  0.27191382807E+03  0.28530620314E+03  0.00000000000E+00 0.  1.
         11    1    5    5    0    0 -0.16673164538E+01 -0.69800568874E+01 -0.49961110560E+01  0.87442703522E+01  0.00000000000E+00 0.  1.
        -11    1    5    5    0    0 -0.23536203816E+02 -0.10972707403E+03 -0.12891337944E+04  0.12940092439E+04  0.00000000000E+00 0. -1.
          3    1    6    6  503    0 -0.34712973711E+02  0.12642743084E+03  0.27725462552E+02  0.13400592183E+03  0.00000000000E+00 0. -1.
         -3    1    6    6    0  503  0.34056332111E+02  0.48671925080E+02  0.50466446451E+02  0.77946470512E+02  0.00000000000E+00 0.  1.
<mgrwt>
<rscale>  0 0.17488689E+04</rscale>
<asrwt>0</asrwt>
<pdfrwt beam="1">  1        1 0.21123320E+00 0.17488689E+04</pdfrwt>
<pdfrwt beam="2">  1       -1 0.85677270E-01 0.17488689E+04</pdfrwt>
<totfact> 0.10236597E+01</totfact>
</mgrwt>
</event>
<event>
12    2  0.3552864E-008  0.1754915E+04  0.7818608E-02  0.8730650E-01
          1   -1    0    0  501    0  0.00000000000E+00  0.00000000000E+00  0.13687675844E+04  0.13687675844E+04  0.00000000000E+00 0. -1.
         -1   -1    0    0    0  501 -0.00000000000E+00 -0.00000000000E+00 -0.56249979947E+03  0.56249979947E+03  0.00000000000E+00 0.  1.
         23    2    1    2    0    0 -0.15167739347E+03 -0.54360310657E+03 -0.36308488767E+02  0.57286078661E+03  0.91328009471E+02 0.  0.
        254    2    1    2    0    0  0.15167739347E+03  0.54360310657E+03  0.84257627373E+03  0.13584065973E+04  0.90378279322E+03 0.  0.
         23    2    4    4    0    0  0.22678976688E+03  0.62295705398E+03  0.19754642698E+03  0.69773231121E+03  0.91086210998E+02 0.  0.
         23    2    4    4    0    0 -0.75112373406E+02 -0.79353947404E+02  0.64502984675E+03  0.66067428607E+03  0.92130838872E+02 0.  0.
          1    1    3    3  502    0 -0.91847057148E+02 -0.19908042324E+03  0.13453443899E+02  0.21965858047E+03  0.00000000000E+00 0. -1.
         -1    1    3    3    0  502 -0.59830336322E+02 -0.34452268334E+03 -0.49761932666E+02  0.35320220614E+03  0.00000000000E+00 0.  1.
         11    1    5    5    0    0  0.35777990931E+02  0.13666081744E+03  0.64410136403E+01  0.14141333146E+03  0.00000000000E+00 0. -1.
        -11    1    5    5    0    0  0.19101177594E+03  0.48629623653E+03  0.19110541334E+03  0.55631897974E+03  0.00000000000E+00 0.  1.
          2    1    6    6  503    0 -0.15139878469E+02  0.19149541383E+02  0.17547228969E+03  0.17716220055E+03  0.00000000000E+00 0. -1.
         -2    1    6    6    0  503 -0.59972494936E+02 -0.98503488787E+02  0.46955755707E+03  0.48351208553E+03  0.00000000000E+00 0.  1.
<mgrwt>
<rscale>  0 0.17549148E+04</rscale>
<asrwt>0</asrwt>
<pdfrwt beam="1">  1        1 0.21057963E+00 0.17549148E+04</pdfrwt>
<pdfrwt beam="2">  1       -1 0.86538431E-01 0.17549148E+04</pdfrwt>
<totfact> 0.10080129E+01</totfact>
</mgrwt>
</event>
<event>
12    2  0.3552864E-008  0.1366829E+04  0.7818608E-02  0.8978185E-01
         -4   -1    0    0    0  501 -0.00000000000E+00  0.00000000000E+00  0.87078117637E+03  0.87078117637E+03  0.00000000000E+00 0.  1.
          4   -1    0    0  501    0  0.00000000000E+00 -0.00000000000E+00 -0.53636386455E+03  0.53636386455E+03  0.00000000000E+00 0. -1.
         23    2    1    2    0    0 -0.22274749496E+03  0.27742164966E+03  0.27065839289E+03  0.45151884423E+03  0.63514430180E+02 0.  0.
        254    2    1    2    0    0  0.22274749496E+03 -0.27742164966E+03  0.63758918937E+02  0.95562619669E+03  0.88463382812E+03 0.  0.
         23    2    4    4    0    0 -0.28931164218E+03 -0.23496771675E+03  0.17484828643E+03  0.42183594214E+03  0.91992307266E+02 0.  0.
         23    2    4    4    0    0  0.51205913713E+03 -0.42453932908E+02 -0.11108936750E+03  0.53379025455E+03  0.92651454087E+02 0.  0.
          3    1    3    3  502    0 -0.26504814292E+02  0.49625053078E+02  0.18852607791E+02  0.59334407339E+02  0.00000000000E+00 0. -1.
         -3    1    3    3    0  502 -0.19624268067E+03  0.22779659658E+03  0.25180578510E+03  0.39218443689E+03  0.00000000000E+00 0.  1.
         11    1    5    5    0    0 -0.30594789809E+02 -0.50217483706E+02 -0.43552896084E+00  0.58804987193E+02  0.00000000000E+00 0. -1.
        -11    1    5    5    0    0 -0.25871685237E+03 -0.18475023305E+03  0.17528381539E+03  0.36303095494E+03  0.00000000000E+00 0.  1.
          4    1    6    6  503    0  0.17411003427E+02  0.40729558569E-01 -0.24139834155E+02  0.29763674039E+02  0.00000000000E+00 0. -1.
         -4    1    6    6    0  503  0.49464813371E+03 -0.42494662467E+02 -0.86949533340E+02  0.50402658052E+03  0.00000000000E+00 0.  1.
<mgrwt>
<rscale>  0 0.13668293E+04</rscale>
<asrwt>0</asrwt>
<pdfrwt beam="1">  1        4 0.82517518E-01 0.13668293E+04</pdfrwt>
<pdfrwt beam="2">  1       -4 0.13396633E+00 0.13668293E+04</pdfrwt>
<totfact> 0.10093822E+00</totfact>
</mgrwt>
</event>
<event>
12    2  0.3552864E-008  0.3051213E+04  0.7818608E-02  0.8229256E-01
         -2   -1    0    0    0  501 -0.00000000000E+00  0.00000000000E+00  0.19448658883E+04  0.19448658883E+04  0.00000000000E+00 0. -1.
          2   -1    0    0  501    0  0.00000000000E+00 -0.00000000000E+00 -0.11967280316E+04  0.11967280316E+04  0.00000000000E+00 0.  1.
         23    2    1    2    0    0 -0.11054939258E+04 -0.46972459901E+03  0.10630875733E+04  0.16066023430E+04  0.90872884471E+02 0.  0.
        254    2    1    2    0    0  0.11054939258E+04  0.46972459901E+03 -0.31494971653E+03  0.15349915770E+04  0.90235680216E+03 0.  0.
         23    2    4    4    0    0  0.10167721241E+04  0.57847853918E+03 -0.50939582921E+03  0.12790701408E+04  0.89851775686E+02 0.  0.
         23    2    4    4    0    0  0.88721801776E+02 -0.10875394017E+03  0.19444611268E+03  0.25592143620E+03  0.89372888276E+02 0.  0.
          3    1    3    3  502    0 -0.64408262654E+03 -0.24660916828E+03  0.65945630497E+03  0.95422278838E+03  0.00000000000E+00 0. -1.
         -3    1    3    3    0  502 -0.46141129930E+03 -0.22311543072E+03  0.40363126828E+03  0.65237955462E+03  0.00000000000E+00 0.  1.
         11    1    5    5    0    0  0.60253737352E+03  0.37072387038E+03 -0.34750428560E+03  0.78819204707E+03  0.00000000000E+00 0.  1.
        -11    1    5    5    0    0  0.41423475055E+03  0.20775466880E+03 -0.16189154361E+03  0.49087809369E+03  0.00000000000E+00 0. -1.
          3    1    6    6  503    0 -0.82666116326E+01 -0.50245196786E+02  0.42036885698E+02  0.66030420468E+02  0.00000000000E+00 0. -1.
         -3    1    6    6    0  503  0.96988413409E+02 -0.58508743387E+02  0.15240922698E+03  0.18989101573E+03  0.00000000000E+00 0.  1.
<mgrwt>
<rscale>  0 0.30512132E+04</rscale>
<asrwt>0</asrwt>
<pdfrwt beam="1">  1        2 0.18411200E+00 0.30512132E+04</pdfrwt>
<pdfrwt beam="2">  1       -2 0.29921014E+00 0.30512132E+04</pdfrwt>
<totfact> 0.52121829E-01</totfact>
</mgrwt>
</event>
<event>
12    2  0.3552864E-008  0.1488229E+04  0.7818608E-02  0.8892319E-01
         -1   -1    0    0    0  501 -0.00000000000E+00  0.00000000000E+00  0.68160580216E+03  0.68160580216E+03  0.00000000000E+00 0.  1.
          1   -1    0    0  501    0  0.00000000000E+00 -0.00000000000E+00 -0.81235555487E+03  0.81235555487E+03  0.00000000000E+00 0. -1.
         23    2    1    2    0    0  0.88171018279E+02  0.48781564268E+03 -0.65251994729E+02  0.50945999250E+03  0.97741656621E+02 0.  0.
        254    2    1    2    0    0 -0.88171018279E+02 -0.48781564268E+03 -0.65497757982E+02  0.98450136453E+03  0.84806529864E+03 0.  0.
         23    2    4    4    0    0  0.25238854416E+03 -0.47249306038E+03 -0.23541186590E+03  0.59251683464E+03  0.93315504624E+02 0.  0.
         23    2    4    4    0    0 -0.34055956244E+03 -0.15322582304E+02  0.16991410791E+03  0.39198452988E+03  0.92549827122E+02 0.  0.
          1    1    3    3  502    0 -0.11174401193E+02  0.88262829694E+01  0.53428476865E+01  0.15209093809E+02  0.00000000000E+00 0. -1.
         -1    1    3    3    0  502  0.99345419472E+02  0.47898935971E+03 -0.70594842416E+02  0.49425089870E+03  0.00000000000E+00 0.  1.
         11    1    5    5    0    0  0.14724875711E+03 -0.29149333913E+03 -0.93745828651E+02  0.33976292266E+03  0.00000000000E+00 0.  1.
        -11    1    5    5    0    0  0.10513978705E+03 -0.18099972125E+03 -0.14166603724E+03  0.25275391198E+03  0.00000000000E+00 0. -1.
          4    1    6    6  503    0 -0.34161138879E+03 -0.24848679970E+02  0.15949729662E+03  0.37782957200E+03  0.00000000000E+00 0. -1.
         -4    1    6    6    0  503  0.10518263420E+01  0.95260976651E+01  0.10416811290E+02  0.14154957889E+02  0.00000000000E+00 0.  1.
<mgrwt>
<rscale>  0 0.14882288E+04</rscale>
<asrwt>0</asrwt>
<pdfrwt beam="1">  1        1 0.12497778E+00 0.14882288E+04</pdfrwt>
<pdfrwt beam="2">  1       -1 0.10486243E+00 0.14882288E+04</pdfrwt>
<totfact> 0.17841351E+01</totfact>
</mgrwt>
</event>
<event>
12    2  0.3552864E-008  0.3018248E+04  0.7818608E-02  0.8238539E-01
          1   -1    0    0  501    0  0.00000000000E+00  0.00000000000E+00  0.28322160537E+04  0.28322160537E+04  0.00000000000E+00 0. -1.
         -1   -1    0    0    0  501 -0.00000000000E+00 -0.00000000000E+00 -0.80412485015E+03  0.80412485015E+03  0.00000000000E+00 0.  1.
         23    2    1    2    0    0  0.13167922015E+04  0.12062996873E+03  0.13679423703E+04  0.19047026747E+04  0.90181258711E+02 0.  0.
        254    2    1    2    0    0 -0.13167922015E+04 -0.12062996873E+03  0.66014883330E+03  0.17316382292E+04  0.90237530079E+03 0.  0.
         23    2    4    4    0    0 -0.95842873840E+03  0.79174526075E+02  0.20156155002E+02  0.96613832049E+03  0.90347836510E+02 0.  0.
         23    2    4    4    0    0 -0.35836346306E+03 -0.19980449481E+03  0.63999267830E+03  0.76549990869E+03  0.89740036383E+02 0.  0.
          1    1    3    3  502    0  0.11244126069E+04  0.85127168290E+02  0.12024440018E+04  0.16484604705E+04  0.00000000000E+00 0. -1.
         -1    1    3    3    0  502  0.19237959455E+03  0.35502800441E+02  0.16549836843E+03  0.25624220416E+03  0.00000000000E+00 0.  1.
         11    1    5    5    0    0 -0.53842184619E+03  0.47061239905E+02 -0.33447389675E+02  0.54150860808E+03  0.00000000000E+00 0.  1.
        -11    1    5    5    0    0 -0.42000689221E+03  0.32113286169E+02  0.53603544677E+02  0.42462971241E+03  0.00000000000E+00 0. -1.
          3    1    6    6  503    0 -0.40923446303E+02 -0.56818289175E+02  0.13568031412E+03  0.15268331304E+03  0.00000000000E+00 0. -1.
         -3    1    6    6    0  503 -0.31744001676E+03 -0.14298620563E+03  0.50431236418E+03  0.61281659565E+03  0.00000000000E+00 0.  1.
<mgrwt>
<rscale>  0 0.30182480E+04</rscale>
<asrwt>0</asrwt>
<pdfrwt beam="1">  1        1 0.43572554E+00 0.30182480E+04</pdfrwt>
<pdfrwt beam="2">  1       -1 0.12371152E+00 0.30182480E+04</pdfrwt>
<totfact> 0.38540153E-01</totfact>
</mgrwt>
</event>
<event>
12    2  0.3552864E-008  0.1144790E+04  0.7818608E-02  0.9162603E-01
          2   -1    0    0  501    0  0.00000000000E+00  0.00000000000E+00  0.19436240425E+04  0.19436240425E+04  0.00000000000E+00 0. -1.
         -2   -1    0    0    0  501 -0.00000000000E+00 -0.00000000000E+00 -0.16856971466E+03  0.16856971466E+03  0.00000000000E+00 0.  1.
         23    2    1    2    0    0  0.48955633205E+02 -0.12557017317E+03  0.69603583217E+02  0.17840980403E+03  0.93919523871E+02 0.  0.
        254    2    1    2    0    0 -0.48955633205E+02  0.12557017317E+03  0.17054507446E+04  0.19337839531E+04  0.90155067115E+03 0.  0.
         23    2    4    4    0    0  0.41250726620E+02  0.16088977909E+03 -0.33452903391E+02  0.18981817353E+03  0.85584454162E+02 0.  0.
         23    2    4    4    0    0 -0.90206359825E+02 -0.35319605926E+02  0.17389036480E+04  0.17439657796E+04  0.90807937129E+02 0.  0.
          4    1    3    3  502    0  0.75925516901E+02 -0.73918149070E+02  0.46742303600E+02  0.11581631934E+03  0.00000000000E+00 0.  1.
         -4    1    3    3    0  502 -0.26969883696E+02 -0.51652024098E+02  0.22861279617E+02  0.62593484690E+02  0.00000000000E+00 0. -1.
         11    1    5    5    0    0  0.29491712865E+02  0.13215723054E+03  0.10714581121E+02  0.13583113398E+03  0.00000000000E+00 0. -1.
        -11    1    5    5    0    0  0.11759013755E+02  0.28732548558E+02 -0.44167484512E+02  0.53987039548E+02  0.00000000000E+00 0.  1.
          1    1    6    6  503    0 -0.86224426270E+02 -0.59965290112E+02  0.12408393702E+04  0.12452762065E+04  0.00000000000E+00 0. -1.
         -1    1    6    6    0  503 -0.39819335553E+01  0.24645684186E+02  0.49806427776E+03  0.49868957310E+03  0.00000000000E+00 0.  1.
<mgrwt>
<rscale>  0 0.11447902E+04</rscale>
<asrwt>0</asrwt>
<pdfrwt beam="1">  1        2 0.29901907E+00 0.11447902E+04</pdfrwt>
<pdfrwt beam="2">  1       -2 0.25933804E-01 0.11447902E+04</pdfrwt>
<totfact> 0.95550619E+01</totfact>
</mgrwt>
</event>
<event>
12    2  0.3552864E-008  0.1474679E+04  0.7818608E-02  0.8901468E-01
          1   -1    0    0  501    0  0.00000000000E+00  0.00000000000E+00  0.75445481808E+03  0.75445481808E+03  0.00000000000E+00 0. -1.
         -1   -1    0    0    0  501 -0.00000000000E+00 -0.00000000000E+00 -0.72061255251E+03  0.72061255251E+03  0.00000000000E+00 0.  1.
         23    2    1    2    0    0 -0.38196459466E+03  0.21397381790E+03 -0.16296778052E+03  0.47590756985E+03  0.90817240812E+02 0.  0.
        254    2    1    2    0    0  0.38196459466E+03 -0.21397381790E+03  0.19681004609E+03  0.99915980074E+03  0.87630152736E+03 0.  0.
         23    2    4    4    0    0  0.30439204387E+02  0.91208961995E+02  0.44450929178E+03  0.46397244420E+03  0.91849325452E+02 0.  0.
         23    2    4    4    0    0  0.35152539028E+03 -0.30518277989E+03 -0.24769924569E+03  0.53518735655E+03  0.91454694473E+02 0.  0.
          3    1    3    3  502    0 -0.10105372491E+03  0.10243538715E+03 -0.37827860156E+02  0.14878108369E+03  0.00000000000E+00 0. -1.
         -3    1    3    3    0  502 -0.28091086975E+03  0.11153843074E+03 -0.12513992036E+03  0.32712648616E+03  0.00000000000E+00 0.  1.
         11    1    5    5    0    0 -0.17926881879E+02  0.28891818132E+02  0.43160518340E+02  0.54944886862E+02  0.00000000000E+00 0.  1.
        -11    1    5    5    0    0  0.48366086267E+02  0.62317143863E+02  0.40134877344E+03  0.40902755734E+03  0.00000000000E+00 0. -1.
          1    1    6    6  503    0  0.30233512268E+03 -0.27988713512E+03 -0.24598877776E+03  0.47984769833E+03  0.00000000000E+00 0. -1.
         -1    1    6    6    0  503  0.49190267601E+02 -0.25295644778E+02 -0.17104679287E+01  0.55339658220E+02  0.00000000000E+00 0.  1.
<mgrwt>
<rscale>  0 0.14746791E+04</rscale>
<asrwt>0</asrwt>
<pdfrwt beam="1">  1        1 0.11606997E+00 0.14746791E+04</pdfrwt>
<pdfrwt beam="2">  1       -1 0.11086347E+00 0.14746791E+04</pdfrwt>
<totfact> 0.17628341E+01</totfact>
</mgrwt>
</event>
<event>
12    2  0.3552864E-008  0.2461568E+04  0.7818608E-02  0.8416806E-01
         -3   -1    0    0    0  501 -0.00000000000E+00  0.00000000000E+00  0.13247908959E+04  0.13247908959E+04  0.00000000000E+00 0.  1.
          3   -1    0    0  501    0  0.00000000000E+00 -0.00000000000E+00 -0.11434481567E+04  0.11434481567E+04  0.00000000000E+00 0. -1.
         23    2    1    2    0    0  0.10235800981E+04 -0.14024450279E+03  0.33073680308E+03  0.10885557394E+04  0.90454558472E+02 0.  0.
        254    2    1    2    0    0 -0.10235800981E+04  0.14024450279E+03 -0.14939406380E+03  0.13796833132E+04  0.90212123392E+03 0.  0.
         23    2    4    4    0    0 -0.24909988760E+03 -0.37293116061E+02 -0.45001725520E+03  0.52516873276E+03  0.99222665686E+02 0.  0.
         23    2    4    4    0    0 -0.77448021045E+03  0.17753761885E+03  0.30062319140E+03  0.85451458043E+03  0.92095941635E+02 0.  0.
          1    1    3    3  502    0  0.14082649978E+03  0.22337225237E+01  0.69128669759E+02  0.15689444075E+03  0.00000000000E+00 0. -1.
         -1    1    3    3    0  502  0.88275359828E+03 -0.14247822531E+03  0.26160813332E+03  0.93166129864E+03  0.00000000000E+00 0.  1.
         11    1    5    5    0    0 -0.25515879413E+03 -0.26584812416E+02 -0.43990089041E+03  0.50924017502E+03  0.00000000000E+00 0.  1.
        -11    1    5    5    0    0  0.60589065236E+01 -0.10708303645E+02 -0.10116364789E+02  0.15928557742E+02  0.00000000000E+00 0. -1.
          3    1    6    6  503    0 -0.66548411117E+02 -0.94451735622E+01  0.17337403742E+02  0.69415328958E+02  0.00000000000E+00 0. -1.
         -3    1    6    6    0  503 -0.70793179934E+03  0.18698279241E+03  0.28328578766E+03  0.78509925147E+03  0.00000000000E+00 0.  1.
<mgrwt>
<rscale>  0 0.24615684E+04</rscale>
<asrwt>0</asrwt>
<pdfrwt beam="1">  1        3 0.17591510E+00 0.24615684E+04</pdfrwt>
<pdfrwt beam="2">  1       -3 0.20381398E+00 0.24615684E+04</pdfrwt>
<totfact> 0.68308777E-02</totfact>
</mgrwt>
</event>
<event>
12    2  0.3552864E-008  0.1318279E+04  0.7818608E-02  0.9015194E-01
          1   -1    0    0  501    0  0.00000000000E+00  0.00000000000E+00  0.63112015553E+03  0.63112015553E+03  0.00000000000E+00 0. -1.
         -1   -1    0    0    0  501 -0.00000000000E+00 -0.00000000000E+00 -0.68840298847E+03  0.68840298847E+03  0.00000000000E+00 0.  1.
         23    2    1    2    0    0  0.10079705839E+03 -0.25441575950E+03  0.18259356179E+03  0.34119194527E+03  0.90466065741E+02 0.  0.
        254    2    1    2    0    0 -0.10079705839E+03  0.25441575950E+03 -0.23987639473E+03  0.97833119873E+03  0.90813205207E+03 0.  0.
         23    2    4    4    0    0 -0.40990657580E+03  0.11002805562E+03 -0.39983488544E+03  0.59038895704E+03  0.92528974228E+02 0.  0.
         23    2    4    4    0    0  0.30910951742E+03  0.14438770389E+03  0.15995849070E+03  0.38794224169E+03  0.92281966539E+02 0.  0.
          2    1    3    3  502    0 -0.88578639083E+01 -0.16462749144E+02 -0.45202669935E+01  0.19233218038E+02  0.00000000000E+00 0.  1.
         -2    1    3    3    0  502  0.10965492230E+03 -0.23795301036E+03  0.18711382878E+03  0.32195872723E+03  0.00000000000E+00 0. -1.
         11    1    5    5    0    0 -0.16941103718E+02  0.27798282036E+02 -0.36570271674E+02  0.48960496828E+02  0.00000000000E+00 0. -1.
        -11    1    5    5    0    0 -0.39296547209E+03  0.82229773580E+02 -0.36326461376E+03  0.54142846021E+03  0.00000000000E+00 0.  1.
          2    1    6    6  503    0  0.41104797144E+01 -0.50637624774E+01 -0.69234054189E+01  0.95116390020E+01  0.00000000000E+00 0. -1.
         -2    1    6    6    0  503  0.30499903770E+03  0.14945146636E+03  0.16688189612E+03  0.37843060269E+03  0.00000000000E+00 0.  1.
<mgrwt>
<rscale>  0 0.13182792E+04</rscale>
<asrwt>0</asrwt>
<pdfrwt beam="1">  1        1 0.97095409E-01 0.13182792E+04</pdfrwt>
<pdfrwt beam="2">  1       -1 0.10590815E+00 0.13182792E+04</pdfrwt>
<totfact> 0.26057446E+01</totfact>
</mgrwt>
</event>
<event>
12    2  0.3552864E-008  0.2207747E+04  0.7818608E-02  0.8515210E-01
          1   -1    0    0  501    0  0.00000000000E+00  0.00000000000E+00  0.58536179623E+03  0.58536179623E+03  0.00000000000E+00 0. -1.
         -1   -1    0    0    0  501 -0.00000000000E+00 -0.00000000000E+00 -0.20816818017E+04  0.20816818017E+04  0.00000000000E+00 0.  1.
         23    2    1    2    0    0 -0.60416323637E+03 -0.10726980775E+03  0.19897651895E+03  0.65138250490E+03  0.90484721197E+02 0.  0.
        254    2    1    2    0    0  0.60416323637E+03  0.10726980775E+03 -0.16952965244E+04  0.20156610931E+04  0.90129867881E+03 0.  0.
         23    2    4    4    0    0  0.64751365376E+03  0.38218470744E+01 -0.52992943696E+03  0.84168665305E+03  0.91228698597E+02 0.  0.
         23    2    4    4    0    0 -0.43350417397E+02  0.10344796067E+03 -0.11653670875E+04  0.11739744400E+04  0.86918340523E+02 0.  0.
          4    1    3    3  502    0 -0.38024103617E+02 -0.61665732662E+01 -0.94833402679E+01  0.39671057767E+02  0.00000000000E+00 0.  1.
         -4    1    3    3    0  502 -0.56613913275E+03 -0.10110323448E+03  0.20845985922E+03  0.61171144714E+03  0.00000000000E+00 0. -1.
         11    1    5    5    0    0  0.47499489305E+02  0.22042226489E+01 -0.74591527951E+02  0.88458782062E+02  0.00000000000E+00 0. -1.
        -11    1    5    5    0    0  0.60001416446E+03  0.16176244255E+01 -0.45533790900E+03  0.75322787099E+03  0.00000000000E+00 0.  1.
          1    1    6    6  503    0 -0.42845943397E+02  0.18711554156E+02 -0.22553931963E+03  0.23033428278E+03  0.00000000000E+00 0. -1.
         -1    1    6    6    0  503 -0.50447399990E+00  0.84736406519E+02 -0.93982776786E+03  0.94364015722E+03  0.00000000000E+00 0.  1.
<mgrwt>
<rscale>  0 0.22077473E+04</rscale>
<asrwt>0</asrwt>
<pdfrwt beam="1">  1        1 0.90055661E-01 0.22077473E+04</pdfrwt>
<pdfrwt beam="2">  1       -1 0.32025874E+00 0.22077473E+04</pdfrwt>
<totfact> 0.78883919E-01</totfact>
</mgrwt>
</event>
<event>
12    2  0.3552864E-008  0.1234852E+04  0.7818608E-02  0.9082886E-01
          1   -1    0    0  501    0  0.00000000000E+00  0.00000000000E+00  0.25335434277E+04  0.25335434277E+04  0.00000000000E+00 0. -1.
         -1   -1    0    0    0  501 -0.00000000000E+00 -0.00000000000E+00 -0.15046716360E+03  0.15046716360E+03  0.00000000000E+00 0.  1.
         23    2    1    2    0    0  0.52209658098E+02  0.43656781983E+02 -0.26727700850E+02  0.11125356985E+03  0.83852392924E+02 0.  0.
        254    2    1    2    0    0 -0.52209658098E+02 -0.43656781983E+02  0.24098039649E+04  0.25727570214E+04  0.89849417302E+03 0.  0.
         23    2    4    4    0    0  0.24593259679E+03 -0.11341332616E+03  0.21276219330E+04  0.21467016651E+04  0.90595388033E+02 0.  0.
         23    2    4    4    0    0 -0.29814225488E+03  0.69756544180E+02  0.28218203186E+03  0.42605535630E+03  0.90231302330E+02 0.  0.
          4    1    3    3  502    0  0.14088547434E+02  0.42616641131E+00  0.28268414567E+02  0.31587529956E+02  0.00000000000E+00 0. -1.
         -4    1    3    3    0  502  0.38121110664E+02  0.43230615571E+02 -0.54996115417E+02  0.79666039891E+02  0.00000000000E+00 0.  1.
         11    1    5    5    0    0  0.65784134159E+02 -0.72287851095E+01  0.30344311251E+03  0.31057612621E+03  0.00000000000E+00 0.  1.
        -11    1    5    5    0    0  0.18014846263E+03 -0.10618454105E+03  0.18241788205E+04  0.18361255389E+04  0.00000000000E+00 0. -1.
          1    1    6    6  503    0 -0.17600397806E+03  0.51837828205E+02  0.10911267814E+03  0.21347163104E+03  0.00000000000E+00 0. -1.
         -1    1    6    6    0  503 -0.12213827682E+03  0.17918715975E+02  0.17306935372E+03  0.21258372526E+03  0.00000000000E+00 0.  1.
<mgrwt>
<rscale>  0 0.12348524E+04</rscale>
<asrwt>0</asrwt>
<pdfrwt beam="1">  1        1 0.38977588E+00 0.12348524E+04</pdfrwt>
<pdfrwt beam="2">  1       -1 0.23148796E-01 0.12348524E+04</pdfrwt>
<totfact> 0.20374219E+01</totfact>
</mgrwt>
</event>
<event>
12    2  0.3552864E-008  0.2613235E+04  0.7818608E-02  0.8363719E-01
         -2   -1    0    0    0  501 -0.00000000000E+00  0.00000000000E+00  0.10300237969E+04  0.10300237969E+04  0.00000000000E+00 0.  1.
          2   -1    0    0  501    0  0.00000000000E+00 -0.00000000000E+00 -0.16574850730E+04  0.16574850730E+04  0.00000000000E+00 0. -1.
         23    2    1    2    0    0 -0.23635899512E+03 -0.31458132717E+03  0.83297780805E+03  0.92519005566E+03  0.85426134347E+02 0.  0.
        254    2    1    2    0    0  0.23635899512E+03  0.31458132717E+03 -0.14604390841E+04  0.17623188143E+04  0.90446575324E+03 0.  0.
         23    2    4    4    0    0  0.17494446939E+03 -0.29178339847E+03 -0.38133266998E+03  0.51927483652E+03  0.92133770505E+02 0.  0.
         23    2    4    4    0    0  0.61414525731E+02  0.60636472563E+03 -0.10791064141E+04  0.12430439778E+04  0.96113230846E+02 0.  0.
          1    1    3    3  502    0 -0.71750267823E+02 -0.14956372255E+03  0.28607492064E+03  0.33069059294E+03  0.00000000000E+00 0. -1.
         -1    1    3    3    0  502 -0.16460872729E+03 -0.16501760462E+03  0.54690288740E+03  0.59449946273E+03  0.00000000000E+00 0.  1.
         11    1    5    5    0    0  0.10978264130E+03 -0.24780932922E+03 -0.32136804803E+03  0.42040351363E+03  0.00000000000E+00 0.  1.
        -11    1    5    5    0    0  0.65161828085E+02 -0.43974069242E+02 -0.59964621951E+02  0.98871322894E+02  0.00000000000E+00 0. -1.
          1    1    6    6  503    0  0.58453455905E+01  0.13462462079E+03 -0.32473029587E+03  0.35157889818E+03  0.00000000000E+00 0. -1.
         -1    1    6    6    0  503  0.55569180140E+02  0.47174010484E+03 -0.75437611826E+03  0.89146507958E+03  0.00000000000E+00 0.  1.
<mgrwt>
<rscale>  0 0.26132348E+04</rscale>
<asrwt>0</asrwt>
<pdfrwt beam="1">  1        2 0.25499770E+00 0.26132348E+04</pdfrwt>
<pdfrwt beam="2">  1       -2 0.15846520E+00 0.26132348E+04</pdfrwt>
<totfact> 0.23667623E+00</totfact>
</mgrwt>
</event>
<event>
12    2  0.3552864E-008  0.1337911E+04  0.7818608E-02  0.9000030E-01
          1   -1    0    0  501    0  0.00000000000E+00  0.00000000000E+00  0.16161695640E+04  0.16161695640E+04  0.00000000000E+00 0. -1.
         -1   -1    0    0    0  501 -0.00000000000E+00 -0.00000000000E+00 -0.27689003974E+03  0.27689003974E+03  0.00000000000E+00 0.  1.
         23    2    1    2    0    0 -0.53174312141E+02 -0.92281272389E+02  0.79942329952E+03  0.81180325625E+03  0.92755454547E+02 0.  0.
        254    2    1    2    0    0  0.53174312141E+02  0.92281272389E+02  0.53985622471E+03  0.10812563475E+04  0.93076699816E+03 0.  0.
         23    2    4    4    0    0  0.36837497211E+03 -0.22001369847E+03  0.43137296710E+03  0.61516960842E+03  0.90801226731E+02 0.  0.
         23    2    4    4    0    0 -0.31520065997E+03  0.31229497086E+03  0.10848325761E+03  0.46608673905E+03  0.92674841560E+02 0.  0.
          4    1    3    3  502    0 -0.46022363172E+02 -0.65814719114E+02  0.27050129529E+03  0.28217119966E+03  0.00000000000E+00 0. -1.
         -4    1    3    3    0  502 -0.71519489688E+01 -0.26466553276E+02  0.52892200423E+03  0.52963205660E+03  0.00000000000E+00 0.  1.
         11    1    5    5    0    0  0.26695788617E+03 -0.12221181630E+03  0.32934476549E+03  0.44121447799E+03  0.00000000000E+00 0. -1.
        -11    1    5    5    0    0  0.10141708594E+03 -0.97801882169E+02  0.10202820161E+03  0.17395513043E+03  0.00000000000E+00 0.  1.
          1    1    6    6  503    0 -0.10140641064E+03  0.48398290521E+02  0.42329423086E+02  0.12007262262E+03  0.00000000000E+00 0. -1.
         -1    1    6    6    0  503 -0.21379424934E+03  0.26389668034E+03  0.66153834525E+02  0.34601411643E+03  0.00000000000E+00 0.  1.
<mgrwt>
<rscale>  0 0.13379107E+04</rscale>
<asrwt>0</asrwt>
<pdfrwt beam="1">  1        1 0.24864147E+00 0.13379107E+04</pdfrwt>
<pdfrwt beam="2">  1       -1 0.42598469E-01 0.13379107E+04</pdfrwt>
<totfact> 0.28903888E+01</totfact>
</mgrwt>
</event>
<event>
12    2  0.3552864E-008  0.1548461E+04  0.7818608E-02  0.8852851E-01
         -1   -1    0    0    0  501 -0.00000000000E+00  0.00000000000E+00  0.29895843241E+03  0.29895843241E+03  0.00000000000E+00 0.  1.
          1   -1    0    0  501    0  0.00000000000E+00 -0.00000000000E+00 -0.20050717224E+04  0.20050717224E+04  0.00000000000E+00 0. -1.
         23    2    1    2    0    0 -0.29136276226E+03  0.34661712404E+03 -0.32641365251E+03  0.56561351748E+03  0.91307659573E+02 0.  0.
        254    2    1    2    0    0  0.29136276226E+03 -0.34661712404E+03 -0.13796996375E+04  0.17384166373E+04  0.95576441940E+03 0.  0.
         23    2    4    4    0    0 -0.29732508663E+03 -0.48145663736E+02 -0.78411894965E+03  0.84469557954E+03  0.89150899093E+02 0.  0.
         23    2    4    4    0    0  0.58868784889E+03 -0.29847146031E+03 -0.59558068781E+03  0.89372105778E+03  0.91555324172E+02 0.  0.
          2    1    3    3  502    0 -0.51683758628E+02  0.31084039379E+02 -0.75409736672E+02  0.96561155725E+02  0.00000000000E+00 0. -1.
         -2    1    3    3    0  502 -0.23967900363E+03  0.31553308466E+03 -0.25100391584E+03  0.46905236175E+03  0.00000000000E+00 0.  1.
         11    1    5    5    0    0 -0.83908238866E+02 -0.96629764902E+01 -0.34173256823E+03  0.35201578637E+03  0.00000000000E+00 0.  1.
        -11    1    5    5    0    0 -0.21341684776E+03 -0.38482687246E+02 -0.44238638142E+03  0.49267979316E+03  0.00000000000E+00 0. -1.
          1    1    6    6  503    0  0.53740120467E+03 -0.24998728944E+03 -0.50342082385E+03  0.77764145050E+03  0.00000000000E+00 0. -1.
         -1    1    6    6    0  503  0.51286644223E+02 -0.48484170869E+02 -0.92159863964E+02  0.11607960728E+03  0.00000000000E+00 0.  1.
<mgrwt>
<rscale>  0 0.15484613E+04</rscale>
<asrwt>0</asrwt>
<pdfrwt beam="1">  1        1 0.30847257E+00 0.15484613E+04</pdfrwt>
<pdfrwt beam="2">  1       -1 0.45993606E-01 0.15484613E+04</pdfrwt>
<totfact> 0.13399199E+01</totfact>
</mgrwt>
</event>
<event>
12    2  0.3552864E-008  0.2539686E+04  0.7818608E-02  0.8388982E-01
         -1   -1    0    0    0  501 -0.00000000000E+00  0.00000000000E+00  0.92948299394E+03  0.92948299394E+03  0.00000000000E+00 0.  1.
          1   -1    0    0  501    0  0.00000000000E+00 -0.00000000000E+00 -0.17348373004E+04  0.17348373004E+04  0.00000000000E+00 0. -1.
         23    2    1    2    0    0  0.65435469173E+03  0.73409583469E+03 -0.89135305829E+03  0.13303343816E+04  0.90567849194E+02 0.  0.
        254    2    1    2    0    0 -0.65435469173E+03 -0.73409583469E+03  0.85998751787E+02  0.13339859128E+04  0.89724348593E+03 0.  0.
         23    2    4    4    0    0  0.14597173540E+02 -0.63107041293E+03  0.12461210864E+03  0.64988383564E+03  0.91421434287E+02 0.  0.
         23    2    4    4    0    0 -0.66895186527E+03 -0.10302542176E+03 -0.38613356849E+02  0.68410207713E+03  0.91617820478E+02 0.  0.
          3    1    3    3  502    0  0.62965179066E+03  0.69896585807E+03 -0.82477468324E+03  0.12511066806E+04  0.00000000000E+00 0. -1.
         -3    1    3    3    0  502  0.24702901061E+02  0.35129976620E+02 -0.66578375046E+02  0.79227700975E+02  0.00000000000E+00 0.  1.
         11    1    5    5    0    0 -0.33738216852E+02 -0.41658012275E+03  0.79764907032E+02  0.42548761009E+03  0.00000000000E+00 0. -1.
        -11    1    5    5    0    0  0.48335390393E+02 -0.21449029018E+03  0.44847201603E+02  0.22439622554E+03  0.00000000000E+00 0.  1.
          1    1    6    6  503    0 -0.49245394067E+03 -0.49447083506E+02 -0.59406876296E+02  0.49848277272E+03  0.00000000000E+00 0. -1.
         -1    1    6    6    0  503 -0.17649792460E+03 -0.53578338253E+02  0.20793519447E+02  0.18561930441E+03  0.00000000000E+00 0.  1.
<mgrwt>
<rscale>  0 0.25396864E+04</rscale>
<asrwt>0</asrwt>
<pdfrwt beam="1">  1        1 0.26689804E+00 0.25396864E+04</pdfrwt>
<pdfrwt beam="2">  1       -1 0.14299739E+00 0.25396864E+04</pdfrwt>
<totfact> 0.15836600E+00</totfact>
</mgrwt>
</event>
<event>
12    2  0.3552864E-008  0.1396676E+04  0.7818608E-02  0.8956228E-01
         -2   -1    0    0    0  501 -0.00000000000E+00  0.00000000000E+00  0.53232559123E+03  0.53232559123E+03  0.00000000000E+00 0.  1.
          2   -1    0    0  501    0  0.00000000000E+00 -0.00000000000E+00 -0.91612328405E+03  0.91612328405E+03  0.00000000000E+00 0. -1.
         23    2    1    2    0    0  0.28560083158E+03 -0.13656167204E+03  0.13231094758E+03  0.35554685649E+03  0.93222610154E+02 0.  0.
        254    2    1    2    0    0 -0.28560083158E+03  0.13656167204E+03 -0.51610864040E+03  0.10929020188E+04  0.90986249989E+03 0.  0.
         23    2    4    4    0    0 -0.38459262700E+02 -0.10443657339E+03 -0.68281493416E+03  0.69776578264E+03  0.90855601773E+02 0.  0.
         23    2    4    4    0    0 -0.24714156888E+03  0.24099824543E+03  0.16670629376E+03  0.39513623614E+03  0.95825609142E+02 0.  0.
          3    1    3    3  502    0  0.21293486365E+03 -0.55111734556E+02  0.75901289585E+02  0.23267910350E+03  0.00000000000E+00 0. -1.
         -3    1    3    3    0  502  0.72665967926E+02 -0.81449937484E+02  0.56409657995E+02  0.12286775299E+03  0.00000000000E+00 0.  1.
         11    1    5    5    0    0  0.26256775966E+02 -0.26170489432E+02 -0.27540600982E+03  0.27788987575E+03  0.00000000000E+00 0. -1.
        -11    1    5    5    0    0 -0.64716038666E+02 -0.78266083957E+02 -0.40740892433E+03  0.41987590689E+03  0.00000000000E+00 0.  1.
          1    1    6    6  503    0 -0.16999456690E+03  0.11874411928E+03  0.61311609826E+02  0.21623466914E+03  0.00000000000E+00 0. -1.
         -1    1    6    6    0  503 -0.77147001974E+02  0.12225412614E+03  0.10539468393E+03  0.17890156700E+03  0.00000000000E+00 0.  1.
<mgrwt>
<rscale>  0 0.13966759E+04</rscale>
<asrwt>0</asrwt>
<pdfrwt beam="1">  1        2 0.14094204E+00 0.13966759E+04</pdfrwt>
<pdfrwt beam="2">  1       -2 0.81896245E-01 0.13966759E+04</pdfrwt>
<totfact> 0.36512298E+01</totfact>
</mgrwt>
</event>
<event>
12    2  0.3552864E-008  0.2746633E+04  0.7818608E-02  0.8320031E-01
         -2   -1    0    0    0  501 -0.00000000000E+00  0.00000000000E+00  0.24197097381E+04  0.24197097381E+04  0.00000000000E+00 0. -1.
          2   -1    0    0  501    0  0.00000000000E+00 -0.00000000000E+00 -0.77943178938E+03  0.77943178938E+03  0.00000000000E+00 0.  1.
         23    2    1    2    0    0  0.90090465392E+03  0.28153391569E+03  0.16353309298E+04  0.18903665626E+04  0.91038178350E+02 0.  0.
        254    2    1    2    0    0 -0.90090465392E+03 -0.28153391569E+03  0.49470189565E+01  0.13087749649E+04  0.90662941416E+03 0.  0.
         23    2    4    4    0    0 -0.89928722886E+03 -0.50764803747E+03  0.11126358848E+03  0.10426623100E+04  0.91329385896E+02 0.  0.
         23    2    4    4    0    0 -0.16174250570E+01  0.22611412178E+03 -0.10631656952E+03  0.26611265486E+03  0.91556102945E+02 0.  0.
          1    1    3    3  502    0  0.72740274979E+03  0.19413772378E+03  0.12617266848E+04  0.14692713988E+04  0.00000000000E+00 0. -1.
         -1    1    3    3    0  502  0.17350190413E+03  0.87396191913E+02  0.37360424501E+03  0.42109516382E+03  0.00000000000E+00 0.  1.
         11    1    5    5    0    0 -0.81351084036E+03 -0.46049202209E+03  0.73286567008E+02  0.93766929708E+03  0.00000000000E+00 0. -1.
        -11    1    5    5    0    0 -0.85776388503E+02 -0.47156015383E+02  0.37977021470E+02  0.10499301296E+03  0.00000000000E+00 0.  1.
          4    1    6    6  503    0 -0.16609025809E+02  0.21378952405E+03 -0.71119952191E+02  0.22592004765E+03  0.00000000000E+00 0. -1.
         -4    1    6    6    0  503  0.14991600752E+02  0.12324597734E+02 -0.35196617331E+02  0.40192607205E+02  0.00000000000E+00 0.  1.
<mgrwt>
<rscale>  0 0.27466334E+04</rscale>
<asrwt>0</asrwt>
<pdfrwt beam="1">  1        2 0.11991258E+00 0.27466334E+04</pdfrwt>
<pdfrwt beam="2">  1       -2 0.37226303E+00 0.27466334E+04</pdfrwt>
<totfact> 0.34988561E-01</totfact>
</mgrwt>
</event>
<event>
12    2  0.3552864E-008  0.1604256E+04  0.7818608E-02  0.8817938E-01
         -1   -1    0    0    0  501 -0.00000000000E+00  0.00000000000E+00  0.47673053476E+03  0.47673053476E+03  0.00000000000E+00 0.  1.
          1   -1    0    0  501    0  0.00000000000E+00 -0.00000000000E+00 -0.13496289001E+04  0.13496289001E+04  0.00000000000E+00 0. -1.
         23    2    1    2    0    0  0.56470532462E+02  0.38486845358E+03  0.11676320745E+03  0.41614084136E+03  0.90702291257E+02 0.  0.
        254    2    1    2    0    0 -0.56470532462E+02 -0.38486845358E+03 -0.98966157276E+03  0.14102185935E+04  0.92626875430E+03 0.  0.
         23    2    4    4    0    0 -0.41953242562E+01 -0.21886988465E+02  0.16828188719E+03  0.19281695389E+03  0.91449128706E+02 0.  0.
         23    2    4    4    0    0 -0.52275208206E+02 -0.36298146511E+03 -0.11579434599E+04  0.12174016396E+04  0.82130714266E+02 0.  0.
          2    1    3    3  502    0  0.60659513808E+02  0.11971787768E+03  0.41718341819E+02  0.14054311401E+03  0.00000000000E+00 0. -1.
         -2    1    3    3    0  502 -0.41889813456E+01  0.26515057590E+03  0.75044865630E+02  0.27559772735E+03  0.00000000000E+00 0.  1.
         11    1    5    5    0    0  0.41637969180E+02 -0.22246412318E+02  0.70777813004E+02  0.85077154114E+02  0.00000000000E+00 0. -1.
        -11    1    5    5    0    0 -0.45833293436E+02  0.35942385352E+00  0.97504074184E+02  0.10773979977E+03  0.00000000000E+00 0.  1.
          3    1    6    6  503    0 -0.16685845088E+02 -0.10764555330E+02 -0.38547261611E+02  0.43361093799E+02  0.00000000000E+00 0. -1.
         -3    1    6    6    0  503 -0.35589363118E+02 -0.35221690978E+03 -0.11193961983E+04  0.11740405458E+04  0.00000000000E+00 0.  1.
<mgrwt>
<rscale>  0 0.16042560E+04</rscale>
<asrwt>0</asrwt>
<pdfrwt beam="1">  1        1 0.20763521E+00 0.16042560E+04</pdfrwt>
<pdfrwt beam="2">  1       -1 0.73343159E-01 0.16042560E+04</pdfrwt>
<totfact> 0.14983187E+01</totfact>
</mgrwt>
</event>
<event>
12    2  0.3552864E-008  0.1493938E+04  0.7818608E-02  0.8888494E-01
          2   -1    0    0  501    0  0.00000000000E+00  0.00000000000E+00  0.78562615171E+03  0.78562615171E+03  0.00000000000E+00 0.  1.
         -2   -1    0    0    0  501 -0.00000000000E+00 -0.00000000000E+00 -0.71021411214E+03  0.71021411214E+03  0.00000000000E+00 0. -1.
         23    2    1    2    0    0 -0.34326339630E+03 -0.15361691751E+01 -0.29847486960E+03  0.46462198485E+03  0.94626750800E+02 0.  0.
        254    2    1    2    0    0  0.34326339630E+03  0.15361691751E+01  0.37388690917E+03  0.10312182790E+04  0.89765672673E+03 0.  0.
         23    2    4    4    0    0 -0.11979300196E+02  0.64944817415E+02  0.59020789179E+03  0.60081929520E+03  0.90978772270E+02 0.  0.
         23    2    4    4    0    0  0.35524269650E+03 -0.63408648240E+02 -0.21632098262E+03  0.43039898380E+03  0.90722035076E+02 0.  0.
          4    1    3    3  502    0 -0.15460748475E+03 -0.19307166960E+02 -0.79094005879E+02  0.17473437785E+03  0.00000000000E+00 0.  1.
         -4    1    3    3    0  502 -0.18865591156E+03  0.17770997784E+02 -0.21938086372E+03  0.28988760700E+03  0.00000000000E+00 0. -1.
         11    1    5    5    0    0 -0.11634852380E+02  0.87660283621E+02  0.50222960241E+03  0.50995516337E+03  0.00000000000E+00 0. -1.
        -11    1    5    5    0    0 -0.34444781569E+00 -0.22715466206E+02  0.87978289382E+02  0.90864131822E+02  0.00000000000E+00 0.  1.
          3    1    6    6  503    0  0.29577617625E+02 -0.31580383374E+02 -0.38865543822E+02  0.58160868073E+02  0.00000000000E+00 0. -1.
         -3    1    6    6    0  503  0.32566507887E+03 -0.31828264866E+02 -0.17745543880E+03  0.37223811573E+03  0.00000000000E+00 0.  1.
<mgrwt>
<rscale>  0 0.14939381E+04</rscale>
<asrwt>0</asrwt>
<pdfrwt beam="1">  1        2 0.12086556E+00 0.14939381E+04</pdfrwt>
<pdfrwt beam="2">  1       -2 0.10926371E+00 0.14939381E+04</pdfrwt>
<totfact> 0.22779640E+01</totfact>
</mgrwt>
</event>
<event>
12    2  0.3552864E-008  0.1071590E+04  0.7818608E-02  0.9233333E-01
         -2   -1    0    0    0  501 -0.00000000000E+00  0.00000000000E+00  0.17303938144E+03  0.17303938144E+03  0.00000000000E+00 0.  1.
          2   -1    0    0  501    0  0.00000000000E+00 -0.00000000000E+00 -0.16590226528E+04  0.16590226528E+04  0.00000000000E+00 0. -1.
         23    2    1    2    0    0 -0.48165486344E+02 -0.77433957628E+02 -0.50824456379E+02  0.14060059023E+03  0.94177856940E+02 0.  0.
        254    2    1    2    0    0  0.48165486344E+02  0.77433957628E+02 -0.14351588150E+04  0.16914614440E+04  0.89053077458E+03 0.  0.
         23    2    4    4    0    0  0.40703287272E+03 -0.16634412098E+03 -0.65683336999E+03  0.79595893891E+03  0.93671929827E+02 0.  0.
         23    2    4    4    0    0 -0.35886738637E+03  0.24377807860E+03 -0.77832544499E+03  0.89550250510E+03  0.88998234288E+02 0.  0.
          4    1    3    3  502    0 -0.58495034491E+02 -0.61238088105E+02  0.16689848338E+01  0.84702762678E+02  0.00000000000E+00 0.  1.
         -4    1    3    3    0  502  0.10329548148E+02 -0.16195869523E+02 -0.52493441213E+02  0.55897827551E+02  0.00000000000E+00 0. -1.
         11    1    5    5    0    0  0.27607801554E+03 -0.11363492774E+03 -0.51852668880E+03  0.59833259519E+03  0.00000000000E+00 0.  1.
        -11    1    5    5    0    0  0.13095485717E+03 -0.52709193234E+02 -0.13830668119E+03  0.19762634372E+03  0.00000000000E+00 0. -1.
          3    1    6    6  503    0 -0.21515154328E+03  0.11435509706E+03 -0.50458640568E+03  0.56033446762E+03  0.00000000000E+00 0. -1.
         -3    1    6    6    0  503 -0.14371584309E+03  0.12942298154E+03 -0.27373903931E+03  0.33516803748E+03  0.00000000000E+00 0.  1.
<mgrwt>
<rscale>  0 0.10715899E+04</rscale>
<asrwt>0</asrwt>
<pdfrwt beam="1">  1        2 0.25523426E+00 0.10715899E+04</pdfrwt>
<pdfrwt beam="2">  1       -2 0.26621442E-01 0.10715899E+04</pdfrwt>
<totfact> 0.13147386E+02</totfact>
</mgrwt>
</event>
<event>
12    2  0.3552864E-008  0.2191312E+04  0.7818608E-02  0.8522053E-01
         -1   -1    0    0    0  501 -0.00000000000E+00  0.00000000000E+00  0.24396960872E+04  0.24396960872E+04  0.00000000000E+00 0.  1.
          1   -1    0    0  501    0  0.00000000000E+00 -0.00000000000E+00 -0.49205399754E+03  0.49205399754E+03  0.00000000000E+00 0. -1.
         23    2    1    2    0    0 -0.77645619422E+03 -0.26985848040E+03  0.13339632951E+04  0.15695075222E+04  0.90487394898E+02 0.  0.
        254    2    1    2    0    0  0.77645619422E+03  0.26985848040E+03  0.61367879453E+03  0.13622425625E+04  0.89632322030E+03 0.  0.
         23    2    4    4    0    0  0.58239408863E+03 -0.25428749468E+03  0.24810685355E+03  0.68830364436E+03  0.91432443012E+02 0.  0.
         23    2    4    4    0    0  0.19406210559E+03  0.52414597508E+03  0.36557194098E+03  0.67393891814E+03  0.90342223446E+02 0.  0.
          3    1    3    3  502    0 -0.77494313835E+02 -0.23882492210E+01  0.10339792746E+03  0.12923700637E+03  0.00000000000E+00 0. -1.
         -3    1    3    3    0  502 -0.69896188038E+03 -0.26747023118E+03  0.12305653676E+04  0.14402705159E+04  0.00000000000E+00 0.  1.
         11    1    5    5    0    0  0.14596067350E+03 -0.33705965728E+02  0.29610880988E+02  0.15270040802E+03  0.00000000000E+00 0.  1.
        -11    1    5    5    0    0  0.43643341513E+03 -0.22058152895E+03  0.21849597256E+03  0.53560323634E+03  0.00000000000E+00 0. -1.
          3    1    6    6  503    0  0.14087426062E+03  0.28456474368E+03  0.17027240950E+03  0.36029896487E+03  0.00000000000E+00 0. -1.
         -3    1    6    6    0  503  0.53187844969E+02  0.23958123140E+03  0.19529953148E+03  0.31363995327E+03  0.00000000000E+00 0.  1.
<mgrwt>
<rscale>  0 0.21913121E+04</rscale>
<asrwt>0</asrwt>
<pdfrwt beam="1">  1        1 0.75700616E-01 0.21913121E+04</pdfrwt>
<pdfrwt beam="2">  1       -1 0.37533785E+00 0.21913121E+04</pdfrwt>
<totfact> 0.43538529E-01</totfact>
</mgrwt>
</event>
<event>
12    2  0.3552864E-008  0.1818671E+04  0.7818608E-02  0.8696433E-01
          2   -1    0    0  501    0  0.00000000000E+00  0.00000000000E+00  0.28155131368E+04  0.28155131368E+04  0.00000000000E+00 0. -1.
         -2   -1    0    0    0  501 -0.00000000000E+00 -0.00000000000E+00 -0.29369121228E+03  0.29369121228E+03  0.00000000000E+00 0.  1.
         23    2    1    2    0    0  0.46676857308E+03  0.40957224541E+03  0.14381540830E+04  0.15692367898E+04  0.92707124983E+02 0.  0.
        254    2    1    2    0    0 -0.46676857308E+03 -0.40957224541E+03  0.10836678416E+04  0.15399675593E+04  0.90085613052E+03 0.  0.
         23    2    4    4    0    0 -0.11500059380E+03 -0.47393973368E+03  0.12238052236E+03  0.51023867845E+03  0.86732398815E+02 0.  0.
         23    2    4    4    0    0 -0.35176797929E+03  0.64367488269E+02  0.96128731921E+03  0.10297288809E+04  0.91566223145E+02 0.  0.
          3    1    3    3  502    0  0.40134832709E+03  0.34926495392E+03  0.13028688055E+04  0.14073143259E+04  0.00000000000E+00 0. -1.
         -3    1    3    3    0  502  0.65420245996E+02  0.60307291496E+02  0.13528527749E+03  0.16192246385E+03  0.00000000000E+00 0.  1.
         11    1    5    5    0    0 -0.66353440792E+02 -0.11292227990E+03  0.36674676969E+02  0.13601195659E+03  0.00000000000E+00 0. -1.
        -11    1    5    5    0    0 -0.48647153004E+02 -0.36101745378E+03  0.85705845388E+02  0.37422672187E+03  0.00000000000E+00 0.  1.
          2    1    6    6  503    0 -0.56264761168E+02  0.45911962887E+02  0.21019348601E+03  0.22238465156E+03  0.00000000000E+00 0. -1.
         -2    1    6    6    0  503 -0.29550321812E+03  0.18455525382E+02  0.75109383320E+03  0.80734422931E+03  0.00000000000E+00 0.  1.
<mgrwt>
<rscale>  0 0.18186715E+04</rscale>
<asrwt>0</asrwt>
<pdfrwt beam="1">  1        2 0.43315585E+00 0.18186715E+04</pdfrwt>
<pdfrwt beam="2">  1       -2 0.45183265E-01 0.18186715E+04</pdfrwt>
<totfact> 0.99341174E+00</totfact>
</mgrwt>
</event>
<event>
12    2  0.3552864E-008  0.2198906E+04  0.7818608E-02  0.8518883E-01
          2   -1    0    0  501    0  0.00000000000E+00  0.00000000000E+00  0.10218928902E+04  0.10218928902E+04  0.00000000000E+00 0. -1.
         -2   -1    0    0    0  501 -0.00000000000E+00 -0.00000000000E+00 -0.11829002557E+04  0.11829002557E+04  0.00000000000E+00 0.  1.
         23    2    1    2    0    0  0.72211259101E+03 -0.48905366054E+03 -0.22326122737E+03  0.90495209188E+03  0.92046922675E+02 0.  0.
        254    2    1    2    0    0 -0.72211259101E+03  0.48905366054E+03  0.62253861869E+02  0.12998410539E+04  0.96181658604E+03 0.  0.
         23    2    4    4    0    0 -0.30990194001E+03  0.54802235772E+03 -0.33317334284E+03  0.71825452550E+03  0.92289598711E+02 0.  0.
         23    2    4    4    0    0 -0.41221065100E+03 -0.58968697188E+02  0.39542720471E+03  0.58158652843E+03  0.92115621788E+02 0.  0.
          4    1    3    3  502    0  0.49978929949E+03 -0.37483298341E+03 -0.12960357027E+03  0.63803306714E+03  0.00000000000E+00 0. -1.
         -4    1    3    3    0  502  0.22232329152E+03 -0.11422067713E+03 -0.93657657106E+02  0.26691902474E+03  0.00000000000E+00 0.  1.
         11    1    5    5    0    0 -0.24698014595E+03  0.47727824097E+03 -0.31142378212E+03  0.62111068568E+03  0.00000000000E+00 0. -1.
        -11    1    5    5    0    0 -0.62921794058E+02  0.70744116751E+02 -0.21749560726E+02  0.97143839816E+02  0.00000000000E+00 0.  1.
          3    1    6    6  503    0 -0.19161437846E+03 -0.65306497982E+02  0.22565838278E+03  0.30315460483E+03  0.00000000000E+00 0. -1.
         -3    1    6    6    0  503 -0.22059627255E+03  0.63378007943E+01  0.16976882193E+03  0.27843192360E+03  0.00000000000E+00 0.  1.
<mgrwt>
<rscale>  0 0.21989064E+04</rscale>
<asrwt>0</asrwt>
<pdfrwt beam="1">  1        2 0.15721429E+00 0.21989064E+04</pdfrwt>
<pdfrwt beam="2">  1       -2 0.18198465E+00 0.21989064E+04</pdfrwt>
<totfact> 0.39163953E+00</totfact>
</mgrwt>
</event>
<event>
12    2  0.3552864E-008  0.4289613E+04  0.7818608E-02  0.7948542E-01
         -2   -1    0    0    0  501 -0.00000000000E+00  0.00000000000E+00  0.21450340810E+04  0.21450340810E+04  0.00000000000E+00 0. -1.
          2   -1    0    0  501    0  0.00000000000E+00 -0.00000000000E+00 -0.21445791499E+04  0.21445791499E+04  0.00000000000E+00 0.  1.
         23    2    1    2    0    0  0.34447818008E+03  0.93373968182E+03 -0.17943805483E+04  0.20538697147E+04  0.89689703432E+02 0.  0.
        254    2    1    2    0    0 -0.34447818008E+03 -0.93373968182E+03  0.17948354794E+04  0.22357435163E+04  0.88689326454E+03 0.  0.
         23    2    4    4    0    0 -0.58635395185E+02 -0.23429265305E+03 -0.28296049843E+02  0.25997771142E+03  0.91959703967E+02 0.  0.
         23    2    4    4    0    0 -0.28584278490E+03 -0.69944702876E+03  0.18231315292E+04  0.19757658049E+04  0.94391202852E+02 0.  0.
          4    1    3    3  502    0  0.22256881740E+03  0.60570501838E+03 -0.10732552091E+04  0.12523147335E+04  0.00000000000E+00 0. -1.
         -4    1    3    3    0  502  0.12190936268E+03  0.32803466343E+03 -0.72112533918E+03  0.80155498123E+03  0.00000000000E+00 0.  1.
         11    1    5    5    0    0  0.15986110912E+02 -0.17153269272E+02 -0.19011115943E+02  0.30186303487E+02  0.00000000000E+00 0. -1.
        -11    1    5    5    0    0 -0.74621506097E+02 -0.21713938378E+03 -0.92849339006E+01  0.22979140793E+03  0.00000000000E+00 0.  1.
          4    1    6    6  503    0 -0.28204689150E+02 -0.12544330064E+03  0.24167550027E+03  0.27374910702E+03  0.00000000000E+00 0. -1.
         -4    1    6    6    0  503 -0.25763809575E+03 -0.57400372812E+03  0.15814560290E+04  0.17020166979E+04  0.00000000000E+00 0.  1.
<mgrwt>
<rscale>  0 0.42896132E+04</rscale>
<asrwt>0</asrwt>
<pdfrwt beam="1">  1        2 0.32993525E+00 0.42896132E+04</pdfrwt>
<pdfrwt beam="2">  1       -2 0.33000524E+00 0.42896132E+04</pdfrwt>
<totfact> 0.88742451E-02</totfact>
</mgrwt>
</event>
<event>
12    2  0.3552864E-008  0.2225672E+04  0.7818608E-02  0.8507818E-01
          2   -1    0    0  501    0  0.00000000000E+00  0.00000000000E+00  0.12716363546E+04  0.12716363546E+04  0.00000000000E+00 0. -1.
         -2   -1    0    0    0  501 -0.00000000000E+00 -0.00000000000E+00 -0.97386618351E+03  0.97386618351E+03  0.00000000000E+00 0.  1.
         23    2    1    2    0    0 -0.37773948568E+03 -0.24713009138E+03  0.93742087178E+03  0.10447582034E+04  0.94875769087E+02 0.  0.
        254    2    1    2    0    0  0.37773948568E+03  0.24713009138E+03 -0.63965070074E+03  0.12007443347E+04  0.91042492126E+03 0.  0.
         23    2    4    4    0    0 -0.17658453952E+03 -0.60512136571E+02  0.92995598144E+02  0.22759471833E+03  0.91144699599E+02 0.  0.
         23    2    4    4    0    0  0.55432402520E+03  0.30764222795E+03 -0.73264629888E+03  0.97314961637E+03  0.91272729989E+02 0.  0.
          3    1    3    3  502    0 -0.30700224017E+03 -0.18634170829E+03  0.65038946973E+03  0.74295361231E+03  0.00000000000E+00 0. -1.
         -3    1    3    3    0  502 -0.70737245514E+02 -0.60788383090E+02  0.28703140205E+03  0.30180459106E+03  0.00000000000E+00 0.  1.
         11    1    5    5    0    0 -0.76775190606E+02  0.18899617120E+02  0.47153044826E+02  0.92059953597E+02  0.00000000000E+00 0. -1.
        -11    1    5    5    0    0 -0.99809348917E+02 -0.79411753691E+02  0.45842553318E+02  0.13553476473E+03  0.00000000000E+00 0.  1.
          2    1    6    6  503    0  0.11878704456E+03  0.34536713334E+02 -0.17952273455E+03  0.21801733588E+03  0.00000000000E+00 0. -1.
         -2    1    6    6    0  503  0.43553698064E+03  0.27310551461E+03 -0.55312356433E+03  0.75513228049E+03  0.00000000000E+00 0.  1.
<mgrwt>
<rscale>  0 0.22256717E+04</rscale>
<asrwt>0</asrwt>
<pdfrwt beam="1">  1        2 0.19563636E+00 0.22256717E+04</pdfrwt>
<pdfrwt beam="2">  1       -2 0.14982557E+00 0.22256717E+04</pdfrwt>
<totfact> 0.47091013E+00</totfact>
</mgrwt>
</event>
<event>
12    2  0.3552864E-008  0.1766017E+04  0.7818608E-02  0.8724583E-01
          2   -1    0    0  501    0  0.00000000000E+00  0.00000000000E+00  0.12928036189E+04  0.12928036189E+04  0.00000000000E+00 0. -1.
         -2   -1    0    0    0  501 -0.00000000000E+00 -0.00000000000E+00 -0.60311081766E+03  0.60311081766E+03  0.00000000000E+00 0.  1.
         23    2    1    2    0    0  0.14667540605E+02 -0.18220708484E+03  0.92952737113E+03  0.95192176833E+03  0.93377517730E+02 0.  0.
        254    2    1    2    0    0 -0.14667540605E+02  0.18220708484E+03 -0.23983456986E+03  0.94399266826E+03  0.89453170895E+03 0.  0.
         23    2    4    4    0    0  0.16092368313E+03 -0.21297406826E+03  0.18020588376E+03  0.33471898457E+03  0.91149616294E+02 0.  0.
         23    2    4    4    0    0 -0.17559122373E+03  0.39518115310E+03 -0.42004045362E+03  0.60927368369E+03  0.88204406607E+02 0.  0.
          3    1    3    3  502    0  0.25564215028E+02 -0.18531336464E+03  0.78627948107E+03  0.80822645005E+03  0.00000000000E+00 0. -1.
         -3    1    3    3    0  502 -0.10896674423E+02  0.31062798079E+01  0.14324789006E+03  0.14369531828E+03  0.00000000000E+00 0.  1.
         11    1    5    5    0    0  0.14126035845E+03 -0.20611919041E+03  0.13287846613E+03  0.28301289067E+03  0.00000000000E+00 0. -1.
        -11    1    5    5    0    0  0.19663324674E+02 -0.68548778530E+01  0.47327417624E+02  0.51706093901E+02  0.00000000000E+00 0.  1.
          3    1    6    6  503    0 -0.14495399576E+03  0.35118819708E+03 -0.32416343524E+03  0.49942641440E+03  0.00000000000E+00 0. -1.
         -3    1    6    6    0  503 -0.30637227974E+02  0.43992956020E+02 -0.95877018379E+02  0.10984726929E+03  0.00000000000E+00 0.  1.
<mgrwt>
<rscale>  0 0.17660168E+04</rscale>
<asrwt>0</asrwt>
<pdfrwt beam="1">  1        2 0.19889286E+00 0.17660168E+04</pdfrwt>
<pdfrwt beam="2">  1       -2 0.92786280E-01 0.17660168E+04</pdfrwt>
<totfact> 0.15561662E+01</totfact>
</mgrwt>
</event>
<event>
12    2  0.3552864E-008  0.1817079E+04  0.7818608E-02  0.8697269E-01
          1   -1    0    0  501    0  0.00000000000E+00  0.00000000000E+00  0.12149951452E+04  0.12149951452E+04  0.00000000000E+00 0. -1.
         -1   -1    0    0    0  501 -0.00000000000E+00 -0.00000000000E+00 -0.67938081288E+03  0.67938081288E+03  0.00000000000E+00 0.  1.
         23    2    1    2    0    0 -0.26412265568E+03 -0.55915798957E+03 -0.95808368783E+02  0.63301620947E+03  0.95455976150E+02 0.  0.
        254    2    1    2    0    0  0.26412265568E+03  0.55915798957E+03  0.63142270109E+03  0.12613597486E+04  0.89995297286E+03 0.  0.
         23    2    4    4    0    0  0.41023040813E+03  0.61681351846E+03  0.73806704609E+03  0.10496228676E+04  0.90649298339E+02 0.  0.
         23    2    4    4    0    0 -0.14610775244E+03 -0.57655528894E+02 -0.10664434501E+03  0.21173688101E+03  0.93743560438E+02 0.  0.
          4    1    3    3  502    0 -0.11110804744E+02 -0.53150466486E+02  0.15424391605E+02  0.56447621085E+02  0.00000000000E+00 0. -1.
         -4    1    3    3    0  502 -0.25301185094E+03 -0.50600752308E+03 -0.11123276039E+03  0.57656858839E+03  0.00000000000E+00 0.  1.
         11    1    5    5    0    0  0.11361173948E+03  0.17456479213E+03  0.15254957261E+03  0.25817022699E+03  0.00000000000E+00 0.  1.
        -11    1    5    5    0    0  0.29661866865E+03  0.44224872633E+03  0.58551747349E+03  0.79145264058E+03  0.00000000000E+00 0. -1.
          1    1    6    6  503    0 -0.23230706753E+02 -0.11347161173E+02 -0.71163482614E+02  0.75714364956E+02  0.00000000000E+00 0. -1.
         -1    1    6    6    0  503 -0.12287704569E+03 -0.46308367721E+02 -0.35480862393E+02  0.13602251606E+03  0.00000000000E+00 0.  1.
<mgrwt>
<rscale>  0 0.18170794E+04</rscale>
<asrwt>0</asrwt>
<pdfrwt beam="1">  1        1 0.18692233E+00 0.18170794E+04</pdfrwt>
<pdfrwt beam="2">  1       -1 0.10452013E+00 0.18170794E+04</pdfrwt>
<totfact> 0.84488036E+00</totfact>
</mgrwt>
</event>
<event>
12    2  0.3552864E-008  0.2268877E+04  0.7818608E-02  0.8490295E-01
         -2   -1    0    0    0  501 -0.00000000000E+00  0.00000000000E+00  0.71244523882E+03  0.71244523882E+03  0.00000000000E+00 0.  1.
          2   -1    0    0  501    0  0.00000000000E+00 -0.00000000000E+00 -0.18063854474E+04  0.18063854474E+04  0.00000000000E+00 0. -1.
         23    2    1    2    0    0  0.37375217261E+03  0.42643436108E+03  0.38964946302E+03  0.69403553438E+03  0.91223177405E+02 0.  0.
        254    2    1    2    0    0 -0.37375217261E+03 -0.42643436108E+03 -0.14835896716E+04  0.18247951518E+04  0.89849990633E+03 0.  0.
         23    2    4    4    0    0 -0.16071369425E+03 -0.40584079170E+03 -0.15237786552E+04  0.15876640571E+04  0.90775153124E+02 0.  0.
         23    2    4    4    0    0 -0.21303847837E+03 -0.20593569387E+02  0.40188983603E+02  0.23713109475E+03  0.93843024933E+02 0.  0.
          3    1    3    3  502    0  0.18256590301E+03  0.26537150898E+03  0.18881582053E+03  0.37336813041E+03  0.00000000000E+00 0. -1.
         -3    1    3    3    0  502  0.19118626960E+03  0.16106285211E+03  0.20083364249E+03  0.32066740397E+03  0.00000000000E+00 0.  1.
         11    1    5    5    0    0 -0.13930405019E+03 -0.23716607192E+03 -0.89593331492E+03  0.93720321641E+03  0.00000000000E+00 0. -1.
        -11    1    5    5    0    0 -0.21409644053E+02 -0.16867471978E+03 -0.62784534027E+03  0.65046084067E+03  0.00000000000E+00 0.  1.
          3    1    6    6  503    0 -0.72544527975E+02  0.12855187819E+02  0.55018277998E+02  0.91950939673E+02  0.00000000000E+00 0. -1.
         -3    1    6    6    0  503 -0.14049395039E+03 -0.33448757206E+02 -0.14829294395E+02  0.14518015508E+03  0.00000000000E+00 0.  1.
<mgrwt>
<rscale>  0 0.22688770E+04</rscale>
<asrwt>0</asrwt>
<pdfrwt beam="1">  1        2 0.27790545E+00 0.22688770E+04</pdfrwt>
<pdfrwt beam="2">  1       -2 0.10960696E+00 0.22688770E+04</pdfrwt>
<totfact> 0.51557277E+00</totfact>
</mgrwt>
</event>
<event>
12    2  0.3552864E-008  0.1643828E+04  0.7818608E-02  0.8794066E-01
         -1   -1    0    0    0  501 -0.00000000000E+00  0.00000000000E+00  0.10623795536E+04  0.10623795536E+04  0.00000000000E+00 0.  1.
          1   -1    0    0  501    0  0.00000000000E+00 -0.00000000000E+00 -0.63587678252E+03  0.63587678252E+03  0.00000000000E+00 0. -1.
         23    2    1    2    0    0 -0.10170712816E+03  0.40324351151E+03  0.57103368476E+03  0.71219797756E+03  0.90536294504E+02 0.  0.
        254    2    1    2    0    0  0.10170712816E+03 -0.40324351151E+03 -0.14453091372E+03  0.98605835853E+03  0.88231073433E+03 0.  0.
         23    2    4    4    0    0  0.67099479770E+02  0.26426115921E+03  0.30728144654E+02  0.28906013448E+03  0.90968357231E+02 0.  0.
         23    2    4    4    0    0  0.34607648391E+02 -0.66750467072E+03 -0.17525905837E+03  0.69699822405E+03  0.91272186504E+02 0.  0.
          3    1    3    3  502    0 -0.44186303009E+02  0.77188143518E+02  0.77930536287E+02  0.11825230382E+03  0.00000000000E+00 0. -1.
         -3    1    3    3    0  502 -0.57520825151E+02  0.32605536799E+03  0.49310314847E+03  0.59394567374E+03  0.00000000000E+00 0.  1.
         11    1    5    5    0    0 -0.95159434352E+01  0.70078482246E+02 -0.21420370267E+02  0.73894378106E+02  0.00000000000E+00 0.  1.
        -11    1    5    5    0    0  0.76615423205E+02  0.19418267696E+03  0.52148514922E+02  0.21516575637E+03  0.00000000000E+00 0. -1.
          3    1    6    6  503    0  0.44458123127E+02 -0.65990456270E+03 -0.16730975599E+03  0.68223391225E+03  0.00000000000E+00 0. -1.
         -3    1    6    6    0  503 -0.98504747363E+01 -0.76001080224E+01 -0.79493023802E+01  0.14764311796E+02  0.00000000000E+00 0.  1.
<mgrwt>
<rscale>  0 0.16438278E+04</rscale>
<asrwt>0</asrwt>
<pdfrwt beam="1">  1        1 0.97827197E-01 0.16438278E+04</pdfrwt>
<pdfrwt beam="2">  1       -1 0.16344301E+00 0.16438278E+04</pdfrwt>
<totfact> 0.82801801E+00</totfact>
</mgrwt>
</event>
<event>
12    2  0.3552864E-008  0.2214596E+04  0.7818608E-02  0.8512377E-01
         -2   -1    0    0    0  501 -0.00000000000E+00  0.00000000000E+00  0.74351297724E+03  0.74351297724E+03  0.00000000000E+00 0.  1.
          2   -1    0    0  501    0  0.00000000000E+00 -0.00000000000E+00 -0.16490749657E+04  0.16490749657E+04  0.00000000000E+00 0. -1.
         23    2    1    2    0    0  0.58979516709E+03 -0.13117633169E+03 -0.11290096929E+04  0.12838854320E+04  0.92915804197E+02 0.  0.
        254    2    1    2    0    0 -0.58979516709E+03  0.13117633169E+03  0.22344770446E+03  0.11087025109E+04  0.90234517344E+03 0.  0.
         23    2    4    4    0    0 -0.10641358821E+03 -0.30352304510E+03 -0.13590165461E+03  0.36030739954E+03  0.88893598089E+02 0.  0.
         23    2    4    4    0    0 -0.48338157888E+03  0.43469937679E+03  0.35934935907E+03  0.74839511140E+03  0.91334450940E+02 0.  0.
          4    1    3    3  502    0  0.50657836237E+03 -0.11860471128E+03 -0.10299573805E+04  0.11539068075E+04  0.00000000000E+00 0. -1.
         -4    1    3    3    0  502  0.83216804727E+02 -0.12571620407E+02 -0.99052312379E+02  0.12997862446E+03  0.00000000000E+00 0.  1.
         11    1    5    5    0    0  0.11316246496E+02 -0.42920802234E+01 -0.59038441548E+01  0.13466059677E+02  0.00000000000E+00 0.  1.
        -11    1    5    5    0    0 -0.11772983471E+03 -0.29923096487E+03 -0.12999781045E+03  0.34684133987E+03  0.00000000000E+00 0. -1.
          2    1    6    6  503    0 -0.14613486518E+03  0.80424855279E+02  0.10482753638E+03  0.19700854944E+03  0.00000000000E+00 0.  1.
         -2    1    6    6    0  503 -0.33724671370E+03  0.35427452151E+03  0.25452182268E+03  0.55138656197E+03  0.00000000000E+00 0. -1.
<mgrwt>
<rscale>  0 0.22145958E+04</rscale>
<asrwt>0</asrwt>
<pdfrwt beam="1">  1        2 0.25370384E+00 0.22145958E+04</pdfrwt>
<pdfrwt beam="2">  1       -2 0.11438661E+00 0.22145958E+04</pdfrwt>
<totfact> 0.57105478E+00</totfact>
</mgrwt>
</event>
<event>
12    2  0.3552864E-008  0.2858305E+04  0.7818608E-02  0.8285392E-01
          2   -1    0    0  501    0  0.00000000000E+00  0.00000000000E+00  0.13241662191E+04  0.13241662191E+04  0.00000000000E+00 0. -1.
         -2   -1    0    0    0  501 -0.00000000000E+00 -0.00000000000E+00 -0.15424629363E+04  0.15424629363E+04  0.00000000000E+00 0.  1.
         23    2    1    2    0    0  0.11987513974E+04  0.30918434830E+02  0.35930062191E+03  0.12551450035E+04  0.91275301858E+02 0.  0.
        254    2    1    2    0    0 -0.11987513974E+04 -0.30918434830E+02 -0.57759733912E+03  0.16114841518E+04  0.90846112915E+03 0.  0.
         23    2    4    4    0    0 -0.12806225174E+04 -0.64087527865E+02 -0.67490757428E+03  0.14518293027E+04  0.90591649415E+02 0.  0.
         23    2    4    4    0    0  0.81871120068E+02  0.33169093035E+02  0.97310235153E+02  0.15965484915E+03  0.90649434412E+02 0.  0.
          4    1    3    3  502    0  0.71975048806E+03  0.42031857045E+01  0.25961375541E+03  0.76515209850E+03  0.00000000000E+00 0. -1.
         -4    1    3    3    0  502  0.47900090929E+03  0.26715249125E+02  0.99686866505E+02  0.48999290504E+03  0.00000000000E+00 0.  1.
         11    1    5    5    0    0 -0.11081216312E+04 -0.24595515662E+02 -0.57700990503E+03  0.12495915010E+04  0.00000000000E+00 0. -1.
        -11    1    5    5    0    0 -0.17250088625E+03 -0.39492012203E+02 -0.97897669249E+02  0.20223780168E+03  0.00000000000E+00 0.  1.
          1    1    6    6  503    0  0.94009166769E+02  0.64543296681E+01  0.58177830218E+02  0.11074313404E+03  0.00000000000E+00 0. -1.
         -1    1    6    6    0  503 -0.12138046702E+02  0.26714763367E+02  0.39132404934E+02  0.48911715115E+02  0.00000000000E+00 0.  1.
<mgrwt>
<rscale>  0 0.28583053E+04</rscale>
<asrwt>0</asrwt>
<pdfrwt beam="1">  1        2 0.20371788E+00 0.28583053E+04</pdfrwt>
<pdfrwt beam="2">  1       -2 0.23730199E+00 0.28583053E+04</pdfrwt>
<totfact> 0.10670403E+00</totfact>
</mgrwt>
</event>
<event>
12    2  0.3552864E-008  0.1494783E+04  0.7818608E-02  0.8887929E-01
          2   -1    0    0  501    0  0.00000000000E+00  0.00000000000E+00  0.34089543392E+04  0.34089543392E+04  0.00000000000E+00 0.  1.
         -2   -1    0    0    0  501 -0.00000000000E+00 -0.00000000000E+00 -0.16386091243E+03  0.16386091243E+03  0.00000000000E+00 0. -1.
         23    2    1    2    0    0 -0.37508602704E+03  0.27157920842E+03  0.12181479833E+04  0.13059330257E+04  0.84449774137E+02 0.  0.
        254    2    1    2    0    0  0.37508602704E+03 -0.27157920842E+03  0.20269454435E+04  0.22668822260E+04  0.90321780383E+03 0.  0.
         23    2    4    4    0    0  0.12652179065E+03 -0.58081113467E+03  0.13363081333E+04  0.14649536273E+04  0.83787621042E+02 0.  0.
         23    2    4    4    0    0  0.24856423639E+03  0.30923192625E+03  0.69063731024E+03  0.80192859862E+03  0.93279253715E+02 0.  0.
          3    1    3    3  502    0 -0.18257574279E+02  0.43508960357E+02  0.12770912811E+03  0.13614694287E+03  0.00000000000E+00 0. -1.
         -3    1    3    3    0  502 -0.35682845276E+03  0.22807024806E+03  0.10904388551E+04  0.11697860828E+04  0.00000000000E+00 0.  1.
         11    1    5    5    0    0  0.44177481873E+02 -0.25357957942E+03  0.67771528033E+03  0.72494982875E+03  0.00000000000E+00 0. -1.
        -11    1    5    5    0    0  0.82344308779E+02 -0.32723155525E+03  0.65859285297E+03  0.74000379859E+03  0.00000000000E+00 0.  1.
          3    1    6    6  503    0  0.12018013390E+02  0.57987084941E+01  0.25544548273E+01  0.13586129158E+02  0.00000000000E+00 0. -1.
         -3    1    6    6    0  503  0.23654622300E+03  0.30343321776E+03  0.68808285541E+03  0.78834246947E+03  0.00000000000E+00 0.  1.
<mgrwt>
<rscale>  0 0.14947834E+04</rscale>
<asrwt>0</asrwt>
<pdfrwt beam="1">  1        2 0.52445446E+00 0.14947834E+04</pdfrwt>
<pdfrwt beam="2">  1       -2 0.25209374E-01 0.14947834E+04</pdfrwt>
<totfact> 0.13005941E+01</totfact>
</mgrwt>
</event>
<event>
12    2  0.3552864E-008  0.1990758E+04  0.7818608E-02  0.8610954E-01
         -1   -1    0    0    0  501 -0.00000000000E+00  0.00000000000E+00  0.36272131239E+03  0.36272131239E+03  0.00000000000E+00 0.  1.
          1   -1    0    0  501    0  0.00000000000E+00 -0.00000000000E+00 -0.27315168917E+04  0.27315168917E+04  0.00000000000E+00 0. -1.
         23    2    1    2    0    0  0.21502332136E+03  0.64472625179E+03 -0.31115297009E+03  0.75318673351E+03  0.92558717915E+02 0.  0.
        254    2    1    2    0    0 -0.21502332136E+03 -0.64472625179E+03 -0.20576426092E+04  0.23410514705E+04  0.88584530938E+03 0.  0.
         23    2    4    4    0    0  0.28260296536E+03 -0.51116820382E+03 -0.10220347151E+04  0.11807302057E+04  0.91714182097E+02 0.  0.
         23    2    4    4    0    0 -0.49762628672E+03 -0.13355804797E+03 -0.10356078941E+04  0.11603212648E+04  0.91608154183E+02 0.  0.
          1    1    3    3  502    0  0.18499515773E+02  0.11670991338E+02 -0.18299632861E+02  0.28518777770E+02  0.00000000000E+00 0. -1.
         -1    1    3    3    0  502  0.19652380559E+03  0.63305526045E+03 -0.29285333723E+03  0.72466795574E+03  0.00000000000E+00 0.  1.
         11    1    5    5    0    0  0.13232925329E+03 -0.30896358494E+03 -0.64412975372E+03  0.72654846206E+03  0.00000000000E+00 0. -1.
        -11    1    5    5    0    0  0.15027371207E+03 -0.20220461887E+03 -0.37790496136E+03  0.45418174364E+03  0.00000000000E+00 0.  1.
          4    1    6    6  503    0 -0.48101694132E+03 -0.11224644629E+03 -0.95287621619E+03  0.10732891716E+04  0.00000000000E+00 0. -1.
         -4    1    6    6    0  503 -0.16609345403E+02 -0.21311601679E+02 -0.82731677905E+02  0.87032093217E+02  0.00000000000E+00 0.  1.
<mgrwt>
<rscale>  0 0.19907580E+04</rscale>
<asrwt>0</asrwt>
<pdfrwt beam="1">  1        1 0.42023338E+00 0.19907580E+04</pdfrwt>
<pdfrwt beam="2">  1       -1 0.55803277E-01 0.19907580E+04</pdfrwt>
<totfact> 0.28142146E+00</totfact>
</mgrwt>
</event>
<event>
12    2  0.3552864E-008  0.1325435E+04  0.7818608E-02  0.9009635E-01
         -1   -1    0    0    0  501 -0.00000000000E+00  0.00000000000E+00  0.10735065674E+04  0.10735065674E+04  0.00000000000E+00 0.  1.
          1   -1    0    0  501    0  0.00000000000E+00 -0.00000000000E+00 -0.40912132555E+03  0.40912132555E+03  0.00000000000E+00 0. -1.
         23    2    1    2    0    0 -0.14691790629E+03 -0.26567963250E+03  0.38158415279E+03  0.49628416186E+03  0.92309075086E+02 0.  0.
        254    2    1    2    0    0  0.14691790629E+03  0.26567963250E+03  0.28280108907E+03  0.98634373110E+03  0.89483348260E+03 0.  0.
         23    2    4    4    0    0  0.28001508632E+03 -0.41202670220E+02  0.49618430767E+03  0.57905990426E+03  0.94896769975E+02 0.  0.
         23    2    4    4    0    0 -0.13309718003E+03  0.30688230272E+03 -0.21338321860E+03  0.40728382683E+03  0.91957112642E+02 0.  0.
          4    1    3    3  502    0 -0.10883357677E+02 -0.10384258594E+03  0.14938487276E+03  0.18225688008E+03  0.00000000000E+00 0. -1.
         -4    1    3    3    0  502 -0.13603454861E+03 -0.16183704656E+03  0.23219928003E+03  0.31402728178E+03  0.00000000000E+00 0.  1.
         11    1    5    5    0    0  0.26788852276E+03 -0.44701305672E+02  0.40896802804E+03  0.49093514369E+03  0.00000000000E+00 0.  1.
        -11    1    5    5    0    0  0.12126563563E+02  0.34986354525E+01  0.87216279627E+02  0.88124760572E+02  0.00000000000E+00 0. -1.
          1    1    6    6  503    0 -0.90858773369E+01  0.11079926425E+03 -0.97858038287E+02  0.14810545494E+03  0.00000000000E+00 0. -1.
         -1    1    6    6    0  503 -0.12401130270E+03  0.19608303846E+03 -0.11552518031E+03  0.25917837189E+03  0.00000000000E+00 0.  1.
<mgrwt>
<rscale>  0 0.13254349E+04</rscale>
<asrwt>0</asrwt>
<pdfrwt beam="1">  1        1 0.62941743E-01 0.13254349E+04</pdfrwt>
<pdfrwt beam="2">  1       -1 0.16515486E+00 0.13254349E+04</pdfrwt>
<totfact> 0.15257684E+01</totfact>
</mgrwt>
</event>
<event>
12    2  0.3552864E-008  0.1342609E+04  0.7818608E-02  0.8996442E-01
          1   -1    0    0  501    0  0.00000000000E+00  0.00000000000E+00  0.96901304288E+03  0.96901304288E+03  0.00000000000E+00 0. -1.
         -1   -1    0    0    0  501 -0.00000000000E+00 -0.00000000000E+00 -0.46506073186E+03  0.46506073186E+03  0.00000000000E+00 0.  1.
         23    2    1    2    0    0 -0.19002472674E+03 -0.15697354738E+03  0.36458121306E+03  0.44958618608E+03  0.91968399163E+02 0.  0.
        254    2    1    2    0    0  0.19002472674E+03  0.15697354738E+03  0.13937109795E+03  0.98448758866E+03  0.94288992885E+03 0.  0.
         23    2    4    4    0    0  0.38476277052E+03 -0.18830974612E+03 -0.17407417271E+03  0.47094640891E+03  0.89363037081E+02 0.  0.
         23    2    4    4    0    0 -0.19473804378E+03  0.34528329350E+03  0.31344527066E+03  0.51354117975E+03  0.91286073051E+02 0.  0.
          4    1    3    3  502    0 -0.45541398451E+02 -0.13734562760E+01  0.10331866245E+03  0.11291878217E+03  0.00000000000E+00 0. -1.
         -4    1    3    3    0  502 -0.14448332829E+03 -0.15560009111E+03  0.26126255061E+03  0.33666740391E+03  0.00000000000E+00 0.  1.
         11    1    5    5    0    0  0.36248258086E+03 -0.14799568323E+03 -0.15528265060E+03  0.42119953141E+03  0.00000000000E+00 0. -1.
        -11    1    5    5    0    0  0.22280189663E+02 -0.40314062885E+02 -0.18791522114E+02  0.49746877501E+02  0.00000000000E+00 0.  1.
          1    1    6    6  503    0 -0.16245813687E+02  0.11060008100E+03  0.92503588635E+02  0.14509727182E+03  0.00000000000E+00 0. -1.
         -1    1    6    6    0  503 -0.17849223009E+03  0.23468321250E+03  0.22094168203E+03  0.36844390793E+03  0.00000000000E+00 0.  1.
<mgrwt>
<rscale>  0 0.13426093E+04</rscale>
<asrwt>0</asrwt>
<pdfrwt beam="1">  1        1 0.14907893E+00 0.13426093E+04</pdfrwt>
<pdfrwt beam="2">  1       -1 0.71547805E-01 0.13426093E+04</pdfrwt>
<totfact> 0.30923029E+01</totfact>
</mgrwt>
</event>
<event>
12    2  0.3552864E-008  0.1538082E+04  0.7818608E-02  0.8859517E-01
         -1   -1    0    0    0  501 -0.00000000000E+00  0.00000000000E+00  0.61001564455E+03  0.61001564455E+03  0.00000000000E+00 0.  1.
          1   -1    0    0  501    0  0.00000000000E+00 -0.00000000000E+00 -0.96952236742E+03  0.96952236742E+03  0.00000000000E+00 0. -1.
         23    2    1    2    0    0  0.41372868742E+03 -0.26007397575E+03 -0.21034628627E+03  0.54047635876E+03  0.95180011429E+02 0.  0.
        254    2    1    2    0    0 -0.41372868742E+03  0.26007397575E+03 -0.14916043660E+03  0.10390616532E+04  0.90475984862E+03 0.  0.
         23    2    4    4    0    0 -0.33232428562E+03 -0.67188358393E+02 -0.45501960436E+03  0.57477887276E+03  0.91510687370E+02 0.  0.
         23    2    4    4    0    0 -0.81404401805E+02  0.32726233414E+03  0.30585916777E+03  0.46428278045E+03  0.91001965536E+02 0.  0.
          2    1    3    3  502    0  0.26651080792E+03 -0.17868176448E+03 -0.18494188025E+03  0.37034940632E+03  0.00000000000E+00 0. -1.
         -2    1    3    3    0  502  0.14721787950E+03 -0.81392211272E+02 -0.25404406021E+02  0.17012695244E+03  0.00000000000E+00 0.  1.
         11    1    5    5    0    0 -0.10126428402E+03 -0.57895520963E+02 -0.19104664467E+03  0.22384183479E+03  0.00000000000E+00 0.  1.
        -11    1    5    5    0    0 -0.23106000160E+03 -0.92928374304E+01 -0.26397295970E+03  0.35093703797E+03  0.00000000000E+00 0. -1.
          4    1    6    6  503    0 -0.74335691963E+02  0.20862008530E+03  0.24668474973E+03  0.33151395271E+03  0.00000000000E+00 0. -1.
         -4    1    6    6    0  503 -0.70687098421E+01  0.11864224884E+03  0.59174418035E+02  0.13276882774E+03  0.00000000000E+00 0.  1.
<mgrwt>
<rscale>  0 0.15380817E+04</rscale>
<asrwt>0</asrwt>
<pdfrwt beam="1">  1        1 0.14915729E+00 0.15380817E+04</pdfrwt>
<pdfrwt beam="2">  1       -1 0.93848561E-01 0.15380817E+04</pdfrwt>
<totfact> 0.16975753E+01</totfact>
</mgrwt>
</event>
<event>
12    2  0.3552864E-008  0.2338084E+04  0.7818608E-02  0.8463055E-01
          1   -1    0    0  501    0  0.00000000000E+00  0.00000000000E+00  0.26337600459E+04  0.26337600459E+04  0.00000000000E+00 0. -1.
         -1   -1    0    0    0  501 -0.00000000000E+00 -0.00000000000E+00 -0.51890028555E+03  0.51890028555E+03  0.00000000000E+00 0.  1.
         23    2    1    2    0    0  0.86007163945E+03  0.26952148511E+02  0.15802605407E+04  0.18017570759E+04  0.93035159250E+02 0.  0.
        254    2    1    2    0    0 -0.86007163945E+03 -0.26952148511E+02  0.53459921967E+03  0.13509032555E+04  0.89369661343E+03 0.  0.
         23    2    4    4    0    0 -0.82999127418E+03  0.27398338551E+03  0.54892703897E+03  0.10361479231E+04  0.91264525731E+02 0.  0.
         23    2    4    4    0    0 -0.30080365266E+02 -0.30093553402E+03 -0.14327819300E+02  0.31475533245E+03  0.86015166602E+02 0.  0.
          1    1    3    3  502    0  0.69420626306E+03 -0.20494357137E+01  0.12098400898E+04  0.13948618494E+04  0.00000000000E+00 0. -1.
         -1    1    3    3    0  502  0.16586537639E+03  0.29001584225E+02  0.37042045088E+03  0.40689522657E+03  0.00000000000E+00 0.  1.
         11    1    5    5    0    0 -0.53062544176E+03  0.16174437366E+03  0.29788207343E+03  0.62964937189E+03  0.00000000000E+00 0.  1.
        -11    1    5    5    0    0 -0.29936583243E+03  0.11223901185E+03  0.25104496554E+03  0.40649855120E+03  0.00000000000E+00 0. -1.
          1    1    6    6  503    0 -0.31689510191E+02 -0.99281372191E+02  0.29656619162E+02  0.10835373081E+03  0.00000000000E+00 0. -1.
         -1    1    6    6    0  503  0.16091449254E+01 -0.20165416183E+03 -0.43984438461E+02  0.20640160164E+03  0.00000000000E+00 0.  1.
<mgrwt>
<rscale>  0 0.23380837E+04</rscale>
<asrwt>0</asrwt>
<pdfrwt beam="1">  1        1 0.40519385E+00 0.23380837E+04</pdfrwt>
<pdfrwt beam="2">  1       -1 0.79830814E-01 0.23380837E+04</pdfrwt>
<totfact> 0.15424090E+00</totfact>
</mgrwt>
</event>
<event>
12    2  0.3552864E-008  0.1079931E+04  0.7818608E-02  0.9224976E-01
         -1   -1    0    0    0  501 -0.00000000000E+00  0.00000000000E+00  0.10353616608E+04  0.10353616608E+04  0.00000000000E+00 0.  1.
          1   -1    0    0  501    0  0.00000000000E+00 -0.00000000000E+00 -0.28160463034E+03  0.28160463034E+03  0.00000000000E+00 0. -1.
         23    2    1    2    0    0 -0.82117044373E+02 -0.10000955192E+03  0.42890945333E+02  0.16576264747E+03  0.94300067093E+02 0.  0.
        254    2    1    2    0    0  0.82117044373E+02  0.10000955192E+03  0.71086608510E+03  0.11512036436E+04  0.89621097892E+03 0.  0.
         23    2    4    4    0    0 -0.35541835590E+03  0.47016926685E+02  0.57353138853E+03  0.68160242810E+03  0.84325661940E+02 0.  0.
         23    2    4    4    0    0  0.43753540027E+03  0.52992625235E+02  0.13733469657E+03  0.46960121554E+03  0.86133837346E+02 0.  0.
          2    1    3    3  502    0 -0.30224132071E+02 -0.30586150168E+02  0.63483207951E+02  0.76675474783E+02  0.00000000000E+00 0.  1.
         -2    1    3    3    0  502 -0.51892912302E+02 -0.69423401753E+02 -0.20592262617E+02  0.89087172690E+02  0.00000000000E+00 0. -1.
         11    1    5    5    0    0 -0.23126431144E+03  0.32731720131E+01  0.30737252297E+03  0.38467098055E+03  0.00000000000E+00 0. -1.
        -11    1    5    5    0    0 -0.12415404445E+03  0.43743754672E+02  0.26615886556E+03  0.29693144755E+03  0.00000000000E+00 0.  1.
          3    1    6    6  503    0  0.16413877833E+03  0.30467165911E+02  0.94855480678E+02  0.19200872106E+03  0.00000000000E+00 0. -1.
         -3    1    6    6    0  503  0.27339662194E+03  0.22525459324E+02  0.42479215892E+02  0.27759249448E+03  0.00000000000E+00 0.  1.
<mgrwt>
<rscale>  0 0.10799308E+04</rscale>
<asrwt>0</asrwt>
<pdfrwt beam="1">  1        1 0.43323790E-01 0.10799308E+04</pdfrwt>
<pdfrwt beam="2">  1       -1 0.15928641E+00 0.10799308E+04</pdfrwt>
<totfact> 0.28119587E+01</totfact>
</mgrwt>
</event>
<event>
12    2  0.3552864E-008  0.1495629E+04  0.7818608E-02  0.8887365E-01
         -1   -1    0    0    0  501 -0.00000000000E+00  0.00000000000E+00  0.37512096342E+03  0.37512096342E+03  0.00000000000E+00 0.  1.
          1   -1    0    0  501    0  0.00000000000E+00 -0.00000000000E+00 -0.14907889067E+04  0.14907889067E+04  0.00000000000E+00 0. -1.
         23    2    1    2    0    0 -0.14328583234E+02 -0.28468665869E+03 -0.81992845265E+03  0.87273638802E+03  0.90190540328E+02 0.  0.
        254    2    1    2    0    0  0.14328583234E+02  0.28468665869E+03 -0.29573949062E+03  0.99317348210E+03  0.90425655503E+03 0.  0.
         23    2    4    4    0    0 -0.36854663390E+03  0.22971801719E+03  0.74754544817E+02  0.44979731721E+03  0.90179797150E+02 0.  0.
         23    2    4    4    0    0  0.38287521714E+03  0.54968641503E+02 -0.37049403544E+03  0.54337616489E+03  0.91525094008E+02 0.  0.
          2    1    3    3  502    0 -0.34393593096E+02 -0.27409477834E+03 -0.75372822273E+03  0.80275594081E+03  0.00000000000E+00 0. -1.
         -2    1    3    3    0  502  0.20065009862E+02 -0.10591880356E+02 -0.66200229919E+02  0.69980447209E+02  0.00000000000E+00 0.  1.
         11    1    5    5    0    0 -0.20997967763E+03  0.17767046652E+03  0.28003295761E+02  0.27648226754E+03  0.00000000000E+00 0. -1.
        -11    1    5    5    0    0 -0.15856695627E+03  0.52047550665E+02  0.46751249057E+02  0.17331504967E+03  0.00000000000E+00 0.  1.
          1    1    6    6  503    0  0.38788258958E+03  0.52195001661E+02 -0.36768250415E+03  0.53699873870E+03  0.00000000000E+00 0. -1.
         -1    1    6    6    0  503 -0.50073724441E+01  0.27736398423E+01 -0.28115312843E+01  0.63774261996E+01  0.00000000000E+00 0.  1.
<mgrwt>
<rscale>  0 0.14956285E+04</rscale>
<asrwt>0</asrwt>
<pdfrwt beam="1">  1        1 0.22935213E+00 0.14956285E+04</pdfrwt>
<pdfrwt beam="2">  1       -1 0.57710919E-01 0.14956285E+04</pdfrwt>
<totfact> 0.19536897E+01</totfact>
</mgrwt>
</event>
<event>
12    2  0.3552864E-008  0.2354858E+04  0.7818608E-02  0.8456600E-01
          1   -1    0    0  501    0  0.00000000000E+00  0.00000000000E+00  0.75494409917E+03  0.75494409917E+03  0.00000000000E+00 0. -1.
         -1   -1    0    0    0  501 -0.00000000000E+00 -0.00000000000E+00 -0.18363467685E+04  0.18363467685E+04  0.00000000000E+00 0.  1.
         23    2    1    2    0    0  0.96641456958E+03 -0.24972953153E+02 -0.75988615428E+03  0.12330522002E+04  0.91706010618E+02 0.  0.
        254    2    1    2    0    0 -0.96641456958E+03  0.24972953153E+02 -0.32151651504E+03  0.13582386674E+04  0.89825310437E+03 0.  0.
         23    2    4    4    0    0 -0.10330353848E+04 -0.20379688095E+03 -0.20033571135E+03  0.10757134597E+04  0.91267602558E+02 0.  0.
         23    2    4    4    0    0  0.66620815200E+02  0.22876983410E+03 -0.12118080369E+03  0.28252520769E+03  0.91442527227E+02 0.  0.
          3    1    3    3  502    0  0.38370452469E+02 -0.19050401129E+02 -0.38461512246E+02  0.57571671246E+02  0.00000000000E+00 0. -1.
         -3    1    3    3    0  502  0.92804411711E+03 -0.59225520236E+01 -0.72142464204E+03  0.11754805290E+04  0.00000000000E+00 0.  1.
         11    1    5    5    0    0 -0.42492940411E+03 -0.39454815311E+02 -0.91570383279E+02  0.43647086503E+03  0.00000000000E+00 0.  1.
        -11    1    5    5    0    0 -0.60810598067E+03 -0.16434206564E+03 -0.10876532807E+03  0.63924259468E+03  0.00000000000E+00 0. -1.
          2    1    6    6  503    0  0.32477401230E+02  0.21593051661E+03 -0.10911212410E+03  0.24410289883E+03  0.00000000000E+00 0. -1.
         -2    1    6    6    0  503  0.34143413970E+02  0.12839317499E+02 -0.12068679592E+02  0.38422308864E+02  0.00000000000E+00 0.  1.
<mgrwt>
<rscale>  0 0.23548581E+04</rscale>
<asrwt>0</asrwt>
<pdfrwt beam="1">  1        1 0.11614525E+00 0.23548581E+04</pdfrwt>
<pdfrwt beam="2">  1       -1 0.28251489E+00 0.23548581E+04</pdfrwt>
<totfact> 0.93500089E-01</totfact>
</mgrwt>
</event>
<event>
12    2  0.3552864E-008  0.2156492E+04  0.7818608E-02  0.8536759E-01
          2   -1    0    0  501    0  0.00000000000E+00  0.00000000000E+00  0.84001355874E+03  0.84001355874E+03  0.00000000000E+00 0. -1.
         -2   -1    0    0    0  501 -0.00000000000E+00 -0.00000000000E+00 -0.13840421565E+04  0.13840421565E+04  0.00000000000E+00 0.  1.
         23    2    1    2    0    0 -0.85005750115E+02 -0.45603983691E+03 -0.10042617194E+04  0.11099770477E+04  0.91154456576E+02 0.  0.
        254    2    1    2    0    0  0.85005750115E+02  0.45603983691E+03  0.46023312164E+03  0.11140786675E+04  0.90230728735E+03 0.  0.
         23    2    4    4    0    0  0.34009786978E+03  0.56274279141E+03  0.13475729251E+03  0.67731414759E+03  0.90823545015E+02 0.  0.
         23    2    4    4    0    0 -0.25509211967E+03 -0.10670295450E+03  0.32547582913E+03  0.43676451995E+03  0.91494374281E+02 0.  0.
          1    1    3    3  502    0 -0.58132126367E+01 -0.84718862033E+02 -0.27483152469E+03  0.28765160522E+03  0.00000000000E+00 0. -1.
         -1    1    3    3    0  502 -0.79192537478E+02 -0.37132097488E+03 -0.72943019469E+03  0.82232544245E+03  0.00000000000E+00 0.  1.
         11    1    5    5    0    0  0.15769980266E+02  0.25703806411E+02 -0.12896736669E+02  0.32797923079E+02  0.00000000000E+00 0. -1.
        -11    1    5    5    0    0  0.32432788952E+03  0.53703898500E+03  0.14765402918E+03  0.64451622451E+03  0.00000000000E+00 0.  1.
          2    1    6    6  503    0 -0.90074201475E+02 -0.47377255638E+02  0.18861232014E+03  0.21431885925E+03  0.00000000000E+00 0. -1.
         -2    1    6    6    0  503 -0.16501791819E+03 -0.59325698857E+02  0.13686350899E+03  0.22244566070E+03  0.00000000000E+00 0.  1.
<mgrwt>
<rscale>  0 0.21564918E+04</rscale>
<asrwt>0</asrwt>
<pdfrwt beam="1">  1        2 0.12923286E+00 0.21564918E+04</pdfrwt>
<pdfrwt beam="2">  1       -2 0.21292956E+00 0.21564918E+04</pdfrwt>
<totfact> 0.32428958E+00</totfact>
</mgrwt>
</event>
<event>
12    2  0.3552864E-008  0.2612809E+04  0.7818608E-02  0.8363863E-01
          1   -1    0    0  501    0  0.00000000000E+00  0.00000000000E+00  0.30542852571E+04  0.30542852571E+04  0.00000000000E+00 0. -1.
         -1   -1    0    0    0  501 -0.00000000000E+00 -0.00000000000E+00 -0.55878645973E+03  0.55878645973E+03  0.00000000000E+00 0.  1.
         23    2    1    2    0    0  0.10396066930E+04  0.37777697503E+03  0.15016865144E+04  0.18686210270E+04  0.11482437065E+03 0.  0.
        254    2    1    2    0    0 -0.10396066930E+04 -0.37777697503E+03  0.99381228301E+03  0.17444506898E+04  0.91211174551E+03 0.  0.
         23    2    4    4    0    0 -0.62526062786E+03 -0.29772924746E+03  0.10965212783E+04  0.13000300509E+04  0.90142452668E+02 0.  0.
         23    2    4    4    0    0 -0.41434606517E+03 -0.80047727570E+02 -0.10270899534E+03  0.44442063894E+03  0.94182090555E+02 0.  0.
          3    1    3    3  502    0  0.97359405263E+03  0.33661874035E+03  0.14329822447E+04  0.17648330429E+04  0.00000000000E+00 0. -1.
         -3    1    3    3    0  502  0.66012640404E+02  0.41158234686E+02  0.68704269631E+02  0.10378798409E+03  0.00000000000E+00 0.  1.
         11    1    5    5    0    0 -0.59558996305E+03 -0.27004822151E+03  0.10596888295E+04  0.12452284374E+04  0.00000000000E+00 0. -1.
        -11    1    5    5    0    0 -0.29670664811E+02 -0.27681025958E+02  0.36832448854E+02  0.54801613452E+02  0.00000000000E+00 0.  1.
          3    1    6    6  503    0 -0.25197145214E+03 -0.12113467209E+02 -0.90424884638E+02  0.26797949277E+03  0.00000000000E+00 0. -1.
         -3    1    6    6    0  503 -0.16237461303E+03 -0.67934260362E+02 -0.12284110701E+02  0.17644114618E+03  0.00000000000E+00 0.  1.
<mgrwt>
<rscale>  0 0.26128094E+04</rscale>
<asrwt>0</asrwt>
<pdfrwt beam="1">  1        1 0.46989003E+00 0.26128094E+04</pdfrwt>
<pdfrwt beam="2">  1       -1 0.85967149E-01 0.26128094E+04</pdfrwt>
<totfact> 0.64080863E-01</totfact>
</mgrwt>
</event>
<event>
12    2  0.3552864E-008  0.1381966E+04  0.7818608E-02  0.8966977E-01
         -2   -1    0    0    0  501 -0.00000000000E+00  0.00000000000E+00  0.87761142079E+03  0.87761142079E+03  0.00000000000E+00 0.  1.
          2   -1    0    0  501    0  0.00000000000E+00 -0.00000000000E+00 -0.54404241747E+03  0.54404241747E+03  0.00000000000E+00 0. -1.
         23    2    1    2    0    0 -0.85732743361E+02  0.21939325781E+02 -0.30776238452E+03  0.33281691535E+03  0.90653055756E+02 0.  0.
        254    2    1    2    0    0  0.85732743361E+02 -0.21939325781E+02  0.64133138785E+03  0.10888369229E+04  0.87545899867E+03 0.  0.
         23    2    4    4    0    0 -0.41273206077E+02  0.26485480131E+03 -0.81793409711E+02  0.29509712876E+03  0.92415421935E+02 0.  0.
         23    2    4    4    0    0  0.12700594944E+03 -0.28679412709E+03  0.72312479756E+03  0.79373979415E+03  0.93445200257E+02 0.  0.
          2    1    3    3  502    0 -0.52039537106E+02  0.32542675939E+02 -0.72828311675E+02  0.95242333869E+02  0.00000000000E+00 0. -1.
         -2    1    3    3    0  502 -0.33693206255E+02 -0.10603350158E+02 -0.23493407284E+03  0.23757458148E+03  0.00000000000E+00 0.  1.
         11    1    5    5    0    0 -0.96303521619E+01  0.98756170110E+02 -0.77589637649E+02  0.12595902781E+03  0.00000000000E+00 0. -1.
        -11    1    5    5    0    0 -0.31642853915E+02  0.16609863120E+03 -0.42037720610E+01  0.16913810094E+03  0.00000000000E+00 0.  1.
          3    1    6    6  503    0  0.61894573697E+02 -0.49607172045E+02  0.21628846867E+03  0.23037471964E+03  0.00000000000E+00 0.  1.
         -3    1    6    6    0  503  0.65111375741E+02 -0.23718695505E+03  0.50683632889E+03  0.56336507451E+03  0.00000000000E+00 0. -1.
<mgrwt>
<rscale>  0 0.13819665E+04</rscale>
<asrwt>0</asrwt>
<pdfrwt beam="1">  1        2 0.83698834E-01 0.13819665E+04</pdfrwt>
<pdfrwt beam="2">  1       -2 0.13501714E+00 0.13819665E+04</pdfrwt>
<totfact> 0.21421939E+01</totfact>
</mgrwt>
</event>
<event>
12    2  0.3552864E-008  0.1518211E+04  0.7818608E-02  0.8872432E-01
          1   -1    0    0  501    0  0.00000000000E+00  0.00000000000E+00  0.42149681197E+03  0.42149681197E+03  0.00000000000E+00 0. -1.
         -1   -1    0    0    0  501 -0.00000000000E+00 -0.00000000000E+00 -0.13671309934E+04  0.13671309934E+04  0.00000000000E+00 0.  1.
         23    2    1    2    0    0  0.28484552402E+03 -0.29018296359E+03 -0.10248046365E+02  0.41677560758E+03  0.90850204770E+02 0.  0.
        254    2    1    2    0    0 -0.28484552402E+03  0.29018296359E+03 -0.93538613502E+03  0.13718521977E+04  0.91743561406E+03 0.  0.
         23    2    4    4    0    0 -0.12310833735E+03  0.53215460850E+03 -0.91045199355E+03  0.10659140947E+04  0.94370729314E+02 0.  0.
         23    2    4    4    0    0 -0.16173718667E+03 -0.24197164491E+03 -0.24934141463E+02  0.30593810308E+03  0.90924237767E+02 0.  0.
          1    1    3    3  502    0  0.26434027510E+03 -0.22830394568E+03  0.69688836192E+01  0.34935231213E+03  0.00000000000E+00 0. -1.
         -1    1    3    3    0  502  0.20505248920E+02 -0.61879017914E+02 -0.17216929984E+02  0.67423295450E+02  0.00000000000E+00 0.  1.
         11    1    5    5    0    0 -0.11994398983E+03  0.36996632549E+03 -0.69219386168E+03  0.79397354165E+03  0.00000000000E+00 0.  1.
        -11    1    5    5    0    0 -0.31643475188E+01  0.16218828301E+03 -0.21825813188E+03  0.27194055301E+03  0.00000000000E+00 0. -1.
          3    1    6    6  503    0 -0.11589559114E+03 -0.11038116605E+03 -0.42217255166E+02  0.16552367352E+03  0.00000000000E+00 0. -1.
         -3    1    6    6    0  503 -0.45841595532E+02 -0.13159047886E+03  0.17283113703E+02  0.14041442956E+03  0.00000000000E+00 0.  1.
<mgrwt>
<rscale>  0 0.15182113E+04</rscale>
<asrwt>0</asrwt>
<pdfrwt beam="1">  1        1 0.64845663E-01 0.15182113E+04</pdfrwt>
<pdfrwt beam="2">  1       -1 0.21032785E+00 0.15182113E+04</pdfrwt>
<totfact> 0.69095819E+00</totfact>
</mgrwt>
</event>
<event>
12    2  0.3552864E-008  0.1711695E+04  0.7818608E-02  0.8754722E-01
          2   -1    0    0  501    0  0.00000000000E+00  0.00000000000E+00  0.23038748021E+04  0.23038748021E+04  0.00000000000E+00 0. -1.
         -2   -1    0    0    0  501 -0.00000000000E+00 -0.00000000000E+00 -0.31793167385E+03  0.31793167385E+03  0.00000000000E+00 0.  1.
         23    2    1    2    0    0  0.71159895389E+02  0.60987879136E+03  0.62143716672E+03  0.87834449979E+03  0.91044150097E+02 0.  0.
        254    2    1    2    0    0 -0.71159895389E+02 -0.60987879136E+03  0.13645059616E+04  0.17434619762E+04  0.89485600653E+03 0.  0.
         23    2    4    4    0    0 -0.34496960626E+03 -0.56455626948E+03  0.12743467311E+04  0.14387894143E+04  0.91801835886E+02 0.  0.
         23    2    4    4    0    0  0.27380971087E+03 -0.45322521875E+02  0.90159230508E+02  0.30467256190E+03  0.87583071252E+02 0.  0.
          3    1    3    3  502    0  0.43408590531E+02  0.28766799672E+03  0.23180739337E+03  0.37198366858E+03  0.00000000000E+00 0. -1.
         -3    1    3    3    0  502  0.27751304858E+02  0.32221079464E+03  0.38962977335E+03  0.50636083121E+03  0.00000000000E+00 0.  1.
         11    1    5    5    0    0 -0.23983633442E+03 -0.43950417064E+03  0.89015552308E+03  0.10213041851E+04  0.00000000000E+00 0. -1.
        -11    1    5    5    0    0 -0.10513327185E+03 -0.12505209884E+03  0.38419120798E+03  0.41748522916E+03  0.00000000000E+00 0.  1.
          3    1    6    6  503    0  0.21396276665E+03 -0.75890123500E+01  0.39635825368E+02  0.21773529175E+03  0.00000000000E+00 0. -1.
         -3    1    6    6    0  503  0.59846944227E+02 -0.37733509525E+02  0.50523405140E+02  0.86937270151E+02  0.00000000000E+00 0.  1.
<mgrwt>
<rscale>  0 0.17116948E+04</rscale>
<asrwt>0</asrwt>
<pdfrwt beam="1">  1        2 0.35444227E+00 0.17116948E+04</pdfrwt>
<pdfrwt beam="2">  1       -2 0.48912567E-01 0.17116948E+04</pdfrwt>
<totfact> 0.16985359E+01</totfact>
</mgrwt>
</event>
<event>
12    2  0.3552864E-008  0.1595566E+04  0.7818608E-02  0.8823277E-01
          2   -1    0    0  501    0  0.00000000000E+00  0.00000000000E+00  0.21447869216E+04  0.21447869216E+04  0.00000000000E+00 0.  1.
         -2   -1    0    0    0  501 -0.00000000000E+00 -0.00000000000E+00 -0.29674636835E+03  0.29674636835E+03  0.00000000000E+00 0. -1.
         23    2    1    2    0    0  0.33172819395E+03 -0.38803218829E+03  0.34684898323E+03  0.62168768659E+03  0.74691289126E+02 0.  0.
        254    2    1    2    0    0 -0.33172819395E+03  0.38803218829E+03  0.15011915700E+04  0.18198456034E+04  0.89311215217E+03 0.  0.
         23    2    4    4    0    0  0.23009568608E+03  0.10339648093E+03  0.10892799293E+03  0.28905581015E+03  0.89739047868E+02 0.  0.
         23    2    4    4    0    0 -0.56182388004E+03  0.28463570736E+03  0.13922635771E+04  0.15307897932E+04  0.90862340012E+02 0.  0.
          3    1    3    3  502    0  0.32257507332E+03 -0.34665920223E+03  0.31627975707E+03  0.56943846477E+03  0.00000000000E+00 0. -1.
         -3    1    3    3    0  502  0.91531206283E+01 -0.41372986064E+02  0.30569226157E+02  0.52249221821E+02  0.00000000000E+00 0.  1.
         11    1    5    5    0    0  0.17902883298E+03  0.68609151350E+02  0.38840098015E+02  0.19561976357E+03  0.00000000000E+00 0. -1.
        -11    1    5    5    0    0  0.51066853107E+02  0.34787329580E+02  0.70087894919E+02  0.93436046576E+02  0.00000000000E+00 0.  1.
          4    1    6    6  503    0 -0.49080846854E+03  0.23259346813E+03  0.12579261126E+04  0.13701718063E+04  0.00000000000E+00 0. -1.
         -4    1    6    6    0  503 -0.71015411494E+02  0.52042239231E+02  0.13433746455E+03  0.16061798690E+03  0.00000000000E+00 0.  1.
<mgrwt>
<rscale>  0 0.15955660E+04</rscale>
<asrwt>0</asrwt>
<pdfrwt beam="1">  1        2 0.32996721E+00 0.15955660E+04</pdfrwt>
<pdfrwt beam="2">  1       -2 0.45653289E-01 0.15955660E+04</pdfrwt>
<totfact> 0.24220058E+01</totfact>
</mgrwt>
</event>
<event>
12    2  0.3552864E-008  0.3039684E+04  0.7818608E-02  0.8232489E-01
          2   -1    0    0  501    0  0.00000000000E+00  0.00000000000E+00  0.29857705787E+04  0.29857705787E+04  0.00000000000E+00 0. -1.
         -2   -1    0    0    0  501 -0.00000000000E+00 -0.00000000000E+00 -0.77364252988E+03  0.77364252988E+03  0.00000000000E+00 0.  1.
         23    2    1    2    0    0  0.45019987252E+03  0.12588279533E+04  0.14501151178E+04  0.19744181070E+04  0.90361856486E+02 0.  0.
        254    2    1    2    0    0 -0.45019987252E+03 -0.12588279533E+04  0.76201293101E+03  0.17849950016E+04  0.90455276644E+03 0.  0.
         23    2    4    4    0    0 -0.57499588077E+03 -0.94584592159E+03  0.20640392120E+03  0.11296736999E+04  0.91188372371E+02 0.  0.
         23    2    4    4    0    0  0.12479600824E+03 -0.31298203173E+03  0.55560900982E+03  0.65532130167E+03  0.84928444994E+02 0.  0.
          2    1    3    3  502    0  0.11222395442E+03  0.35591527107E+03  0.46192670254E+03  0.59384019285E+03  0.00000000000E+00 0. -1.
         -2    1    3    3    0  502  0.33797591810E+03  0.90291268225E+03  0.98818841521E+03  0.13805779141E+04  0.00000000000E+00 0.  1.
         11    1    5    5    0    0 -0.80851431221E+02 -0.20132232968E+03  0.33703966294E+02  0.21955316373E+03  0.00000000000E+00 0. -1.
        -11    1    5    5    0    0 -0.49414444954E+03 -0.74452359191E+03  0.17269995490E+03  0.91012053617E+03  0.00000000000E+00 0.  1.
          1    1    6    6  503    0  0.21082543410E+02 -0.81937052468E+02  0.21365695692E+03  0.22979871507E+03  0.00000000000E+00 0. -1.
         -1    1    6    6    0  503  0.10371346483E+03 -0.23104497927E+03  0.34195205290E+03  0.42552258661E+03  0.00000000000E+00 0.  1.
<mgrwt>
<rscale>  0 0.30396836E+04</rscale>
<asrwt>0</asrwt>
<pdfrwt beam="1">  1        2 0.45934931E+00 0.30396836E+04</pdfrwt>
<pdfrwt beam="2">  1       -2 0.11902193E+00 0.30396836E+04</pdfrwt>
<totfact> 0.82126811E-01</totfact>
</mgrwt>
</event>
<event>
12    2  0.3552864E-008  0.1997745E+04  0.7818608E-02  0.8607676E-01
          1   -1    0    0  501    0  0.00000000000E+00  0.00000000000E+00  0.22970470751E+04  0.22970470751E+04  0.00000000000E+00 0. -1.
         -1   -1    0    0    0  501 -0.00000000000E+00 -0.00000000000E+00 -0.43436020554E+03  0.43436020554E+03  0.00000000000E+00 0.  1.
         23    2    1    2    0    0  0.33616860122E+02 -0.69930423422E+03  0.13174319956E+04  0.14946899419E+04  0.91183627720E+02 0.  0.
        254    2    1    2    0    0 -0.33616860122E+02  0.69930423422E+03  0.54525487399E+03  0.12367173388E+04  0.86140025146E+03 0.  0.
         23    2    4    4    0    0  0.23447110316E+03 -0.92166405465E+02  0.17956599902E+03  0.31964621110E+03  0.80364219354E+02 0.  0.
         23    2    4    4    0    0 -0.26808796328E+03  0.79147063969E+03  0.36568887497E+03  0.91707112771E+03  0.94837600484E+02 0.  0.
          1    1    3    3  502    0  0.41903790763E+02 -0.55474006543E+03  0.11114357640E+04  0.12428925639E+04  0.00000000000E+00 0. -1.
         -1    1    3    3    0  502 -0.82869306415E+01 -0.14456416879E+03  0.20599623164E+03  0.25179737800E+03  0.00000000000E+00 0.  1.
         11    1    5    5    0    0  0.76960891632E+02 -0.21654923996E+02  0.10419175094E+03  0.13133101514E+03  0.00000000000E+00 0. -1.
        -11    1    5    5    0    0  0.15751021153E+03 -0.70511481470E+02  0.75374248076E+02  0.18831519595E+03  0.00000000000E+00 0.  1.
          4    1    6    6  503    0 -0.10366543388E+03  0.35152853087E+03  0.11175584371E+03  0.38315558041E+03  0.00000000000E+00 0. -1.
         -4    1    6    6    0  503 -0.16442252940E+03  0.43994210882E+03  0.25393303126E+03  0.53391554731E+03  0.00000000000E+00 0.  1.
<mgrwt>
<rscale>  0 0.19977446E+04</rscale>
<asrwt>0</asrwt>
<pdfrwt beam="1">  1        1 0.35339185E+00 0.19977446E+04</pdfrwt>
<pdfrwt beam="2">  1       -1 0.66824648E-01 0.19977446E+04</pdfrwt>
<totfact> 0.39367362E+00</totfact>
</mgrwt>
</event>
<event>
12    2  0.3552864E-008  0.1505331E+04  0.7818608E-02  0.8880916E-01
          1   -1    0    0  501    0  0.00000000000E+00  0.00000000000E+00  0.12406242596E+04  0.12406242596E+04  0.00000000000E+00 0. -1.
         -1   -1    0    0    0  501 -0.00000000000E+00 -0.00000000000E+00 -0.45662901248E+03  0.45662901248E+03  0.00000000000E+00 0.  1.
         23    2    1    2    0    0  0.15529957464E+03  0.44996310828E+03  0.31993558690E+03  0.57721729463E+03  0.65086625073E+02 0.  0.
        254    2    1    2    0    0 -0.15529957464E+03 -0.44996310828E+03  0.46405966020E+03  0.11200359774E+04  0.90141248373E+03 0.  0.
         23    2    4    4    0    0  0.14146568453E+03 -0.16202752603E+03 -0.21660344478E+03  0.31842352459E+03  0.90614731877E+02 0.  0.
         23    2    4    4    0    0 -0.29676525917E+03 -0.28793558225E+03  0.68066310498E+03  0.80161245285E+03  0.91124878605E+02 0.  0.
          1    1    3    3  502    0  0.15992063101E+03  0.41189585783E+03  0.29920447000E+03  0.53362544991E+03  0.00000000000E+00 0. -1.
         -1    1    3    3    0  502 -0.46210563727E+01  0.38067250442E+02  0.20731116899E+02  0.43591844720E+02  0.00000000000E+00 0.  1.
         11    1    5    5    0    0  0.43235810095E+02 -0.13187419824E+02 -0.86760579690E+02  0.97829655546E+02  0.00000000000E+00 0.  1.
        -11    1    5    5    0    0  0.98229874431E+02 -0.14884010620E+03 -0.12984286509E+03  0.22059386904E+03  0.00000000000E+00 0. -1.
          1    1    6    6  503    0 -0.26353763872E+03 -0.23597061059E+03  0.62676945175E+03  0.71970421822E+03  0.00000000000E+00 0. -1.
         -1    1    6    6    0  503 -0.33227620441E+02 -0.51964971662E+02  0.53893653237E+02  0.81908234624E+02  0.00000000000E+00 0.  1.
<mgrwt>
<rscale>  0 0.15053306E+04</rscale>
<asrwt>0</asrwt>
<pdfrwt beam="1">  1        1 0.19086527E+00 0.15053306E+04</pdfrwt>
<pdfrwt beam="2">  1       -1 0.70250618E-01 0.15053306E+04</pdfrwt>
<totfact> 0.19768203E+01</totfact>
</mgrwt>
</event>
<event>
12    2  0.3552864E-008  0.1126610E+04  0.7818608E-02  0.9179637E-01
          2   -1    0    0  501    0  0.00000000000E+00  0.00000000000E+00  0.47472477695E+03  0.47472477695E+03  0.00000000000E+00 0. -1.
         -2   -1    0    0    0  501 -0.00000000000E+00 -0.00000000000E+00 -0.66841326909E+03  0.66841326909E+03  0.00000000000E+00 0.  1.
         23    2    1    2    0    0  0.74738804311E+02 -0.86938395547E+02  0.11224927340E+03  0.18374340146E+03  0.89540854968E+02 0.  0.
        254    2    1    2    0    0 -0.74738804311E+02  0.86938395547E+02 -0.30593776554E+03  0.95939464459E+03  0.90205099312E+03 0.  0.
         23    2    4    4    0    0 -0.41267056675E+02  0.45309573255E+03 -0.34522500947E+03  0.57827573360E+03  0.90685192197E+02 0.  0.
         23    2    4    4    0    0 -0.33471747636E+02 -0.36615733700E+03  0.39287243936E+02  0.38111891099E+03  0.92285337112E+02 0.  0.
          2    1    3    3  502    0  0.86809250683E+02 -0.44845831392E+02  0.56553755105E+02  0.11289518065E+03  0.00000000000E+00 0.  1.
         -2    1    3    3    0  502 -0.12070446371E+02 -0.42092564155E+02  0.55695518300E+02  0.70848220806E+02  0.00000000000E+00 0. -1.
         11    1    5    5    0    0 -0.24319664755E+02  0.28250861312E+03 -0.15871208783E+03  0.32494936437E+03  0.00000000000E+00 0.  1.
        -11    1    5    5    0    0 -0.16947391920E+02  0.17058711943E+03 -0.18651292164E+03  0.25332636923E+03  0.00000000000E+00 0. -1.
          1    1    6    6  503    0 -0.24694625513E+02 -0.17427141287E+02  0.42786802460E+01  0.30526003461E+02  0.00000000000E+00 0. -1.
         -1    1    6    6    0  503 -0.87771221231E+01 -0.34873019571E+03  0.35008563690E+02  0.35059290753E+03  0.00000000000E+00 0.  1.
<mgrwt>
<rscale>  0 0.11266097E+04</rscale>
<asrwt>0</asrwt>
<pdfrwt beam="1">  1        2 0.73034581E-01 0.11266097E+04</pdfrwt>
<pdfrwt beam="2">  1       -2 0.10283281E+00 0.11266097E+04</pdfrwt>
<totfact> 0.50106428E+01</totfact>
</mgrwt>
</event>
<event>
12    2  0.3552864E-008  0.1332593E+04  0.7818608E-02  0.9004110E-01
         -1   -1    0    0    0  501 -0.00000000000E+00  0.00000000000E+00  0.24938256572E+04  0.24938256572E+04  0.00000000000E+00 0.  1.
          1   -1    0    0  501    0  0.00000000000E+00 -0.00000000000E+00 -0.17802012840E+03  0.17802012840E+03  0.00000000000E+00 0. -1.
         23    2    1    2    0    0  0.17690653173E+02 -0.48456900057E+02  0.13164526851E+04  0.13210991315E+04  0.97950051973E+02 0.  0.
        254    2    1    2    0    0 -0.17690653173E+02  0.48456900057E+02  0.99935284367E+03  0.13507466541E+04  0.90727580539E+03 0.  0.
         23    2    4    4    0    0  0.30626757143E+03 -0.11071212630E+03  0.90594268644E+03  0.96690369413E+03  0.90075537158E+02 0.  0.
         23    2    4    4    0    0 -0.32395822461E+03  0.15916902636E+03  0.93410157233E+02  0.38384295997E+03  0.91248288765E+02 0.  0.
          2    1    3    3  502    0  0.39096284751E+02 -0.61882836978E+02  0.11838314318E+04  0.11860922662E+04  0.00000000000E+00 0.  1.
         -2    1    3    3    0  502 -0.21405631578E+02  0.13425936921E+02  0.13262125332E+03  0.13500686530E+03  0.00000000000E+00 0. -1.
         11    1    5    5    0    0  0.72806326955E+02  0.91652323176E+01  0.15678498022E+03  0.17310774896E+03  0.00000000000E+00 0. -1.
        -11    1    5    5    0    0  0.23346124448E+03 -0.11987735862E+03  0.74915770622E+03  0.79379594517E+03  0.00000000000E+00 0.  1.
          2    1    6    6  503    0 -0.19864002853E+03  0.54370508431E+02  0.76136499975E+02  0.21956953284E+03  0.00000000000E+00 0. -1.
         -2    1    6    6    0  503 -0.12531819608E+03  0.10479851792E+03  0.17273657258E+02  0.16427342713E+03  0.00000000000E+00 0.  1.
<mgrwt>
<rscale>  0 0.13325932E+04</rscale>
<asrwt>0</asrwt>
<pdfrwt beam="1">  1        1 0.27387714E-01 0.13325932E+04</pdfrwt>
<pdfrwt beam="2">  1       -1 0.38366546E+00 0.13325932E+04</pdfrwt>
<totfact> 0.15851205E+00</totfact>
</mgrwt>
</event>
<event>
12    2  0.3552864E-008  0.1479245E+04  0.7818608E-02  0.8898373E-01
          2   -1    0    0  501    0  0.00000000000E+00  0.00000000000E+00  0.10356321246E+04  0.10356321246E+04  0.00000000000E+00 0. -1.
         -2   -1    0    0    0  501 -0.00000000000E+00 -0.00000000000E+00 -0.52822012267E+03  0.52822012267E+03  0.00000000000E+00 0.  1.
         23    2    1    2    0    0 -0.31312570285E+03  0.32997272122E+03  0.22927512263E+03  0.51759570846E+03  0.91698053542E+02 0.  0.
        254    2    1    2    0    0  0.31312570285E+03 -0.32997272122E+03  0.27813687930E+03  0.10462565388E+04  0.90020159899E+03 0.  0.
         23    2    4    4    0    0  0.57862198198E+03 -0.30652235081E+02  0.23962091896E+03  0.63393413847E+03  0.93334610784E+02 0.  0.
         23    2    4    4    0    0 -0.26549627913E+03 -0.29932048614E+03  0.38515960337E+02  0.41232240033E+03  0.91898068322E+02 0.  0.
          1    1    3    3  502    0 -0.16973280920E+03  0.23877775263E+03  0.12737582919E+03  0.31945053378E+03  0.00000000000E+00 0. -1.
         -1    1    3    3    0  502 -0.14339289365E+03  0.91194968593E+02  0.10189929344E+03  0.19814517468E+03  0.00000000000E+00 0.  1.
         11    1    5    5    0    0  0.26930099720E+03  0.50473078088E+01  0.65563382544E+02  0.27721302195E+03  0.00000000000E+00 0. -1.
        -11    1    5    5    0    0  0.30932098478E+03 -0.35699542890E+02  0.17405753642E+03  0.35672111652E+03  0.00000000000E+00 0.  1.
          1    1    6    6  503    0 -0.25615886139E+03 -0.29168422546E+03  0.54812063028E+02  0.39204771636E+03  0.00000000000E+00 0. -1.
         -1    1    6    6    0  503 -0.93374177361E+01 -0.76362606776E+01 -0.16296102690E+02  0.20274683968E+02  0.00000000000E+00 0.  1.
<mgrwt>
<rscale>  0 0.14792454E+04</rscale>
<asrwt>0</asrwt>
<pdfrwt beam="1">  1        2 0.15932802E+00 0.14792454E+04</pdfrwt>
<pdfrwt beam="2">  1       -2 0.81264634E-01 0.14792454E+04</pdfrwt>
<totfact> 0.30869178E+01</totfact>
</mgrwt>
</event>
<event>
12    2  0.3552864E-008  0.1060546E+04  0.7818608E-02  0.9244523E-01
          1   -1    0    0  501    0  0.00000000000E+00  0.00000000000E+00  0.90231052080E+03  0.90231052080E+03  0.00000000000E+00 0. -1.
         -1   -1    0    0    0  501 -0.00000000000E+00 -0.00000000000E+00 -0.31163279281E+03  0.31163279281E+03  0.00000000000E+00 0.  1.
         23    2    1    2    0    0  0.32126953309E+02 -0.70426682424E+02 -0.29528569563E+02  0.11731176166E+03  0.83054525935E+02 0.  0.
        254    2    1    2    0    0 -0.32126953309E+02  0.70426682424E+02  0.62020629755E+03  0.10966315519E+04  0.90108426380E+03 0.  0.
         23    2    4    4    0    0 -0.44888697599E+02  0.27106685055E+03  0.77409485529E+03  0.82652231688E+03  0.91782692686E+02 0.  0.
         23    2    4    4    0    0  0.12761744289E+02 -0.20064016813E+03 -0.15388855774E+03  0.27010923506E+03  0.94116797004E+02 0.  0.
          4    1    3    3  502    0 -0.25188495933E+01  0.16814673028E+02  0.42924751170E+01  0.17535768445E+02  0.00000000000E+00 0. -1.
         -4    1    3    3    0  502  0.34645802903E+02 -0.87241355452E+02 -0.33821044680E+02  0.99775993220E+02  0.00000000000E+00 0.  1.
         11    1    5    5    0    0 -0.41475932772E+02  0.25463421150E+03  0.62026132205E+03  0.67177596138E+03  0.00000000000E+00 0. -1.
        -11    1    5    5    0    0 -0.34127648267E+01  0.16432639052E+02  0.15383353324E+03  0.15474635550E+03  0.00000000000E+00 0.  1.
          1    1    6    6  503    0 -0.15058032636E+01 -0.19303880903E+03 -0.10744248709E+03  0.22093016377E+03  0.00000000000E+00 0. -1.
         -1    1    6    6    0  503  0.14267547553E+02 -0.76013590995E+01 -0.46446070655E+02  0.49179071287E+02  0.00000000000E+00 0.  1.
<mgrwt>
<rscale>  0 0.10605462E+04</rscale>
<asrwt>0</asrwt>
<pdfrwt beam="1">  1        1 0.13881700E+00 0.10605462E+04</pdfrwt>
<pdfrwt beam="2">  1       -1 0.47943507E-01 0.10605462E+04</pdfrwt>
<totfact> 0.78643206E+01</totfact>
</mgrwt>
</event>
<event>
12    2  0.3552864E-008  0.2597062E+04  0.7818608E-02  0.8369200E-01
         -2   -1    0    0    0  501 -0.00000000000E+00  0.00000000000E+00  0.19467061594E+04  0.19467061594E+04  0.00000000000E+00 0.  1.
          2   -1    0    0  501    0  0.00000000000E+00 -0.00000000000E+00 -0.86617218118E+03  0.86617218118E+03  0.00000000000E+00 0. -1.
         23    2    1    2    0    0  0.79290603384E+03  0.29072908081E+03 -0.35737273892E+03  0.91960856770E+03  0.68856853940E+02 0.  0.
        254    2    1    2    0    0 -0.79290603384E+03 -0.29072908081E+03  0.14379067172E+04  0.18932697729E+04  0.89647717695E+03 0.  0.
         23    2    4    4    0    0 -0.27454472935E+03  0.20552587348E+03  0.96904668112E+03  0.10316904252E+04  0.87851978272E+02 0.  0.
         23    2    4    4    0    0 -0.51836130449E+03 -0.49625495429E+03  0.46886003605E+03  0.86157934775E+03  0.86728411812E+02 0.  0.
          4    1    3    3  502    0  0.63635013555E+03  0.23303966558E+03 -0.31586553971E+03  0.74767641392E+03  0.00000000000E+00 0. -1.
         -4    1    3    3    0  502  0.15655589829E+03  0.57689415229E+02 -0.41507199211E+02  0.17193215378E+03  0.00000000000E+00 0.  1.
         11    1    5    5    0    0 -0.23537284375E+03  0.14425563581E+03  0.83108960066E+03  0.87573968070E+03  0.00000000000E+00 0. -1.
        -11    1    5    5    0    0 -0.39171885601E+02  0.61270237672E+02  0.13795708047E+03  0.15595074446E+03  0.00000000000E+00 0.  1.
          3    1    6    6  503    0 -0.47098613960E+03 -0.48065182524E+03  0.43772180426E+03  0.80277923412E+03  0.00000000000E+00 0. -1.
         -3    1    6    6    0  503 -0.47375164891E+02 -0.15603129050E+02  0.31138231789E+02  0.58800113635E+02  0.00000000000E+00 0.  1.
<mgrwt>
<rscale>  0 0.25970620E+04</rscale>
<asrwt>0</asrwt>
<pdfrwt beam="1">  1        2 0.13325726E+00 0.25970620E+04</pdfrwt>
<pdfrwt beam="2">  1       -2 0.29949325E+00 0.25970620E+04</pdfrwt>
<totfact> 0.87604251E-01</totfact>
</mgrwt>
</event>
<event>
12    2  0.3552864E-008  0.2657198E+04  0.7818608E-02  0.8349028E-01
          2   -1    0    0  501    0  0.00000000000E+00  0.00000000000E+00  0.25930857697E+04  0.25930857697E+04  0.00000000000E+00 0. -1.
         -2   -1    0    0    0  501 -0.00000000000E+00 -0.00000000000E+00 -0.68072406238E+03  0.68072406238E+03  0.00000000000E+00 0.  1.
         23    2    1    2    0    0 -0.84810396145E+03  0.74248709795E+03  0.44704976027E+03  0.12158881039E+04  0.89235491761E+02 0.  0.
        254    2    1    2    0    0  0.84810396145E+03 -0.74248709795E+03  0.14653119470E+04  0.20579217281E+04  0.90406599156E+03 0.  0.
         23    2    4    4    0    0  0.80772128097E+03 -0.19034786565E+03  0.60576988766E+03  0.10314561677E+04  0.91097153991E+02 0.  0.
         23    2    4    4    0    0  0.40382680479E+02 -0.55213923230E+03  0.85954205935E+03  0.10264655604E+04  0.91271584889E+02 0.  0.
          1    1    3    3  502    0 -0.76485565217E+01 -0.54185679472E+00  0.83830939172E+01  0.11360910583E+02  0.00000000000E+00 0. -1.
         -1    1    3    3    0  502 -0.84045540492E+03  0.74302895474E+03  0.43866666635E+03  0.12045271933E+04  0.00000000000E+00 0.  1.
         11    1    5    5    0    0  0.54778620418E+03 -0.16416440818E+03  0.44610293478E+03  0.72527753779E+03  0.00000000000E+00 0. -1.
        -11    1    5    5    0    0  0.25993507678E+03 -0.26183457463E+02  0.15966695289E+03  0.30617862994E+03  0.00000000000E+00 0.  1.
          2    1    6    6  503    0 -0.24449173817E+02 -0.19489204569E+03  0.33928977857E+03  0.39204365244E+03  0.00000000000E+00 0. -1.
         -2    1    6    6    0  503  0.64831854296E+02 -0.35724718661E+03  0.52025228078E+03  0.63442190798E+03  0.00000000000E+00 0.  1.
<mgrwt>
<rscale>  0 0.26571984E+04</rscale>
<asrwt>0</asrwt>
<pdfrwt beam="1">  1        2 0.39893627E+00 0.26571984E+04</pdfrwt>
<pdfrwt beam="2">  1       -2 0.10472678E+00 0.26571984E+04</pdfrwt>
<totfact> 0.19999234E+00</totfact>
</mgrwt>
</event>
<event>
12    2  0.3552864E-008  0.1145700E+04  0.7818608E-02  0.9161760E-01
         -1   -1    0    0    0  501 -0.00000000000E+00  0.00000000000E+00  0.14194024390E+04  0.14194024390E+04  0.00000000000E+00 0.  1.
          1   -1    0    0  501    0  0.00000000000E+00 -0.00000000000E+00 -0.23119375868E+03  0.23119375868E+03  0.00000000000E+00 0. -1.
         23    2    1    2    0    0 -0.21100478704E+03  0.10789659504E+02  0.19122673883E+03  0.29892673563E+03  0.90277852928E+02 0.  0.
        254    2    1    2    0    0  0.21100478704E+03 -0.10789659504E+02  0.99698194148E+03  0.13516694620E+04  0.88791773608E+03 0.  0.
         23    2    4    4    0    0  0.43826254810E+03  0.28261654906E+03  0.61486771160E+03  0.81134393669E+03  0.90942322191E+02 0.  0.
         23    2    4    4    0    0 -0.22725776106E+03 -0.29340620857E+03  0.38211422988E+03  0.54032552534E+03  0.90593021084E+02 0.  0.
          4    1    3    3  502    0 -0.10646028280E+02 -0.80341777329E+01  0.53330979845E+02  0.54973442144E+02  0.00000000000E+00 0.  1.
         -4    1    3    3    0  502 -0.20035875876E+03  0.18823837237E+02  0.13789575898E+03  0.24395329349E+03  0.00000000000E+00 0. -1.
         11    1    5    5    0    0  0.71597485996E+02  0.34927567322E+02  0.14816462529E+03  0.16822274266E+03  0.00000000000E+00 0. -1.
        -11    1    5    5    0    0  0.36666506210E+03  0.24768898174E+03  0.46670308631E+03  0.64312119403E+03  0.00000000000E+00 0.  1.
          1    1    6    6  503    0 -0.74685051636E+01  0.16677328076E+01 -0.25115325556E+01  0.80540485394E+01  0.00000000000E+00 0. -1.
         -1    1    6    6    0  503 -0.21978925590E+03 -0.29507394137E+03  0.38462576244E+03  0.53227147680E+03  0.00000000000E+00 0.  1.
<mgrwt>
<rscale>  0 0.11456998E+04</rscale>
<asrwt>0</asrwt>
<pdfrwt beam="1">  1        1 0.35568271E-01 0.11456998E+04</pdfrwt>
<pdfrwt beam="2">  1       -1 0.21836960E+00 0.11456998E+04</pdfrwt>
<totfact> 0.13824400E+01</totfact>
</mgrwt>
</event>
<event>
12    2  0.3552864E-008  0.1877095E+04  0.7818608E-02  0.8666342E-01
         -1   -1    0    0    0  501 -0.00000000000E+00  0.00000000000E+00  0.65076893064E+03  0.65076893064E+03  0.00000000000E+00 0.  1.
          1   -1    0    0  501    0  0.00000000000E+00 -0.00000000000E+00 -0.13535857912E+04  0.13535857912E+04  0.00000000000E+00 0. -1.
         23    2    1    2    0    0  0.40219590439E+03 -0.33471810175E+03  0.25707650417E+03  0.59021169343E+03  0.91998700670E+02 0.  0.
        254    2    1    2    0    0 -0.40219590439E+03  0.33471810175E+03 -0.95989336475E+03  0.14141430284E+04  0.89699915274E+03 0.  0.
         23    2    4    4    0    0 -0.11126220323E+03  0.49709223353E+03 -0.15934017095E+03  0.54211197311E+03  0.94953329605E+02 0.  0.
         23    2    4    4    0    0 -0.29093370115E+03 -0.16237413178E+03 -0.80055319380E+03  0.87203105532E+03  0.92438997183E+02 0.  0.
          4    1    3    3  502    0  0.13374386879E+03 -0.64455327819E+02  0.94838411377E+02  0.17617104188E+03  0.00000000000E+00 0. -1.
         -4    1    3    3    0  502  0.26845203560E+03 -0.27026277393E+03  0.16223809279E+03  0.41404065155E+03  0.00000000000E+00 0.  1.
         11    1    5    5    0    0  0.29410558805E+01  0.19135779561E+03 -0.48423624061E+02  0.19741150706E+03  0.00000000000E+00 0. -1.
        -11    1    5    5    0    0 -0.11420325911E+03  0.30573443792E+03 -0.11091654689E+03  0.34470046605E+03  0.00000000000E+00 0.  1.
          4    1    6    6  503    0 -0.17285498996E+03 -0.72854873955E+02 -0.34111619301E+03  0.38929029958E+03  0.00000000000E+00 0. -1.
         -4    1    6    6    0  503 -0.11807871120E+03 -0.89519257829E+02 -0.45943700078E+03  0.48274075574E+03  0.00000000000E+00 0.  1.
<mgrwt>
<rscale>  0 0.18770952E+04</rscale>
<asrwt>0</asrwt>
<pdfrwt beam="1">  1        1 0.20824397E+00 0.18770952E+04</pdfrwt>
<pdfrwt beam="2">  1       -1 0.10011830E+00 0.18770952E+04</pdfrwt>
<totfact> 0.73826328E+00</totfact>
</mgrwt>
</event>
<event>
12    2  0.3552864E-008  0.1611898E+04  0.7818608E-02  0.8813272E-01
          2   -1    0    0  501    0  0.00000000000E+00  0.00000000000E+00  0.52942413939E+03  0.52942413939E+03  0.00000000000E+00 0. -1.
         -2   -1    0    0    0  501 -0.00000000000E+00 -0.00000000000E+00 -0.12269059678E+04  0.12269059678E+04  0.00000000000E+00 0.  1.
         23    2    1    2    0    0  0.40120145011E+03 -0.18589477925E+03 -0.58720100306E+03  0.74101554950E+03  0.93699274741E+02 0.  0.
        254    2    1    2    0    0 -0.40120145011E+03  0.18589477925E+03 -0.11028082532E+03  0.10153145577E+04  0.90729395349E+03 0.  0.
         23    2    4    4    0    0  0.83627637987E+02  0.39756863232E+03 -0.21314125124E+03  0.46799412016E+03  0.92384545703E+02 0.  0.
         23    2    4    4    0    0 -0.48482908810E+03 -0.21167385307E+03  0.10286042592E+03  0.54732043749E+03  0.95468996739E+02 0.  0.
          2    1    3    3  502    0  0.47244901052E+02 -0.56120429652E+02 -0.73735413279E+02  0.10401199196E+03  0.00000000000E+00 0. -1.
         -2    1    3    3    0  502  0.35395654906E+03 -0.12977434960E+03 -0.51346558978E+03  0.63700355755E+03  0.00000000000E+00 0.  1.
         11    1    5    5    0    0  0.23970115126E+02  0.30200164761E+03 -0.16975255006E+03  0.34726861336E+03  0.00000000000E+00 0. -1.
        -11    1    5    5    0    0  0.59657522861E+02  0.95566984718E+02 -0.43388701179E+02  0.12072550680E+03  0.00000000000E+00 0.  1.
          1    1    6    6  503    0 -0.47470469614E+03 -0.20536667233E+03  0.82554580085E+02  0.52377025243E+03  0.00000000000E+00 0. -1.
         -1    1    6    6    0  503 -0.10124391959E+02 -0.63071807471E+01  0.20305845834E+02  0.23550185064E+02  0.00000000000E+00 0.  1.
<mgrwt>
<rscale>  0 0.16118978E+04</rscale>
<asrwt>0</asrwt>
<pdfrwt beam="1">  1        2 0.81449869E-01 0.16118978E+04</pdfrwt>
<pdfrwt beam="2">  1       -2 0.18875476E+00 0.16118978E+04</pdfrwt>
<totfact> 0.87098632E+00</totfact>
</mgrwt>
</event>
<event>
12    2  0.3552864E-008  0.1298602E+04  0.7818608E-02  0.9030675E-01
          2   -1    0    0  501    0  0.00000000000E+00  0.00000000000E+00  0.27416055234E+03  0.27416055234E+03  0.00000000000E+00 0. -1.
         -2   -1    0    0    0  501 -0.00000000000E+00 -0.00000000000E+00 -0.15377548037E+04  0.15377548037E+04  0.00000000000E+00 0.  1.
         23    2    1    2    0    0  0.29013297335E+03 -0.57817037966E+02 -0.57166985988E+03  0.65020973290E+03  0.91903840871E+02 0.  0.
        254    2    1    2    0    0 -0.29013297335E+03  0.57817037966E+02 -0.69192439151E+03  0.11617056232E+04  0.88503143403E+03 0.  0.
         23    2    4    4    0    0 -0.40667229331E+03 -0.23782217244E+03 -0.10953548276E+03  0.49201441543E+03  0.90213209450E+02 0.  0.
         23    2    4    4    0    0  0.11653931996E+03  0.29563921040E+03 -0.58238890875E+03  0.66969120773E+03  0.91244270293E+02 0.  0.
          2    1    3    3  502    0  0.18117041210E+03 -0.36185248499E+02 -0.25705754964E+03  0.31656069601E+03  0.00000000000E+00 0.  1.
         -2    1    3    3    0  502  0.10896256125E+03 -0.21631789466E+02 -0.31461231024E+03  0.33364903690E+03  0.00000000000E+00 0. -1.
         11    1    5    5    0    0 -0.37872868833E+03 -0.20818443517E+03 -0.75052024870E+02  0.43864448571E+03  0.00000000000E+00 0.  1.
        -11    1    5    5    0    0 -0.27943604979E+02 -0.29637737270E+02 -0.34483457893E+02  0.53369929716E+02  0.00000000000E+00 0. -1.
          2    1    6    6  503    0  0.52608626566E+02  0.82382039007E+02 -0.10804519616E+03  0.14569911583E+03  0.00000000000E+00 0. -1.
         -2    1    6    6    0  503  0.63930693394E+02  0.21325717140E+03 -0.47434371258E+03  0.52399209190E+03  0.00000000000E+00 0.  1.
<mgrwt>
<rscale>  0 0.12986019E+04</rscale>
<asrwt>0</asrwt>
<pdfrwt beam="1">  1        2 0.42178546E-01 0.12986019E+04</pdfrwt>
<pdfrwt beam="2">  1       -2 0.23657766E+00 0.12986019E+04</pdfrwt>
<totfact> 0.92654681E+00</totfact>
</mgrwt>
</event>
<event>
12    2  0.3552864E-008  0.1153332E+04  0.7818608E-02  0.9154715E-01
          2   -1    0    0  501    0  0.00000000000E+00  0.00000000000E+00  0.27621639089E+03  0.27621639089E+03  0.00000000000E+00 0. -1.
         -2   -1    0    0    0  501 -0.00000000000E+00 -0.00000000000E+00 -0.12039241492E+04  0.12039241492E+04  0.00000000000E+00 0.  1.
         23    2    1    2    0    0  0.21190957549E+02  0.98633614832E+01 -0.45917994561E+03  0.46853668294E+03  0.90189013899E+02 0.  0.
        254    2    1    2    0    0 -0.21190957549E+02 -0.98633614832E+01 -0.46852781275E+03  0.10116038572E+04  0.89625761363E+03 0.  0.
         23    2    4    4    0    0 -0.26095536283E+03 -0.32425500208E+03 -0.42780368784E+03  0.60391498643E+03  0.91969058603E+02 0.  0.
         23    2    4    4    0    0  0.23976440528E+03  0.31439164060E+03 -0.40724124906E+02  0.40768887076E+03  0.90679034363E+02 0.  0.
          3    1    3    3  502    0 -0.19788386619E+02  0.31316047843E+02 -0.31371837248E+03  0.31589791441E+03  0.00000000000E+00 0. -1.
         -3    1    3    3    0  502  0.40979344169E+02 -0.21452686360E+02 -0.14546157313E+03  0.15263876852E+03  0.00000000000E+00 0.  1.
         11    1    5    5    0    0 -0.18102856531E+03 -0.28337109262E+03 -0.32954354320E+03  0.47081786761E+03  0.00000000000E+00 0. -1.
        -11    1    5    5    0    0 -0.79926797523E+02 -0.40883909460E+02 -0.98260144640E+02  0.13309711883E+03  0.00000000000E+00 0.  1.
          1    1    6    6  503    0  0.13078728502E+03  0.23806170165E+03 -0.40593703960E+02  0.27463892026E+03  0.00000000000E+00 0. -1.
         -1    1    6    6    0  503  0.10897712026E+03  0.76329938945E+02 -0.13042094600E+00  0.13304995051E+03  0.00000000000E+00 0.  1.
<mgrwt>
<rscale>  0 0.11533318E+04</rscale>
<asrwt>0</asrwt>
<pdfrwt beam="1">  1        2 0.42494829E-01 0.11533318E+04</pdfrwt>
<pdfrwt beam="2">  1       -2 0.18521910E+00 0.11533318E+04</pdfrwt>
<totfact> 0.19877690E+01</totfact>
</mgrwt>
</event>
<event>
12    2  0.3552864E-008  0.1494557E+04  0.7818608E-02  0.8888080E-01
         -2   -1    0    0    0  501 -0.00000000000E+00  0.00000000000E+00  0.66441374806E+03  0.66441374806E+03  0.00000000000E+00 0.  1.
          2   -1    0    0  501    0  0.00000000000E+00 -0.00000000000E+00 -0.84047825514E+03  0.84047825514E+03  0.00000000000E+00 0. -1.
         23    2    1    2    0    0 -0.43841570037E+03 -0.12154830579E+03 -0.17511080306E+03  0.49648899533E+03  0.94102136845E+02 0.  0.
        254    2    1    2    0    0  0.43841570037E+03  0.12154830579E+03 -0.95370401605E+00  0.10084030079E+04  0.89994077571E+03 0.  0.
         23    2    4    4    0    0  0.11054959253E+03  0.45979929747E+03 -0.15288395966E+03  0.50524121132E+03  0.90876675395E+02 0.  0.
         23    2    4    4    0    0  0.32786610784E+03 -0.33825099168E+03  0.15193025565E+03  0.50316179656E+03  0.90438226993E+02 0.  0.
          1    1    3    3  502    0 -0.10552366717E+03 -0.38509340760E+02 -0.87496097253E+02  0.14238602703E+03  0.00000000000E+00 0. -1.
         -1    1    3    3    0  502 -0.33289203320E+03 -0.83038965031E+02 -0.87614705809E+02  0.35410296830E+03  0.00000000000E+00 0.  1.
         11    1    5    5    0    0 -0.12108893794E+02  0.11407816387E+03 -0.36745201240E+02  0.12046021166E+03  0.00000000000E+00 0. -1.
        -11    1    5    5    0    0  0.12265848632E+03  0.34572113360E+03 -0.11613875842E+03  0.38478099965E+03  0.00000000000E+00 0.  1.
          4    1    6    6  503    0  0.84472411789E+02 -0.80802387191E+02  0.79987970490E+02  0.14164282386E+03  0.00000000000E+00 0.  1.
         -4    1    6    6    0  503  0.24339369605E+03 -0.25744860449E+03  0.71942285157E+02  0.36151897270E+03  0.00000000000E+00 0. -1.
<mgrwt>
<rscale>  0 0.14945572E+04</rscale>
<asrwt>0</asrwt>
<pdfrwt beam="1">  1        2 0.12930435E+00 0.14945572E+04</pdfrwt>
<pdfrwt beam="2">  1       -2 0.10221750E+00 0.14945572E+04</pdfrwt>
<totfact> 0.24427271E+01</totfact>
</mgrwt>
</event>
<event>
12    2  0.3552864E-008  0.1295761E+04  0.7818608E-02  0.9032934E-01
          2   -1    0    0  501    0  0.00000000000E+00  0.00000000000E+00  0.23104376318E+04  0.23104376318E+04  0.00000000000E+00 0. -1.
         -2   -1    0    0    0  501 -0.00000000000E+00 -0.00000000000E+00 -0.18167510647E+03  0.18167510647E+03  0.00000000000E+00 0.  1.
         23    2    1    2    0    0  0.13986811225E+02  0.32557535463E+03  0.63079363541E+03  0.71610258794E+03  0.93313255003E+02 0.  0.
        254    2    1    2    0    0 -0.13986811225E+02 -0.32557535463E+03  0.14979688900E+04  0.17760101504E+04  0.89671975358E+03 0.  0.
         23    2    4    4    0    0 -0.45716106113E+02  0.14285832002E+03  0.11991876010E+04  0.12119843372E+04  0.91414819750E+02 0.  0.
         23    2    4    4    0    0  0.31729294888E+02 -0.46843367465E+03  0.29878128893E+03  0.56402581313E+03  0.91749678774E+02 0.  0.
          2    1    3    3  502    0  0.14175716751E+02  0.17869720964E+03  0.24723390747E+03  0.30538213550E+03  0.00000000000E+00 0.  1.
         -2    1    3    3    0  502 -0.18890552583E+00  0.14687814498E+03  0.38355972794E+03  0.41072045245E+03  0.00000000000E+00 0. -1.
         11    1    5    5    0    0 -0.60799481007E+02  0.13686292491E+03  0.90150546163E+03  0.91386001907E+03  0.00000000000E+00 0.  1.
        -11    1    5    5    0    0  0.15083374895E+02  0.59953951127E+01  0.29768213941E+03  0.29812431817E+03  0.00000000000E+00 0. -1.
          1    1    6    6  503    0  0.39945892158E+02 -0.36850233772E+03  0.27343201472E+03  0.46060255522E+03  0.00000000000E+00 0. -1.
         -1    1    6    6    0  503 -0.82165972697E+01 -0.99931336935E+02  0.25349274209E+02  0.10342325790E+03  0.00000000000E+00 0.  1.
<mgrwt>
<rscale>  0 0.12957608E+04</rscale>
<asrwt>0</asrwt>
<pdfrwt beam="1">  1        2 0.35545192E+00 0.12957608E+04</pdfrwt>
<pdfrwt beam="2">  1       -2 0.27950018E-01 0.12957608E+04</pdfrwt>
<totfact> 0.51437125E+01</totfact>
</mgrwt>
</event>
<event>
12    2  0.3552864E-008  0.1183890E+04  0.7818608E-02  0.9127075E-01
          1   -1    0    0  501    0  0.00000000000E+00  0.00000000000E+00  0.15932478242E+04  0.15932478242E+04  0.00000000000E+00 0. -1.
         -1   -1    0    0    0  501 -0.00000000000E+00 -0.00000000000E+00 -0.21992756052E+03  0.21992756052E+03  0.00000000000E+00 0.  1.
         23    2    1    2    0    0 -0.75574762573E+02 -0.57781059684E+02  0.63417787677E+03  0.64764510603E+03  0.90622339321E+02 0.  0.
        254    2    1    2    0    0  0.75574762573E+02  0.57781059684E+02  0.73914238692E+03  0.11655302787E+04  0.89614684445E+03 0.  0.
         23    2    4    4    0    0 -0.49719281013E+02 -0.37036358883E+03  0.55128972848E+03  0.67293092731E+03  0.96304067214E+02 0.  0.
         23    2    4    4    0    0  0.12529404359E+03  0.42814464852E+03  0.18785265844E+03  0.49259935139E+03  0.91427907644E+02 0.  0.
          3    1    3    3  502    0 -0.78482825777E+02 -0.37133155613E+02  0.60804577880E+03  0.61421339476E+03  0.00000000000E+00 0. -1.
         -3    1    3    3    0  502  0.29080632039E+01 -0.20647904071E+02  0.26132097976E+02  0.33431711274E+02  0.00000000000E+00 0.  1.
         11    1    5    5    0    0  0.11816886559E+02 -0.58988158926E+02  0.14772570724E+03  0.15950588165E+03  0.00000000000E+00 0. -1.
        -11    1    5    5    0    0 -0.61536167571E+02 -0.31137542991E+03  0.40356402124E+03  0.51342504566E+03  0.00000000000E+00 0.  1.
          4    1    6    6  503    0  0.40546948308E+02  0.24157409969E+03  0.64052089247E+02  0.25318919960E+03  0.00000000000E+00 0. -1.
         -4    1    6    6    0  503  0.84747095277E+02  0.18657054883E+03  0.12380056919E+03  0.23941015179E+03  0.00000000000E+00 0.  1.
<mgrwt>
<rscale>  0 0.11838904E+04</rscale>
<asrwt>0</asrwt>
<pdfrwt beam="1">  1        1 0.24511504E+00 0.11838904E+04</pdfrwt>
<pdfrwt beam="2">  1       -1 0.33835010E-01 0.11838904E+04</pdfrwt>
<totfact> 0.46075895E+01</totfact>
</mgrwt>
</event>
<event>
12    2  0.3552864E-008  0.1524200E+04  0.7818608E-02  0.8868518E-01
         -1   -1    0    0    0  501 -0.00000000000E+00  0.00000000000E+00  0.53605072482E+03  0.53605072482E+03  0.00000000000E+00 0.  1.
          1   -1    0    0  501    0  0.00000000000E+00 -0.00000000000E+00 -0.10834723164E+04  0.10834723164E+04  0.00000000000E+00 0. -1.
         23    2    1    2    0    0  0.23197578026E+03  0.98186115011E+02  0.26861850019E+03  0.37956720675E+03  0.91989618944E+02 0.  0.
        254    2    1    2    0    0 -0.23197578026E+03 -0.98186115011E+02 -0.81604009177E+03  0.12399558345E+04  0.89895259287E+03 0.  0.
         23    2    4    4    0    0 -0.23531810454E+03 -0.45270040018E+03 -0.27484221429E+03  0.58647470046E+03  0.90011493041E+02 0.  0.
         23    2    4    4    0    0  0.33423242791E+01  0.35451428517E+03 -0.54119787748E+03  0.65348113400E+03  0.91928778878E+02 0.  0.
          3    1    3    3  502    0  0.78691790863E+02 -0.10329292958E+02  0.65252003055E+02  0.10274685467E+03  0.00000000000E+00 0. -1.
         -3    1    3    3    0  502  0.15328398939E+03  0.10851540797E+03  0.20336649713E+03  0.27682035208E+03  0.00000000000E+00 0.  1.
         11    1    5    5    0    0 -0.11725079266E+03 -0.13344662942E+03 -0.98546090733E+02  0.20314301189E+03  0.00000000000E+00 0.  1.
        -11    1    5    5    0    0 -0.11806731188E+03 -0.31925377076E+03 -0.17629612356E+03  0.38333168857E+03  0.00000000000E+00 0. -1.
          2    1    6    6  503    0 -0.40749880336E+02  0.15867109254E+03 -0.21225944942E+03  0.26812523608E+03  0.00000000000E+00 0. -1.
         -2    1    6    6    0  503  0.44092204615E+02  0.19584319262E+03 -0.32893842806E+03  0.38535589792E+03  0.00000000000E+00 0.  1.
<mgrwt>
<rscale>  0 0.15241996E+04</rscale>
<asrwt>0</asrwt>
<pdfrwt beam="1">  1        1 0.16668805E+00 0.15241996E+04</pdfrwt>
<pdfrwt beam="2">  1       -1 0.82469343E-01 0.15241996E+04</pdfrwt>
<totfact> 0.18415930E+01</totfact>
</mgrwt>
</event>
<event>
12    2  0.3552864E-008  0.1610848E+04  0.7818608E-02  0.8813911E-01
          2   -1    0    0  501    0  0.00000000000E+00  0.00000000000E+00  0.75162213042E+03  0.75162213042E+03  0.00000000000E+00 0.  1.
         -2   -1    0    0    0  501 -0.00000000000E+00 -0.00000000000E+00 -0.86307702949E+03  0.86307702949E+03  0.00000000000E+00 0. -1.
         23    2    1    2    0    0  0.41109220413E+03  0.10801191956E+03 -0.36324015103E+03  0.56605786243E+03  0.88400911968E+02 0.  0.
        254    2    1    2    0    0 -0.41109220413E+03 -0.10801191956E+03  0.25178525196E+03  0.10486412975E+04  0.92498074716E+03 0.  0.
         23    2    4    4    0    0  0.23814845955E+03  0.16212615316E+03  0.20129176826E+02  0.30298117233E+03  0.91612382900E+02 0.  0.
         23    2    4    4    0    0 -0.64924066368E+03 -0.27013807272E+03  0.23165607514E+03  0.74566012515E+03  0.88636715804E+02 0.  0.
          4    1    3    3  502    0  0.31956040491E+03  0.54750727933E+02 -0.23887448043E+03  0.40271269162E+03  0.00000000000E+00 0. -1.
         -4    1    3    3    0  502  0.91531799222E+02  0.53261191625E+02 -0.12436567060E+03  0.16334517081E+03  0.00000000000E+00 0.  1.
         11    1    5    5    0    0  0.29283487029E+02  0.57536660490E+02 -0.16258118475E+02  0.66575643664E+02  0.00000000000E+00 0. -1.
        -11    1    5    5    0    0  0.20886497252E+03  0.10458949267E+03  0.36387295300E+02  0.23640552867E+03  0.00000000000E+00 0.  1.
          3    1    6    6  503    0 -0.45626739747E+02 -0.10278143740E+02  0.38810926845E+02  0.60776045127E+02  0.00000000000E+00 0. -1.
         -3    1    6    6    0  503 -0.60361392393E+03 -0.25985992898E+03  0.19284514829E+03  0.68488408003E+03  0.00000000000E+00 0.  1.
<mgrwt>
<rscale>  0 0.16108480E+04</rscale>
<asrwt>0</asrwt>
<pdfrwt beam="1">  1        2 0.11563417E+00 0.16108480E+04</pdfrwt>
<pdfrwt beam="2">  1       -2 0.13278108E+00 0.16108480E+04</pdfrwt>
<totfact> 0.14741841E+01</totfact>
</mgrwt>
</event>
<event>
12    2  0.3552864E-008  0.2079678E+04  0.7818608E-02  0.8570249E-01
          1   -1    0    0  501    0  0.00000000000E+00  0.00000000000E+00  0.10132662564E+04  0.10132662564E+04  0.00000000000E+00 0. -1.
         -1   -1    0    0    0  501 -0.00000000000E+00 -0.00000000000E+00 -0.10671082790E+04  0.10671082790E+04  0.00000000000E+00 0.  1.
         23    2    1    2    0    0 -0.18191951993E+03 -0.56436596131E+03 -0.58683639484E+03  0.84312092495E+03  0.12195199785E+03 0.  0.
        254    2    1    2    0    0  0.18191951993E+03  0.56436596131E+03  0.53299437224E+03  0.12372536105E+04  0.94610244999E+03 0.  0.
         23    2    4    4    0    0 -0.30955006509E+03  0.12684833823E+02  0.33905233995E+03  0.46832448990E+03  0.91592525921E+02 0.  0.
         23    2    4    4    0    0  0.49146958502E+03  0.55168112748E+03  0.19394203228E+03  0.76892912061E+03  0.88000347797E+02 0.  0.
          2    1    3    3  502    0 -0.13512056011E+03 -0.28974965015E+03 -0.24893800517E+03  0.40519446682E+03  0.00000000000E+00 0. -1.
         -2    1    3    3    0  502 -0.46798959822E+02 -0.27461631116E+03 -0.33789838966E+03  0.43792645813E+03  0.00000000000E+00 0.  1.
         11    1    5    5    0    0 -0.21485647370E+03 -0.33819988224E+02  0.22382196668E+03  0.31209512759E+03  0.00000000000E+00 0. -1.
        -11    1    5    5    0    0 -0.94693591393E+02  0.46504822048E+02  0.11523037327E+03  0.15622936231E+03  0.00000000000E+00 0.  1.
          3    1    6    6  503    0  0.25630769638E+02  0.77476162197E+01 -0.75231652204E+00  0.26786711061E+02  0.00000000000E+00 0. -1.
         -3    1    6    6    0  503  0.46583881538E+03  0.54393351126E+03  0.19469434880E+03  0.74214240955E+03  0.00000000000E+00 0.  1.
<mgrwt>
<rscale>  0 0.20796777E+04</rscale>
<asrwt>0</asrwt>
<pdfrwt beam="1">  1        1 0.15588712E+00 0.20796777E+04</pdfrwt>
<pdfrwt beam="2">  1       -1 0.16417051E+00 0.20796777E+04</pdfrwt>
<totfact> 0.37003703E+00</totfact>
</mgrwt>
</event>
<event>
12    2  0.3552864E-008  0.1431442E+04  0.7818608E-02  0.8931368E-01
         -1   -1    0    0    0  501 -0.00000000000E+00  0.00000000000E+00  0.41925493581E+03  0.41925493581E+03  0.00000000000E+00 0.  1.
          1   -1    0    0  501    0  0.00000000000E+00 -0.00000000000E+00 -0.12218263891E+04  0.12218263891E+04  0.00000000000E+00 0. -1.
         23    2    1    2    0    0  0.10518391685E+03  0.32124184402E+03  0.54690111454E+02  0.35447501423E+03  0.91659962439E+02 0.  0.
        254    2    1    2    0    0 -0.10518391685E+03 -0.32124184402E+03 -0.85726156478E+03  0.12866063107E+04  0.89788553256E+03 0.  0.
         23    2    4    4    0    0 -0.37049561252E+03 -0.23118263676E+02 -0.78263193307E+03  0.87110774547E+03  0.92274094686E+02 0.  0.
         23    2    4    4    0    0  0.26531169567E+03 -0.29812358034E+03 -0.74629631712E+02  0.41549856524E+03  0.88326161313E+02 0.  0.
          2    1    3    3  502    0  0.28276973652E+02  0.87224228251E+02 -0.25926024482E+02  0.95288047406E+02  0.00000000000E+00 0. -1.
         -2    1    3    3    0  502  0.76906943199E+02  0.23401761576E+03  0.80616135936E+02  0.25918696683E+03  0.00000000000E+00 0.  1.
         11    1    5    5    0    0 -0.29340855657E+03  0.20053335885E+02 -0.60862374358E+03  0.67595382875E+03  0.00000000000E+00 0. -1.
        -11    1    5    5    0    0 -0.77087055945E+02 -0.43171599562E+02 -0.17400818949E+03  0.19515391672E+03  0.00000000000E+00 0.  1.
          2    1    6    6  503    0  0.69108494111E+02 -0.45067813216E+02  0.12985298199E+02  0.83520714291E+02  0.00000000000E+00 0. -1.
         -2    1    6    6    0  503  0.19620320155E+03 -0.25305576712E+03 -0.87614929912E+02  0.33197785095E+03  0.00000000000E+00 0.  1.
<mgrwt>
<rscale>  0 0.14314423E+04</rscale>
<asrwt>0</asrwt>
<pdfrwt beam="1">  1        1 0.18797329E+00 0.14314423E+04</pdfrwt>
<pdfrwt beam="2">  1       -1 0.64500760E-01 0.14314423E+04</pdfrwt>
<totfact> 0.24419461E+01</totfact>
</mgrwt>
</event>
<event>
12    2  0.3552864E-008  0.1558458E+04  0.7818608E-02  0.8846483E-01
          1   -1    0    0  501    0  0.00000000000E+00  0.00000000000E+00  0.35786907903E+04  0.35786907903E+04  0.00000000000E+00 0. -1.
         -1   -1    0    0    0  501 -0.00000000000E+00 -0.00000000000E+00 -0.16967047516E+03  0.16967047516E+03  0.00000000000E+00 0.  1.
         23    2    1    2    0    0 -0.25560839542E+02  0.51288165406E+03  0.11482266429E+04  0.12611541295E+04  0.91566190099E+02 0.  0.
        254    2    1    2    0    0  0.25560839542E+02 -0.51288165406E+03  0.22607936722E+04  0.24872071360E+04  0.90072768438E+03 0.  0.
         23    2    4    4    0    0  0.37375770660E+03 -0.55409816127E+03  0.14480138041E+04  0.15974495180E+04  0.91549931149E+02 0.  0.
         23    2    4    4    0    0 -0.34819686706E+03  0.41216507217E+02  0.81277986806E+03  0.88975761801E+03  0.90097981062E+02 0.  0.
          3    1    3    3  502    0  0.11297848972E+02  0.11095009353E+03  0.33868301567E+03  0.35657222235E+03  0.00000000000E+00 0. -1.
         -3    1    3    3    0  502 -0.36858688514E+02  0.40193156052E+03  0.80954362725E+03  0.90458190712E+03  0.00000000000E+00 0.  1.
         11    1    5    5    0    0  0.14377451953E+02 -0.30136546138E+02  0.36163742196E+02  0.49221324519E+02  0.00000000000E+00 0.  1.
        -11    1    5    5    0    0  0.35938025465E+03 -0.52396161514E+03  0.14118500619E+04  0.15482281934E+04  0.00000000000E+00 0. -1.
          2    1    6    6  503    0 -0.30727261841E+03  0.55758234099E+02  0.64762878309E+03  0.71899129576E+03  0.00000000000E+00 0. -1.
         -2    1    6    6    0  503 -0.40924248644E+02 -0.14541726882E+02  0.16515108497E+03  0.17076632225E+03  0.00000000000E+00 0.  1.
<mgrwt>
<rscale>  0 0.15584584E+04</rscale>
<asrwt>0</asrwt>
<pdfrwt beam="1">  1        1 0.55056776E+00 0.15584584E+04</pdfrwt>
<pdfrwt beam="2">  1       -1 0.26103153E-01 0.15584584E+04</pdfrwt>
<totfact> 0.27399857E+00</totfact>
</mgrwt>
</event>
<event>
12    2  0.3552864E-008  0.2135952E+04  0.7818608E-02  0.8545569E-01
         -1   -1    0    0    0  501 -0.00000000000E+00  0.00000000000E+00  0.75058139814E+03  0.75058139814E+03  0.00000000000E+00 0.  1.
          1   -1    0    0  501    0  0.00000000000E+00 -0.00000000000E+00 -0.15195861456E+04  0.15195861456E+04  0.00000000000E+00 0. -1.
         23    2    1    2    0    0  0.22876763790E+03 -0.62211295642E+01 -0.12125016066E+04  0.12370810219E+04  0.88521036904E+02 0.  0.
        254    2    1    2    0    0 -0.22876763790E+03  0.62211295642E+01  0.44349685922E+03  0.10330865218E+04  0.90454682734E+03 0.  0.
         23    2    4    4    0    0 -0.38033129599E+01  0.41393454799E+03  0.35023195907E+03  0.54960430015E+03  0.89700537222E+02 0.  0.
         23    2    4    4    0    0 -0.22496432494E+03 -0.40771341843E+03  0.93264900149E+02  0.48348222168E+03  0.90650637168E+02 0.  0.
          1    1    3    3  502    0  0.23238454949E+03 -0.49016081098E+01 -0.12107356386E+04  0.12328452422E+04  0.00000000000E+00 0. -1.
         -1    1    3    3    0  502 -0.36169115893E+01 -0.13195214544E+01 -0.17659680102E+01  0.42357796598E+01  0.00000000000E+00 0.  1.
         11    1    5    5    0    0  0.38357335618E+02  0.22420404545E+03  0.16394325838E+03  0.28038568288E+03  0.00000000000E+00 0. -1.
        -11    1    5    5    0    0 -0.42160648578E+02  0.18973050254E+03  0.18628870069E+03  0.26921861727E+03  0.00000000000E+00 0.  1.
          3    1    6    6  503    0 -0.19760482011E+03 -0.33439228022E+03  0.10950467590E+03  0.40355561704E+03  0.00000000000E+00 0. -1.
         -3    1    6    6    0  503 -0.27359504834E+02 -0.73321138208E+02 -0.16239775753E+02  0.79926604640E+02  0.00000000000E+00 0.  1.
<mgrwt>
<rscale>  0 0.21359523E+04</rscale>
<asrwt>0</asrwt>
<pdfrwt beam="1">  1        1 0.23378248E+00 0.21359523E+04</pdfrwt>
<pdfrwt beam="2">  1       -1 0.11547406E+00 0.21359523E+04</pdfrwt>
<totfact> 0.39506451E+00</totfact>
</mgrwt>
</event>
<event>
12    2  0.3552864E-008  0.1278884E+04  0.7818608E-02  0.9046480E-01
          1   -1    0    0  501    0  0.00000000000E+00  0.00000000000E+00  0.50545871532E+03  0.50545871532E+03  0.00000000000E+00 0. -1.
         -1   -1    0    0    0  501 -0.00000000000E+00 -0.00000000000E+00 -0.80894027153E+03  0.80894027153E+03  0.00000000000E+00 0.  1.
         23    2    1    2    0    0  0.14599254549E+03  0.15782090583E+03 -0.31189889897E+03  0.38971226734E+03  0.91506647195E+02 0.  0.
        254    2    1    2    0    0 -0.14599254549E+03 -0.15782090583E+03  0.84173427706E+01  0.92468671951E+03  0.89930718663E+03 0.  0.
         23    2    4    4    0    0  0.34026875059E+03 -0.20730538910E+03  0.94627073867E+02  0.41990231817E+03  0.92764900237E+02 0.  0.
         23    2    4    4    0    0 -0.48626129608E+03  0.49484483276E+02 -0.86209731096E+02  0.50478440134E+03  0.92067431564E+02 0.  0.
          4    1    3    3  502    0  0.87959021523E+02  0.14054594116E+03 -0.18084379133E+03  0.24534552758E+03  0.00000000000E+00 0. -1.
         -4    1    3    3    0  502  0.58033523968E+02  0.17274964669E+02 -0.13105510765E+03  0.14436673976E+03  0.00000000000E+00 0.  1.
         11    1    5    5    0    0  0.24490640205E+02  0.53429716177E+01 -0.66969213772E+01  0.25945858230E+02  0.00000000000E+00 0.  1.
        -11    1    5    5    0    0  0.31577811038E+03 -0.21264836072E+03  0.10132399524E+03  0.39395645994E+03  0.00000000000E+00 0. -1.
          2    1    6    6  503    0 -0.26869947384E+03  0.47600590748E+02 -0.61513866506E+01  0.27295249227E+03  0.00000000000E+00 0. -1.
         -2    1    6    6    0  503 -0.21756182224E+03  0.18838925273E+01 -0.80058344445E+02  0.23183190907E+03  0.00000000000E+00 0.  1.
<mgrwt>
<rscale>  0 0.12788837E+04</rscale>
<asrwt>0</asrwt>
<pdfrwt beam="1">  1        1 0.77762879E-01 0.12788837E+04</pdfrwt>
<pdfrwt beam="2">  1       -1 0.12445235E+00 0.12788837E+04</pdfrwt>
<totfact> 0.24317191E+01</totfact>
</mgrwt>
</event>
<event>
12    2  0.3552864E-008  0.1815092E+04  0.7818608E-02  0.8698315E-01
         -1   -1    0    0    0  501 -0.00000000000E+00  0.00000000000E+00  0.22210233528E+03  0.22210233528E+03  0.00000000000E+00 0.  1.
          1   -1    0    0  501    0  0.00000000000E+00 -0.00000000000E+00 -0.37083799169E+04  0.37083799169E+04  0.00000000000E+00 0. -1.
         23    2    1    2    0    0  0.23912626473E+03  0.63583948679E+03 -0.14749936435E+04  0.16264684393E+04  0.91214649528E+02 0.  0.
        254    2    1    2    0    0 -0.23912626473E+03 -0.63583948679E+03 -0.20112839382E+04  0.23040138129E+04  0.89540122108E+03 0.  0.
         23    2    4    4    0    0 -0.45948620829E+03 -0.38657417750E+03 -0.61143099810E+03  0.86288535555E+03  0.10077748294E+03 0.  0.
         23    2    4    4    0    0  0.22035994356E+03 -0.24926530928E+03 -0.13998529401E+04  0.14411284574E+04  0.81063417458E+02 0.  0.
          1    1    3    3  502    0  0.15596063265E+03  0.48748632120E+03 -0.10320435321E+04  0.11519897935E+04  0.00000000000E+00 0. -1.
         -1    1    3    3    0  502  0.83165632078E+02  0.14835316559E+03 -0.44295011144E+03  0.47447864580E+03  0.00000000000E+00 0.  1.
         11    1    5    5    0    0 -0.26378284562E+03 -0.26815082879E+03 -0.42702625238E+03  0.56906737461E+03  0.00000000000E+00 0.  1.
        -11    1    5    5    0    0 -0.19570336267E+03 -0.11842334872E+03 -0.18440474572E+03  0.29381798094E+03  0.00000000000E+00 0. -1.
          1    1    6    6  503    0  0.11929904900E+03 -0.82680705251E+02 -0.51404551262E+03  0.53414525286E+03  0.00000000000E+00 0.  1.
         -1    1    6    6    0  503  0.10106089456E+03 -0.16658460403E+03 -0.88580742745E+03  0.90698320449E+03  0.00000000000E+00 0. -1.
<mgrwt>
<rscale>  0 0.18150921E+04</rscale>
<asrwt>0</asrwt>
<pdfrwt beam="1">  1        1 0.57051998E+00 0.18150921E+04</pdfrwt>
<pdfrwt beam="2">  1       -1 0.34169591E-01 0.18150921E+04</pdfrwt>
<totfact> 0.13071464E+00</totfact>
</mgrwt>
</event>
<event>
12    2  0.3851262E-008  0.1873019E+04  0.7818608E-02  0.8668404E-01
          2   -1    0    0  501    0  0.00000000000E+00  0.00000000000E+00  0.12201723704E+04  0.12201723704E+04  0.00000000000E+00 0. -1.
         -2   -1    0    0    0  501 -0.00000000000E+00 -0.00000000000E+00 -0.71879223094E+03  0.71879223094E+03  0.00000000000E+00 0.  1.
         23    2    1    2    0    0  0.66190984185E+03  0.27323785388E+03  0.13173702847E+03  0.73427658461E+03  0.94994181414E+02 0.  0.
        254    2    1    2    0    0 -0.66190984185E+03 -0.27323785388E+03  0.36964311104E+03  0.12046880168E+04  0.89546279917E+03 0.  0.
         23    2    4    4    0    0 -0.37274998608E+02 -0.19620320101E+03  0.50737782111E+03  0.55342037805E+03  0.94640054288E+02 0.  0.
         23    2    4    4    0    0 -0.62463484324E+03 -0.77034652868E+02 -0.13773471007E+03  0.65126763873E+03  0.95266267668E+02 0.  0.
          2    1    3    3  502    0  0.55777530344E+02 -0.56744493547E+00 -0.21793010815E+01  0.55822972316E+02  0.00000000000E+00 0. -1.
         -2    1    3    3    0  502  0.60613231151E+03  0.27380529881E+03  0.13391632955E+03  0.67845361229E+03  0.00000000000E+00 0.  1.
         11    1    5    5    0    0 -0.69241636441E+02 -0.14347435293E+03  0.36159206033E+03  0.39513050029E+03  0.00000000000E+00 0. -1.
        -11    1    5    5    0    0  0.31966637833E+02 -0.52728848082E+02  0.14578576079E+03  0.15828987776E+03  0.00000000000E+00 0.  1.
          3    1    6    6  503    0 -0.33003850991E+03 -0.30450741049E+02 -0.11996163917E+03  0.35248185844E+03  0.00000000000E+00 0. -1.
         -3    1    6    6    0  503 -0.29459633333E+03 -0.46583911819E+02 -0.17773070904E+02  0.29878578029E+03  0.00000000000E+00 0.  1.
<mgrwt>
<rscale>  0 0.18730194E+04</rscale>
<asrwt>0</asrwt>
<pdfrwt beam="1">  1        2 0.18771883E+00 0.18730194E+04</pdfrwt>
<pdfrwt beam="2">  1       -2 0.11058342E+00 0.18730194E+04</pdfrwt>
<totfact> 0.11217989E+01</totfact>
</mgrwt>
</event>
<event>
12    2  0.3552864E-008  0.2265942E+04  0.7818608E-02  0.8491472E-01
         -2   -1    0    0    0  501 -0.00000000000E+00  0.00000000000E+00  0.15743788395E+04  0.15743788395E+04  0.00000000000E+00 0.  1.
          2   -1    0    0  501    0  0.00000000000E+00 -0.00000000000E+00 -0.81532075497E+03  0.81532075497E+03  0.00000000000E+00 0. -1.
         23    2    1    2    0    0 -0.74987040299E+02 -0.33314236585E+03  0.12578526500E+04  0.13068734089E+04  0.95487830049E+02 0.  0.
        254    2    1    2    0    0  0.74987040299E+02  0.33314236585E+03 -0.49879456547E+03  0.10828261855E+04  0.89839280798E+03 0.  0.
         23    2    4    4    0    0 -0.15187836611E+03  0.52950863803E+03 -0.52675909582E+03  0.76762683535E+03  0.91265423245E+02 0.  0.
         23    2    4    4    0    0  0.22686540641E+03 -0.19636627218E+03  0.27964530353E+02  0.31519935020E+03  0.92417476325E+02 0.  0.
          4    1    3    3  502    0 -0.85090299874E+01  0.38331794548E+01  0.61064032663E+02  0.61773076183E+02  0.00000000000E+00 0. -1.
         -4    1    3    3    0  502 -0.66478010312E+02 -0.33697554530E+03  0.11967886173E+04  0.12451003327E+04  0.00000000000E+00 0.  1.
         11    1    5    5    0    0 -0.14463423321E+03  0.52473237110E+03 -0.49855928842E+03  0.73812227088E+03  0.00000000000E+00 0.  1.
        -11    1    5    5    0    0 -0.72441329051E+01  0.47762669287E+01 -0.28199807399E+02  0.29504564471E+02  0.00000000000E+00 0. -1.
          1    1    6    6  503    0  0.19184242111E+02 -0.37702621451E+02  0.33228800719E+02  0.53792899223E+02  0.00000000000E+00 0. -1.
         -1    1    6    6    0  503  0.20768116430E+03 -0.15866365073E+03 -0.52642703659E+01  0.26140645097E+03  0.00000000000E+00 0.  1.
<mgrwt>
<rscale>  0 0.22659424E+04</rscale>
<asrwt>0</asrwt>
<pdfrwt beam="1">  1        2 0.12543396E+00 0.22659424E+04</pdfrwt>
<pdfrwt beam="2">  1       -2 0.24221213E+00 0.22659424E+04</pdfrwt>
<totfact> 0.21908850E+00</totfact>
</mgrwt>
</event>
<event>
12    2  0.3552864E-008  0.1431336E+04  0.7818608E-02  0.8931443E-01
         -1   -1    0    0    0  501 -0.00000000000E+00  0.00000000000E+00  0.53633693220E+03  0.53633693220E+03  0.00000000000E+00 0.  1.
          1   -1    0    0  501    0  0.00000000000E+00 -0.00000000000E+00 -0.95496059872E+03  0.95496059872E+03  0.00000000000E+00 0. -1.
         23    2    1    2    0    0  0.37241336436E+03 -0.19578968103E+03 -0.98929476766E+02  0.44089051031E+03  0.87017742768E+02 0.  0.
        254    2    1    2    0    0 -0.37241336436E+03  0.19578968103E+03 -0.31969418976E+03  0.10504070206E+04  0.90781342843E+03 0.  0.
         23    2    4    4    0    0 -0.57582015530E+03 -0.13611570736E+03 -0.16498185985E+03  0.62127751299E+03  0.93114966733E+02 0.  0.
         23    2    4    4    0    0  0.20340679094E+03  0.33190538839E+03 -0.15471232991E+03  0.42912950762E+03  0.93170380728E+02 0.  0.
          4    1    3    3  502    0  0.49519025986E+01 -0.10604554513E+02  0.98177732019E+01  0.15276340740E+02  0.00000000000E+00 0. -1.
         -4    1    3    3    0  502  0.36746146176E+03 -0.18518512652E+03 -0.10874724997E+03  0.42561416957E+03  0.00000000000E+00 0.  1.
         11    1    5    5    0    0 -0.41028304218E+03 -0.77530336477E+02 -0.75939980679E+02  0.42439369510E+03  0.00000000000E+00 0.  1.
        -11    1    5    5    0    0 -0.16553711312E+03 -0.58585370887E+02 -0.89041879170E+02  0.19688381790E+03  0.00000000000E+00 0. -1.
          2    1    6    6  503    0  0.42712987166E+02  0.13054640484E+03 -0.21246737984E+02  0.13898988079E+03  0.00000000000E+00 0. -1.
         -2    1    6    6    0  503  0.16069380377E+03  0.20135898356E+03 -0.13346559192E+03  0.29013962683E+03  0.00000000000E+00 0.  1.
<mgrwt>
<rscale>  0 0.14313359E+04</rscale>
<asrwt>0</asrwt>
<pdfrwt beam="1">  1        1 0.14691701E+00 0.14313359E+04</pdfrwt>
<pdfrwt beam="2">  1       -1 0.82513375E-01 0.14313359E+04</pdfrwt>
<totfact> 0.23327964E+01</totfact>
</mgrwt>
</event>
<event>
12    2  0.3552864E-008  0.1445158E+04  0.7818608E-02  0.8921764E-01
         -1   -1    0    0    0  501 -0.00000000000E+00  0.00000000000E+00  0.35019965177E+03  0.35019965177E+03  0.00000000000E+00 0.  1.
          1   -1    0    0  501    0  0.00000000000E+00 -0.00000000000E+00 -0.14909225429E+04  0.14909225429E+04  0.00000000000E+00 0. -1.
         23    2    1    2    0    0  0.42216603638E+03 -0.37504564692E+02 -0.45961748101E+03  0.63171116997E+03  0.90443456207E+02 0.  0.
        254    2    1    2    0    0 -0.42216603638E+03  0.37504564692E+02 -0.68110541015E+03  0.12094110247E+04  0.90506336372E+03 0.  0.
         23    2    4    4    0    0  0.19680267871E+03 -0.18712909389E+03 -0.45155077565E+02  0.28916318784E+03  0.88474719804E+02 0.  0.
         23    2    4    4    0    0 -0.61896871508E+03  0.22463365858E+03 -0.63595033259E+03  0.92024783689E+03  0.94025023087E+02 0.  0.
          3    1    3    3  502    0  0.35803835770E+03 -0.65850972566E+01 -0.41292421789E+03  0.54657226312E+03  0.00000000000E+00 0. -1.
         -3    1    3    3    0  502  0.64127678674E+02 -0.30919467435E+02 -0.46693263120E+02  0.85138906848E+02  0.00000000000E+00 0.  1.
         11    1    5    5    0    0 -0.89766846409E+01 -0.90828403831E+01 -0.64640466942E+01  0.14313027501E+02  0.00000000000E+00 0. -1.
        -11    1    5    5    0    0  0.20577936335E+03 -0.17804625350E+03 -0.38691030870E+02  0.27485016033E+03  0.00000000000E+00 0.  1.
          3    1    6    6  503    0 -0.10894154678E+03  0.78780569764E+02 -0.13854143351E+03  0.19305016857E+03  0.00000000000E+00 0. -1.
         -3    1    6    6    0  503 -0.51002716831E+03  0.14585308881E+03 -0.49740889908E+03  0.72719766832E+03  0.00000000000E+00 0.  1.
<mgrwt>
<rscale>  0 0.14451582E+04</rscale>
<asrwt>0</asrwt>
<pdfrwt beam="1">  1        1 0.22937270E+00 0.14451582E+04</pdfrwt>
<pdfrwt beam="2">  1       -1 0.53876870E-01 0.14451582E+04</pdfrwt>
<totfact> 0.22424143E+01</totfact>
</mgrwt>
</event>
<event>
12    2  0.3552864E-008  0.1462044E+04  0.7818608E-02  0.8910093E-01
         -1   -1    0    0    0  501 -0.00000000000E+00  0.00000000000E+00  0.37964506888E+03  0.37964506888E+03  0.00000000000E+00 0.  1.
          1   -1    0    0  501    0  0.00000000000E+00 -0.00000000000E+00 -0.14076124321E+04  0.14076124321E+04  0.00000000000E+00 0. -1.
         23    2    1    2    0    0  0.36466020397E+03 -0.24298636014E+03 -0.42197962833E+03  0.61498424922E+03  0.90107627263E+02 0.  0.
        254    2    1    2    0    0 -0.36466020397E+03  0.24298636014E+03 -0.60598773487E+03  0.11722732517E+04  0.90276464615E+03 0.  0.
         23    2    4    4    0    0  0.29029429382E+03  0.10363018793E+03 -0.25746700058E+03  0.41187230146E+03  0.91321100780E+02 0.  0.
         23    2    4    4    0    0 -0.65495449779E+03  0.13935617221E+03 -0.34852073430E+03  0.76040095028E+03  0.91418630693E+02 0.  0.
          2    1    3    3  502    0  0.20924943808E+03 -0.10891473866E+03 -0.27622272045E+03  0.36324473696E+03  0.00000000000E+00 0. -1.
         -2    1    3    3    0  502  0.15541076589E+03 -0.13407162147E+03 -0.14575690788E+03  0.25173951226E+03  0.00000000000E+00 0.  1.
         11    1    5    5    0    0  0.27026312034E+03  0.76586456058E+02 -0.19844736050E+03  0.34393167105E+03  0.00000000000E+00 0. -1.
        -11    1    5    5    0    0  0.20031173483E+02  0.27043731872E+02 -0.59019640079E+02  0.67940630404E+02  0.00000000000E+00 0.  1.
          4    1    6    6  503    0 -0.62701382231E+03  0.14133729805E+03 -0.31226502129E+03  0.71458520045E+03  0.00000000000E+00 0. -1.
         -4    1    6    6    0  503 -0.27940675481E+02 -0.19811258429E+01 -0.36255713011E+02  0.45815749824E+02  0.00000000000E+00 0.  1.
<mgrwt>
<rscale>  0 0.14620439E+04</rscale>
<asrwt>0</asrwt>
<pdfrwt beam="1">  1        1 0.21655576E+00 0.14620439E+04</pdfrwt>
<pdfrwt beam="2">  1       -1 0.58406934E-01 0.14620439E+04</pdfrwt>
<totfact> 0.21870772E+01</totfact>
</mgrwt>
</event>
<event>
12    2  0.3552864E-008  0.2580603E+04  0.7818608E-02  0.8374820E-01
         -1   -1    0    0    0  501 -0.00000000000E+00  0.00000000000E+00  0.70270053542E+03  0.70270053542E+03  0.00000000000E+00 0.  1.
          1   -1    0    0  501    0  0.00000000000E+00 -0.00000000000E+00 -0.23692565400E+04  0.23692565400E+04  0.00000000000E+00 0. -1.
         23    2    1    2    0    0  0.84031475672E+03  0.23055043654E+03  0.13251715960E+03  0.88615425926E+03  0.91794223571E+02 0.  0.
        254    2    1    2    0    0 -0.84031475672E+03 -0.23055043654E+03 -0.17990731641E+04  0.21858028161E+04  0.88418737090E+03 0.  0.
         23    2    4    4    0    0 -0.60538495117E+03  0.21213979707E+03 -0.13870953283E+04  0.15306963420E+04  0.86623374148E+02 0.  0.
         23    2    4    4    0    0 -0.23492980555E+03 -0.44269023361E+03 -0.41197783587E+03  0.65510647416E+03  0.90951079013E+02 0.  0.
          2    1    3    3  502    0  0.38608010640E+03  0.13982723361E+03  0.94752271307E+02  0.42141131539E+03  0.00000000000E+00 0.  1.
         -2    1    3    3    0  502  0.45423465031E+03  0.90723202926E+02  0.37764888293E+02  0.46474294388E+03  0.00000000000E+00 0. -1.
         11    1    5    5    0    0 -0.96344468891E+02  0.95756500233E+01 -0.16291261175E+03  0.18951113114E+03  0.00000000000E+00 0.  1.
        -11    1    5    5    0    0 -0.50904048228E+03  0.20256414705E+03 -0.12241827165E+04  0.13411852108E+04  0.00000000000E+00 0. -1.
          3    1    6    6  503    0 -0.21897939498E+03 -0.43161810294E+03 -0.41213413525E+03  0.63568915961E+03  0.00000000000E+00 0. -1.
         -3    1    6    6    0  503 -0.15950410565E+02 -0.11072130665E+02  0.15629938057E+00  0.19417314545E+02  0.00000000000E+00 0.  1.
<mgrwt>
<rscale>  0 0.25806029E+04</rscale>
<asrwt>0</asrwt>
<pdfrwt beam="1">  1        1 0.36450101E+00 0.25806029E+04</pdfrwt>
<pdfrwt beam="2">  1       -1 0.10810777E+00 0.25806029E+04</pdfrwt>
<totfact> 0.11696779E+00</totfact>
</mgrwt>
</event>
<event>
12    2  0.3552864E-008  0.2391624E+04  0.7818608E-02  0.8442646E-01
         -3   -1    0    0    0  501 -0.00000000000E+00  0.00000000000E+00  0.14502804367E+04  0.14502804367E+04  0.00000000000E+00 0.  1.
          3   -1    0    0  501    0  0.00000000000E+00 -0.00000000000E+00 -0.98599301370E+03  0.98599301370E+03  0.00000000000E+00 0. -1.
         23    2    1    2    0    0  0.69387640936E+03  0.37869870954E+03 -0.45994338022E+03  0.91820231369E+03  0.81672466469E+02 0.  0.
        254    2    1    2    0    0 -0.69387640936E+03 -0.37869870954E+03  0.92423080322E+03  0.15180711367E+04  0.90854841062E+03 0.  0.
         23    2    4    4    0    0 -0.71373844773E+03 -0.52295523521E+03  0.41642671471E+03  0.98196342672E+03  0.89085424681E+02 0.  0.
         23    2    4    4    0    0  0.19862038362E+02  0.14425652567E+03  0.50780408851E+03  0.53610771000E+03  0.91334761424E+02 0.  0.
          3    1    3    3  502    0  0.30538378570E+03  0.12690487731E+03 -0.21493613278E+03  0.39441303938E+03  0.00000000000E+00 0. -1.
         -3    1    3    3    0  502  0.38849262366E+03  0.25179383223E+03 -0.24500724744E+03  0.52378927431E+03  0.00000000000E+00 0.  1.
         11    1    5    5    0    0 -0.33814514875E+01 -0.14887060297E+02  0.12486115342E+02  0.19722115880E+02  0.00000000000E+00 0. -1.
        -11    1    5    5    0    0 -0.71035699624E+03 -0.50806817491E+03  0.40394059937E+03  0.96224131084E+03  0.00000000000E+00 0.  1.
          3    1    6    6  503    0 -0.36267004310E+01 -0.12662324177E+02  0.42576770760E+02  0.44567575858E+02  0.00000000000E+00 0. -1.
         -3    1    6    6    0  503  0.23488738793E+02  0.15691884985E+03  0.46522731775E+03  0.49154013414E+03  0.00000000000E+00 0.  1.
<mgrwt>
<rscale>  0 0.23916240E+04</rscale>
<asrwt>0</asrwt>
<pdfrwt beam="1">  1        3 0.15169123E+00 0.23916240E+04</pdfrwt>
<pdfrwt beam="2">  1       -3 0.22312007E+00 0.23916240E+04</pdfrwt>
<totfact> 0.77680570E-02</totfact>
</mgrwt>
</event>
<event>
12    2  0.3552864E-008  0.1993966E+04  0.7818608E-02  0.8609447E-01
          2   -1    0    0  501    0  0.00000000000E+00  0.00000000000E+00  0.17688932904E+04  0.17688932904E+04  0.00000000000E+00 0. -1.
         -2   -1    0    0    0  501 -0.00000000000E+00 -0.00000000000E+00 -0.56191943612E+03  0.56191943612E+03  0.00000000000E+00 0.  1.
         23    2    1    2    0    0  0.64392881099E+03  0.41910798925E+03  0.25453640456E+03  0.81436975518E+03  0.90074950026E+02 0.  0.
        254    2    1    2    0    0 -0.64392881099E+03 -0.41910798925E+03  0.95243744970E+03  0.15164429713E+04  0.89563740956E+03 0.  0.
         23    2    4    4    0    0  0.13947066325E+03 -0.29285223510E+03  0.10884804575E+03  0.35467217903E+03  0.93434255012E+02 0.  0.
         23    2    4    4    0    0 -0.78339947424E+03 -0.12625575416E+03  0.84358940396E+03  0.11617707923E+04  0.91722623464E+02 0.  0.
          1    1    3    3  502    0  0.61798809142E+03  0.41353301084E+03  0.23029659962E+03  0.77843134315E+03  0.00000000000E+00 0. -1.
         -1    1    3    3    0  502  0.25940719571E+02  0.55749784127E+01  0.24239804935E+02  0.35938412033E+02  0.00000000000E+00 0.  1.
         11    1    5    5    0    0  0.89341223473E+02 -0.15367693645E+03  0.10549377078E+03  0.20670604897E+03  0.00000000000E+00 0.  1.
        -11    1    5    5    0    0  0.50129439777E+02 -0.13917529864E+03  0.33542749718E+01  0.14796613006E+03  0.00000000000E+00 0. -1.
          3    1    6    6  503    0 -0.56480203020E+03 -0.88583403518E+02  0.66519037698E+03  0.87711264403E+03  0.00000000000E+00 0. -1.
         -3    1    6    6    0  503 -0.21859744404E+03 -0.37672350638E+02  0.17839902698E+03  0.28465814826E+03  0.00000000000E+00 0.  1.
<mgrwt>
<rscale>  0 0.19939664E+04</rscale>
<asrwt>0</asrwt>
<pdfrwt beam="1">  1        2 0.27213743E+00 0.19939664E+04</pdfrwt>
<pdfrwt beam="2">  1       -2 0.86449145E-01 0.19939664E+04</pdfrwt>
<totfact> 0.96749394E+00</totfact>
</mgrwt>
</event>
<event>
12    2  0.3552864E-008  0.1488522E+04  0.7818608E-02  0.8892122E-01
         -2   -1    0    0    0  501 -0.00000000000E+00  0.00000000000E+00  0.11651653383E+04  0.11651653383E+04  0.00000000000E+00 0.  1.
          2   -1    0    0  501    0  0.00000000000E+00 -0.00000000000E+00 -0.47540405356E+03  0.47540405356E+03  0.00000000000E+00 0. -1.
         23    2    1    2    0    0 -0.49057046383E+02 -0.48446608773E+01  0.74286430018E+03  0.75006982357E+03  0.91254080569E+02 0.  0.
        254    2    1    2    0    0  0.49057046383E+02  0.48446608773E+01 -0.53103015404E+02  0.89049956832E+03  0.88754689250E+03 0.  0.
         23    2    4    4    0    0  0.12699274549E+03 -0.39119126990E+03 -0.17784778608E+03  0.45712919038E+03  0.90440558551E+02 0.  0.
         23    2    4    4    0    0 -0.77935699104E+02  0.39603593077E+03  0.12474477068E+03  0.43337037794E+03  0.96592934547E+02 0.  0.
          4    1    3    3  502    0  0.16728318020E+02  0.25568088996E+02  0.26175680120E+03  0.26353403342E+03  0.00000000000E+00 0. -1.
         -4    1    3    3    0  502 -0.65785364403E+02 -0.30412749874E+02  0.48110749898E+03  0.48653579015E+03  0.00000000000E+00 0.  1.
         11    1    5    5    0    0  0.56060778101E+02 -0.29591021044E+03 -0.11207957074E+03  0.32135260021E+03  0.00000000000E+00 0.  1.
        -11    1    5    5    0    0  0.70931967386E+02 -0.95281059455E+02 -0.65768215339E+02  0.13577659017E+03  0.00000000000E+00 0. -1.
          1    1    6    6  503    0 -0.92296880326E+02  0.23980970082E+03  0.93252477302E+02  0.27335586924E+03  0.00000000000E+00 0. -1.
         -1    1    6    6    0  503  0.14361181222E+02  0.15622622996E+03  0.31492293375E+02  0.16001450870E+03  0.00000000000E+00 0.  1.
<mgrwt>
<rscale>  0 0.14885219E+04</rscale>
<asrwt>0</asrwt>
<pdfrwt beam="1">  1        2 0.73139086E-01 0.14885219E+04</pdfrwt>
<pdfrwt beam="2">  1       -2 0.17925620E+00 0.14885219E+04</pdfrwt>
<totfact> 0.11572130E+01</totfact>
</mgrwt>
</event>
<event>
12    2  0.3552864E-008  0.1984108E+04  0.7818608E-02  0.8614087E-01
         -1   -1    0    0    0  501 -0.00000000000E+00  0.00000000000E+00  0.48621928187E+03  0.48621928187E+03  0.00000000000E+00 0.  1.
          1   -1    0    0  501    0  0.00000000000E+00 -0.00000000000E+00 -0.20241301771E+04  0.20241301771E+04  0.00000000000E+00 0. -1.
         23    2    1    2    0    0  0.62563177372E+03  0.30393702356E+03 -0.12449858165E+03  0.71275365053E+03  0.93407916835E+02 0.  0.
        254    2    1    2    0    0 -0.62563177372E+03 -0.30393702356E+03 -0.14134123136E+04  0.17975958085E+04  0.86592349072E+03 0.  0.
         23    2    4    4    0    0 -0.66583751520E+03  0.89828082135E+02 -0.10644692505E+04  0.12622499718E+04  0.93656420991E+02 0.  0.
         23    2    4    4    0    0  0.40205741483E+02 -0.39376510569E+03 -0.34894306311E+03  0.53534583661E+03  0.90368376002E+02 0.  0.
          3    1    3    3  502    0  0.48801546006E+02  0.85446586868E+00 -0.20324266593E+02  0.52871512339E+02  0.00000000000E+00 0. -1.
         -3    1    3    3    0  502  0.57683022771E+03  0.30308255769E+03 -0.10417431506E+03  0.65988213819E+03  0.00000000000E+00 0.  1.
         11    1    5    5    0    0 -0.11562705233E+03  0.99336261233E+01 -0.12480917070E+03  0.17042775962E+03  0.00000000000E+00 0. -1.
        -11    1    5    5    0    0 -0.55021046287E+03  0.79894456011E+02 -0.93966007979E+03  0.10918222122E+04  0.00000000000E+00 0.  1.
          2    1    6    6  503    0 -0.98111973768E+01 -0.38652900046E+02 -0.83050904009E+01  0.40734270614E+02  0.00000000000E+00 0. -1.
         -2    1    6    6    0  503  0.50016938860E+02 -0.35511220564E+03 -0.34063797270E+03  0.49461156600E+03  0.00000000000E+00 0.  1.
<mgrwt>
<rscale>  0 0.19841080E+04</rscale>
<asrwt>0</asrwt>
<pdfrwt beam="1">  1        1 0.31140464E+00 0.19841080E+04</pdfrwt>
<pdfrwt beam="2">  1       -1 0.74802966E-01 0.19841080E+04</pdfrwt>
<totfact> 0.47920930E+00</totfact>
</mgrwt>
</event>
<event>
12    2  0.3552864E-008  0.2256523E+04  0.7818608E-02  0.8495263E-01
         -1   -1    0    0    0  501 -0.00000000000E+00  0.00000000000E+00  0.14749515489E+04  0.14749515489E+04  0.00000000000E+00 0.  1.
          1   -1    0    0  501    0  0.00000000000E+00 -0.00000000000E+00 -0.86306152936E+03  0.86306152936E+03  0.00000000000E+00 0. -1.
         23    2    1    2    0    0  0.11705232444E+03 -0.37778982213E+03 -0.63642452232E+03  0.75468809876E+03  0.89953084699E+02 0.  0.
        254    2    1    2    0    0 -0.11705232444E+03  0.37778982213E+03  0.12483145419E+04  0.15833249795E+04  0.89005752564E+03 0.  0.
         23    2    4    4    0    0  0.13466820058E+03  0.49480060311E+03  0.32317665628E+03  0.61309522845E+03  0.92083912212E+02 0.  0.
         23    2    4    4    0    0 -0.25172052502E+03 -0.11701078099E+03  0.92513788563E+03  0.97022975110E+03  0.91711051197E+02 0.  0.
          3    1    3    3  502    0  0.10247128924E+03 -0.22134204963E+03 -0.44071430553E+03  0.50370801775E+03  0.00000000000E+00 0. -1.
         -3    1    3    3    0  502  0.14581035196E+02 -0.15644777250E+03 -0.19571021679E+03  0.25098008101E+03  0.00000000000E+00 0.  1.
         11    1    5    5    0    0  0.14387829629E+03  0.48922352339E+03  0.31337747028E+03  0.59853659776E+03  0.00000000000E+00 0. -1.
        -11    1    5    5    0    0 -0.92100957039E+01  0.55770797238E+01  0.97991860036E+01  0.14558630686E+02  0.00000000000E+00 0.  1.
          1    1    6    6  503    0 -0.99907580851E+02 -0.96869350339E+02  0.44875553199E+03  0.46983691132E+03  0.00000000000E+00 0. -1.
         -1    1    6    6    0  503 -0.15181294417E+03 -0.20141430646E+02  0.47638235364E+03  0.50039283978E+03  0.00000000000E+00 0.  1.
<mgrwt>
<rscale>  0 0.22565229E+04</rscale>
<asrwt>0</asrwt>
<pdfrwt beam="1">  1        1 0.13277870E+00 0.22565229E+04</pdfrwt>
<pdfrwt beam="2">  1       -1 0.22691562E+00 0.22565229E+04</pdfrwt>
<totfact> 0.17529408E+00</totfact>
</mgrwt>
</event>
<event>
12    2  0.3552864E-008  0.1380606E+04  0.7818608E-02  0.8967978E-01
          1   -1    0    0  501    0  0.00000000000E+00  0.00000000000E+00  0.19910559038E+04  0.19910559038E+04  0.00000000000E+00 0. -1.
         -1   -1    0    0    0  501 -0.00000000000E+00 -0.00000000000E+00 -0.23932935850E+03  0.23932935850E+03  0.00000000000E+00 0.  1.
         23    2    1    2    0    0  0.36055586828E+03 -0.12425653659E+03  0.68971038212E+03  0.79310271330E+03  0.88720243447E+02 0.  0.
        254    2    1    2    0    0 -0.36055586828E+03  0.12425653659E+03  0.10620161631E+04  0.14372825490E+04  0.89020366982E+03 0.  0.
         23    2    4    4    0    0  0.73278958575E+02  0.53767324870E+02 -0.11793629932E+03  0.17500134829E+03  0.91955262030E+02 0.  0.
         23    2    4    4    0    0 -0.43383482685E+03  0.70489211721E+02  0.11799524624E+04  0.12622812007E+04  0.88795438866E+02 0.  0.
          1    1    3    3  502    0  0.31977227717E+03 -0.89523241586E+02  0.63469631801E+03  0.71631566793E+03  0.00000000000E+00 0. -1.
         -1    1    3    3    0  502  0.40783591109E+02 -0.34733295005E+02  0.55014064108E+02  0.76787045361E+02  0.00000000000E+00 0.  1.
         11    1    5    5    0    0  0.74408030450E+02  0.37763127607E+01 -0.46572172205E+02  0.87862294287E+02  0.00000000000E+00 0.  1.
        -11    1    5    5    0    0 -0.11290718747E+01  0.49991012109E+02 -0.71364127111E+02  0.87139054007E+02  0.00000000000E+00 0. -1.
          3    1    6    6  503    0 -0.31449073936E+02 -0.18088988324E+02  0.10312861580E+03  0.10932413798E+03  0.00000000000E+00 0. -1.
         -3    1    6    6    0  503 -0.40238575291E+03  0.88578200045E+02  0.10768238466E+04  0.11529570627E+04  0.00000000000E+00 0.  1.
<mgrwt>
<rscale>  0 0.13806059E+04</rscale>
<asrwt>0</asrwt>
<pdfrwt beam="1">  1        1 0.30631628E+00 0.13806059E+04</pdfrwt>
<pdfrwt beam="2">  1       -1 0.36819903E-01 0.13806059E+04</pdfrwt>
<totfact> 0.20920237E+01</totfact>
</mgrwt>
</event>
<event>
12    2  0.3552864E-008  0.1207772E+04  0.7818608E-02  0.9106081E-01
          2   -1    0    0  501    0  0.00000000000E+00  0.00000000000E+00  0.25797980239E+03  0.25797980239E+03  0.00000000000E+00 0. -1.
         -2   -1    0    0    0  501 -0.00000000000E+00 -0.00000000000E+00 -0.14135921132E+04  0.14135921132E+04  0.00000000000E+00 0.  1.
         23    2    1    2    0    0  0.13904286017E+02  0.23731550304E+03 -0.34930011768E+03  0.43207342957E+03  0.90359831699E+02 0.  0.
        254    2    1    2    0    0 -0.13904286017E+02 -0.23731550304E+03 -0.80631219311E+03  0.12394984860E+04  0.91088153283E+03 0.  0.
         23    2    4    4    0    0  0.39028139529E+03  0.43959982417E+02 -0.18824989595E+03  0.44414168263E+03  0.87015879924E+02 0.  0.
         23    2    4    4    0    0 -0.40418568131E+03 -0.28127548545E+03 -0.61806229716E+03  0.79535680336E+03  0.90052638951E+02 0.  0.
          4    1    3    3  502    0 -0.23001485623E+01  0.18055867086E+02  0.12915086668E+01  0.18247548172E+02  0.00000000000E+00 0. -1.
         -4    1    3    3    0  502  0.16204434579E+02  0.21925963595E+03 -0.35059162634E+03  0.41382588140E+03  0.00000000000E+00 0.  1.
         11    1    5    5    0    0  0.32838571359E+03  0.36501981392E+01 -0.15433273082E+03  0.36286236046E+03  0.00000000000E+00 0.  1.
        -11    1    5    5    0    0  0.61895681703E+02  0.40309784278E+02 -0.33917165131E+02  0.81279322171E+02  0.00000000000E+00 0. -1.
          4    1    6    6  503    0 -0.98335254247E+02 -0.94770877231E+02 -0.22785863435E+03  0.26565183727E+03  0.00000000000E+00 0. -1.
         -4    1    6    6    0  503 -0.30585042706E+03 -0.18650460822E+03 -0.39020366281E+03  0.52970496608E+03  0.00000000000E+00 0.  1.
<mgrwt>
<rscale>  0 0.12077719E+04</rscale>
<asrwt>0</asrwt>
<pdfrwt beam="1">  1        2 0.39689200E-01 0.12077719E+04</pdfrwt>
<pdfrwt beam="2">  1       -2 0.21747571E+00 0.12077719E+04</pdfrwt>
<totfact> 0.13145774E+01</totfact>
</mgrwt>
</event>
<event>
12    2  0.3552864E-008  0.1137816E+04  0.7818608E-02  0.9169098E-01
          1   -1    0    0  501    0  0.00000000000E+00  0.00000000000E+00  0.10800262729E+04  0.10800262729E+04  0.00000000000E+00 0. -1.
         -1   -1    0    0    0  501 -0.00000000000E+00 -0.00000000000E+00 -0.29967450468E+03  0.29967450468E+03  0.00000000000E+00 0.  1.
         23    2    1    2    0    0  0.15982949195E+03 -0.93054186081E+02  0.14446650073E+03  0.25613698247E+03  0.10262083567E+03 0.  0.
        254    2    1    2    0    0 -0.15982949195E+03  0.93054186081E+02  0.63588526749E+03  0.11235637951E+04  0.90765686260E+03 0.  0.
         23    2    4    4    0    0  0.69677162405E+02 -0.99307044919E+02  0.76846747211E+03  0.78371234614E+03  0.94583242029E+02 0.  0.
         23    2    4    4    0    0 -0.22950665436E+03  0.19236123100E+03 -0.13258220462E+03  0.33985144896E+03  0.90800984546E+02 0.  0.
          4    1    3    3  502    0  0.90596008130E+02 -0.23988831733E+02  0.12532179761E+03  0.15648850978E+03  0.00000000000E+00 0. -1.
         -4    1    3    3    0  502  0.69233483820E+02 -0.69065354348E+02  0.19144703124E+02  0.99648472697E+02  0.00000000000E+00 0.  1.
         11    1    5    5    0    0  0.40299274893E+02 -0.34789142259E+02  0.57856361682E+03  0.58100789555E+03  0.00000000000E+00 0. -1.
        -11    1    5    5    0    0  0.29377887512E+02 -0.64517902660E+02  0.18990385529E+03  0.20270445060E+03  0.00000000000E+00 0.  1.
          2    1    6    6  503    0 -0.16929350768E+03  0.84268483722E+02 -0.76286612273E+02  0.20391448282E+03  0.00000000000E+00 0. -1.
         -2    1    6    6    0  503 -0.60213146677E+02  0.10809274728E+03 -0.56295592349E+02  0.13593696614E+03  0.00000000000E+00 0.  1.
<mgrwt>
<rscale>  0 0.11378160E+04</rscale>
<asrwt>0</asrwt>
<pdfrwt beam="1">  1        1 0.16615789E+00 0.11378160E+04</pdfrwt>
<pdfrwt beam="2">  1       -1 0.46103771E-01 0.11378160E+04</pdfrwt>
<totfact> 0.61039197E+01</totfact>
</mgrwt>
</event>
<event>
12    2  0.3552864E-008  0.3244952E+04  0.7818608E-02  0.8177045E-01
          2   -1    0    0  501    0  0.00000000000E+00  0.00000000000E+00  0.55289137854E+03  0.55289137854E+03  0.00000000000E+00 0. -1.
         -2   -1    0    0    0  501 -0.00000000000E+00 -0.00000000000E+00 -0.47612033383E+04  0.47612033383E+04  0.00000000000E+00 0.  1.
         23    2    1    2    0    0 -0.91184837155E+03 -0.11697630096E+04 -0.22573780569E+04  0.27025664929E+04  0.91087902072E+02 0.  0.
        254    2    1    2    0    0  0.91184837155E+03  0.11697630096E+04 -0.19509339029E+04  0.26115282239E+04  0.90228799144E+03 0.  0.
         23    2    4    4    0    0  0.35027394624E+03  0.26340475001E+03 -0.12615637694E+04  0.13385413495E+04  0.89866014383E+02 0.  0.
         23    2    4    4    0    0  0.56157442531E+03  0.90635825956E+03 -0.68937013358E+03  0.12729868744E+04  0.91723887043E+02 0.  0.
          4    1    3    3  502    0 -0.15847584820E+03 -0.18793286280E+03 -0.31747735495E+03  0.40152861204E+03  0.00000000000E+00 0. -1.
         -4    1    3    3    0  502 -0.75337252335E+03 -0.98183014678E+03 -0.19399007019E+04  0.23010378809E+04  0.00000000000E+00 0.  1.
         11    1    5    5    0    0  0.28582843086E+03  0.21204746219E+03 -0.11147228973E+04  0.11701577483E+04  0.00000000000E+00 0. -1.
        -11    1    5    5    0    0  0.64445515380E+02  0.51357287826E+02 -0.14684087202E+03  0.16838360123E+03  0.00000000000E+00 0.  1.
          3    1    6    6  503    0  0.29664560940E+03  0.42317428884E+03 -0.37562433580E+03  0.63888084801E+03  0.00000000000E+00 0. -1.
         -3    1    6    6    0  503  0.26492881591E+03  0.48318397072E+03 -0.31374579779E+03  0.63410602638E+03  0.00000000000E+00 0.  1.
<mgrwt>
<rscale>  0 0.32449519E+04</rscale>
<asrwt>0</asrwt>
<pdfrwt beam="1">  1        2 0.85060214E-01 0.32449519E+04</pdfrwt>
<pdfrwt beam="2">  1       -2 0.73249280E+00 0.32449519E+04</pdfrwt>
<totfact> 0.78094952E-03</totfact>
</mgrwt>
</event>
<event>
12    2  0.3552864E-008  0.1509763E+04  0.7818608E-02  0.8877986E-01
          2   -1    0    0  501    0  0.00000000000E+00  0.00000000000E+00  0.95397576254E+03  0.95397576254E+03  0.00000000000E+00 0. -1.
         -2   -1    0    0    0  501 -0.00000000000E+00 -0.00000000000E+00 -0.59733850558E+03  0.59733850558E+03  0.00000000000E+00 0.  1.
         23    2    1    2    0    0 -0.41666250943E+02 -0.34370939079E+03 -0.20629175476E+03  0.41258343215E+03  0.88298236761E+02 0.  0.
        254    2    1    2    0    0  0.41666250943E+02  0.34370939079E+03  0.56292901173E+03  0.11387308360E+04  0.92733307003E+03 0.  0.
         23    2    4    4    0    0  0.24358543359E+03 -0.19024218057E+03  0.44409548346E+03  0.54865969622E+03  0.90998423665E+02 0.  0.
         23    2    4    4    0    0 -0.20191918265E+03  0.53395157136E+03  0.11883352828E+03  0.59007113975E+03  0.90481521050E+02 0.  0.
          1    1    3    3  502    0 -0.39890032567E+02 -0.19358418662E+03 -0.69613239081E+02  0.20955203426E+03  0.00000000000E+00 0.  1.
         -1    1    3    3    0  502 -0.17762183767E+01 -0.15012520416E+03 -0.13667851568E+03  0.20303139788E+03  0.00000000000E+00 0. -1.
         11    1    5    5    0    0  0.23353681032E+02 -0.96403728377E+01  0.57498128780E+01  0.25911224485E+02  0.00000000000E+00 0.  1.
        -11    1    5    5    0    0  0.22023175256E+03 -0.18060180773E+03  0.43834567058E+03  0.52274847174E+03  0.00000000000E+00 0. -1.
          3    1    6    6  503    0 -0.18228788717E+03  0.40513810936E+03  0.64585179169E+02  0.44892873247E+03  0.00000000000E+00 0. -1.
         -3    1    6    6    0  503 -0.19631295471E+02  0.12881346199E+03  0.54248349107E+02  0.14114240728E+03  0.00000000000E+00 0.  1.
<mgrwt>
<rscale>  0 0.15097635E+04</rscale>
<asrwt>0</asrwt>
<pdfrwt beam="1">  1        2 0.14676550E+00 0.15097635E+04</pdfrwt>
<pdfrwt beam="2">  1       -2 0.91898231E-01 0.15097635E+04</pdfrwt>
<totfact> 0.26243034E+01</totfact>
</mgrwt>
</event>
<event>
12    2  0.3552864E-008  0.1515268E+04  0.7818608E-02  0.8874363E-01
          1   -1    0    0  501    0  0.00000000000E+00  0.00000000000E+00  0.80762341411E+03  0.80762341411E+03  0.00000000000E+00 0. -1.
         -1   -1    0    0    0  501 -0.00000000000E+00 -0.00000000000E+00 -0.71073839788E+03  0.71073839788E+03  0.00000000000E+00 0.  1.
         23    2    1    2    0    0 -0.22102541697E+03  0.20532009110E+03  0.40910772987E+03  0.51672954916E+03  0.92907037269E+02 0.  0.
        254    2    1    2    0    0  0.22102541697E+03 -0.20532009110E+03 -0.31222271364E+03  0.10016322628E+04  0.90264920776E+03 0.  0.
         23    2    4    4    0    0  0.55246021362E+03 -0.14098505250E+03 -0.30308961128E+03  0.65198011303E+03  0.90142568512E+02 0.  0.
         23    2    4    4    0    0 -0.33143479664E+03 -0.64335038604E+02 -0.91331023598E+01  0.34965214981E+03  0.90472043676E+02 0.  0.
          1    1    3    3  502    0 -0.18366044361E+03  0.20015885712E+03  0.31867958309E+03  0.41874980992E+03  0.00000000000E+00 0. -1.
         -1    1    3    3    0  502 -0.37364973365E+02  0.51612339814E+01  0.90428146778E+02  0.97979739235E+02  0.00000000000E+00 0.  1.
         11    1    5    5    0    0  0.25737207642E+02 -0.73974194148E+01 -0.40267814687E+02  0.48359306973E+02  0.00000000000E+00 0.  1.
        -11    1    5    5    0    0  0.52672300597E+03 -0.13358763308E+03 -0.26282179660E+03  0.60362080606E+03  0.00000000000E+00 0. -1.
          1    1    6    6  503    0 -0.30392432613E+03 -0.29940282289E+02 -0.52895626465E+01  0.30544131349E+03  0.00000000000E+00 0. -1.
         -1    1    6    6    0  503 -0.27510470516E+02 -0.34394756314E+02 -0.38435397133E+01  0.44210836313E+02  0.00000000000E+00 0.  1.
<mgrwt>
<rscale>  0 0.15152676E+04</rscale>
<asrwt>0</asrwt>
<pdfrwt beam="1">  1        1 0.12424976E+00 0.15152676E+04</pdfrwt>
<pdfrwt beam="2">  1       -1 0.10934437E+00 0.15152676E+04</pdfrwt>
<totfact> 0.16289317E+01</totfact>
</mgrwt>
</event>
<event>
12    2  0.3552864E-008  0.2039786E+04  0.7818608E-02  0.8588242E-01
          3   -1    0    0  501    0  0.00000000000E+00  0.00000000000E+00  0.51493537623E+03  0.51493537623E+03  0.00000000000E+00 0. -1.
         -3   -1    0    0    0  501 -0.00000000000E+00 -0.00000000000E+00 -0.20200246734E+04  0.20200246734E+04  0.00000000000E+00 0.  1.
         23    2    1    2    0    0 -0.41180703250E+03  0.18411836388E+03 -0.14666616417E+04  0.15393972202E+04  0.12313742893E+03 0.  0.
        254    2    1    2    0    0  0.41180703250E+03 -0.18411836388E+03 -0.38427655433E+02  0.99556282939E+03  0.88667020849E+03 0.  0.
         23    2    4    4    0    0  0.66208134288E+03 -0.21577139375E+03 -0.12740641815E+03  0.71395610831E+03  0.92692665559E+02 0.  0.
         23    2    4    4    0    0 -0.25027431038E+03  0.31653029874E+02  0.88978762721E+02  0.28160672108E+03  0.88011251593E+02 0.  0.
          2    1    3    3  502    0 -0.18671882429E+03  0.13806638349E+03 -0.61811602776E+03  0.66029816702E+03  0.00000000000E+00 0. -1.
         -2    1    3    3    0  502 -0.22508820821E+03  0.46051980386E+02 -0.84854561397E+03  0.87909905322E+03  0.00000000000E+00 0.  1.
         11    1    5    5    0    0  0.88121280271E+02 -0.38108887976E+02 -0.49743037876E+02  0.10812963145E+03  0.00000000000E+00 0.  1.
        -11    1    5    5    0    0  0.57396006261E+03 -0.17766250577E+03 -0.77663380278E+02  0.60582647686E+03  0.00000000000E+00 0. -1.
          1    1    6    6  503    0 -0.17206670224E+03 -0.17198278121E+02  0.41251880429E+02  0.17777640009E+03  0.00000000000E+00 0. -1.
         -1    1    6    6    0  503 -0.78207608135E+02  0.48851307995E+02  0.47726882293E+02  0.10383032099E+03  0.00000000000E+00 0.  1.
<mgrwt>
<rscale>  0 0.20397864E+04</rscale>
<asrwt>0</asrwt>
<pdfrwt beam="1">  1        3 0.79220826E-01 0.20397864E+04</pdfrwt>
<pdfrwt beam="2">  1       -3 0.31077303E+00 0.20397864E+04</pdfrwt>
<totfact> 0.11915167E-01</totfact>
</mgrwt>
</event>
<event>
12    2  0.3552864E-008  0.2153135E+04  0.7818608E-02  0.8538191E-01
          1   -1    0    0  501    0  0.00000000000E+00  0.00000000000E+00  0.36625078670E+04  0.36625078670E+04  0.00000000000E+00 0. -1.
         -1   -1    0    0    0  501 -0.00000000000E+00 -0.00000000000E+00 -0.31644929750E+03  0.31644929750E+03  0.00000000000E+00 0.  1.
         23    2    1    2    0    0  0.20384387709E+03  0.16276812405E+03 -0.18188180665E+03  0.32745772140E+03  0.78113886605E+02 0.  0.
        254    2    1    2    0    0 -0.20384387709E+03 -0.16276812405E+03  0.35279403761E+04  0.36514994431E+04  0.90500778829E+03 0.  0.
         23    2    4    4    0    0  0.34030631458E+03  0.26867749983E+02  0.15539641566E+04  0.15931219210E+04  0.81869356270E+02 0.  0.
         23    2    4    4    0    0 -0.54415019167E+03 -0.18963587404E+03  0.19739762195E+04  0.20583775220E+04  0.90965445396E+02 0.  0.
          3    1    3    3  502    0  0.38370271049E+02  0.50861366601E+02 -0.11157015784E+02  0.64681027467E+02  0.00000000000E+00 0. -1.
         -3    1    3    3    0  502  0.16547360604E+03  0.11190675745E+03 -0.17072479086E+03  0.26277669393E+03  0.00000000000E+00 0.  1.
         11    1    5    5    0    0  0.20851417103E+02  0.12539620765E+02  0.50880147100E+02  0.56398697264E+02  0.00000000000E+00 0.  1.
        -11    1    5    5    0    0  0.31945489747E+03  0.14328129218E+02  0.15030840095E+04  0.15367232238E+04  0.00000000000E+00 0. -1.
          4    1    6    6  503    0 -0.30436301580E+03 -0.99006541028E+02  0.93572712427E+03  0.98895115737E+03  0.00000000000E+00 0. -1.
         -4    1    6    6    0  503 -0.23978717587E+03 -0.90629333007E+02  0.10382490952E+04  0.10694263647E+04  0.00000000000E+00 0.  1.
<mgrwt>
<rscale>  0 0.21531354E+04</rscale>
<asrwt>0</asrwt>
<pdfrwt beam="1">  1        1 0.56346272E+00 0.21531354E+04</pdfrwt>
<pdfrwt beam="2">  1       -1 0.48684510E-01 0.21531354E+04</pdfrwt>
<totfact> 0.71855660E-01</totfact>
</mgrwt>
</event>
<event>
12    2  0.3552864E-008  0.2579559E+04  0.7818608E-02  0.8375178E-01
         -1   -1    0    0    0  501 -0.00000000000E+00  0.00000000000E+00  0.56905854303E+03  0.56905854303E+03  0.00000000000E+00 0.  1.
          1   -1    0    0  501    0  0.00000000000E+00 -0.00000000000E+00 -0.29233030270E+04  0.29233030270E+04  0.00000000000E+00 0. -1.
         23    2    1    2    0    0 -0.54004990281E+03  0.63887529781E+03 -0.20660059974E+04  0.22306715051E+04  0.87744166161E+02 0.  0.
        254    2    1    2    0    0  0.54004990281E+03 -0.63887529781E+03 -0.28823848655E+03  0.12616900649E+04  0.89942473341E+03 0.  0.
         23    2    4    4    0    0 -0.17233636220E+03  0.27618396045E+02  0.83778450326E+02  0.21369269526E+03  0.90460719282E+02 0.  0.
         23    2    4    4    0    0  0.71238626502E+03 -0.66649369386E+03 -0.37201693687E+03  0.10479973696E+04  0.90519892417E+02 0.  0.
          1    1    3    3  502    0 -0.42655611483E+03  0.53530519207E+03 -0.17558094473E+04  0.18845075174E+04  0.00000000000E+00 0. -1.
         -1    1    3    3    0  502 -0.11349378799E+03  0.10357010574E+03 -0.31019655006E+03  0.34616398771E+03  0.00000000000E+00 0.  1.
         11    1    5    5    0    0 -0.64137985737E+02  0.27387817756E+02  0.79013345408E+02  0.10538919550E+03  0.00000000000E+00 0.  1.
        -11    1    5    5    0    0 -0.10819837646E+03  0.23057828827E+00  0.47651049179E+01  0.10830349976E+03  0.00000000000E+00 0. -1.
          1    1    6    6  503    0  0.23822050859E+03 -0.18738530932E+03 -0.80572463171E+02  0.31361471057E+03  0.00000000000E+00 0. -1.
         -1    1    6    6    0  503  0.47416575642E+03 -0.47910838454E+03 -0.29144447370E+03  0.73438265908E+03  0.00000000000E+00 0.  1.
<mgrwt>
<rscale>  0 0.25795585E+04</rscale>
<asrwt>0</asrwt>
<pdfrwt beam="1">  1        1 0.44973894E+00 0.25795585E+04</pdfrwt>
<pdfrwt beam="2">  1       -1 0.87547466E-01 0.25795585E+04</pdfrwt>
<totfact> 0.76951966E-01</totfact>
</mgrwt>
</event>
<event>
12    2  0.3552864E-008  0.2320017E+04  0.7818608E-02  0.8470070E-01
         -2   -1    0    0    0  501 -0.00000000000E+00  0.00000000000E+00  0.72478230646E+03  0.72478230646E+03  0.00000000000E+00 0.  1.
          2   -1    0    0  501    0  0.00000000000E+00 -0.00000000000E+00 -0.18565850425E+04  0.18565850425E+04  0.00000000000E+00 0. -1.
         23    2    1    2    0    0 -0.60107828735E+03  0.40676830573E+03 -0.12277029676E+04  0.14292857806E+04  0.94062233877E+02 0.  0.
        254    2    1    2    0    0  0.60107828735E+03 -0.40676830573E+03  0.95900231595E+02  0.11520815684E+04  0.88957266350E+03 0.  0.
         23    2    4    4    0    0  0.25737924886E+03  0.21887379911E+03 -0.16308282040E+03  0.38714691767E+03  0.95587195122E+02 0.  0.
         23    2    4    4    0    0  0.34369903850E+03 -0.62564210484E+03  0.25898305199E+03  0.76493465068E+03  0.92172263610E+02 0.  0.
          4    1    3    3  502    0 -0.60301207874E+03  0.40777281580E+03 -0.12148511349E+04  0.14162505133E+04  0.00000000000E+00 0. -1.
         -4    1    3    3    0  502  0.19337913876E+01 -0.10045100704E+01 -0.12851832729E+02  0.13035267320E+02  0.00000000000E+00 0.  1.
         11    1    5    5    0    0  0.12810902067E+03  0.48056032505E+02 -0.67550457807E+02  0.15259216162E+03  0.00000000000E+00 0.  1.
        -11    1    5    5    0    0  0.12927022819E+03  0.17081776661E+03 -0.95532362591E+02  0.23455475605E+03  0.00000000000E+00 0. -1.
          4    1    6    6  503    0  0.10297648114E+03 -0.16971487081E+03  0.29878628229E+02  0.20074866243E+03  0.00000000000E+00 0. -1.
         -4    1    6    6    0  503  0.24072255735E+03 -0.45592723403E+03  0.22910442377E+03  0.56418598825E+03  0.00000000000E+00 0.  1.
<mgrwt>
<rscale>  0 0.23200172E+04</rscale>
<asrwt>0</asrwt>
<pdfrwt beam="1">  1        2 0.28562846E+00 0.23200172E+04</pdfrwt>
<pdfrwt beam="2">  1       -2 0.11150497E+00 0.23200172E+04</pdfrwt>
<totfact> 0.46186948E+00</totfact>
</mgrwt>
</event>
<event>
12    2  0.3552864E-008  0.1239753E+04  0.7818608E-02  0.9078755E-01
         -2   -1    0    0    0  501 -0.00000000000E+00  0.00000000000E+00  0.10406070646E+04  0.10406070646E+04  0.00000000000E+00 0.  1.
          2   -1    0    0  501    0  0.00000000000E+00 -0.00000000000E+00 -0.36925276756E+03  0.36925276756E+03  0.00000000000E+00 0. -1.
         23    2    1    2    0    0  0.23811112763E+03 -0.10992707984E+03  0.26375734681E+03  0.38314401675E+03  0.91926751208E+02 0.  0.
        254    2    1    2    0    0 -0.23811112763E+03  0.10992707984E+03  0.40759695023E+03  0.10267158154E+04  0.90511282158E+03 0.  0.
         23    2    4    4    0    0 -0.19693053548E+03  0.46283825523E+03  0.41946555676E+03  0.65994469683E+03  0.81084913928E+02 0.  0.
         23    2    4    4    0    0 -0.41180592159E+02 -0.35291117539E+03 -0.11868606528E+02  0.36677111857E+03  0.90211145191E+02 0.  0.
          4    1    3    3  502    0  0.16135356560E+03 -0.88892051468E+02  0.12320249627E+03  0.22162045265E+03  0.00000000000E+00 0. -1.
         -4    1    3    3    0  502  0.76757562034E+02 -0.21035028373E+02  0.14055485054E+03  0.16152356410E+03  0.00000000000E+00 0.  1.
         11    1    5    5    0    0 -0.20173354841E+03  0.46199539507E+03  0.41216455229E+03  0.65116494668E+03  0.00000000000E+00 0. -1.
        -11    1    5    5    0    0  0.48030129312E+01  0.84286015416E+00  0.73010044761E+01  0.87797501568E+01  0.00000000000E+00 0.  1.
          4    1    6    6  503    0  0.10839805337E+02 -0.12430431440E+03 -0.39064344546E+02  0.13074818153E+03  0.00000000000E+00 0. -1.
         -4    1    6    6    0  503 -0.52020397496E+02 -0.22860686099E+03  0.27195738018E+02  0.23602293705E+03  0.00000000000E+00 0.  1.
<mgrwt>
<rscale>  0 0.12397533E+04</rscale>
<asrwt>0</asrwt>
<pdfrwt beam="1">  1        2 0.56808119E-01 0.12397533E+04</pdfrwt>
<pdfrwt beam="2">  1       -2 0.16009339E+00 0.12397533E+04</pdfrwt>
<totfact> 0.21512517E+01</totfact>
</mgrwt>
</event>
<event>
12    2  0.3552864E-008  0.2911627E+04  0.7818608E-02  0.8269427E-01
         -2   -1    0    0    0  501 -0.00000000000E+00  0.00000000000E+00  0.10655664247E+04  0.10655664247E+04  0.00000000000E+00 0.  1.
          2   -1    0    0  501    0  0.00000000000E+00 -0.00000000000E+00 -0.19889820139E+04  0.19889820139E+04  0.00000000000E+00 0. -1.
         23    2    1    2    0    0 -0.41360887292E+03  0.85226257008E+03  0.52592887978E+03  0.10877999270E+04  0.96351993052E+02 0.  0.
        254    2    1    2    0    0  0.41360887292E+03 -0.85226257008E+03 -0.14493444690E+04  0.19667485115E+04  0.93277892853E+03 0.  0.
         23    2    4    4    0    0  0.27358077190E+03 -0.67399918459E+03 -0.15429880261E+04  0.17084297804E+04  0.93802592052E+02 0.  0.
         23    2    4    4    0    0  0.14002810102E+03 -0.17826338549E+03  0.93643557058E+02  0.25831873113E+03  0.81078649434E+02 0.  0.
          2    1    3    3  502    0 -0.92462147012E+02  0.28580441083E+03  0.14730208794E+03  0.33456137702E+03  0.00000000000E+00 0. -1.
         -2    1    3    3    0  502 -0.32114672591E+03  0.56645815925E+03  0.37862679183E+03  0.75323855002E+03  0.00000000000E+00 0.  1.
         11    1    5    5    0    0  0.20439265366E+03 -0.51229125059E+03 -0.12569552777E+04  0.13726453484E+04  0.00000000000E+00 0.  1.
        -11    1    5    5    0    0  0.69188118239E+02 -0.16170793400E+03 -0.28603274837E+03  0.33578443199E+03  0.00000000000E+00 0. -1.
          3    1    6    6  503    0  0.58178709496E+02 -0.91243305347E+02  0.28205860072E+01  0.10824998252E+03  0.00000000000E+00 0. -1.
         -3    1    6    6    0  503  0.81849391521E+02 -0.87020080140E+02  0.90822971051E+02  0.15006874861E+03  0.00000000000E+00 0.  1.
<mgrwt>
<rscale>  0 0.29116267E+04</rscale>
<asrwt>0</asrwt>
<pdfrwt beam="1">  1        2 0.30599723E+00 0.29116267E+04</pdfrwt>
<pdfrwt beam="2">  1       -2 0.16393330E+00 0.29116267E+04</pdfrwt>
<totfact> 0.13771849E+00</totfact>
</mgrwt>
</event>
<event>
12    2  0.3552864E-008  0.1707911E+04  0.7818608E-02  0.8756865E-01
         -1   -1    0    0    0  501 -0.00000000000E+00  0.00000000000E+00  0.23315333789E+03  0.23315333789E+03  0.00000000000E+00 0.  1.
          1   -1    0    0  501    0  0.00000000000E+00 -0.00000000000E+00 -0.31277277111E+04  0.31277277111E+04  0.00000000000E+00 0. -1.
         23    2    1    2    0    0 -0.46575925111E+03 -0.16719964821E+02 -0.26423684029E+03  0.54312755972E+03  0.89191934314E+02 0.  0.
        254    2    1    2    0    0  0.46575925111E+03  0.16719964821E+02 -0.26303375329E+04  0.28177534893E+04  0.89657568113E+03 0.  0.
         23    2    4    4    0    0  0.71104406109E+03  0.15221599766E+02 -0.21879481628E+04  0.23024042490E+04  0.90182087203E+02 0.  0.
         23    2    4    4    0    0 -0.24528480998E+03  0.14983650551E+01 -0.44238937011E+03  0.51534924025E+03  0.98537310391E+02 0.  0.
          2    1    3    3  502    0 -0.15554489203E+03  0.70624589220E+01 -0.13554443424E+03  0.20643736440E+03  0.00000000000E+00 0. -1.
         -2    1    3    3    0  502 -0.31021435908E+03 -0.23782423743E+02 -0.12869240604E+03  0.33669019533E+03  0.00000000000E+00 0.  1.
         11    1    5    5    0    0  0.25074430130E+03 -0.17246059783E+02 -0.89305467414E+03  0.92774823213E+03  0.00000000000E+00 0. -1.
        -11    1    5    5    0    0  0.46029975979E+03  0.32467659549E+02 -0.12948934887E+04  0.13746560169E+04  0.00000000000E+00 0.  1.
          4    1    6    6  503    0 -0.16628626594E+03 -0.34349626120E+02 -0.34759759598E+03  0.38685282445E+03  0.00000000000E+00 0. -1.
         -4    1    6    6    0  503 -0.78998544034E+02  0.35847991175E+02 -0.94791774132E+02  0.12849641580E+03  0.00000000000E+00 0.  1.
<mgrwt>
<rscale>  0 0.17079112E+04</rscale>
<asrwt>0</asrwt>
<pdfrwt beam="1">  1        1 0.48118882E+00 0.17079112E+04</pdfrwt>
<pdfrwt beam="2">  1       -1 0.35869748E-01 0.17079112E+04</pdfrwt>
<totfact> 0.34148384E+00</totfact>
</mgrwt>
</event>
<event>
12    2  0.3552864E-008  0.1147151E+04  0.7818608E-02  0.9160416E-01
         -1   -1    0    0    0  501 -0.00000000000E+00  0.00000000000E+00  0.37697847559E+03  0.37697847559E+03  0.00000000000E+00 0.  1.
          1   -1    0    0  501    0  0.00000000000E+00 -0.00000000000E+00 -0.87269948152E+03  0.87269948152E+03  0.00000000000E+00 0. -1.
         23    2    1    2    0    0 -0.27407262343E+02 -0.15477886370E+03 -0.24327087366E+03  0.30341788943E+03  0.90410414109E+02 0.  0.
        254    2    1    2    0    0  0.27407262343E+02  0.15477886370E+03 -0.25245013227E+03  0.94626006768E+03  0.89831475093E+03 0.  0.
         23    2    4    4    0    0 -0.64301171850E+02 -0.19575742683E+03 -0.46422180264E+03  0.51625148950E+03  0.92510040044E+02 0.  0.
         23    2    4    4    0    0  0.91708434193E+02  0.35053629053E+03  0.21177167037E+03  0.43000857818E+03  0.93669680565E+02 0.  0.
          2    1    3    3  502    0 -0.35163583410E+02 -0.16481296623E+03 -0.22901401693E+03  0.28433644049E+03  0.00000000000E+00 0. -1.
         -2    1    3    3    0  502  0.77563210663E+01  0.10034102534E+02 -0.14256856725E+02  0.19081448944E+02  0.00000000000E+00 0.  1.
         11    1    5    5    0    0 -0.48236916154E+02 -0.13776805393E+03 -0.41015947043E+03  0.43535919417E+03  0.00000000000E+00 0. -1.
        -11    1    5    5    0    0 -0.16064255696E+02 -0.57989372901E+02 -0.54062332205E+02  0.80892295331E+02  0.00000000000E+00 0.  1.
          4    1    6    6  503    0 -0.47969981179E+01  0.56947784679E+02  0.68961942909E+02  0.89564562973E+02  0.00000000000E+00 0. -1.
         -4    1    6    6    0  503  0.96505432311E+02  0.29358850585E+03  0.14280972746E+03  0.34044401521E+03  0.00000000000E+00 0.  1.
<mgrwt>
<rscale>  0 0.11471511E+04</rscale>
<asrwt>0</asrwt>
<pdfrwt beam="1">  1        1 0.13426146E+00 0.11471511E+04</pdfrwt>
<pdfrwt beam="2">  1       -1 0.57996689E-01 0.11471511E+04</pdfrwt>
<totfact> 0.57348768E+01</totfact>
</mgrwt>
</event>
