<event>
12    6  0.1521603E-007  0.2243926E+04  0.7818608E-02  0.8500365E-01
          2   -1    0    0  501    0  0.00000000000E+00  0.00000000000E+00  0.21662058373E+04  0.21662058373E+04  0.00000000000E+00 0. -1.
         -1   -1    0    0    0  501 -0.00000000000E+00 -0.00000000000E+00 -0.58110841743E+03  0.58110841743E+03  0.00000000000E+00 0.  1.
         24    2    1    2    0    0 -0.19061303112E+03  0.91487275727E+03  0.66386475036E+03  0.11487934279E+04  0.75395248988E+02 0.  0.
        254    2    1    2    0    0  0.19061303112E+03 -0.91487275727E+03  0.92123266946E+03  0.15985208268E+04  0.91283827308E+03 0.  0.
         23    2    4    4    0    0  0.48183315775E+03 -0.86758839762E+03  0.73713019237E+03  0.12395263216E+04  0.90508351926E+02 0.  0.
         23    2    4    4    0    0 -0.29122012663E+03 -0.47284359649E+02  0.18410247710E+03  0.35899450523E+03  0.89097474115E+02 0.  0.
          2    1    3    3  502    0 -0.11215543018E+03  0.44495421185E+03  0.36559005370E+03  0.58670195033E+03  0.00000000000E+00 0. -1.
         -1    1    3    3    0  502 -0.78457600939E+02  0.46991854542E+03  0.29827469666E+03  0.56209147756E+03  0.00000000000E+00 0.  1.
         11    1    5    5    0    0  0.24472201806E+03 -0.36806852586E+03  0.36235410092E+03  0.57154509910E+03  0.00000000000E+00 0.  1.
        -11    1    5    5    0    0  0.23711113968E+03 -0.49951987176E+03  0.37477609145E+03  0.66798122247E+03  0.00000000000E+00 0. -1.
          2    1    6    6  503    0 -0.10814639221E+03 -0.60649678397E+01  0.11765166528E+03  0.15991979342E+03  0.00000000000E+00 0. -1.
         -2    1    6    6    0  503 -0.18307373442E+03 -0.41219391810E+02  0.66450811819E+02  0.19907471182E+03  0.00000000000E+00 0.  1.
<mgrwt>
<rscale>  0 0.22439255E+04</rscale>
<asrwt>0</asrwt>
<pdfrwt beam="1">  1        2 0.33326243E+00 0.22439255E+04</pdfrwt>
<pdfrwt beam="2">  1       -1 0.89401296E-01 0.22439255E+04</pdfrwt>
<totfact> 0.68538093E+00</totfact>
</mgrwt>
</event>
<event>
12    6  0.1521603E-007  0.1562165E+04  0.7818608E-02  0.8844135E-01
          2   -1    0    0  501    0  0.00000000000E+00  0.00000000000E+00  0.68791697498E+03  0.68791697498E+03  0.00000000000E+00 0. -1.
         -3   -1    0    0    0  501 -0.00000000000E+00 -0.00000000000E+00 -0.88686518032E+03  0.88686518032E+03  0.00000000000E+00 0.  1.
         24    2    1    2    0    0 -0.47811157655E+03  0.14340275038E+03  0.69381126264E+02  0.51023209349E+03  0.79799875297E+02 0.  0.
        254    2    1    2    0    0  0.47811157655E+03 -0.14340275038E+03 -0.26832933161E+03  0.10645500618E+04  0.90117211200E+03 0.  0.
         23    2    4    4    0    0  0.19477319157E+03 -0.33463261285E+03 -0.50184265678E+03  0.64071740510E+03  0.93579694906E+02 0.  0.
         23    2    4    4    0    0  0.28333838498E+03  0.19122986246E+03  0.23351332517E+03  0.42383265671E+03  0.90863343357E+02 0.  0.
          4    1    3    3  502    0 -0.40794431906E+03  0.93436332100E+02  0.46352560158E+02  0.42106706763E+03  0.00000000000E+00 0. -1.
         -3    1    3    3    0  502 -0.70167257490E+02  0.49966418284E+02  0.23028566106E+02  0.89165025860E+02  0.00000000000E+00 0.  1.
         11    1    5    5    0    0 -0.56844400120E+01 -0.35181519307E+02 -0.67693546765E+02  0.76501427651E+02  0.00000000000E+00 0. -1.
        -11    1    5    5    0    0  0.20045763158E+03 -0.29945109354E+03 -0.43414911001E+03  0.56421597745E+03  0.00000000000E+00 0.  1.
          1    1    6    6  503    0  0.26955868317E+03  0.18185429638E+03  0.24180321743E+03  0.40521804592E+03  0.00000000000E+00 0.  1.
         -1    1    6    6    0  503  0.13779701805E+02  0.93755660836E+01 -0.82898922562E+01  0.18614610789E+02  0.00000000000E+00 0. -1.
<mgrwt>
<rscale>  0 0.15621647E+04</rscale>
<asrwt>0</asrwt>
<pdfrwt beam="1">  1        2 0.10583338E+00 0.15621647E+04</pdfrwt>
<pdfrwt beam="2">  1       -3 0.13644080E+00 0.15621647E+04</pdfrwt>
<totfact> 0.10432281E+01</totfact>
</mgrwt>
</event>
<event>
12    6  0.1521603E-007  0.1524013E+04  0.7818608E-02  0.8868640E-01
          2   -1    0    0  501    0  0.00000000000E+00  0.00000000000E+00  0.13542778651E+04  0.13542778651E+04  0.00000000000E+00 0. -1.
         -1   -1    0    0    0  501 -0.00000000000E+00 -0.00000000000E+00 -0.42875543535E+03  0.42875543535E+03  0.00000000000E+00 0.  1.
         24    2    1    2    0    0 -0.43273927526E+03 -0.23291621606E+03  0.33655165803E+03  0.60100744031E+03  0.80185289965E+02 0.  0.
        254    2    1    2    0    0  0.43273927526E+03  0.23291621606E+03  0.58897077173E+03  0.11820258601E+04  0.89932492462E+03 0.  0.
         23    2    4    4    0    0 -0.71766992333E+02 -0.15941290809E+03 -0.11337478413E+03  0.22789784916E+03  0.92307158566E+02 0.  0.
         23    2    4    4    0    0  0.50450626760E+03  0.39232912415E+03  0.70234555585E+03  0.95412801098E+03  0.92856156580E+02 0.  0.
          2    1    3    3  502    0 -0.27577572676E+03 -0.17522975478E+03  0.18586517085E+03  0.37590368469E+03  0.00000000000E+00 0. -1.
         -1    1    3    3    0  502 -0.15696354850E+03 -0.57686461272E+02  0.15068648719E+03  0.22510375562E+03  0.00000000000E+00 0.  1.
         11    1    5    5    0    0 -0.80581950705E+02 -0.15605317764E+03 -0.12300208516E+03  0.21441911758E+03  0.00000000000E+00 0. -1.
        -11    1    5    5    0    0  0.88149583716E+01 -0.33597304468E+01  0.96273010328E+01  0.13478731578E+02  0.00000000000E+00 0.  1.
          4    1    6    6  503    0  0.40085113421E+03  0.33373384027E+03  0.61531113678E+03  0.80663976036E+03  0.00000000000E+00 0. -1.
         -4    1    6    6    0  503  0.10365513338E+03  0.58595283877E+02  0.87034419076E+02  0.14748825063E+03  0.00000000000E+00 0.  1.
<mgrwt>
<rscale>  0 0.15240131E+04</rscale>
<asrwt>0</asrwt>
<pdfrwt beam="1">  1        2 0.20835044E+00 0.15240131E+04</pdfrwt>
<pdfrwt beam="2">  1       -1 0.65962375E-01 0.15240131E+04</pdfrwt>
<totfact> 0.39368397E+01</totfact>
</mgrwt>
</event>
<event>
12    6  0.1862065E-007  0.2325112E+04  0.7818608E-02  0.8468085E-01
          2   -1    0    0  501    0  0.00000000000E+00  0.00000000000E+00  0.13585579408E+04  0.13585579408E+04  0.00000000000E+00 0. -1.
         -1   -1    0    0    0  501 -0.00000000000E+00 -0.00000000000E+00 -0.99483189244E+03  0.99483189244E+03  0.00000000000E+00 0.  1.
         24    2    1    2    0    0 -0.71545699145E+03 -0.65963392666E+03  0.31173671680E+03  0.10248915920E+04  0.78913692720E+02 0.  0.
        254    2    1    2    0    0  0.71545699145E+03  0.65963392666E+03  0.51989331531E+02  0.13284982412E+04  0.90288928587E+03 0.  0.
         23    2    4    4    0    0  0.52659247815E+03  0.50372579828E+03  0.44333883618E+03  0.85781539066E+03  0.90876855572E+02 0.  0.
         23    2    4    4    0    0  0.18886451330E+03  0.15590812839E+03 -0.39134950465E+03  0.47068285057E+03  0.91710207456E+02 0.  0.
          4    1    3    3  502    0 -0.70628992558E+03 -0.63483228306E+03  0.29962014782E+03  0.99580606524E+03  0.00000000000E+00 0. -1.
         -3    1    3    3    0  502 -0.91670658693E+01 -0.24801643604E+02  0.12116568976E+02  0.29085526742E+02  0.00000000000E+00 0.  1.
         11    1    5    5    0    0  0.46371512481E+03  0.47156489125E+03  0.37891914245E+03  0.76222364182E+03  0.00000000000E+00 0. -1.
        -11    1    5    5    0    0  0.62877353342E+02  0.32160907028E+02  0.64419693736E+02  0.95591748834E+02  0.00000000000E+00 0.  1.
          2    1    6    6  503    0  0.14325995607E+03  0.93545289468E+02 -0.33115173049E+03  0.37274066695E+03  0.00000000000E+00 0. -1.
         -2    1    6    6    0  503  0.45604557224E+02  0.62362838921E+02 -0.60197774164E+02  0.97942183620E+02  0.00000000000E+00 0.  1.
<mgrwt>
<rscale>  0 0.23251123E+04</rscale>
<asrwt>0</asrwt>
<pdfrwt beam="1">  1        2 0.20900891E+00 0.23251123E+04</pdfrwt>
<pdfrwt beam="2">  1       -1 0.15305106E+00 0.23251123E+04</pdfrwt>
<totfact> 0.52067144E+00</totfact>
</mgrwt>
</event>
<event>
12    6  0.1521603E-007  0.2253177E+04  0.7818608E-02  0.8496615E-01
          2   -1    0    0  501    0  0.00000000000E+00  0.00000000000E+00  0.87913153084E+03  0.87913153084E+03  0.00000000000E+00 0. -1.
         -1   -1    0    0    0  501 -0.00000000000E+00 -0.00000000000E+00 -0.14436998320E+04  0.14436998320E+04  0.00000000000E+00 0.  1.
         24    2    1    2    0    0  0.67424709303E+03 -0.41352585921E+03 -0.61060206727E+03  0.10022648070E+04  0.78019741406E+02 0.  0.
        254    2    1    2    0    0 -0.67424709303E+03  0.41352585921E+03  0.46033766159E+02  0.13205665558E+04  0.10564866975E+04 0.  0.
         23    2    4    4    0    0 -0.88250661138E+03  0.14613791507E+03  0.22487300536E+03  0.92694862735E+03  0.92150311152E+02 0.  0.
         23    2    4    4    0    0  0.20825951836E+03  0.26738794414E+03 -0.17883923920E+03  0.39361792847E+03  0.89906954523E+02 0.  0.
          2    1    3    3  502    0  0.40025943788E+01 -0.11548464336E+02 -0.16563867211E+02  0.20585176396E+02  0.00000000000E+00 0. -1.
         -3    1    3    3    0  502  0.67024449865E+03 -0.40197739488E+03 -0.59403820006E+03  0.98167963058E+03  0.00000000000E+00 0.  1.
         11    1    5    5    0    0 -0.69664874398E+03  0.11898631954E+03  0.21559075372E+03  0.73888875334E+03  0.00000000000E+00 0. -1.
        -11    1    5    5    0    0 -0.18585786741E+03  0.27151595529E+02  0.92822516445E+01  0.18805987401E+03  0.00000000000E+00 0.  1.
          3    1    6    6  503    0  0.17184511065E+03  0.25053897044E+03 -0.13011730709E+03  0.33050118210E+03  0.00000000000E+00 0. -1.
         -3    1    6    6    0  503  0.36414407704E+02  0.16848973706E+02 -0.48721932114E+02  0.63116746370E+02  0.00000000000E+00 0.  1.
<mgrwt>
<rscale>  0 0.22531774E+04</rscale>
<asrwt>0</asrwt>
<pdfrwt beam="1">  1        2 0.13525101E+00 0.22531774E+04</pdfrwt>
<pdfrwt beam="2">  1       -1 0.22210766E+00 0.22531774E+04</pdfrwt>
<totfact> 0.33504940E+00</totfact>
</mgrwt>
</event>
<event>
12    6  0.1521603E-007  0.2118713E+04  0.7818608E-02  0.8553045E-01
         -1   -1    0    0    0  501 -0.00000000000E+00  0.00000000000E+00  0.26313398650E+03  0.26313398650E+03  0.00000000000E+00 0.  1.
          2   -1    0    0  501    0  0.00000000000E+00 -0.00000000000E+00 -0.42648861178E+04  0.42648861178E+04  0.00000000000E+00 0. -1.
         24    2    1    2    0    0 -0.48214941889E+03 -0.42228768800E+03 -0.40225284363E+03  0.76073068940E+03  0.78159311786E+02 0.  0.
        254    2    1    2    0    0  0.48214941889E+03  0.42228768800E+03 -0.35994992877E+04  0.37672894149E+04  0.90844893093E+03 0.  0.
         23    2    4    4    0    0  0.66831100809E+03  0.44071346082E+03 -0.20291525552E+04  0.21832106466E+04  0.89892586532E+02 0.  0.
         23    2    4    4    0    0 -0.18616158920E+03 -0.18425772812E+02 -0.15703467325E+04  0.15840787683E+04  0.91219721427E+02 0.  0.
          4    1    3    3  502    0 -0.65968371058E+01 -0.25292468407E+02 -0.18405177169E+02  0.31968386955E+02  0.00000000000E+00 0. -1.
         -3    1    3    3    0  502 -0.47555258178E+03 -0.39699521960E+03 -0.38384766646E+03  0.72876230245E+03  0.00000000000E+00 0.  1.
         11    1    5    5    0    0  0.59129801223E+03  0.38754082099E+03 -0.17035376522E+04  0.18444136629E+04  0.00000000000E+00 0.  1.
        -11    1    5    5    0    0  0.77012995860E+02  0.53172639830E+02 -0.32561490297E+03  0.33879698375E+03  0.00000000000E+00 0. -1.
          1    1    6    6  503    0 -0.37829146977E+02 -0.42953008675E+02 -0.48598964041E+03  0.48934848105E+03  0.00000000000E+00 0. -1.
         -1    1    6    6    0  503 -0.14833244222E+03  0.24527235864E+02 -0.10843570920E+04  0.10947302872E+04  0.00000000000E+00 0.  1.
<mgrwt>
<rscale>  0 0.21187133E+04</rscale>
<asrwt>0</asrwt>
<pdfrwt beam="1">  1        2 0.65613634E+00 0.21187133E+04</pdfrwt>
<pdfrwt beam="2">  1       -1 0.40482151E-01 0.21187133E+04</pdfrwt>
<totfact> 0.12864736E+00</totfact>
</mgrwt>
</event>
<event>
12    6  0.1521603E-007  0.1628537E+04  0.7818608E-02  0.8803206E-01
         -1   -1    0    0    0  501 -0.00000000000E+00  0.00000000000E+00  0.10637172409E+04  0.10637172409E+04  0.00000000000E+00 0.  1.
          2   -1    0    0  501    0  0.00000000000E+00 -0.00000000000E+00 -0.62331733111E+03  0.62331733111E+03  0.00000000000E+00 0. -1.
         24    2    1    2    0    0  0.41322369269E+03 -0.37940047768E+03  0.10054716673E+03  0.57544231028E+03  0.79533496489E+02 0.  0.
        254    2    1    2    0    0 -0.41322369269E+03  0.37940047768E+03  0.33985274310E+03  0.11115922618E+04  0.89746249323E+03 0.  0.
         23    2    4    4    0    0 -0.27342690167E+03  0.90215993435E+02  0.61077966069E+03  0.68139183358E+03  0.91333678979E+02 0.  0.
         23    2    4    4    0    0 -0.13979679102E+03  0.28918448425E+03 -0.27092691759E+03  0.43020042819E+03  0.92196556504E+02 0.  0.
          2    1    3    3  502    0  0.10031815141E+03 -0.57404406885E+02  0.40419748831E+02  0.12244489997E+03  0.00000000000E+00 0. -1.
         -1    1    3    3    0  502  0.31290554127E+03 -0.32199607080E+03  0.60127417898E+02  0.45299741031E+03  0.00000000000E+00 0.  1.
         11    1    5    5    0    0 -0.81335181374E+02  0.72018590238E+02  0.23863022954E+03  0.26219549104E+03  0.00000000000E+00 0. -1.
        -11    1    5    5    0    0 -0.19209172030E+03  0.18197403197E+02  0.37214943115E+03  0.41919634254E+03  0.00000000000E+00 0.  1.
          4    1    6    6  503    0  0.10014751270E+02  0.27108430052E+02 -0.43587659621E+02  0.52297670064E+02  0.00000000000E+00 0. -1.
         -4    1    6    6    0  503 -0.14981154228E+03  0.26207605419E+03 -0.22733925797E+03  0.37790275813E+03  0.00000000000E+00 0.  1.
<mgrwt>
<rscale>  0 0.16285372E+04</rscale>
<asrwt>0</asrwt>
<pdfrwt beam="1">  1        2 0.95894974E-01 0.16285372E+04</pdfrwt>
<pdfrwt beam="2">  1       -1 0.16364881E+00 0.16285372E+04</pdfrwt>
<totfact> 0.14195296E+01</totfact>
</mgrwt>
</event>
<event>
12    6  0.1521603E-007  0.1952669E+04  0.7818608E-02  0.8629075E-01
          2   -1    0    0  501    0  0.00000000000E+00  0.00000000000E+00  0.90176370439E+03  0.90176370439E+03  0.00000000000E+00 0. -1.
         -1   -1    0    0    0  501 -0.00000000000E+00 -0.00000000000E+00 -0.10570715422E+04  0.10570715422E+04  0.00000000000E+00 0.  1.
         24    2    1    2    0    0 -0.46137408445E+03 -0.68329760697E+02 -0.63502310781E+03  0.79203891997E+03  0.80847395108E+02 0.  0.
        254    2    1    2    0    0  0.46137408445E+03  0.68329760697E+02  0.47971527003E+03  0.11667963266E+04  0.95590372184E+03 0.  0.
         23    2    4    4    0    0 -0.17401181284E+02 -0.10232722213E+03 -0.24278596438E+03  0.27906424970E+03  0.90322585562E+02 0.  0.
         23    2    4    4    0    0  0.47877526574E+03  0.17065698283E+03  0.72250123441E+03  0.88773207688E+03  0.87810282605E+02 0.  0.
          4    1    3    3  502    0 -0.14660354423E+03 -0.31977430076E+02 -0.14617935726E+03  0.20948403209E+03  0.00000000000E+00 0. -1.
         -3    1    3    3    0  502 -0.31477054022E+03 -0.36352330621E+02 -0.48884375055E+03  0.58255488787E+03  0.00000000000E+00 0.  1.
         11    1    5    5    0    0 -0.35217544200E+02 -0.88435943164E+02 -0.23749458640E+03  0.25586103657E+03  0.00000000000E+00 0.  1.
        -11    1    5    5    0    0  0.17816362915E+02 -0.13891278969E+02 -0.52913779778E+01  0.23203213136E+02  0.00000000000E+00 0. -1.
          1    1    6    6  503    0  0.15441022901E+03  0.47506044215E+02  0.16379762156E+03  0.23006304330E+03  0.00000000000E+00 0. -1.
         -1    1    6    6    0  503  0.32436503672E+03  0.12315093862E+03  0.55870361285E+03  0.65766903359E+03  0.00000000000E+00 0.  1.
<mgrwt>
<rscale>  0 0.19526687E+04</rscale>
<asrwt>0</asrwt>
<pdfrwt beam="1">  1        2 0.13873288E+00 0.19526687E+04</pdfrwt>
<pdfrwt beam="2">  1       -1 0.16262639E+00 0.19526687E+04</pdfrwt>
<totfact> 0.86875539E+00</totfact>
</mgrwt>
</event>
<event>
12    6  0.1521603E-007  0.1243834E+04  0.7818608E-02  0.9075331E-01
          2   -1    0    0  501    0  0.00000000000E+00  0.00000000000E+00  0.42896925712E+04  0.42896925712E+04  0.00000000000E+00 0. -1.
         -1   -1    0    0    0  501 -0.00000000000E+00 -0.00000000000E+00 -0.90165103237E+02  0.90165103237E+02  0.00000000000E+00 0.  1.
         24    2    1    2    0    0 -0.85196731006E+02  0.16415125386E+03  0.23558578331E+03  0.30972797192E+03  0.78909050018E+02 0.  0.
        254    2    1    2    0    0  0.85196731006E+02 -0.16415125386E+03  0.39639416847E+04  0.40701297026E+04  0.90494088142E+03 0.  0.
         23    2    4    4    0    0 -0.12225316717E+03  0.30239929095E+03  0.23693105644E+04  0.23933195031E+04  0.89188145906E+02 0.  0.
         23    2    4    4    0    0  0.20744989817E+03 -0.46655054481E+03  0.15946311203E+04  0.16768101995E+04  0.90217315567E+02 0.  0.
          2    1    3    3  502    0 -0.31866480182E+02  0.11125015651E+03  0.92602408853E+02  0.14821361614E+03  0.00000000000E+00 0. -1.
         -1    1    3    3    0  502 -0.53330250824E+02  0.52901097349E+02  0.14298337445E+03  0.16151435578E+03  0.00000000000E+00 0.  1.
         11    1    5    5    0    0 -0.55684273251E+02  0.23027723904E+03  0.18135083071E+04  0.18289179110E+04  0.00000000000E+00 0.  1.
        -11    1    5    5    0    0 -0.66568893917E+02  0.72122051913E+02  0.55580225722E+03  0.56440159208E+03  0.00000000000E+00 0. -1.
          2    1    6    6  503    0  0.15204764633E+03 -0.23154177467E+03  0.84049309235E+03  0.88496255201E+03  0.00000000000E+00 0. -1.
         -2    1    6    6    0  503  0.55402251839E+02 -0.23500877013E+03  0.75413802797E+03  0.79184764745E+03  0.00000000000E+00 0.  1.
<mgrwt>
<rscale>  0 0.12438337E+04</rscale>
<asrwt>0</asrwt>
<pdfrwt beam="1">  1        2 0.65995254E+00 0.12438337E+04</pdfrwt>
<pdfrwt beam="2">  1       -1 0.13871558E-01 0.12438337E+04</pdfrwt>
<totfact> 0.84966905E+00</totfact>
</mgrwt>
</event>
<event>
12    6  0.1521603E-007  0.3307720E+04  0.7818608E-02  0.8160934E-01
          2   -1    0    0  501    0  0.00000000000E+00  0.00000000000E+00  0.25919347977E+04  0.25919347977E+04  0.00000000000E+00 0. -1.
         -1   -1    0    0    0  501 -0.00000000000E+00 -0.00000000000E+00 -0.10552939357E+04  0.10552939357E+04  0.00000000000E+00 0.  1.
         24    2    1    2    0    0 -0.14235751823E+04 -0.55375693688E+03  0.81121750699E+03  0.17313361473E+04  0.78980796946E+02 0.  0.
        254    2    1    2    0    0  0.14235751823E+04  0.55375693688E+03  0.72542335504E+03  0.19158925861E+04  0.90066215235E+03 0.  0.
         23    2    4    4    0    0  0.44557617073E+03  0.45337424851E+03 -0.72859474613E+02  0.64644535437E+03  0.92177871584E+02 0.  0.
         23    2    4    4    0    0  0.97799901161E+03  0.10038268836E+03  0.79828282965E+03  0.12694472318E+04  0.87647289133E+02 0.  0.
          4    1    3    3  502    0 -0.13685540917E+04 -0.52287812262E+03  0.76227898151E+03  0.16514875351E+04  0.00000000000E+00 0. -1.
         -3    1    3    3    0  502 -0.55021090632E+02 -0.30878814261E+02  0.48938525481E+02  0.79848612140E+02  0.00000000000E+00 0.  1.
         11    1    5    5    0    0  0.32915014506E+03  0.38277127191E+03 -0.74351736097E+02  0.51027624406E+03  0.00000000000E+00 0.  1.
        -11    1    5    5    0    0  0.11642602567E+03  0.70602976607E+02  0.14922614843E+01  0.13616911031E+03  0.00000000000E+00 0. -1.
          2    1    6    6  503    0  0.20520131627E+03  0.45066088117E+02  0.20579367992E+03  0.29409109336E+03  0.00000000000E+00 0. -1.
         -2    1    6    6    0  503  0.77279769533E+03  0.55316600247E+02  0.59248914974E+03  0.97535613841E+03  0.00000000000E+00 0.  1.
<mgrwt>
<rscale>  0 0.33077201E+04</rscale>
<asrwt>0</asrwt>
<pdfrwt beam="1">  1        2 0.39875920E+00 0.33077201E+04</pdfrwt>
<pdfrwt beam="2">  1       -1 0.16235291E+00 0.33077201E+04</pdfrwt>
<totfact> 0.81832568E-01</totfact>
</mgrwt>
</event>
<event>
12    6  0.1521603E-007  0.1240540E+04  0.7818608E-02  0.9078094E-01
          2   -1    0    0  501    0  0.00000000000E+00  0.00000000000E+00  0.60962603797E+03  0.60962603797E+03  0.00000000000E+00 0. -1.
         -1   -1    0    0    0  501 -0.00000000000E+00 -0.00000000000E+00 -0.63109977030E+03  0.63109977030E+03  0.00000000000E+00 0.  1.
         24    2    1    2    0    0  0.33532128927E+02 -0.21934633862E+03 -0.21531431265E+03  0.31928833785E+03  0.79671635595E+02 0.  0.
        254    2    1    2    0    0 -0.33532128927E+02  0.21934633862E+03  0.19384058032E+03  0.92143747042E+03  0.87306106395E+03 0.  0.
         23    2    4    4    0    0 -0.12187912534E+03  0.47243904388E+03 -0.10710869349E+03  0.50766395839E+03  0.90538671594E+02 0.  0.
         23    2    4    4    0    0  0.88346996412E+02 -0.25309270526E+03  0.30094927381E+03  0.41377351203E+03  0.93685349034E+02 0.  0.
          4    1    3    3  502    0  0.33580073254E+02 -0.14868575715E+03 -0.94557652609E+02  0.17937732679E+03  0.00000000000E+00 0. -1.
         -3    1    3    3    0  502 -0.47944326965E-01 -0.70660581475E+02 -0.12075666004E+03  0.13991101106E+03  0.00000000000E+00 0.  1.
         11    1    5    5    0    0 -0.10116487712E+03  0.43808662570E+03 -0.12030863555E+03  0.46543355248E+03  0.00000000000E+00 0. -1.
        -11    1    5    5    0    0 -0.20714248214E+02  0.34352418173E+02  0.13199942053E+02  0.42230405914E+02  0.00000000000E+00 0.  1.
          4    1    6    6  503    0  0.66896102563E+02 -0.23023275423E+03  0.21408569586E+03  0.32142634434E+03  0.00000000000E+00 0. -1.
         -4    1    6    6    0  503  0.21450893849E+02 -0.22859951022E+02  0.86863577947E+02  0.92347167695E+02  0.00000000000E+00 0.  1.
<mgrwt>
<rscale>  0 0.12405400E+04</rscale>
<asrwt>0</asrwt>
<pdfrwt beam="1">  1        2 0.93788621E-01 0.12405400E+04</pdfrwt>
<pdfrwt beam="2">  1       -1 0.97092273E-01 0.12405400E+04</pdfrwt>
<totfact> 0.55799678E+01</totfact>
</mgrwt>
</event>
<event>
12    6  0.1521603E-007  0.3274503E+04  0.7818608E-02  0.8169414E-01
         -1   -1    0    0    0  501 -0.00000000000E+00  0.00000000000E+00  0.28851637611E+04  0.28851637611E+04  0.00000000000E+00 0.  1.
          2   -1    0    0  501    0  0.00000000000E+00 -0.00000000000E+00 -0.92909543758E+03  0.92909543758E+03  0.00000000000E+00 0. -1.
         24    2    1    2    0    0 -0.13504689969E+04 -0.18320989907E+03  0.16907018268E+04  0.21730740318E+04  0.80285127636E+02 0.  0.
        254    2    1    2    0    0  0.13504689969E+04  0.18320989907E+03  0.26536649672E+03  0.16411851669E+04  0.87506399519E+03 0.  0.
         23    2    4    4    0    0  0.78087402643E+03 -0.31085831939E+03  0.28158610500E+02  0.84570845059E+03  0.89625533070E+02 0.  0.
         23    2    4    4    0    0  0.56959497050E+03  0.49406821846E+03  0.23720788622E+03  0.79547671630E+03  0.89296080480E+02 0.  0.
          2    1    3    3  502    0 -0.29579490187E+03 -0.69676174356E+02  0.35132595800E+03  0.46452052916E+03  0.00000000000E+00 0. -1.
         -3    1    3    3    0  502 -0.10546740951E+04 -0.11353372471E+03  0.13393758688E+04  0.17085535027E+04  0.00000000000E+00 0.  1.
         11    1    5    5    0    0  0.42032393765E+03 -0.19795135578E+03  0.49851702152E+02  0.46727095354E+03  0.00000000000E+00 0.  1.
        -11    1    5    5    0    0  0.36055008878E+03 -0.11290696361E+03 -0.21693091651E+02  0.37843749705E+03  0.00000000000E+00 0. -1.
          4    1    6    6  503    0  0.31532078828E+03  0.29256371191E+03  0.17880957045E+03  0.46582570510E+03  0.00000000000E+00 0. -1.
         -4    1    6    6    0  503  0.25427418222E+03  0.20150450655E+03  0.58398315767E+02  0.32965101120E+03  0.00000000000E+00 0.  1.
<mgrwt>
<rscale>  0 0.32745030E+04</rscale>
<asrwt>0</asrwt>
<pdfrwt beam="1">  1        2 0.14293776E+00 0.32745030E+04</pdfrwt>
<pdfrwt beam="2">  1       -1 0.44387134E+00 0.32745030E+04</pdfrwt>
<totfact> 0.95258005E-02</totfact>
</mgrwt>
</event>
<event>
12    6  0.1521603E-007  0.2176590E+04  0.7818608E-02  0.8528235E-01
         -1   -1    0    0    0  501 -0.00000000000E+00  0.00000000000E+00  0.10814129845E+04  0.10814129845E+04  0.00000000000E+00 0.  1.
          2   -1    0    0  501    0  0.00000000000E+00 -0.00000000000E+00 -0.10952211785E+04  0.10952211785E+04  0.00000000000E+00 0. -1.
         24    2    1    2    0    0  0.89320369056E+03 -0.88491561001E+02 -0.64202957554E+02  0.90344062290E+03  0.80245561564E+02 0.  0.
        254    2    1    2    0    0 -0.89320369056E+03  0.88491561001E+02  0.50394763585E+02  0.12731935401E+04  0.90157560364E+03 0.  0.
         23    2    4    4    0    0 -0.40436805085E+03  0.45403900078E+03  0.18475528751E+03  0.64163319830E+03  0.88846553816E+02 0.  0.
         23    2    4    4    0    0 -0.48883563971E+03 -0.36554743978E+03 -0.13436052392E+03  0.63156034177E+03  0.90722111559E+02 0.  0.
          2    1    3    3  502    0  0.79566979625E+03 -0.77073491989E+02 -0.31776158837E+02  0.80002529467E+03  0.00000000000E+00 0. -1.
         -1    1    3    3    0  502  0.97533894304E+02 -0.11418069012E+02 -0.32426798718E+02  0.10341532823E+03  0.00000000000E+00 0.  1.
         11    1    5    5    0    0 -0.33776205010E+03  0.39665807226E+03  0.18745128453E+03  0.55367753508E+03  0.00000000000E+00 0. -1.
        -11    1    5    5    0    0 -0.66606000746E+02  0.57380928523E+02 -0.26959970225E+01  0.87955663225E+02  0.00000000000E+00 0.  1.
          1    1    6    6  503    0 -0.48073829771E+03 -0.36849739828E+03 -0.13942871318E+03  0.62156255476E+03  0.00000000000E+00 0. -1.
         -1    1    6    6    0  503 -0.80973419997E+01  0.29499585038E+01  0.50681892560E+01  0.99977870036E+01  0.00000000000E+00 0.  1.
<mgrwt>
<rscale>  0 0.21765904E+04</rscale>
<asrwt>0</asrwt>
<pdfrwt beam="1">  1        2 0.16849557E+00 0.21765904E+04</pdfrwt>
<pdfrwt beam="2">  1       -1 0.16637123E+00 0.21765904E+04</pdfrwt>
<totfact> 0.59958488E+00</totfact>
</mgrwt>
</event>
<event>
12    6  0.1521603E-007  0.1490268E+04  0.7818608E-02  0.8890950E-01
          2   -1    0    0  501    0  0.00000000000E+00  0.00000000000E+00  0.51329226126E+03  0.51329226126E+03  0.00000000000E+00 0. -1.
         -1   -1    0    0    0  501 -0.00000000000E+00 -0.00000000000E+00 -0.10816931110E+04  0.10816931110E+04  0.00000000000E+00 0.  1.
         24    2    1    2    0    0 -0.30537967413E+03 -0.33213104350E+03 -0.34119657214E+02  0.45942734145E+03  0.79633884984E+02 0.  0.
        254    2    1    2    0    0  0.30537967413E+03  0.33213104350E+03 -0.53428119254E+03  0.11355580308E+04  0.89468870186E+03 0.  0.
         23    2    4    4    0    0  0.30920963551E+03  0.29836117635E+03 -0.76744420239E+03  0.88434264233E+03  0.91985406521E+02 0.  0.
         23    2    4    4    0    0 -0.38299613804E+01  0.33769867143E+02  0.23316300985E+03  0.25121538849E+03  0.87115496460E+02 0.  0.
          4    1    3    3  502    0  0.29482305482E+01 -0.37668792349E+01 -0.66055298005E+01  0.81556401638E+01  0.00000000000E+00 0. -1.
         -3    1    3    3    0  502 -0.30832790468E+03 -0.32836416426E+03 -0.27514127414E+02  0.45127170129E+03  0.00000000000E+00 0.  1.
         11    1    5    5    0    0  0.73354087407E+02  0.67337836093E+02 -0.26544972104E+03  0.28351148250E+03  0.00000000000E+00 0. -1.
        -11    1    5    5    0    0  0.23585554810E+03  0.23102334026E+03 -0.50199448135E+03  0.60083115983E+03  0.00000000000E+00 0.  1.
          3    1    6    6  503    0  0.29292130844E+02  0.21457185880E+02  0.19822415207E+03  0.20152234173E+03  0.00000000000E+00 0. -1.
         -3    1    6    6    0  503 -0.33122092224E+02  0.12312681263E+02  0.34938857780E+02  0.49693046759E+02  0.00000000000E+00 0.  1.
<mgrwt>
<rscale>  0 0.14902680E+04</rscale>
<asrwt>0</asrwt>
<pdfrwt beam="1">  1        2 0.78968041E-01 0.14902680E+04</pdfrwt>
<pdfrwt beam="2">  1       -1 0.16641432E+00 0.14902680E+04</pdfrwt>
<totfact> 0.17265602E+01</totfact>
</mgrwt>
</event>
<event>
12    6  0.1521603E-007  0.2035602E+04  0.7818608E-02  0.8590154E-01
          2   -1    0    0  501    0  0.00000000000E+00  0.00000000000E+00  0.23091902720E+04  0.23091902720E+04  0.00000000000E+00 0. -1.
         -1   -1    0    0    0  501 -0.00000000000E+00 -0.00000000000E+00 -0.44860692166E+03  0.44860692166E+03  0.00000000000E+00 0.  1.
         24    2    1    2    0    0  0.58262240564E+02  0.14729567239E+02 -0.35304900984E+03  0.36685965588E+03  0.79567298163E+02 0.  0.
        254    2    1    2    0    0 -0.58262240564E+02 -0.14729567239E+02  0.22136323602E+04  0.23909375378E+04  0.90155567475E+03 0.  0.
         23    2    4    4    0    0 -0.10952231689E+03 -0.17554340931E+03  0.66567491128E+02  0.23532567049E+03  0.90201518106E+02 0.  0.
         23    2    4    4    0    0  0.51260076329E+02  0.16081384207E+03  0.21470648691E+04  0.21556118673E+04  0.91029024115E+02 0.  0.
          2    1    3    3  502    0  0.81170472029E+01  0.65641612678E+01 -0.27162311739E+00  0.10442626469E+02  0.00000000000E+00 0. -1.
         -1    1    3    3    0  502  0.50145193361E+02  0.81654059713E+01 -0.35277738672E+03  0.35641702941E+03  0.00000000000E+00 0.  1.
         11    1    5    5    0    0 -0.30397918901E+02 -0.39980401363E+02 -0.22297285110E+02  0.54951204627E+02  0.00000000000E+00 0. -1.
        -11    1    5    5    0    0 -0.79124397991E+02 -0.13556300794E+03  0.88864776238E+02  0.18037446587E+03  0.00000000000E+00 0.  1.
          1    1    6    6  503    0 -0.15138650371E+02  0.38874119560E+01  0.78505217970E+02  0.80045986504E+02  0.00000000000E+00 0. -1.
         -1    1    6    6    0  503  0.66398726700E+02  0.15692643011E+03  0.20685596511E+04  0.20755658808E+04  0.00000000000E+00 0.  1.
<mgrwt>
<rscale>  0 0.20356019E+04</rscale>
<asrwt>0</asrwt>
<pdfrwt beam="1">  1        2 0.35526003E+00 0.20356019E+04</pdfrwt>
<pdfrwt beam="2">  1       -1 0.69016451E-01 0.20356019E+04</pdfrwt>
<totfact> 0.10034820E+01</totfact>
</mgrwt>
</event>
<event>
12    6  0.1521603E-007  0.1305128E+04  0.7818608E-02  0.9025509E-01
         -1   -1    0    0    0  501 -0.00000000000E+00  0.00000000000E+00  0.22653753673E+03  0.22653753673E+03  0.00000000000E+00 0.  1.
          2   -1    0    0  501    0  0.00000000000E+00 -0.00000000000E+00 -0.18797747579E+04  0.18797747579E+04  0.00000000000E+00 0. -1.
         24    2    1    2    0    0 -0.87485887751E+02 -0.26554189987E+03 -0.14053062055E+03  0.32262300253E+03  0.78552309354E+02 0.  0.
        254    2    1    2    0    0  0.87485887751E+02  0.26554189987E+03 -0.15127066007E+04  0.17836892921E+04  0.90282885979E+03 0.  0.
         23    2    4    4    0    0  0.42177479723E+03 -0.16679426676E+02 -0.41659614246E+03  0.59997819966E+03  0.90825719428E+02 0.  0.
         23    2    4    4    0    0 -0.33428890948E+03  0.28222132655E+03 -0.10961104582E+04  0.11837110925E+04  0.91191346679E+02 0.  0.
          4    1    3    3  502    0 -0.18003829608E+02 -0.15071208635E+03 -0.46499607162E+02  0.15874660412E+03  0.00000000000E+00 0. -1.
         -3    1    3    3    0  502 -0.69482058143E+02 -0.11482981352E+03 -0.94031013387E+02  0.16387639841E+03  0.00000000000E+00 0.  1.
         11    1    5    5    0    0  0.34959063056E+03  0.20784872493E+02 -0.34561115008E+03  0.49202915255E+03  0.00000000000E+00 0.  1.
        -11    1    5    5    0    0  0.72184166671E+02 -0.37464299168E+02 -0.70984992377E+02  0.10794904711E+03  0.00000000000E+00 0. -1.
          1    1    6    6  503    0 -0.90826586242E+02  0.38289546489E+02 -0.18544467805E+03  0.21001258714E+03  0.00000000000E+00 0. -1.
         -1    1    6    6    0  503 -0.24346232324E+03  0.24393178006E+03 -0.91066578014E+03  0.97369850533E+03  0.00000000000E+00 0.  1.
<mgrwt>
<rscale>  0 0.13051276E+04</rscale>
<asrwt>0</asrwt>
<pdfrwt beam="1">  1        2 0.28919612E+00 0.13051276E+04</pdfrwt>
<pdfrwt beam="2">  1       -1 0.34851928E-01 0.13051276E+04</pdfrwt>
<totfact> 0.68034447E+01</totfact>
</mgrwt>
</event>
<event>
12    6  0.1521603E-007  0.1598575E+04  0.7818608E-02  0.8821424E-01
         -1   -1    0    0    0  501 -0.00000000000E+00  0.00000000000E+00  0.70894927043E+03  0.70894927043E+03  0.00000000000E+00 0.  1.
          2   -1    0    0  501    0  0.00000000000E+00 -0.00000000000E+00 -0.90113677663E+03  0.90113677663E+03  0.00000000000E+00 0. -1.
         24    2    1    2    0    0  0.56630245699E+02 -0.51990524525E+03  0.82834157961E+02  0.53658559449E+03  0.86914634663E+02 0.  0.
        254    2    1    2    0    0 -0.56630245699E+02  0.51990524525E+03 -0.27502166416E+03  0.10735004526E+04  0.89624653815E+03 0.  0.
         23    2    4    4    0    0  0.12825598420E+03 -0.17594275952E+03  0.10029128548E+03  0.25646705758E+03  0.91167744123E+02 0.  0.
         23    2    4    4    0    0 -0.18488622990E+03  0.69584800477E+03 -0.37531294964E+03  0.81703339499E+03  0.91084546556E+02 0.  0.
          2    1    3    3  502    0  0.24505863652E+02 -0.13553140655E+03 -0.15320637120E+02  0.13857857495E+03  0.00000000000E+00 0. -1.
         -1    1    3    3    0  502  0.32124382047E+02 -0.38437383870E+03  0.98154795081E+02  0.39800701953E+03  0.00000000000E+00 0.  1.
         11    1    5    5    0    0  0.88209440974E+00 -0.68911368481E+02  0.20174709171E+02  0.71809286911E+02  0.00000000000E+00 0. -1.
        -11    1    5    5    0    0  0.12737388979E+03 -0.10703139104E+03  0.80116576305E+02  0.18465777067E+03  0.00000000000E+00 0.  1.
          4    1    6    6  503    0 -0.17861458402E+03  0.53342898603E+03 -0.30543018790E+03  0.64010721949E+03  0.00000000000E+00 0.  1.
         -4    1    6    6    0  503 -0.62716458786E+01  0.16241901874E+03 -0.69882761736E+02  0.17692617551E+03  0.00000000000E+00 0. -1.
<mgrwt>
<rscale>  0 0.15985747E+04</rscale>
<asrwt>0</asrwt>
<pdfrwt beam="1">  1        2 0.13863643E+00 0.15985747E+04</pdfrwt>
<pdfrwt beam="2">  1       -1 0.10906912E+00 0.15985747E+04</pdfrwt>
<totfact> 0.24952362E+01</totfact>
</mgrwt>
</event>
<event>
12    6  0.1521603E-007  0.2695542E+04  0.7818608E-02  0.8336453E-01
          2   -1    0    0  501    0  0.00000000000E+00  0.00000000000E+00  0.22789044260E+04  0.22789044260E+04  0.00000000000E+00 0. -1.
         -1   -1    0    0    0  501 -0.00000000000E+00 -0.00000000000E+00 -0.79708749010E+03  0.79708749010E+03  0.00000000000E+00 0.  1.
         24    2    1    2    0    0  0.99991998940E+02 -0.26378300745E+03  0.20025359213E+04  0.20241401522E+04  0.86100900087E+02 0.  0.
        254    2    1    2    0    0 -0.99991998940E+02  0.26378300745E+03 -0.52071898536E+03  0.10518517639E+04  0.86928936299E+03 0.  0.
         23    2    4    4    0    0  0.22563719662E+03  0.44791150054E+03 -0.40134757066E+03  0.64884287472E+03  0.91544234079E+02 0.  0.
         23    2    4    4    0    0 -0.32562919556E+03 -0.18412849309E+03 -0.11937141470E+03  0.40300888916E+03  0.90713588425E+02 0.  0.
          2    1    3    3  502    0  0.69583342021E+02 -0.22187884298E+03  0.18056079615E+04  0.18205197535E+04  0.00000000000E+00 0. -1.
         -1    1    3    3    0  502  0.30408656919E+02 -0.41904164468E+02  0.19692795981E+03  0.20362039870E+03  0.00000000000E+00 0.  1.
         11    1    5    5    0    0  0.92715553598E+01  0.32824410507E+02 -0.61724822271E+02  0.70522034487E+02  0.00000000000E+00 0. -1.
        -11    1    5    5    0    0  0.21636564126E+03  0.41508709003E+03 -0.33962274839E+03  0.57832084024E+03  0.00000000000E+00 0.  1.
          3    1    6    6  503    0 -0.19548493786E+03 -0.15988229708E+03 -0.78165621437E+02  0.26436068964E+03  0.00000000000E+00 0. -1.
         -3    1    6    6    0  503 -0.13014425770E+03 -0.24246196014E+02 -0.41205793266E+02  0.13864819952E+03  0.00000000000E+00 0.  1.
<mgrwt>
<rscale>  0 0.26955417E+04</rscale>
<asrwt>0</asrwt>
<pdfrwt beam="1">  1        2 0.35060068E+00 0.26955417E+04</pdfrwt>
<pdfrwt beam="2">  1       -1 0.12262885E+00 0.26955417E+04</pdfrwt>
<totfact> 0.27293238E+00</totfact>
</mgrwt>
</event>
<event>
12    6  0.1521603E-007  0.2773194E+04  0.7818608E-02  0.8311639E-01
         -3   -1    0    0    0  501 -0.00000000000E+00  0.00000000000E+00  0.16938953870E+04  0.16938953870E+04  0.00000000000E+00 0.  1.
          2   -1    0    0  501    0  0.00000000000E+00 -0.00000000000E+00 -0.11350473639E+04  0.11350473639E+04  0.00000000000E+00 0. -1.
         24    2    1    2    0    0 -0.14751928076E+03  0.12026308228E+04 -0.14946292136E+02  0.12142461906E+04  0.78022980947E+02 0.  0.
        254    2    1    2    0    0  0.14751928076E+03 -0.12026308228E+04  0.57379431528E+03  0.16146965603E+04  0.89995679413E+03 0.  0.
         23    2    4    4    0    0 -0.17654777966E+03 -0.54113450144E+03  0.64957086045E+03  0.86856702329E+03  0.92036427802E+02 0.  0.
         23    2    4    4    0    0  0.32406706043E+03 -0.66149632138E+03 -0.75776545173E+02  0.74612953699E+03  0.91489662300E+02 0.  0.
          2    1    3    3  502    0 -0.12819937033E+03  0.10658104138E+04 -0.37966453135E+02  0.10741640323E+04  0.00000000000E+00 0. -1.
         -1    1    3    3    0  502 -0.19319910431E+02  0.13682040899E+03  0.23020160999E+02  0.14008215828E+03  0.00000000000E+00 0.  1.
         11    1    5    5    0    0 -0.48323701217E+02 -0.66947944771E+02  0.12596525781E+03  0.15061359030E+03  0.00000000000E+00 0. -1.
        -11    1    5    5    0    0 -0.12822407845E+03 -0.47418655667E+03  0.52360560264E+03  0.71795343299E+03  0.00000000000E+00 0.  1.
          3    1    6    6  503    0  0.28894483521E+03 -0.58647883461E+03 -0.37465474876E+02  0.65486655362E+03  0.00000000000E+00 0. -1.
         -3    1    6    6    0  503  0.35122225215E+02 -0.75017486771E+02 -0.38311070296E+02  0.91262983366E+02  0.00000000000E+00 0.  1.
<mgrwt>
<rscale>  0 0.27731942E+04</rscale>
<asrwt>0</asrwt>
<pdfrwt beam="1">  1        2 0.17462267E+00 0.27731942E+04</pdfrwt>
<pdfrwt beam="2">  1       -3 0.26059929E+00 0.27731942E+04</pdfrwt>
<totfact> 0.72087389E-01</totfact>
</mgrwt>
</event>
<event>
12    6  0.1521603E-007  0.1436450E+04  0.7818608E-02  0.8927849E-01
         -1   -1    0    0    0  501 -0.00000000000E+00  0.00000000000E+00  0.36723081193E+03  0.36723081193E+03  0.00000000000E+00 0.  1.
          2   -1    0    0  501    0  0.00000000000E+00 -0.00000000000E+00 -0.14046941729E+04  0.14046941729E+04  0.00000000000E+00 0. -1.
         24    2    1    2    0    0  0.40479217271E+03  0.10425982901E+03 -0.19253267210E+03  0.46707079558E+03  0.79746368067E+02 0.  0.
        254    2    1    2    0    0 -0.40479217271E+03 -0.10425982901E+03 -0.84493068891E+03  0.13048541893E+04  0.90222490058E+03 0.  0.
         23    2    4    4    0    0 -0.15157223092E+03  0.34471453042E+03 -0.10973219168E+03  0.40244456880E+03  0.90101211958E+02 0.  0.
         23    2    4    4    0    0 -0.25321994179E+03 -0.44897435943E+03 -0.73519849722E+03  0.90240962050E+03  0.90155302099E+02 0.  0.
          4    1    3    3  502    0  0.23644196498E+02  0.43900803464E+01 -0.35582465211E+02  0.42946858604E+02  0.00000000000E+00 0. -1.
         -3    1    3    3    0  502  0.38114797621E+03  0.99869748660E+02 -0.15695020689E+03  0.42412393697E+03  0.00000000000E+00 0.  1.
         11    1    5    5    0    0 -0.87183248818E+01  0.12293362308E+03 -0.40112874438E+02  0.12960604757E+03  0.00000000000E+00 0. -1.
        -11    1    5    5    0    0 -0.14285390603E+03  0.22178090734E+03 -0.69619317247E+02  0.27283852122E+03  0.00000000000E+00 0.  1.
          1    1    6    6  503    0 -0.18669950816E+03 -0.39720591756E+03 -0.62307361702E+03  0.76213514518E+03  0.00000000000E+00 0. -1.
         -1    1    6    6    0  503 -0.66520433632E+02 -0.51768441865E+02 -0.11212488020E+03  0.14027447531E+03  0.00000000000E+00 0.  1.
<mgrwt>
<rscale>  0 0.14364498E+04</rscale>
<asrwt>0</asrwt>
<pdfrwt beam="1">  1        2 0.21610679E+00 0.14364498E+04</pdfrwt>
<pdfrwt beam="2">  1       -1 0.56497049E-01 0.14364498E+04</pdfrwt>
<totfact> 0.50443558E+01</totfact>
</mgrwt>
</event>
<event>
12    6  0.1521603E-007  0.1738365E+04  0.7818608E-02  0.8739781E-01
          2   -1    0    0  501    0  0.00000000000E+00  0.00000000000E+00  0.21047238067E+04  0.21047238067E+04  0.00000000000E+00 0. -1.
         -1   -1    0    0    0  501 -0.00000000000E+00 -0.00000000000E+00 -0.35894424957E+03  0.35894424957E+03  0.00000000000E+00 0.  1.
         24    2    1    2    0    0 -0.49455847786E+03 -0.87693990106E+02  0.11749937128E+04  0.12804176587E+04  0.81122324364E+02 0.  0.
        254    2    1    2    0    0  0.49455847786E+03  0.87693990106E+02  0.57078584434E+03  0.11832503977E+04  0.90664585121E+03 0.  0.
         23    2    4    4    0    0  0.71321338723E+03 -0.84285212467E+02  0.50648381129E+03  0.88328044862E+03  0.88775937385E+02 0.  0.
         23    2    4    4    0    0 -0.21865490936E+03  0.17197920257E+03  0.64302033050E+02  0.29996994903E+03  0.91980450965E+02 0.  0.
          2    1    3    3  502    0 -0.43422337602E+03 -0.97950983151E+02  0.10698500000E+04  0.11587594047E+04  0.00000000000E+00 0. -1.
         -1    1    3    3    0  502 -0.60335101847E+02  0.10256993044E+02  0.10514371281E+03  0.12165825400E+03  0.00000000000E+00 0.  1.
         11    1    5    5    0    0  0.56707042483E+03 -0.10058826171E+03  0.41849730266E+03  0.71191773222E+03  0.00000000000E+00 0.  1.
        -11    1    5    5    0    0  0.14614296239E+03  0.16303049245E+02  0.87986508628E+02  0.17136271640E+03  0.00000000000E+00 0. -1.
          1    1    6    6  503    0 -0.21538319231E+02  0.39147298213E+02 -0.18366475939E+02  0.48308773438E+02  0.00000000000E+00 0. -1.
         -1    1    6    6    0  503 -0.19711659013E+03  0.13283190436E+03  0.82668508989E+02  0.25166117559E+03  0.00000000000E+00 0.  1.
<mgrwt>
<rscale>  0 0.17383653E+04</rscale>
<asrwt>0</asrwt>
<pdfrwt beam="1">  1        2 0.32380365E+00 0.17383653E+04</pdfrwt>
<pdfrwt beam="2">  1       -1 0.55222194E-01 0.17383653E+04</pdfrwt>
<totfact> 0.20921895E+01</totfact>
</mgrwt>
</event>
<event>
12    6  0.1521603E-007  0.2671191E+04  0.7818608E-02  0.8344413E-01
          2   -1    0    0  501    0  0.00000000000E+00  0.00000000000E+00  0.16540205555E+04  0.16540205555E+04  0.00000000000E+00 0. -1.
         -1   -1    0    0    0  501 -0.00000000000E+00 -0.00000000000E+00 -0.10784724171E+04  0.10784724171E+04  0.00000000000E+00 0.  1.
         24    2    1    2    0    0  0.99076057761E+03 -0.46717421698E+03  0.70934591046E+03  0.13073746346E+04  0.78730829049E+02 0.  0.
        254    2    1    2    0    0 -0.99076057761E+03  0.46717421698E+03 -0.13379777208E+03  0.14251183379E+04  0.90177722422E+03 0.  0.
         23    2    4    4    0    0 -0.67268718625E+03  0.33389748671E+03  0.34200585338E+03  0.83051252952E+03  0.93741537101E+02 0.  0.
         23    2    4    4    0    0 -0.31807339136E+03  0.13327673027E+03 -0.47580362545E+03  0.59460580840E+03  0.90739232248E+02 0.  0.
          2    1    3    3  502    0  0.22614824305E+03 -0.10070161808E+03  0.12255727796E+03  0.27623202222E+03  0.00000000000E+00 0. -1.
         -1    1    3    3    0  502  0.76461233456E+03 -0.36647259890E+03  0.58678863251E+03  0.10311426124E+04  0.00000000000E+00 0.  1.
         11    1    5    5    0    0 -0.56912494057E+03  0.29839566247E+03  0.32364108982E+03  0.71950449921E+03  0.00000000000E+00 0.  1.
        -11    1    5    5    0    0 -0.10356224568E+03  0.35501824239E+02  0.18364763558E+02  0.11100803031E+03  0.00000000000E+00 0. -1.
          1    1    6    6  503    0 -0.65905239945E+02 -0.94559583547E+01 -0.80205260512E+02  0.10423914627E+03  0.00000000000E+00 0. -1.
         -1    1    6    6    0  503 -0.25216815142E+03  0.14273268863E+03 -0.39559836494E+03  0.49036666214E+03  0.00000000000E+00 0.  1.
<mgrwt>
<rscale>  0 0.26711912E+04</rscale>
<asrwt>0</asrwt>
<pdfrwt beam="1">  1        2 0.25446470E+00 0.26711912E+04</pdfrwt>
<pdfrwt beam="2">  1       -1 0.16591883E+00 0.26711912E+04</pdfrwt>
<totfact> 0.27475142E+00</totfact>
</mgrwt>
</event>
<event>
12    6  0.1521603E-007  0.1457292E+04  0.7818608E-02  0.8913361E-01
          2   -1    0    0  501    0  0.00000000000E+00  0.00000000000E+00  0.22956343614E+04  0.22956343614E+04  0.00000000000E+00 0. -1.
         -1   -1    0    0    0  501 -0.00000000000E+00 -0.00000000000E+00 -0.23127581729E+03  0.23127581729E+03  0.00000000000E+00 0.  1.
         24    2    1    2    0    0 -0.28774740150E+03 -0.20243614189E+03  0.17383169433E+03  0.40069124668E+03  0.80975666744E+02 0.  0.
        254    2    1    2    0    0  0.28774740150E+03  0.20243614189E+03  0.18905268498E+04  0.21262189320E+04  0.90715832053E+03 0.  0.
         23    2    4    4    0    0  0.26654661336E+03 -0.10090667245E+03  0.11183389241E+03  0.31942753564E+03  0.91092685729E+02 0.  0.
         23    2    4    4    0    0  0.21200788138E+02  0.30334281434E+03  0.17786929574E+04  0.18067913964E+04  0.90995477942E+02 0.  0.
          2    1    3    3  502    0 -0.10083852636E+03 -0.11359643980E+03  0.95450761561E+02  0.17939734506E+03  0.00000000000E+00 0. -1.
         -1    1    3    3    0  502 -0.18690887514E+03 -0.88839702089E+02  0.78380932769E+02  0.22129390162E+03  0.00000000000E+00 0.  1.
         11    1    5    5    0    0  0.10663120786E+03 -0.79170456531E+02  0.21676667382E+02  0.13456616806E+03  0.00000000000E+00 0. -1.
        -11    1    5    5    0    0  0.15991540550E+03 -0.21736215921E+02  0.90157225029E+02  0.18486136758E+03  0.00000000000E+00 0.  1.
          4    1    6    6  503    0  0.52528510570E+02  0.24006820511E+03  0.13171399631E+04  0.13398692734E+04  0.00000000000E+00 0. -1.
         -4    1    6    6    0  503 -0.31327722432E+02  0.63274609226E+02  0.46155299432E+03  0.46692212298E+03  0.00000000000E+00 0.  1.
<mgrwt>
<rscale>  0 0.14572916E+04</rscale>
<asrwt>0</asrwt>
<pdfrwt beam="1">  1        2 0.35317450E+00 0.14572916E+04</pdfrwt>
<pdfrwt beam="2">  1       -1 0.35580897E-01 0.14572916E+04</pdfrwt>
<totfact> 0.37987559E+01</totfact>
</mgrwt>
</event>
<event>
12    6  0.1705755E-007  0.1385585E+04  0.7818608E-02  0.8964319E-01
          2   -1    0    0  501    0  0.00000000000E+00  0.00000000000E+00  0.10821184770E+04  0.10821184770E+04  0.00000000000E+00 0. -1.
         -1   -1    0    0    0  501 -0.00000000000E+00 -0.00000000000E+00 -0.44353891420E+03  0.44353891420E+03  0.00000000000E+00 0.  1.
         24    2    1    2    0    0 -0.30072543179E+03 -0.29104929725E+01 -0.81286122539E+02  0.32226922622E+03  0.82497055474E+02 0.  0.
        254    2    1    2    0    0  0.30072543179E+03  0.29104929725E+01  0.71986568530E+03  0.12033881649E+04  0.91623807734E+03 0.  0.
         23    2    4    4    0    0 -0.25267000820E+03 -0.32560253188E+02 -0.23981365955E+02  0.27171864059E+03  0.91398088597E+02 0.  0.
         23    2    4    4    0    0  0.55339543998E+03  0.35470746161E+02  0.74384705125E+03  0.93166952436E+03  0.84823228754E+02 0.  0.
          4    1    3    3  502    0 -0.94395832132E+01  0.85410441053E+01 -0.21050058488E+02  0.24600002601E+02  0.00000000000E+00 0. -1.
         -3    1    3    3    0  502 -0.29128584857E+03 -0.11451537078E+02 -0.60236064051E+02  0.29766922362E+03  0.00000000000E+00 0.  1.
         11    1    5    5    0    0  0.62150188964E+01 -0.82315012179E+01  0.16001217406E+01  0.10437646371E+02  0.00000000000E+00 0. -1.
        -11    1    5    5    0    0 -0.25888502709E+03 -0.24328751971E+02 -0.25581487696E+02  0.26128099421E+03  0.00000000000E+00 0.  1.
          2    1    6    6  503    0  0.98949592995E+02 -0.21335119691E+02  0.16472016594E+03  0.19333634514E+03  0.00000000000E+00 0. -1.
         -2    1    6    6    0  503  0.45444584699E+03  0.56805865852E+02  0.57912688531E+03  0.73833317922E+03  0.00000000000E+00 0.  1.
<mgrwt>
<rscale>  0 0.13855853E+04</rscale>
<asrwt>0</asrwt>
<pdfrwt beam="1">  1        2 0.16647976E+00 0.13855853E+04</pdfrwt>
<pdfrwt beam="2">  1       -1 0.68236757E-01 0.13855853E+04</pdfrwt>
<totfact> 0.54002233E+01</totfact>
</mgrwt>
</event>
<event>
12    6  0.1521603E-007  0.2374996E+04  0.7818608E-02  0.8448924E-01
         -1   -1    0    0    0  501 -0.00000000000E+00  0.00000000000E+00  0.67862819748E+03  0.67862819748E+03  0.00000000000E+00 0.  1.
          2   -1    0    0  501    0  0.00000000000E+00 -0.00000000000E+00 -0.20779439260E+04  0.20779439260E+04  0.00000000000E+00 0. -1.
         24    2    1    2    0    0 -0.25962921732E+03  0.95764238937E+03 -0.36832130713E+03  0.10614059492E+04  0.80222984448E+02 0.  0.
        254    2    1    2    0    0  0.25962921732E+03 -0.95764238937E+03 -0.10309944214E+04  0.16951661743E+04  0.90892936204E+03 0.  0.
         23    2    4    4    0    0  0.47571668326E+03 -0.16206959361E+03 -0.46908656266E+03  0.69336695846E+03  0.90236466689E+02 0.  0.
         23    2    4    4    0    0 -0.21608746593E+03 -0.79557279575E+03 -0.56190785870E+03  0.10017992158E+04  0.90726847624E+02 0.  0.
          4    1    3    3  502    0 -0.18313113354E+03  0.67547642577E+03 -0.29832676086E+03  0.76079187042E+03  0.00000000000E+00 0. -1.
         -3    1    3    3    0  502 -0.76498083783E+02  0.28216596360E+03 -0.69994546271E+02  0.30061407875E+03  0.00000000000E+00 0.  1.
         11    1    5    5    0    0  0.11553598923E+03 -0.36446158332E+02 -0.64269896067E+02  0.13714046378E+03  0.00000000000E+00 0. -1.
        -11    1    5    5    0    0  0.36018069403E+03 -0.12562343528E+03 -0.40481666659E+03  0.55622649469E+03  0.00000000000E+00 0.  1.
          3    1    6    6  503    0 -0.11043078858E+02 -0.41276315994E+01 -0.74153404701E+01  0.13927462352E+02  0.00000000000E+00 0. -1.
         -3    1    6    6    0  503 -0.20504438707E+03 -0.79144516415E+03 -0.55449251823E+03  0.98787175347E+03  0.00000000000E+00 0.  1.
<mgrwt>
<rscale>  0 0.23749959E+04</rscale>
<asrwt>0</asrwt>
<pdfrwt beam="1">  1        2 0.31968368E+00 0.23749959E+04</pdfrwt>
<pdfrwt beam="2">  1       -1 0.10440434E+00 0.23749959E+04</pdfrwt>
<totfact> 0.53468865E+00</totfact>
</mgrwt>
</event>
<event>
12    6  0.1521603E-007  0.1780881E+04  0.7818608E-02  0.8716533E-01
         -1   -1    0    0    0  501 -0.00000000000E+00  0.00000000000E+00  0.48322128360E+03  0.48322128360E+03  0.00000000000E+00 0.  1.
          2   -1    0    0  501    0  0.00000000000E+00 -0.00000000000E+00 -0.16408301044E+04  0.16408301044E+04  0.00000000000E+00 0. -1.
         24    2    1    2    0    0  0.14026251587E+03 -0.58455811937E+03 -0.11010712169E+03  0.61625393622E+03  0.79142702584E+02 0.  0.
        254    2    1    2    0    0 -0.14026251587E+03  0.58455811937E+03 -0.10475016991E+04  0.15077974518E+04  0.90266914077E+03 0.  0.
         23    2    4    4    0    0 -0.16372842954E+03  0.63400147945E+03 -0.11710571386E+04  0.13447810179E+04  0.91083970137E+02 0.  0.
         23    2    4    4    0    0  0.23465913674E+02 -0.49443360078E+02  0.12355543949E+03  0.16301643390E+03  0.91176291500E+02 0.  0.
          4    1    3    3  502    0  0.21059647021E+02 -0.13589671360E+03 -0.57500275778E+02  0.14905605393E+03  0.00000000000E+00 0. -1.
         -3    1    3    3    0  502  0.11920286885E+03 -0.44866140578E+03 -0.52606845916E+02  0.46719788229E+03  0.00000000000E+00 0.  1.
         11    1    5    5    0    0 -0.34161517257E+01  0.85977578449E+02 -0.10803545832E+03  0.13811399040E+03  0.00000000000E+00 0.  1.
        -11    1    5    5    0    0 -0.16031227782E+03  0.54802390100E+03 -0.10630216803E+04  0.12066670275E+04  0.00000000000E+00 0. -1.
          1    1    6    6  503    0  0.56558455643E+02 -0.25314021167E+02  0.93693176571E+02  0.11233018253E+03  0.00000000000E+00 0. -1.
         -1    1    6    6    0  503 -0.33092541969E+02 -0.24129338911E+02  0.29862262922E+02  0.50686251362E+02  0.00000000000E+00 0.  1.
<mgrwt>
<rscale>  0 0.17808807E+04</rscale>
<asrwt>0</asrwt>
<pdfrwt beam="1">  1        2 0.25243540E+00 0.17808807E+04</pdfrwt>
<pdfrwt beam="2">  1       -1 0.74341736E-01 0.17808807E+04</pdfrwt>
<totfact> 0.20755091E+01</totfact>
</mgrwt>
</event>
<event>
12    6  0.1521603E-007  0.1631769E+04  0.7818608E-02  0.8801265E-01
         -1   -1    0    0    0  501 -0.00000000000E+00  0.00000000000E+00  0.44081439189E+03  0.44081439189E+03  0.00000000000E+00 0.  1.
          2   -1    0    0  501    0  0.00000000000E+00 -0.00000000000E+00 -0.15100865085E+04  0.15100865085E+04  0.00000000000E+00 0. -1.
         24    2    1    2    0    0 -0.21580451698E+03  0.47429880240E+03 -0.61347872364E+03  0.80892085485E+03  0.80410581124E+02 0.  0.
        254    2    1    2    0    0  0.21580451698E+03 -0.47429880240E+03 -0.45579339293E+03  0.11419800455E+04  0.90820694985E+03 0.  0.
         23    2    4    4    0    0 -0.33886334338E+03 -0.24954590243E+03 -0.27500213231E+03  0.51052781995E+03  0.88943573454E+02 0.  0.
         23    2    4    4    0    0  0.55466786036E+03 -0.22475289997E+03 -0.18079126062E+03  0.63145222554E+03  0.88747573832E+02 0.  0.
          2    1    3    3  502    0 -0.15969593970E+03  0.35993317066E+03 -0.51284487957E+03  0.64657911426E+03  0.00000000000E+00 0. -1.
         -3    1    3    3    0  502 -0.56108577277E+02  0.11436563173E+03 -0.10063384407E+03  0.16234174059E+03  0.00000000000E+00 0.  1.
         11    1    5    5    0    0 -0.28041927447E+02 -0.39826126986E+02 -0.63512755717E+02  0.80039616594E+02  0.00000000000E+00 0.  1.
        -11    1    5    5    0    0 -0.31082141594E+03 -0.20971977544E+03 -0.21148937659E+03  0.43048820335E+03  0.00000000000E+00 0. -1.
          1    1    6    6  503    0  0.43825170575E+03 -0.16278986242E+03 -0.10432534964E+03  0.47900822068E+03  0.00000000000E+00 0. -1.
         -1    1    6    6    0  503  0.11641615462E+03 -0.61963037556E+02 -0.76465910977E+02  0.15244400487E+03  0.00000000000E+00 0.  1.
<mgrwt>
<rscale>  0 0.16317694E+04</rscale>
<asrwt>0</asrwt>
<pdfrwt beam="1">  1        2 0.23232101E+00 0.16317694E+04</pdfrwt>
<pdfrwt beam="2">  1       -1 0.67817597E-01 0.16317694E+04</pdfrwt>
<totfact> 0.30064993E+01</totfact>
</mgrwt>
</event>
<event>
12    6  0.1521603E-007  0.2113410E+04  0.7818608E-02  0.8555359E-01
         -1   -1    0    0    0  501 -0.00000000000E+00  0.00000000000E+00  0.87579747504E+03  0.87579747504E+03  0.00000000000E+00 0.  1.
          2   -1    0    0  501    0  0.00000000000E+00 -0.00000000000E+00 -0.12749819276E+04  0.12749819276E+04  0.00000000000E+00 0. -1.
         24    2    1    2    0    0  0.17473803566E+03 -0.28826325908E+03 -0.96547978182E+03  0.10260213705E+04  0.83303997820E+02 0.  0.
        254    2    1    2    0    0 -0.17473803566E+03  0.28826325908E+03  0.56629532929E+03  0.11247580321E+04  0.91146099371E+03 0.  0.
         23    2    4    4    0    0 -0.22298051635E+03  0.59434538977E+03  0.44476849724E+03  0.78004064671E+03  0.87622151142E+02 0.  0.
         23    2    4    4    0    0  0.48242480689E+02 -0.30608213069E+03  0.12152683206E+03  0.34471738535E+03  0.89708958216E+02 0.  0.
          2    1    3    3  502    0  0.13577239039E+03 -0.22862546919E+03 -0.84716920487E+03  0.88791858232E+03  0.00000000000E+00 0. -1.
         -1    1    3    3    0  502  0.38965645271E+02 -0.59637789888E+02 -0.11831057695E+03  0.13810278822E+03  0.00000000000E+00 0.  1.
         11    1    5    5    0    0 -0.53900872305E+01  0.26208491518E+02  0.58209988240E+00  0.26763350094E+02  0.00000000000E+00 0. -1.
        -11    1    5    5    0    0 -0.21759042912E+03  0.56813689825E+03  0.44418639736E+03  0.75327729661E+03  0.00000000000E+00 0.  1.
          1    1    6    6  503    0  0.32389363220E+02 -0.23338719249E+03  0.48700490581E+02  0.24060421911E+03  0.00000000000E+00 0.  1.
         -1    1    6    6    0  503  0.15853117469E+02 -0.72694938195E+02  0.72826341474E+02  0.10411316624E+03  0.00000000000E+00 0. -1.
<mgrwt>
<rscale>  0 0.21134105E+04</rscale>
<asrwt>0</asrwt>
<pdfrwt beam="1">  1        2 0.19615106E+00 0.21134105E+04</pdfrwt>
<pdfrwt beam="2">  1       -1 0.13473807E+00 0.21134105E+04</pdfrwt>
<totfact> 0.83064770E+00</totfact>
</mgrwt>
</event>
<event>
12    6  0.1521603E-007  0.3856080E+04  0.7818608E-02  0.8034226E-01
          2   -1    0    0  501    0  0.00000000000E+00  0.00000000000E+00  0.32791684724E+04  0.32791684724E+04  0.00000000000E+00 0. -1.
         -1   -1    0    0    0  501 -0.00000000000E+00 -0.00000000000E+00 -0.11336223797E+04  0.11336223797E+04  0.00000000000E+00 0.  1.
         24    2    1    2    0    0  0.89293462587E+03 -0.85747209191E+03 -0.51888247677E+03  0.13447798778E+04  0.81260449071E+02 0.  0.
        254    2    1    2    0    0 -0.89293462587E+03  0.85747209191E+03  0.26644285695E+04  0.30680109743E+04  0.88369740435E+03 0.  0.
         23    2    4    4    0    0  0.13793001067E+03  0.34030591979E+02  0.14533662486E+03  0.22257002368E+03  0.90729884165E+02 0.  0.
         23    2    4    4    0    0 -0.10308646365E+04  0.82344149993E+03  0.25190919446E+04  0.28454409507E+04  0.99860781630E+02 0.  0.
          2    1    3    3  502    0  0.50317705834E+03 -0.44878821513E+03 -0.31696219009E+03  0.74502553247E+03  0.00000000000E+00 0. -1.
         -1    1    3    3    0  502  0.38975756753E+03 -0.40868387678E+03 -0.20192028668E+03  0.59975434534E+03  0.00000000000E+00 0.  1.
         11    1    5    5    0    0  0.66644995213E+02  0.55143899475E+02  0.11087325770E+03  0.14062462199E+03  0.00000000000E+00 0.  1.
        -11    1    5    5    0    0  0.71285015456E+02 -0.21113307496E+02  0.34463367159E+02  0.81945401689E+02  0.00000000000E+00 0. -1.
          4    1    6    6  503    0 -0.77904552280E+03  0.64201242681E+03  0.20083390855E+04  0.22477806310E+04  0.00000000000E+00 0. -1.
         -4    1    6    6    0  503 -0.25181911374E+03  0.18142907312E+03  0.51075285907E+03  0.59766031963E+03  0.00000000000E+00 0.  1.
<mgrwt>
<rscale>  0 0.38560803E+04</rscale>
<asrwt>0</asrwt>
<pdfrwt beam="1">  1        2 0.50448745E+00 0.38560803E+04</pdfrwt>
<pdfrwt beam="2">  1       -1 0.17440344E+00 0.38560803E+04</pdfrwt>
<totfact> 0.23775816E-01</totfact>
</mgrwt>
</event>
<event>
12    6  0.1521603E-007  0.1232259E+04  0.7818608E-02  0.9085080E-01
          2   -1    0    0  501    0  0.00000000000E+00  0.00000000000E+00  0.25311123858E+03  0.25311123858E+03  0.00000000000E+00 0. -1.
         -1   -1    0    0    0  501 -0.00000000000E+00 -0.00000000000E+00 -0.14997963673E+04  0.14997963673E+04  0.00000000000E+00 0.  1.
         24    2    1    2    0    0 -0.19759562710E+03  0.18412839187E+03 -0.42142925354E+03  0.50686511762E+03  0.79764247447E+02 0.  0.
        254    2    1    2    0    0  0.19759562710E+03 -0.18412839187E+03 -0.82525587521E+03  0.12460424883E+04  0.89365951376E+03 0.  0.
         23    2    4    4    0    0  0.12978920222E+03 -0.31251639849E+03  0.50113947036E+02  0.35400535845E+03  0.91085947269E+02 0.  0.
         23    2    4    4    0    0  0.67806424881E+02  0.12838800662E+03 -0.87536982224E+03  0.89203712984E+03  0.91524443847E+02 0.  0.
          4    1    3    3  502    0 -0.10776309620E+03  0.56367895879E+02 -0.14389915938E+03  0.18840698675E+03  0.00000000000E+00 0. -1.
         -3    1    3    3    0  502 -0.89832530905E+02  0.12776049599E+03 -0.27753009417E+03  0.31845813086E+03  0.00000000000E+00 0.  1.
         11    1    5    5    0    0  0.13470963671E+03 -0.25540369670E+03  0.62308969821E+02  0.29539827730E+03  0.00000000000E+00 0.  1.
        -11    1    5    5    0    0 -0.49204344863E+01 -0.57112701788E+02 -0.12195022785E+02  0.58607081157E+02  0.00000000000E+00 0. -1.
          1    1    6    6  503    0  0.64696758482E+02  0.35112713780E+02 -0.49170429377E+03  0.49718375450E+03  0.00000000000E+00 0. -1.
         -1    1    6    6    0  503  0.31096663988E+01  0.93275292837E+02 -0.38366552848E+03  0.39485337534E+03  0.00000000000E+00 0.  1.
<mgrwt>
<rscale>  0 0.12322586E+04</rscale>
<asrwt>0</asrwt>
<pdfrwt beam="1">  1        2 0.38940189E-01 0.12322586E+04</pdfrwt>
<pdfrwt beam="2">  1       -1 0.23073791E+00 0.12322586E+04</pdfrwt>
<totfact> 0.14001558E+01</totfact>
</mgrwt>
</event>
<event>
12    6  0.1521603E-007  0.1434320E+04  0.7818608E-02  0.8929344E-01
         -1   -1    0    0    0  501 -0.00000000000E+00  0.00000000000E+00  0.84874595924E+03  0.84874595924E+03  0.00000000000E+00 0.  1.
          2   -1    0    0  501    0  0.00000000000E+00 -0.00000000000E+00 -0.60597467895E+03  0.60597467895E+03  0.00000000000E+00 0. -1.
         24    2    1    2    0    0  0.85427325098E+02  0.39307580376E+03  0.21641253868E+03  0.46375051266E+03  0.80148210921E+02 0.  0.
        254    2    1    2    0    0 -0.85427325098E+02 -0.39307580376E+03  0.26358741609E+02  0.99097012553E+03  0.90527376580E+03 0.  0.
         23    2    4    4    0    0 -0.23321814165E+03 -0.90421443131E+02  0.39996211028E+03  0.47991960491E+03  0.88240571942E+02 0.  0.
         23    2    4    4    0    0  0.14779081655E+03 -0.30265436063E+03 -0.37360336868E+03  0.51105052062E+03  0.90284938234E+02 0.  0.
          2    1    3    3  502    0  0.62170972103E+02  0.11242247962E+03  0.63687269500E+02  0.14338797716E+03  0.00000000000E+00 0. -1.
         -1    1    3    3    0  502  0.23256352995E+02  0.28065332414E+03  0.15272526918E+03  0.32036253550E+03  0.00000000000E+00 0.  1.
         11    1    5    5    0    0 -0.20558324368E+03 -0.86912863067E+02  0.39175805141E+03  0.45087990274E+03  0.00000000000E+00 0.  1.
        -11    1    5    5    0    0 -0.27634897973E+02 -0.35085800650E+01  0.82040588746E+01  0.29039702169E+02  0.00000000000E+00 0. -1.
          3    1    6    6  503    0 -0.33945804585E+01  0.45351344276E+01 -0.26799038590E+01  0.62667779169E+01  0.00000000000E+00 0. -1.
         -3    1    6    6    0  503  0.15118539701E+03 -0.30718949506E+03 -0.37092346482E+03  0.50478374270E+03  0.00000000000E+00 0.  1.
<mgrwt>
<rscale>  0 0.14343201E+04</rscale>
<asrwt>0</asrwt>
<pdfrwt beam="1">  1        2 0.93226874E-01 0.14343201E+04</pdfrwt>
<pdfrwt beam="2">  1       -1 0.13057630E+00 0.14343201E+04</pdfrwt>
<totfact> 0.27271679E+01</totfact>
</mgrwt>
</event>
<event>
12    6  0.1521603E-007  0.1869771E+04  0.7818608E-02  0.8670051E-01
         -1   -1    0    0    0  501 -0.00000000000E+00  0.00000000000E+00  0.54282124491E+03  0.54282124491E+03  0.00000000000E+00 0.  1.
          2   -1    0    0  501    0  0.00000000000E+00 -0.00000000000E+00 -0.16101270956E+04  0.16101270956E+04  0.00000000000E+00 0. -1.
         24    2    1    2    0    0  0.47684958751E+03  0.40518735190E+03 -0.79864226564E+03  0.10177265333E+04  0.79846784306E+02 0.  0.
        254    2    1    2    0    0 -0.47684958751E+03 -0.40518735190E+03 -0.26866358508E+03  0.11352218072E+04  0.90828746019E+03 0.  0.
         23    2    4    4    0    0  0.72408674335E+02 -0.39585725349E+03  0.14957674134E+03  0.43892327272E+03  0.91293244684E+02 0.  0.
         23    2    4    4    0    0 -0.54925826184E+03 -0.93300984067E+01 -0.41824032643E+03  0.69629853447E+03  0.90194176744E+02 0.  0.
          2    1    3    3  502    0  0.44916213264E+03  0.36898705070E+03 -0.76636263817E+03  0.96187824498E+03  0.00000000000E+00 0. -1.
         -1    1    3    3    0  502  0.27687454873E+02  0.36200301196E+02 -0.32279627472E+02  0.55848288369E+02  0.00000000000E+00 0.  1.
         11    1    5    5    0    0 -0.94855201716E+01 -0.25539207166E+02  0.31620899530E+02  0.41738561100E+02  0.00000000000E+00 0.  1.
        -11    1    5    5    0    0  0.81894194506E+02 -0.37031804633E+03  0.11795584181E+03  0.39718471162E+03  0.00000000000E+00 0. -1.
          3    1    6    6  503    0 -0.38142510804E+03  0.89458467841E+01 -0.23970444345E+03  0.45058113745E+03  0.00000000000E+00 0. -1.
         -3    1    6    6    0  503 -0.16783315380E+03 -0.18275945191E+02 -0.17853588297E+03  0.24571739702E+03  0.00000000000E+00 0.  1.
<mgrwt>
<rscale>  0 0.18697713E+04</rscale>
<asrwt>0</asrwt>
<pdfrwt beam="1">  1        2 0.24771186E+00 0.18697713E+04</pdfrwt>
<pdfrwt beam="2">  1       -1 0.83510960E-01 0.18697713E+04</pdfrwt>
<totfact> 0.16746148E+01</totfact>
</mgrwt>
</event>
<event>
12    6  0.1521603E-007  0.1174401E+04  0.7818608E-02  0.9135563E-01
          2   -1    0    0  501    0  0.00000000000E+00  0.00000000000E+00  0.10738580069E+04  0.10738580069E+04  0.00000000000E+00 0. -1.
         -1   -1    0    0    0  501 -0.00000000000E+00 -0.00000000000E+00 -0.32108952789E+03  0.32108952789E+03  0.00000000000E+00 0.  1.
         24    2    1    2    0    0  0.84013453901E+02  0.76757846233E+02 -0.84107133887E+02  0.16008085668E+03  0.74845462866E+02 0.  0.
        254    2    1    2    0    0 -0.84013453901E+02 -0.76757846233E+02  0.83687561292E+03  0.12348666781E+04  0.90088006629E+03 0.  0.
         23    2    4    4    0    0 -0.47599320262E+03  0.43156054912E+01  0.55836227935E+03  0.73958838269E+03  0.92921404604E+02 0.  0.
         23    2    4    4    0    0  0.39197974872E+03 -0.81073451724E+02  0.27851333358E+03  0.49527829543E+03  0.86659592475E+02 0.  0.
          4    1    3    3  502    0  0.31191557710E+02  0.42548536605E+02 -0.81512158933E+02  0.97095433948E+02  0.00000000000E+00 0. -1.
         -3    1    3    3    0  502  0.52821896190E+02  0.34209309628E+02 -0.25949749547E+01  0.62985422737E+02  0.00000000000E+00 0.  1.
         11    1    5    5    0    0 -0.16224198390E+03  0.36434030591E+02  0.23506464844E+03  0.28793278534E+03  0.00000000000E+00 0.  1.
        -11    1    5    5    0    0 -0.31375121871E+03 -0.32118425100E+02  0.32329763090E+03  0.45165559736E+03  0.00000000000E+00 0. -1.
          4    1    6    6  503    0  0.21550198232E+03 -0.43960688773E+00  0.14905582214E+03  0.26202850179E+03  0.00000000000E+00 0. -1.
         -4    1    6    6    0  503  0.17647776640E+03 -0.80633844837E+02  0.12945751144E+03  0.23324979364E+03  0.00000000000E+00 0.  1.
<mgrwt>
<rscale>  0 0.11744012E+04</rscale>
<asrwt>0</asrwt>
<pdfrwt beam="1">  1        2 0.16520892E+00 0.11744012E+04</pdfrwt>
<pdfrwt beam="2">  1       -1 0.49398389E-01 0.11744012E+04</pdfrwt>
<totfact> 0.10466547E+02</totfact>
</mgrwt>
</event>
<event>
12    6  0.1521603E-007  0.1670156E+04  0.7818608E-02  0.8778571E-01
         -1   -1    0    0    0  501 -0.00000000000E+00  0.00000000000E+00  0.12360972606E+04  0.12360972606E+04  0.00000000000E+00 0.  1.
          2   -1    0    0  501    0  0.00000000000E+00 -0.00000000000E+00 -0.56415882946E+03  0.56415882946E+03  0.00000000000E+00 0. -1.
         24    2    1    2    0    0  0.52434629644E+03 -0.30568768334E+03  0.30593021034E+03  0.68405821705E+03  0.77190364567E+02 0.  0.
        254    2    1    2    0    0 -0.52434629644E+03  0.30568768334E+03  0.36600822076E+03  0.11161978730E+04  0.86229442515E+03 0.  0.
         23    2    4    4    0    0  0.11527836926E+03 -0.15323957358E+02  0.36577007870E+03  0.39470491454E+03  0.92088506335E+02 0.  0.
         23    2    4    4    0    0 -0.63962466569E+03  0.32101164069E+03  0.23814206180E+00  0.72149295844E+03  0.91563343908E+02 0.  0.
          2    1    3    3  502    0  0.45450942169E+03 -0.26064761967E+03  0.29194080234E+03  0.59978781925E+03  0.00000000000E+00 0. -1.
         -1    1    3    3    0  502  0.69836874744E+02 -0.45040063668E+02  0.13989407998E+02  0.84270397800E+02  0.00000000000E+00 0.  1.
         11    1    5    5    0    0  0.35577394196E+02 -0.48915685085E+02  0.17738612390E+03  0.18741486648E+03  0.00000000000E+00 0.  1.
        -11    1    5    5    0    0  0.79700975062E+02  0.33591727727E+02  0.18838395480E+03  0.20729004806E+03  0.00000000000E+00 0. -1.
          4    1    6    6  503    0 -0.37192013771E+02  0.45755562314E+02  0.45686120834E+01  0.59141268057E+02  0.00000000000E+00 0. -1.
         -4    1    6    6    0  503 -0.60243265192E+03  0.27525607838E+03 -0.43304700216E+01  0.66235169039E+03  0.00000000000E+00 0.  1.
<mgrwt>
<rscale>  0 0.16701559E+04</rscale>
<asrwt>0</asrwt>
<pdfrwt beam="1">  1        2 0.86793666E-01 0.16701559E+04</pdfrwt>
<pdfrwt beam="2">  1       -1 0.19016881E+00 0.16701559E+04</pdfrwt>
<totfact> 0.10255469E+01</totfact>
</mgrwt>
</event>
<event>
12    6  0.1521603E-007  0.1248391E+04  0.7818608E-02  0.9071523E-01
         -1   -1    0    0    0  501 -0.00000000000E+00  0.00000000000E+00  0.14887717566E+03  0.14887717566E+03  0.00000000000E+00 0.  1.
          2   -1    0    0  501    0  0.00000000000E+00 -0.00000000000E+00 -0.26170574985E+04  0.26170574985E+04  0.00000000000E+00 0. -1.
         24    2    1    2    0    0  0.18909526269E+03  0.35304721812E+02 -0.11131870960E+04  0.11324588307E+04  0.79208905839E+02 0.  0.
        254    2    1    2    0    0 -0.18909526269E+03 -0.35304721812E+02 -0.13549932268E+04  0.16334758434E+04  0.89175851250E+03 0.  0.
         23    2    4    4    0    0 -0.55867107520E+02 -0.14448621812E+03  0.71893304706E+02  0.19335228449E+03  0.90659019000E+02 0.  0.
         23    2    4    4    0    0 -0.13322815517E+03  0.10918149631E+03 -0.14268865315E+04  0.14401235589E+04  0.90996432451E+02 0.  0.
          2    1    3    3  502    0  0.10297566158E+03 -0.35315510798E+01 -0.75602101538E+03  0.76300998318E+03  0.00000000000E+00 0. -1.
         -1    1    3    3    0  502  0.86119601113E+02  0.38836272891E+02 -0.35716608066E+03  0.36944884756E+03  0.00000000000E+00 0.  1.
         11    1    5    5    0    0 -0.63142031010E+02 -0.42392289693E+02  0.41205197661E+02  0.86497922633E+02  0.00000000000E+00 0. -1.
        -11    1    5    5    0    0  0.72749234903E+01 -0.10209392843E+03  0.30688107045E+02  0.10685436186E+03  0.00000000000E+00 0.  1.
          3    1    6    6  503    0 -0.18350105446E+02  0.67515431519E+02 -0.41083791411E+03  0.41675274628E+03  0.00000000000E+00 0. -1.
         -3    1    6    6    0  503 -0.11487804972E+03  0.41666064793E+02 -0.10160486174E+04  0.10233708127E+04  0.00000000000E+00 0.  1.
<mgrwt>
<rscale>  0 0.12483912E+04</rscale>
<asrwt>0</asrwt>
<pdfrwt beam="1">  1        2 0.40262419E+00 0.12483912E+04</pdfrwt>
<pdfrwt beam="2">  1       -1 0.22904183E-01 0.12483912E+04</pdfrwt>
<totfact> 0.54578953E+01</totfact>
</mgrwt>
</event>
<event>
12    6  0.1521603E-007  0.1700738E+04  0.7818608E-02  0.8760943E-01
         -1   -1    0    0    0  501 -0.00000000000E+00  0.00000000000E+00  0.18126293820E+04  0.18126293820E+04  0.00000000000E+00 0.  1.
          2   -1    0    0  501    0  0.00000000000E+00 -0.00000000000E+00 -0.39893855981E+03  0.39893855981E+03  0.00000000000E+00 0. -1.
         24    2    1    2    0    0 -0.85748416426E+01 -0.32465719984E+03  0.11924205136E+04  0.12385721084E+04  0.81965609512E+02 0.  0.
        254    2    1    2    0    0  0.85748416426E+01  0.32465719984E+03  0.22127030855E+03  0.97299583337E+03  0.89010365519E+03 0.  0.
         23    2    4    4    0    0 -0.18737710113E+03  0.56923357074E+03  0.60224315671E+02  0.60907858743E+03  0.90624066258E+02 0.  0.
         23    2    4    4    0    0  0.19595194277E+03 -0.24457637090E+03  0.16104599288E+03  0.36391724594E+03  0.91022991558E+02 0.  0.
          2    1    3    3  502    0 -0.21678999100E+02 -0.87736526984E+02  0.45594198637E+03  0.46481262042E+03  0.00000000000E+00 0. -1.
         -1    1    3    3    0  502  0.13104157458E+02 -0.23692067286E+03  0.73647852726E+03  0.77375948801E+03  0.00000000000E+00 0.  1.
         11    1    5    5    0    0 -0.11351914979E+03  0.21806312207E+03  0.44826881858E+02  0.24989512183E+03  0.00000000000E+00 0.  1.
        -11    1    5    5    0    0 -0.73857951334E+02  0.35117044867E+03  0.15397433813E+02  0.35918346560E+03  0.00000000000E+00 0. -1.
          3    1    6    6  503    0  0.71387318524E+02 -0.10748811029E+03  0.11548815632E+03  0.17316858072E+03  0.00000000000E+00 0. -1.
         -3    1    6    6    0  503  0.12456462425E+03 -0.13708826060E+03  0.45557836564E+02  0.19074866521E+03  0.00000000000E+00 0.  1.
<mgrwt>
<rscale>  0 0.17007384E+04</rscale>
<asrwt>0</asrwt>
<pdfrwt beam="1">  1        2 0.61375164E-01 0.17007384E+04</pdfrwt>
<pdfrwt beam="2">  1       -1 0.27886605E+00 0.17007384E+04</pdfrwt>
<totfact> 0.39320832E+00</totfact>
</mgrwt>
</event>
<event>
12    6  0.1521603E-007  0.1302479E+04  0.7818608E-02  0.9027601E-01
         -1   -1    0    0    0  501 -0.00000000000E+00  0.00000000000E+00  0.44948640668E+03  0.44948640668E+03  0.00000000000E+00 0.  1.
          2   -1    0    0  501    0  0.00000000000E+00 -0.00000000000E+00 -0.94355039401E+03  0.94355039401E+03  0.00000000000E+00 0. -1.
         24    2    1    2    0    0  0.30010451466E+03 -0.13434138312E+03 -0.20023313459E+03  0.39218533866E+03  0.74871254450E+02 0.  0.
        254    2    1    2    0    0 -0.30010451466E+03  0.13434138312E+03 -0.29383085274E+03  0.10008514620E+04  0.89847468083E+03 0.  0.
         23    2    4    4    0    0 -0.55507030706E+03  0.30037959618E+03 -0.17698635216E+03  0.66172846510E+03  0.90716288995E+02 0.  0.
         23    2    4    4    0    0  0.25496579241E+03 -0.16603821306E+03 -0.11684450058E+03  0.33912299693E+03  0.93677778769E+02 0.  0.
          2    1    3    3  502    0  0.21802271044E+03 -0.59550088900E+02 -0.13996629718E+03  0.26583957512E+03  0.00000000000E+00 0. -1.
         -1    1    3    3    0  502  0.82081804218E+02 -0.74791294217E+02 -0.60266837402E+02  0.12634576354E+03  0.00000000000E+00 0.  1.
         11    1    5    5    0    0 -0.52053037673E+03  0.25425097267E+03 -0.15198175569E+03  0.59891058119E+03  0.00000000000E+00 0. -1.
        -11    1    5    5    0    0 -0.34539930337E+02  0.46128623505E+02 -0.25004596469E+02  0.62817883909E+02  0.00000000000E+00 0.  1.
          3    1    6    6  503    0  0.21823584182E+03 -0.15764385137E+03 -0.68436356668E+02  0.27778049147E+03  0.00000000000E+00 0. -1.
         -3    1    6    6    0  503  0.36729950591E+02 -0.83943616891E+01 -0.48408143911E+02  0.61342505454E+02  0.00000000000E+00 0.  1.
<mgrwt>
<rscale>  0 0.13024793E+04</rscale>
<asrwt>0</asrwt>
<pdfrwt beam="1">  1        2 0.14516160E+00 0.13024793E+04</pdfrwt>
<pdfrwt beam="2">  1       -1 0.69151755E-01 0.13024793E+04</pdfrwt>
<totfact> 0.64874540E+01</totfact>
</mgrwt>
</event>
<event>
12    6  0.1521603E-007  0.1767225E+04  0.7818608E-02  0.8723926E-01
          2   -1    0    0  501    0  0.00000000000E+00  0.00000000000E+00  0.17913449192E+04  0.17913449192E+04  0.00000000000E+00 0. -1.
         -1   -1    0    0    0  501 -0.00000000000E+00 -0.00000000000E+00 -0.43585743677E+03  0.43585743677E+03  0.00000000000E+00 0.  1.
         24    2    1    2    0    0 -0.14701129325E+03  0.36291984851E+03  0.11358554727E+04  0.12041212202E+04  0.80106936638E+02 0.  0.
        254    2    1    2    0    0  0.14701129325E+03 -0.36291984851E+03  0.21963200974E+03  0.10230811358E+04  0.91931151079E+03 0.  0.
         23    2    4    4    0    0 -0.28903534882E+03 -0.84549437331E+02 -0.18097303271E+03  0.36244150233E+03  0.89008785096E+02 0.  0.
         23    2    4    4    0    0  0.43604664207E+03 -0.27837041118E+03  0.40060504245E+03  0.66063963344E+03  0.91288363787E+02 0.  0.
          2    1    3    3  502    0 -0.12409491307E+03  0.20743714457E+03  0.65086010686E+03  0.69429719508E+03  0.00000000000E+00 0. -1.
         -1    1    3    3    0  502 -0.22916380176E+02  0.15548270395E+03  0.48499536579E+03  0.50982402508E+03  0.00000000000E+00 0.  1.
         11    1    5    5    0    0 -0.16634796156E+03 -0.44054968895E+02 -0.51714525920E+02  0.17968549411E+03  0.00000000000E+00 0. -1.
        -11    1    5    5    0    0 -0.12268738725E+03 -0.40494468436E+02 -0.12925850679E+03  0.18275600822E+03  0.00000000000E+00 0.  1.
          1    1    6    6  503    0  0.15690733800E+03 -0.91113892618E+02  0.19619851473E+03  0.26723680759E+03  0.00000000000E+00 0. -1.
         -1    1    6    6    0  503  0.27913930407E+03 -0.18725651856E+03  0.20440652772E+03  0.39340282586E+03  0.00000000000E+00 0.  1.
<mgrwt>
<rscale>  0 0.17672249E+04</rscale>
<asrwt>0</asrwt>
<pdfrwt beam="1">  1        2 0.27559152E+00 0.17672249E+04</pdfrwt>
<pdfrwt beam="2">  1       -1 0.67054991E-01 0.17672249E+04</pdfrwt>
<totfact> 0.21190794E+01</totfact>
</mgrwt>
</event>
<event>
12    6  0.1521603E-007  0.1672404E+04  0.7818608E-02  0.8777262E-01
          2   -1    0    0  501    0  0.00000000000E+00  0.00000000000E+00  0.16787407294E+04  0.16787407294E+04  0.00000000000E+00 0. -1.
         -1   -1    0    0    0  501 -0.00000000000E+00 -0.00000000000E+00 -0.41652285833E+03  0.41652285833E+03  0.00000000000E+00 0.  1.
         24    2    1    2    0    0  0.38231992496E+03 -0.29904844546E+03  0.87187205750E+03  0.10010728740E+04  0.79921940742E+02 0.  0.
        254    2    1    2    0    0 -0.38231992496E+03  0.29904844546E+03  0.39034581360E+03  0.10941907138E+04  0.89960267128E+03 0.  0.
         23    2    4    4    0    0 -0.28586998061E+03  0.61283008501E+03  0.24189241824E+03  0.72366285853E+03  0.88846113604E+02 0.  0.
         23    2    4    4    0    0 -0.96449944347E+02 -0.31378163955E+03  0.14845339536E+03  0.37052785525E+03  0.86550400546E+02 0.  0.
          4    1    3    3  502    0  0.37845628830E+03 -0.30137210810E+03  0.87119820633E+03  0.99651423693E+03  0.00000000000E+00 0. -1.
         -1    1    3    3    0  502  0.38636366646E+01  0.23236626441E+01  0.67385117482E+00  0.45586370513E+01  0.00000000000E+00 0.  1.
         11    1    5    5    0    0 -0.21700010362E+03  0.49496854772E+03  0.15651435082E+03  0.56265411242E+03  0.00000000000E+00 0. -1.
        -11    1    5    5    0    0 -0.68869876995E+02  0.11786153729E+03  0.85378067416E+02  0.16100874612E+03  0.00000000000E+00 0.  1.
          4    1    6    6  503    0 -0.13343502764E+02 -0.19192114927E+02  0.38981861603E+02  0.45452963330E+02  0.00000000000E+00 0. -1.
         -4    1    6    6    0  503 -0.83106441583E+02 -0.29458952463E+03  0.10947153376E+03  0.32507489192E+03  0.00000000000E+00 0.  1.
<mgrwt>
<rscale>  0 0.16724041E+04</rscale>
<asrwt>0</asrwt>
<pdfrwt beam="1">  1        2 0.25826780E+00 0.16724041E+04</pdfrwt>
<pdfrwt beam="2">  1       -1 0.64080440E-01 0.16724041E+04</pdfrwt>
<totfact> 0.27036920E+01</totfact>
</mgrwt>
</event>
<event>
12    6  0.1521603E-007  0.1813187E+04  0.7818608E-02  0.8699318E-01
          2   -1    0    0  501    0  0.00000000000E+00  0.00000000000E+00  0.16731545325E+04  0.16731545325E+04  0.00000000000E+00 0. -1.
         -1   -1    0    0    0  501 -0.00000000000E+00 -0.00000000000E+00 -0.49123508393E+03  0.49123508393E+03  0.00000000000E+00 0.  1.
         24    2    1    2    0    0  0.48921497840E+03  0.43736519511E+03  0.21939708145E+03  0.69641259437E+03  0.78967165761E+02 0.  0.
        254    2    1    2    0    0 -0.48921497840E+03 -0.43736519511E+03  0.96252236713E+03  0.14679770221E+04  0.89324555475E+03 0.  0.
         23    2    4    4    0    0 -0.29594702318E+03  0.50739368161E+02  0.87290534679E+03  0.92765281235E+03  0.91743510883E+02 0.  0.
         23    2    4    4    0    0 -0.19326795523E+03 -0.48810456327E+03  0.89617020332E+02  0.54032420971E+03  0.91216632601E+02 0.  0.
          4    1    3    3  502    0  0.57217780930E+02  0.84991601709E+02  0.20342646313E+02  0.10445702501E+03  0.00000000000E+00 0. -1.
         -3    1    3    3    0  502  0.43199719747E+03  0.35237359340E+03  0.19905443514E+03  0.59195556936E+03  0.00000000000E+00 0.  1.
         11    1    5    5    0    0 -0.15861147332E+03  0.23199050114E+02  0.32860574274E+03  0.36561937799E+03  0.00000000000E+00 0. -1.
        -11    1    5    5    0    0 -0.13733554986E+03  0.27540318047E+02  0.54429960405E+03  0.56203343436E+03  0.00000000000E+00 0.  1.
          3    1    6    6  503    0 -0.78375720789E+02 -0.19175207525E+03 -0.95438260186E+01  0.20737091548E+03  0.00000000000E+00 0. -1.
         -3    1    6    6    0  503 -0.11489223444E+03 -0.29635248802E+03  0.99160846351E+02  0.33295329423E+03  0.00000000000E+00 0.  1.
<mgrwt>
<rscale>  0 0.18131875E+04</rscale>
<asrwt>0</asrwt>
<pdfrwt beam="1">  1        2 0.25740839E+00 0.18131875E+04</pdfrwt>
<pdfrwt beam="2">  1       -1 0.75574629E-01 0.18131875E+04</pdfrwt>
<totfact> 0.19185823E+01</totfact>
</mgrwt>
</event>
<event>
12    6  0.1521603E-007  0.2118129E+04  0.7818608E-02  0.8553299E-01
         -1   -1    0    0    0  501 -0.00000000000E+00  0.00000000000E+00  0.58068942114E+03  0.58068942114E+03  0.00000000000E+00 0.  1.
          2   -1    0    0  501    0  0.00000000000E+00 -0.00000000000E+00 -0.19315271705E+04  0.19315271705E+04  0.00000000000E+00 0. -1.
         24    2    1    2    0    0 -0.40265257935E+03 -0.43982830126E+03  0.19447385950E+03  0.63388048920E+03  0.91686194766E+02 0.  0.
        254    2    1    2    0    0  0.40265257935E+03  0.43982830126E+03 -0.15453116088E+04  0.18783361024E+04  0.88576549436E+03 0.  0.
         23    2    4    4    0    0  0.10584229796E+03  0.23121996335E+03  0.17738413482E+02  0.27060423431E+03  0.90811545662E+02 0.  0.
         23    2    4    4    0    0  0.29681028139E+03  0.20860833791E+03 -0.15630500223E+04  0.16077318681E+04  0.10031253989E+03 0.  0.
          4    1    3    3  502    0 -0.13147702115E+03 -0.87004806236E+02  0.63990374637E+02  0.17014937979E+03  0.00000000000E+00 0. -1.
         -3    1    3    3    0  502 -0.27117555820E+03 -0.35282349502E+03  0.13048348486E+03  0.46373110940E+03  0.00000000000E+00 0.  1.
         11    1    5    5    0    0  0.53238119120E+02  0.37873419560E+02 -0.16351190273E+02  0.67350238752E+02  0.00000000000E+00 0. -1.
        -11    1    5    5    0    0  0.52604178841E+02  0.19334654379E+03  0.34089603755E+02  0.20325399556E+03  0.00000000000E+00 0.  1.
          4    1    6    6  503    0  0.15864291639E+02  0.52539245031E+02 -0.24342333976E+03  0.24953350548E+03  0.00000000000E+00 0. -1.
         -4    1    6    6    0  503  0.28094598975E+03  0.15606909288E+03 -0.13196266826E+04  0.13581983626E+04  0.00000000000E+00 0.  1.
<mgrwt>
<rscale>  0 0.21181288E+04</rscale>
<asrwt>0</asrwt>
<pdfrwt beam="1">  1        2 0.29715803E+00 0.21181288E+04</pdfrwt>
<pdfrwt beam="2">  1       -1 0.89336833E-01 0.21181288E+04</pdfrwt>
<totfact> 0.93806618E+00</totfact>
</mgrwt>
</event>
<event>
12    6  0.1521603E-007  0.1778777E+04  0.7818608E-02  0.8717668E-01
         -1   -1    0    0    0  501 -0.00000000000E+00  0.00000000000E+00  0.28092659189E+03  0.28092659189E+03  0.00000000000E+00 0.  1.
          2   -1    0    0  501    0  0.00000000000E+00 -0.00000000000E+00 -0.28157256653E+04  0.28157256653E+04  0.00000000000E+00 0. -1.
         24    2    1    2    0    0 -0.43778408284E+03 -0.20018415182E+03 -0.16762894842E+03  0.51632154400E+03  0.82218456698E+02 0.  0.
        254    2    1    2    0    0  0.43778408284E+03  0.20018415182E+03 -0.23671701250E+04  0.25803307132E+04  0.90712931325E+03 0.  0.
         23    2    4    4    0    0  0.42946135074E+03 -0.28029889163E+03 -0.99347414910E+03  0.11216926849E+04  0.90548737808E+02 0.  0.
         23    2    4    4    0    0  0.83227320935E+01  0.48048304346E+03 -0.13736959759E+04  0.14586380283E+04  0.98239709784E+02 0.  0.
          4    1    3    3  502    0 -0.92991697924E+02 -0.81438706207E+02 -0.38532337743E+02  0.12947764210E+03  0.00000000000E+00 0. -1.
         -3    1    3    3    0  502 -0.34479238491E+03 -0.11874544561E+03 -0.12909661068E+03  0.38684390190E+03  0.00000000000E+00 0.  1.
         11    1    5    5    0    0  0.96015613649E+01 -0.19991277468E+02 -0.19209314698E+02  0.29340056690E+02  0.00000000000E+00 0.  1.
        -11    1    5    5    0    0  0.41985978938E+03 -0.26030761417E+03 -0.97426483440E+03  0.10923526282E+04  0.00000000000E+00 0. -1.
          1    1    6    6  503    0  0.52528226467E+02  0.26220506244E+03 -0.77760013931E+03  0.82229720053E+03  0.00000000000E+00 0. -1.
         -1    1    6    6    0  503 -0.44205494373E+02  0.21827798102E+03 -0.59609583657E+03  0.63634082779E+03  0.00000000000E+00 0.  1.
<mgrwt>
<rscale>  0 0.17787773E+04</rscale>
<asrwt>0</asrwt>
<pdfrwt beam="1">  1        2 0.43318858E+00 0.17787773E+04</pdfrwt>
<pdfrwt beam="2">  1       -1 0.43219474E-01 0.17787773E+04</pdfrwt>
<totfact> 0.12897240E+01</totfact>
</mgrwt>
</event>
<event>
12    6  0.1521603E-007  0.2041907E+04  0.7818608E-02  0.8587274E-01
          2   -1    0    0  501    0  0.00000000000E+00  0.00000000000E+00  0.26327041683E+04  0.26327041683E+04  0.00000000000E+00 0. -1.
         -1   -1    0    0    0  501 -0.00000000000E+00 -0.00000000000E+00 -0.39592230129E+03  0.39592230129E+03  0.00000000000E+00 0.  1.
         24    2    1    2    0    0  0.36087473810E+03 -0.29621489720E+03  0.18941766158E+04  0.19524926939E+04  0.79679521145E+02 0.  0.
        254    2    1    2    0    0 -0.36087473810E+03  0.29621489720E+03  0.34260525127E+03  0.10761337757E+04  0.90703456555E+03 0.  0.
         23    2    4    4    0    0 -0.43703178045E+03 -0.13878707421E+03 -0.58668850097E+02  0.47143569395E+03  0.92471349445E+02 0.  0.
         23    2    4    4    0    0  0.76157042346E+02  0.43500197141E+03  0.40127410137E+03  0.60469808177E+03  0.98042110511E+02 0.  0.
          4    1    3    3  502    0  0.30410979360E+03 -0.26691253490E+03  0.17204940718E+04  0.17674345586E+04  0.00000000000E+00 0. -1.
         -3    1    3    3    0  502  0.56764944496E+02 -0.29302362297E+02  0.17368254399E+03  0.18505813531E+03  0.00000000000E+00 0.  1.
         11    1    5    5    0    0 -0.41035927459E+03 -0.12997360900E+03 -0.30305880516E+02  0.43151630291E+03  0.00000000000E+00 0. -1.
        -11    1    5    5    0    0 -0.26672505852E+02 -0.88134652045E+01 -0.28362969581E+02  0.39919391037E+02  0.00000000000E+00 0.  1.
          4    1    6    6  503    0  0.86663855969E+02  0.34016953780E+03  0.35275875780E+03  0.49765920024E+03  0.00000000000E+00 0. -1.
         -4    1    6    6    0  503 -0.10506813623E+02  0.94832433606E+02  0.48515343565E+02  0.10703888152E+03  0.00000000000E+00 0.  1.
<mgrwt>
<rscale>  0 0.20419072E+04</rscale>
<asrwt>0</asrwt>
<pdfrwt beam="1">  1        2 0.40503140E+00 0.20419072E+04</pdfrwt>
<pdfrwt beam="2">  1       -1 0.60911125E-01 0.20419072E+04</pdfrwt>
<totfact> 0.83930387E+00</totfact>
</mgrwt>
</event>
<event>
12    6  0.1521603E-007  0.1212666E+04  0.7818608E-02  0.9101842E-01
         -1   -1    0    0    0  501 -0.00000000000E+00  0.00000000000E+00  0.28248905330E+03  0.28248905330E+03  0.00000000000E+00 0.  1.
          2   -1    0    0  501    0  0.00000000000E+00 -0.00000000000E+00 -0.13014304009E+04  0.13014304009E+04  0.00000000000E+00 0. -1.
         24    2    1    2    0    0  0.83688506802E+02  0.41976309991E+02  0.92507421130E+02  0.15417237115E+03  0.80285243303E+02 0.  0.
        254    2    1    2    0    0 -0.83688506802E+02 -0.41976309991E+02 -0.11114487688E+04  0.14297470831E+04  0.89447894286E+03 0.  0.
         23    2    4    4    0    0 -0.29512821741E+03  0.17427885432E+03 -0.97155407226E+02  0.36738234859E+03  0.89759863695E+02 0.  0.
         23    2    4    4    0    0  0.21143971060E+03 -0.21625516431E+03 -0.10142933615E+04  0.10623647345E+04  0.91404368167E+02 0.  0.
          2    1    3    3  502    0  0.24159133074E+02 -0.13002722439E+02 -0.44677921191E+01  0.27797403981E+02  0.00000000000E+00 0. -1.
         -1    1    3    3    0  502  0.59529373728E+02  0.54979032429E+02  0.96975213249E+02  0.12637496717E+03  0.00000000000E+00 0.  1.
         11    1    5    5    0    0 -0.25009018169E+03  0.10901244278E+03 -0.92023927323E+02  0.28791876434E+03  0.00000000000E+00 0.  1.
        -11    1    5    5    0    0 -0.45038035719E+02  0.65266411538E+02 -0.51314799037E+01  0.79463584254E+02  0.00000000000E+00 0. -1.
          3    1    6    6  503    0  0.99768482930E+02 -0.13910054579E+03 -0.68779164011E+03  0.70877362552E+03  0.00000000000E+00 0. -1.
         -3    1    6    6    0  503  0.11167122767E+03 -0.77154618525E+02 -0.32650172142E+03  0.35359110897E+03  0.00000000000E+00 0.  1.
<mgrwt>
<rscale>  0 0.12126662E+04</rscale>
<asrwt>0</asrwt>
<pdfrwt beam="1">  1        2 0.20022006E+00 0.12126662E+04</pdfrwt>
<pdfrwt beam="2">  1       -1 0.43459854E-01 0.12126662E+04</pdfrwt>
<totfact> 0.96849947E+01</totfact>
</mgrwt>
</event>
<event>
12    6  0.1521603E-007  0.2332684E+04  0.7818608E-02  0.8465145E-01
          2   -1    0    0  501    0  0.00000000000E+00  0.00000000000E+00  0.10531781718E+04  0.10531781718E+04  0.00000000000E+00 0. -1.
         -1   -1    0    0    0  501 -0.00000000000E+00 -0.00000000000E+00 -0.12916649950E+04  0.12916649950E+04  0.00000000000E+00 0.  1.
         24    2    1    2    0    0 -0.26542244458E+03 -0.53362228008E+03 -0.89933399657E+03  0.10818252511E+04  0.79639341507E+02 0.  0.
        254    2    1    2    0    0  0.26542244458E+03  0.53362228008E+03  0.66084717340E+03  0.12630179157E+04  0.89626639838E+03 0.  0.
         23    2    4    4    0    0  0.93494713965E+02  0.33691040992E+03 -0.16138334675E+03  0.39587325751E+03  0.91766908809E+02 0.  0.
         23    2    4    4    0    0  0.17192773061E+03  0.19671187015E+03  0.82223052015E+03  0.86714465817E+03  0.87304785211E+02 0.  0.
          4    1    3    3  502    0 -0.19511974232E+02 -0.22244362841E+02 -0.79046937618E+02  0.84403478384E+02  0.00000000000E+00 0. -1.
         -3    1    3    3    0  502 -0.24591047035E+03 -0.51137791724E+03 -0.82028705895E+03  0.99742177274E+03  0.00000000000E+00 0.  1.
         11    1    5    5    0    0  0.84999949992E+02  0.15150338420E+03 -0.99669558628E+02  0.20028052287E+03  0.00000000000E+00 0.  1.
        -11    1    5    5    0    0  0.84947639736E+01  0.18540702572E+03 -0.61713788119E+02  0.19559273464E+03  0.00000000000E+00 0. -1.
          2    1    6    6  503    0  0.89001700210E+02  0.71259997305E+02  0.47957936395E+03  0.49294589579E+03  0.00000000000E+00 0. -1.
         -2    1    6    6    0  503  0.82926030402E+02  0.12545187285E+03  0.34265115620E+03  0.37419876238E+03  0.00000000000E+00 0.  1.
<mgrwt>
<rscale>  0 0.23326838E+04</rscale>
<asrwt>0</asrwt>
<pdfrwt beam="1">  1        2 0.16202741E+00 0.23326838E+04</pdfrwt>
<pdfrwt beam="2">  1       -1 0.19871769E+00 0.23326838E+04</pdfrwt>
<totfact> 0.36898910E+00</totfact>
</mgrwt>
</event>
<event>
12    6  0.1521603E-007  0.2358026E+04  0.7818608E-02  0.8455387E-01
         -1   -1    0    0    0  501 -0.00000000000E+00  0.00000000000E+00  0.19712015807E+04  0.19712015807E+04  0.00000000000E+00 0.  1.
          2   -1    0    0  501    0  0.00000000000E+00 -0.00000000000E+00 -0.70519019579E+03  0.70519019579E+03  0.00000000000E+00 0. -1.
         24    2    1    2    0    0  0.14351637553E+03 -0.95735915820E+03  0.84097530023E+03  0.12847802603E+04  0.79292836573E+02 0.  0.
        254    2    1    2    0    0 -0.14351637553E+03  0.95735915820E+03  0.42503608464E+03  0.13916115161E+04  0.90487205211E+03 0.  0.
         23    2    4    4    0    0  0.17208984423E+03  0.92953540644E+03  0.14909377465E+03  0.96137913135E+03  0.91487126062E+02 0.  0.
         23    2    4    4    0    0 -0.31560621975E+03  0.27823751754E+02  0.27594230999E+03  0.43023238476E+03  0.92597512632E+02 0.  0.
          4    1    3    3  502    0  0.19877734163E+02 -0.80308204958E+02  0.46242802139E+02  0.94778314233E+02  0.00000000000E+00 0. -1.
         -3    1    3    3    0  502  0.12363864136E+03 -0.87705095324E+03  0.79473249809E+03  0.11900019461E+04  0.00000000000E+00 0.  1.
         11    1    5    5    0    0  0.79951187034E+01  0.40549737033E+02  0.26510830348E+02  0.49102211990E+02  0.00000000000E+00 0. -1.
        -11    1    5    5    0    0  0.16409472552E+03  0.88898566941E+03  0.12258294431E+03  0.91227691936E+03  0.00000000000E+00 0.  1.
          3    1    6    6  503    0 -0.57239859940E+02  0.25528787039E+02  0.18159817575E+02  0.65252582385E+02  0.00000000000E+00 0. -1.
         -3    1    6    6    0  503 -0.25836635981E+03  0.22949647153E+01  0.25778249241E+03  0.36497980237E+03  0.00000000000E+00 0.  1.
<mgrwt>
<rscale>  0 0.23580263E+04</rscale>
<asrwt>0</asrwt>
<pdfrwt beam="1">  1        2 0.10849080E+00 0.23580263E+04</pdfrwt>
<pdfrwt beam="2">  1       -1 0.30326178E+00 0.23580263E+04</pdfrwt>
<totfact> 0.13147648E+00</totfact>
</mgrwt>
</event>
<event>
12    6  0.1521603E-007  0.1104362E+04  0.7818608E-02  0.9200951E-01
          2   -1    0    0  501    0  0.00000000000E+00  0.00000000000E+00  0.12208331712E+04  0.12208331712E+04  0.00000000000E+00 0. -1.
         -1   -1    0    0    0  501 -0.00000000000E+00 -0.00000000000E+00 -0.24975053535E+03  0.24975053535E+03  0.00000000000E+00 0.  1.
         24    2    1    2    0    0  0.24728179844E+03  0.10038974655E+03  0.22193230459E+03  0.35393380963E+03  0.69201190202E+02 0.  0.
        254    2    1    2    0    0 -0.24728179844E+03 -0.10038974655E+03  0.74915033129E+03  0.11166498969E+04  0.78387140809E+03 0.  0.
         23    2    4    4    0    0  0.24481249683E+02 -0.23027478875E+03 -0.54592594111E+02  0.25348283020E+03  0.87449322201E+02 0.  0.
         23    2    4    4    0    0 -0.27176304812E+03  0.12988504219E+03  0.80374292540E+03  0.86316706675E+03  0.91265636903E+02 0.  0.
          2    1    3    3  502    0  0.55875075856E+02  0.21351746915E+02  0.16072184891E+02  0.61937358076E+02  0.00000000000E+00 0. -1.
         -1    1    3    3    0  502  0.19140672258E+03  0.79037999639E+02  0.20586011970E+03  0.29199645155E+03  0.00000000000E+00 0.  1.
         11    1    5    5    0    0 -0.25182983424E+02 -0.15207298806E+03 -0.24503322902E+02  0.15607943230E+03  0.00000000000E+00 0.  1.
        -11    1    5    5    0    0  0.49664233107E+02 -0.78201800683E+02 -0.30089271209E+02  0.97403397898E+02  0.00000000000E+00 0. -1.
          1    1    6    6  503    0 -0.23682610300E+03  0.13514291824E+03  0.64016303282E+03  0.69581529158E+03  0.00000000000E+00 0. -1.
         -1    1    6    6    0  503 -0.34936945124E+02 -0.52578760413E+01  0.16357989258E+03  0.16735177516E+03  0.00000000000E+00 0.  1.
<mgrwt>
<rscale>  0 0.11043618E+04</rscale>
<asrwt>0</asrwt>
<pdfrwt beam="1">  1        2 0.18782048E+00 0.11043618E+04</pdfrwt>
<pdfrwt beam="2">  1       -1 0.38423160E-01 0.11043618E+04</pdfrwt>
<totfact> 0.13639571E+02</totfact>
</mgrwt>
</event>
<event>
12    6  0.1521603E-007  0.1809652E+04  0.7818608E-02  0.8701183E-01
          2   -1    0    0  501    0  0.00000000000E+00  0.00000000000E+00  0.10673638900E+04  0.10673638900E+04  0.00000000000E+00 0. -1.
         -1   -1    0    0    0  501 -0.00000000000E+00 -0.00000000000E+00 -0.76703961805E+03  0.76703961805E+03  0.00000000000E+00 0.  1.
         24    2    1    2    0    0 -0.29919793713E+03  0.38908341768E+03 -0.35860568710E+03  0.61278355343E+03  0.77461816626E+02 0.  0.
        254    2    1    2    0    0  0.29919793713E+03 -0.38908341768E+03  0.65892995904E+03  0.12216199546E+04  0.90402506108E+03 0.  0.
         23    2    4    4    0    0  0.71219989493E+02 -0.43817520443E+03  0.81074782902E+03  0.92894701166E+03  0.92524113307E+02 0.  0.
         23    2    4    4    0    0  0.22797794764E+03  0.49091786746E+02 -0.15181786998E+03  0.29267294294E+03  0.90690891201E+02 0.  0.
          2    1    3    3  502    0 -0.18085230651E+03  0.22898737253E+03 -0.25904276022E+03  0.39018703870E+03  0.00000000000E+00 0. -1.
         -1    1    3    3    0  502 -0.11834563062E+03  0.16009604515E+03 -0.99562926882E+02  0.22259651473E+03  0.00000000000E+00 0.  1.
         11    1    5    5    0    0  0.85897193971E+02 -0.31636724210E+03  0.54034321024E+03  0.63201055740E+03  0.00000000000E+00 0. -1.
        -11    1    5    5    0    0 -0.14677204478E+02 -0.12180796233E+03  0.27040461877E+03  0.29693645427E+03  0.00000000000E+00 0.  1.
          2    1    6    6  503    0  0.28858651388E+02  0.26551482781E+02  0.31654040059E+01  0.39342378936E+02  0.00000000000E+00 0. -1.
         -2    1    6    6    0  503  0.19911929625E+03  0.22540303965E+02 -0.15498327398E+03  0.25333056400E+03  0.00000000000E+00 0.  1.
<mgrwt>
<rscale>  0 0.18096523E+04</rscale>
<asrwt>0</asrwt>
<pdfrwt beam="1">  1        2 0.16420983E+00 0.18096523E+04</pdfrwt>
<pdfrwt beam="2">  1       -1 0.11800609E+00 0.18096523E+04</pdfrwt>
<totfact> 0.15844575E+01</totfact>
</mgrwt>
</event>
<event>
12    6  0.1521603E-007  0.1429898E+04  0.7818608E-02  0.8932457E-01
          2   -1    0    0  501    0  0.00000000000E+00  0.00000000000E+00  0.48935612047E+03  0.48935612047E+03  0.00000000000E+00 0. -1.
         -1   -1    0    0    0  501 -0.00000000000E+00 -0.00000000000E+00 -0.10445403894E+04  0.10445403894E+04  0.00000000000E+00 0.  1.
         24    2    1    2    0    0 -0.34587890407E+03  0.19201617134E+03 -0.14287328160E+02  0.40415373698E+03  0.81447461762E+02 0.  0.
        254    2    1    2    0    0  0.34587890407E+03 -0.19201617134E+03 -0.54089694075E+03  0.11297427729E+04  0.90953109128E+03 0.  0.
         23    2    4    4    0    0  0.52321703233E+03 -0.31276115426E+03 -0.90428203551E+02  0.62265315027E+03  0.89129585454E+02 0.  0.
         23    2    4    4    0    0 -0.17733812826E+03  0.12074498292E+03 -0.45046873720E+03  0.50708962260E+03  0.90496627119E+02 0.  0.
          4    1    3    3  502    0 -0.19965654302E+03  0.15525662051E+03 -0.15272239047E+02  0.25337836267E+03  0.00000000000E+00 0. -1.
         -3    1    3    3    0  502 -0.14622236105E+03  0.36759550835E+02  0.98491088662E+00  0.15077537430E+03  0.00000000000E+00 0.  1.
         11    1    5    5    0    0  0.74869972711E+02 -0.40292942559E+02  0.18027272118E+02  0.86913845697E+02  0.00000000000E+00 0.  1.
        -11    1    5    5    0    0  0.44834705962E+03 -0.27246821170E+03 -0.10845547567E+03  0.53573930457E+03  0.00000000000E+00 0. -1.
          1    1    6    6  503    0 -0.13578588403E+03  0.65493485554E+02 -0.37790736486E+03  0.40686752066E+03  0.00000000000E+00 0. -1.
         -1    1    6    6    0  503 -0.41552244234E+02  0.55251497366E+02 -0.72561372340E+02  0.10022210194E+03  0.00000000000E+00 0.  1.
<mgrwt>
<rscale>  0 0.14298982E+04</rscale>
<asrwt>0</asrwt>
<pdfrwt beam="1">  1        2 0.75285558E-01 0.14298982E+04</pdfrwt>
<pdfrwt beam="2">  1       -1 0.16069852E+00 0.14298982E+04</pdfrwt>
<totfact> 0.20243136E+01</totfact>
</mgrwt>
</event>
<event>
12    6  0.1521603E-007  0.2823480E+04  0.7818608E-02  0.8296016E-01
          2   -1    0    0  501    0  0.00000000000E+00  0.00000000000E+00  0.36660155564E+04  0.36660155564E+04  0.00000000000E+00 0. -1.
         -1   -1    0    0    0  501 -0.00000000000E+00 -0.00000000000E+00 -0.54364455764E+03  0.54364455764E+03  0.00000000000E+00 0.  1.
         24    2    1    2    0    0 -0.11368250295E+04 -0.11343914468E+03  0.22098089858E+04  0.24890333766E+04  0.82412431988E+02 0.  0.
        254    2    1    2    0    0  0.11368250295E+04  0.11343914468E+03  0.91256201299E+03  0.17206267374E+04  0.90694396448E+03 0.  0.
         23    2    4    4    0    0  0.73797582253E+03 -0.16819185657E+03  0.10001006082E+03  0.76846185451E+03  0.87377310081E+02 0.  0.
         23    2    4    4    0    0  0.39884920700E+03  0.28163100125E+03  0.81255195217E+03  0.95216488292E+03  0.89334083632E+02 0.  0.
          2    1    3    3  502    0 -0.61904194306E+03 -0.49761972695E+02  0.11151762965E+04  0.12764432433E+04  0.00000000000E+00 0. -1.
         -1    1    3    3    0  502 -0.51778308647E+03 -0.63677171984E+02  0.10946326893E+04  0.12125901333E+04  0.00000000000E+00 0.  1.
         11    1    5    5    0    0  0.66884444769E+03 -0.15387320499E+03  0.64233166016E+02  0.68931542710E+03  0.00000000000E+00 0.  1.
        -11    1    5    5    0    0  0.69131374848E+02 -0.14318651575E+02  0.35776894804E+02  0.79146427418E+02  0.00000000000E+00 0. -1.
          4    1    6    6  503    0  0.59005483605E+02  0.85596204288E+02  0.17679133386E+03  0.20509396143E+03  0.00000000000E+00 0. -1.
         -4    1    6    6    0  503  0.33984372339E+03  0.19603479696E+03  0.63576061831E+03  0.74707092150E+03  0.00000000000E+00 0.  1.
<mgrwt>
<rscale>  0 0.28234797E+04</rscale>
<asrwt>0</asrwt>
<pdfrwt beam="1">  1        2 0.56400238E+00 0.28234797E+04</pdfrwt>
<pdfrwt beam="2">  1       -1 0.83637627E-01 0.28234797E+04</pdfrwt>
<totfact> 0.86521113E-01</totfact>
</mgrwt>
</event>
<event>
12    6  0.1521603E-007  0.1190296E+04  0.7818608E-02  0.9121393E-01
          2   -1    0    0  501    0  0.00000000000E+00  0.00000000000E+00  0.14993850603E+04  0.14993850603E+04  0.00000000000E+00 0. -1.
         -1   -1    0    0    0  501 -0.00000000000E+00 -0.00000000000E+00 -0.23623094973E+03  0.23623094973E+03  0.00000000000E+00 0.  1.
         24    2    1    2    0    0 -0.19591445805E+03  0.11885339508E+03  0.13202806024E+03  0.27632497458E+03  0.80096682136E+02 0.  0.
        254    2    1    2    0    0  0.19591445805E+03 -0.11885339508E+03  0.11311260503E+04  0.14592910354E+04  0.89307087065E+03 0.  0.
         23    2    4    4    0    0  0.49489688539E+03  0.13024604276E+03  0.58971023567E+03  0.78615895318E+03  0.91655762455E+02 0.  0.
         23    2    4    4    0    0 -0.29898242734E+03 -0.24909943784E+03  0.54141581463E+03  0.67313208224E+03  0.92383407746E+02 0.  0.
          4    1    3    3  502    0 -0.42913492728E+02  0.16681660246E+02  0.66789518762E+02  0.81121424194E+02  0.00000000000E+00 0. -1.
         -1    1    3    3    0  502 -0.15300096532E+03  0.10217173483E+03  0.65238541481E+02  0.19520355039E+03  0.00000000000E+00 0.  1.
         11    1    5    5    0    0  0.15827127318E+03  0.22772940888E+01  0.20797897759E+03  0.26136227176E+03  0.00000000000E+00 0.  1.
        -11    1    5    5    0    0  0.33662561221E+03  0.12796874867E+03  0.38173125808E+03  0.52479668142E+03  0.00000000000E+00 0. -1.
          3    1    6    6  503    0 -0.29413439571E+03 -0.21861365300E+03  0.47543868663E+03  0.60029069355E+03  0.00000000000E+00 0. -1.
         -3    1    6    6    0  503 -0.48480316279E+01 -0.30485784834E+02  0.65977128001E+02  0.72841388694E+02  0.00000000000E+00 0.  1.
<mgrwt>
<rscale>  0 0.11902960E+04</rscale>
<asrwt>0</asrwt>
<pdfrwt beam="1">  1        2 0.23067462E+00 0.11902960E+04</pdfrwt>
<pdfrwt beam="2">  1       -1 0.36343224E-01 0.11902960E+04</pdfrwt>
<totfact> 0.10358182E+02</totfact>
</mgrwt>
</event>
<event>
12    6  0.1521603E-007  0.1614587E+04  0.7818608E-02  0.8811636E-01
         -1   -1    0    0    0  501 -0.00000000000E+00  0.00000000000E+00  0.23904072179E+03  0.23904072179E+03  0.00000000000E+00 0.  1.
          2   -1    0    0  501    0  0.00000000000E+00 -0.00000000000E+00 -0.27264104715E+04  0.27264104715E+04  0.00000000000E+00 0. -1.
         24    2    1    2    0    0 -0.22647379188E+03  0.99047792037E+02  0.46788370491E+02  0.26326662262E+03  0.77584273246E+02 0.  0.
        254    2    1    2    0    0  0.22647379188E+03 -0.99047792037E+02 -0.25341581202E+04  0.27021845706E+04  0.90484431383E+03 0.  0.
         23    2    4    4    0    0  0.38262715623E+03 -0.40828212472E+03 -0.17615487621E+04  0.18505358001E+04  0.91273611164E+02 0.  0.
         23    2    4    4    0    0 -0.15615336435E+03  0.30923433269E+03 -0.77260935808E+03  0.85164877056E+03  0.91491324723E+02 0.  0.
          2    1    3    3  502    0 -0.97451271766E+02  0.17841119072E+02 -0.12162363035E+02  0.99814723228E+02  0.00000000000E+00 0. -1.
         -1    1    3    3    0  502 -0.12902252011E+03  0.81206672965E+02  0.58950733526E+02  0.16345189939E+03  0.00000000000E+00 0.  1.
         11    1    5    5    0    0  0.37966506981E+03 -0.40951177361E+03 -0.17097056667E+04  0.17985935963E+04  0.00000000000E+00 0.  1.
        -11    1    5    5    0    0  0.29620864206E+01  0.12296488836E+01 -0.51843095360E+02  0.51942203735E+02  0.00000000000E+00 0. -1.
          3    1    6    6  503    0 -0.72095912978E+02  0.55451026757E+02 -0.19393499512E+03  0.21420415349E+03  0.00000000000E+00 0. -1.
         -3    1    6    6    0  503 -0.84057451371E+02  0.25378330593E+03 -0.57867436295E+03  0.63744461708E+03  0.00000000000E+00 0.  1.
<mgrwt>
<rscale>  0 0.16145874E+04</rscale>
<asrwt>0</asrwt>
<pdfrwt beam="1">  1        2 0.41944776E+00 0.16145874E+04</pdfrwt>
<pdfrwt beam="2">  1       -1 0.36775496E-01 0.16145874E+04</pdfrwt>
<totfact> 0.19895246E+01</totfact>
</mgrwt>
</event>
<event>
12    6  0.1521603E-007  0.1285300E+04  0.7818608E-02  0.9041304E-01
         -1   -1    0    0    0  501 -0.00000000000E+00  0.00000000000E+00  0.36344835449E+03  0.36344835449E+03  0.00000000000E+00 0.  1.
          2   -1    0    0  501    0  0.00000000000E+00 -0.00000000000E+00 -0.11363346180E+04  0.11363346180E+04  0.00000000000E+00 0. -1.
         24    2    1    2    0    0  0.16237171827E+03  0.16610882638E+02 -0.52262380596E+03  0.55340118897E+03  0.80478177677E+02 0.  0.
        254    2    1    2    0    0 -0.16237171827E+03 -0.16610882638E+02 -0.25026245756E+03  0.94638178354E+03  0.89797922372E+03 0.  0.
         23    2    4    4    0    0 -0.51510995747E+03  0.78986827567E+02 -0.86985525665E+02  0.53599164035E+03  0.90240620739E+02 0.  0.
         23    2    4    4    0    0  0.35273823920E+03 -0.95597710205E+02 -0.16327693190E+03  0.41039014319E+03  0.90540187502E+02 0.  0.
          4    1    3    3  502    0  0.16309271682E+03  0.19726802355E+02 -0.52454596828E+03  0.54966976799E+03  0.00000000000E+00 0. -1.
         -3    1    3    3    0  502 -0.72099854211E+00 -0.31159197169E+01  0.19221623144E+01  0.37314209817E+01  0.00000000000E+00 0.  1.
         11    1    5    5    0    0 -0.24057843241E+03  0.21571688391E+02  0.26095629673E+01  0.24155771505E+03  0.00000000000E+00 0. -1.
        -11    1    5    5    0    0 -0.27453152506E+03  0.57415139176E+02 -0.89595088633E+02  0.29443392529E+03  0.00000000000E+00 0.  1.
          3    1    6    6  503    0  0.10050221735E+03 -0.60217190957E+02 -0.22273031271E+02  0.11925977403E+03  0.00000000000E+00 0.  1.
         -3    1    6    6    0  503  0.25223602185E+03 -0.35380519248E+02 -0.14100390063E+03  0.29113036917E+03  0.00000000000E+00 0. -1.
<mgrwt>
<rscale>  0 0.12852999E+04</rscale>
<asrwt>0</asrwt>
<pdfrwt beam="1">  1        2 0.17482071E+00 0.12852999E+04</pdfrwt>
<pdfrwt beam="2">  1       -1 0.55915133E-01 0.12852999E+04</pdfrwt>
<totfact> 0.74905710E+01</totfact>
</mgrwt>
</event>
<event>
12    6  0.1760804E-007  0.1701516E+04  0.7818608E-02  0.8760500E-01
         -1   -1    0    0    0  501 -0.00000000000E+00  0.00000000000E+00  0.91219062602E+03  0.91219062602E+03  0.00000000000E+00 0.  1.
          2   -1    0    0  501    0  0.00000000000E+00 -0.00000000000E+00 -0.79346224670E+03  0.79346224670E+03  0.00000000000E+00 0. -1.
         24    2    1    2    0    0  0.42523479028E+03 -0.25065077788E+03  0.39532774871E+03  0.63733466888E+03  0.79126556502E+02 0.  0.
        254    2    1    2    0    0 -0.42523479028E+03  0.25065077788E+03 -0.27659936938E+03  0.10683182038E+04  0.90617113958E+03 0.  0.
         23    2    4    4    0    0 -0.15490530140E+03  0.53462685523E+03 -0.34315296951E+03  0.66042098611E+03  0.92630403684E+02 0.  0.
         23    2    4    4    0    0 -0.27032948888E+03 -0.28397607735E+03  0.66553600132E+02  0.40789721773E+03  0.90721075129E+02 0.  0.
          4    1    3    3  502    0  0.68778396416E+02 -0.56824161083E+02  0.10837009201E+03  0.14036926280E+03  0.00000000000E+00 0. -1.
         -3    1    3    3    0  502  0.35645639386E+03 -0.19382661680E+03  0.28695765669E+03  0.49696540608E+03  0.00000000000E+00 0.  1.
         11    1    5    5    0    0  0.68037420952E+01  0.19231165452E+01 -0.14718739162E+01  0.72218900967E+01  0.00000000000E+00 0. -1.
        -11    1    5    5    0    0 -0.16170904349E+03  0.53270373868E+03 -0.34168109559E+03  0.65319909602E+03  0.00000000000E+00 0.  1.
          3    1    6    6  503    0 -0.18999581581E+02 -0.44346145966E+02  0.34192882859E+02  0.59133053367E+02  0.00000000000E+00 0. -1.
         -3    1    6    6    0  503 -0.25132990730E+03 -0.23962993138E+03  0.32360717273E+02  0.34876416436E+03  0.00000000000E+00 0.  1.
<mgrwt>
<rscale>  0 0.17015156E+04</rscale>
<asrwt>0</asrwt>
<pdfrwt beam="1">  1        2 0.12207111E+00 0.17015156E+04</pdfrwt>
<pdfrwt beam="2">  1       -1 0.14033702E+00 0.17015156E+04</pdfrwt>
<totfact> 0.15757256E+01</totfact>
</mgrwt>
</event>
<event>
12    6  0.1521603E-007  0.1450104E+04  0.7818608E-02  0.8918328E-01
          2   -1    0    0  501    0  0.00000000000E+00  0.00000000000E+00  0.66223196581E+03  0.66223196581E+03  0.00000000000E+00 0. -1.
         -1   -1    0    0    0  501 -0.00000000000E+00 -0.00000000000E+00 -0.79383106910E+03  0.79383106910E+03  0.00000000000E+00 0.  1.
         24    2    1    2    0    0  0.40369606913E+03  0.17816586999E+03 -0.33579324276E+02  0.45022862819E+03  0.82853202510E+02 0.  0.
        254    2    1    2    0    0 -0.40369606913E+03 -0.17816586999E+03 -0.98019779022E+02  0.10058344067E+04  0.89854403520E+03 0.  0.
         23    2    4    4    0    0 -0.81665115815E+02  0.63660217411E+02 -0.44579845418E+03  0.46655161342E+03  0.90621916838E+02 0.  0.
         23    2    4    4    0    0 -0.32203095332E+03 -0.24182608740E+03  0.34777867516E+03  0.53928279330E+03  0.87704804948E+02 0.  0.
          4    1    3    3  502    0  0.47328212176E+02  0.26099617088E+02  0.22860370297E+02  0.58683440680E+02  0.00000000000E+00 0. -1.
         -3    1    3    3    0  502  0.35636785696E+03  0.15206625290E+03 -0.56439694573E+02  0.39154518752E+03  0.00000000000E+00 0.  1.
         11    1    5    5    0    0  0.92052142796E+01  0.39595537364E+02 -0.94061951433E+02  0.10247045065E+03  0.00000000000E+00 0. -1.
        -11    1    5    5    0    0 -0.90870330095E+02  0.24064680047E+02 -0.35173650275E+03  0.36408116277E+03  0.00000000000E+00 0.  1.
          4    1    6    6  503    0 -0.83956836148E+02 -0.33707649731E+02  0.43269018334E+02  0.10028541237E+03  0.00000000000E+00 0. -1.
         -4    1    6    6    0  503 -0.23807411717E+03 -0.20811843767E+03  0.30450965682E+03  0.43899738093E+03  0.00000000000E+00 0.  1.
<mgrwt>
<rscale>  0 0.14501039E+04</rscale>
<asrwt>0</asrwt>
<pdfrwt beam="1">  1        2 0.10188184E+00 0.14501039E+04</pdfrwt>
<pdfrwt beam="2">  1       -1 0.12212786E+00 0.14501039E+04</pdfrwt>
<totfact> 0.28864031E+01</totfact>
</mgrwt>
</event>
<event>
12    6  0.1521603E-007  0.4277679E+04  0.7818608E-02  0.7950758E-01
         -1   -1    0    0    0  501 -0.00000000000E+00  0.00000000000E+00  0.14878507326E+04  0.14878507326E+04  0.00000000000E+00 0.  1.
          2   -1    0    0  501    0  0.00000000000E+00 -0.00000000000E+00 -0.30746600351E+04  0.30746600351E+04  0.00000000000E+00 0. -1.
         24    2    1    2    0    0  0.11578691625E+03  0.88517320201E+03  0.12034863008E+04  0.15005607324E+04  0.79781124070E+02 0.  0.
        254    2    1    2    0    0 -0.11578691625E+03 -0.88517320201E+03 -0.27902956033E+04  0.30619500354E+04  0.89042139331E+03 0.  0.
         23    2    4    4    0    0 -0.23097172040E+02 -0.98535631724E+03 -0.27025881009E+04  0.28781583039E+04  0.91390524830E+02 0.  0.
         23    2    4    4    0    0 -0.92689744212E+02  0.10018311523E+03 -0.87707502414E+02  0.18379173144E+03  0.86364051016E+02 0.  0.
          4    1    3    3  502    0  0.10590800428E+03  0.54947374424E+03  0.72037584731E+03  0.91218378760E+03  0.00000000000E+00 0. -1.
         -3    1    3    3    0  502  0.98789119699E+01  0.33569945777E+03  0.48311045354E+03  0.58837694480E+03  0.00000000000E+00 0.  1.
         11    1    5    5    0    0 -0.30530437217E+00 -0.49775338336E+02 -0.87653096097E+02  0.10080050978E+03  0.00000000000E+00 0. -1.
        -11    1    5    5    0    0 -0.22791867668E+02 -0.93558097890E+03 -0.26149350048E+04  0.27773577941E+04  0.00000000000E+00 0.  1.
          2    1    6    6  503    0 -0.32155830050E+02  0.73634798649E+02 -0.85964708458E+02  0.11766907869E+03  0.00000000000E+00 0.  1.
         -2    1    6    6    0  503 -0.60533914162E+02  0.26548316583E+02 -0.17427939560E+01  0.66122652759E+02  0.00000000000E+00 0. -1.
<mgrwt>
<rscale>  0 0.42776794E+04</rscale>
<asrwt>0</asrwt>
<pdfrwt beam="1">  1        2 0.47302462E+00 0.42776794E+04</pdfrwt>
<pdfrwt beam="2">  1       -1 0.22890011E+00 0.42776794E+04</pdfrwt>
<totfact> 0.13126727E-01</totfact>
</mgrwt>
</event>
<event>
12    6  0.1521603E-007  0.1537963E+04  0.7818608E-02  0.8859593E-01
          2   -1    0    0  501    0  0.00000000000E+00  0.00000000000E+00  0.57480878007E+03  0.57480878007E+03  0.00000000000E+00 0. -1.
         -1   -1    0    0    0  501 -0.00000000000E+00 -0.00000000000E+00 -0.10287468443E+04  0.10287468443E+04  0.00000000000E+00 0.  1.
         24    2    1    2    0    0 -0.17317689712E+03 -0.33492432470E+03  0.19505243088E+03  0.43040238451E+03  0.70966335879E+02 0.  0.
        254    2    1    2    0    0  0.17317689712E+03  0.33492432470E+03 -0.64899049506E+03  0.11731532398E+04  0.90162925886E+03 0.  0.
         23    2    4    4    0    0  0.20376480070E+03 -0.29785090786E+02 -0.74747805821E+03  0.78062198630E+03  0.90774403622E+02 0.  0.
         23    2    4    4    0    0 -0.30587903577E+02  0.36470941548E+03  0.98487563150E+02  0.39253125352E+03  0.10213915656E+03 0.  0.
          4    1    3    3  502    0 -0.13891683303E+03 -0.19859619080E+03  0.13623630556E+03  0.27802637366E+03  0.00000000000E+00 0. -1.
         -3    1    3    3    0  502 -0.34260064091E+02 -0.13632813390E+03  0.58816125321E+02  0.15237601085E+03  0.00000000000E+00 0.  1.
         11    1    5    5    0    0  0.95233448178E+02 -0.59501058559E+02 -0.39100020844E+03  0.40680578735E+03  0.00000000000E+00 0.  1.
        -11    1    5    5    0    0  0.10853135252E+03  0.29715967773E+02 -0.35647784976E+03  0.37381619894E+03  0.00000000000E+00 0. -1.
          4    1    6    6  503    0 -0.25446744642E+02  0.37043165028E+03  0.92161009541E+02  0.38257129534E+03  0.00000000000E+00 0. -1.
         -4    1    6    6    0  503 -0.51411589345E+01 -0.57222347938E+01  0.63265536087E+01  0.99599581721E+01  0.00000000000E+00 0.  1.
<mgrwt>
<rscale>  0 0.15379632E+04</rscale>
<asrwt>0</asrwt>
<pdfrwt beam="1">  1        2 0.88432121E-01 0.15379632E+04</pdfrwt>
<pdfrwt beam="2">  1       -1 0.15826874E+00 0.15379632E+04</pdfrwt>
<totfact> 0.17322056E+01</totfact>
</mgrwt>
</event>
<event>
12    6  0.1521603E-007  0.1120458E+04  0.7818608E-02  0.9185478E-01
          2   -1    0    0  501    0  0.00000000000E+00  0.00000000000E+00  0.77527143017E+03  0.77527143017E+03  0.00000000000E+00 0. -1.
         -1   -1    0    0    0  501 -0.00000000000E+00 -0.00000000000E+00 -0.40483439531E+03  0.40483439531E+03  0.00000000000E+00 0.  1.
         24    2    1    2    0    0  0.86944175226E+02  0.14560011625E+03  0.72252381940E+01  0.18802533198E+03  0.80886574542E+02 0.  0.
        254    2    1    2    0    0 -0.86944175226E+02 -0.14560011625E+03  0.36321179666E+03  0.99208049350E+03  0.90749226602E+03 0.  0.
         23    2    4    4    0    0  0.10360296388E+03 -0.48691747295E+03  0.10963492227E+03  0.51784569261E+03  0.91225794536E+02 0.  0.
         23    2    4    4    0    0 -0.19054713911E+03  0.34131735670E+03  0.25357687439E+03  0.47423480089E+03  0.88270408057E+02 0.  0.
          2    1    3    3  502    0  0.44297454006E+02  0.71492285030E+02 -0.36860184395E+02  0.91826382069E+02  0.00000000000E+00 0. -1.
         -1    1    3    3    0  502  0.42646721220E+02  0.74107831217E+02  0.44085422589E+02  0.96198949908E+02  0.00000000000E+00 0.  1.
         11    1    5    5    0    0 -0.14683749221E+02 -0.22552289100E+02  0.61459141135E+01  0.27604175321E+02  0.00000000000E+00 0. -1.
        -11    1    5    5    0    0  0.11828671311E+03 -0.46436518385E+03  0.10348900816E+03  0.49024151729E+03  0.00000000000E+00 0.  1.
          4    1    6    6  503    0 -0.68737191808E+02  0.14487885154E+03  0.55061132257E+02  0.16954766718E+03  0.00000000000E+00 0. -1.
         -4    1    6    6    0  503 -0.12180994730E+03  0.19643850516E+03  0.19851574213E+03  0.30468713371E+03  0.00000000000E+00 0.  1.
<mgrwt>
<rscale>  0 0.11204580E+04</rscale>
<asrwt>0</asrwt>
<pdfrwt beam="1">  1        2 0.11927253E+00 0.11204580E+04</pdfrwt>
<pdfrwt beam="2">  1       -1 0.62282215E-01 0.11204580E+04</pdfrwt>
<totfact> 0.10631824E+02</totfact>
</mgrwt>
</event>
<event>
12    6  0.1521603E-007  0.1449183E+04  0.7818608E-02  0.8918967E-01
         -1   -1    0    0    0  501 -0.00000000000E+00  0.00000000000E+00  0.54223555252E+03  0.54223555252E+03  0.00000000000E+00 0.  1.
          2   -1    0    0  501    0  0.00000000000E+00 -0.00000000000E+00 -0.96827498973E+03  0.96827498973E+03  0.00000000000E+00 0. -1.
         24    2    1    2    0    0 -0.36527391178E+03  0.21351916747E+03 -0.23851145075E+03  0.49215415255E+03  0.79451445723E+02 0.  0.
        254    2    1    2    0    0  0.36527391178E+03 -0.21351916747E+03 -0.18752798646E+03  0.10183563897E+04  0.90712045795E+03 0.  0.
         23    2    4    4    0    0 -0.18754534179E+03  0.43697825242E+02 -0.32222114876E+03  0.38642568761E+03  0.91736514972E+02 0.  0.
         23    2    4    4    0    0  0.55281925357E+03 -0.25721699271E+03  0.13469316229E+03  0.63193070210E+03  0.97079636534E+02 0.  0.
          4    1    3    3  502    0 -0.36487611929E+03  0.20051432569E+03 -0.23695804414E+03  0.47905082394E+03  0.00000000000E+00 0. -1.
         -3    1    3    3    0  502 -0.39779249511E+00  0.13004841779E+02 -0.15534066060E+01  0.13103328610E+02  0.00000000000E+00 0.  1.
         11    1    5    5    0    0 -0.10006591849E+03 -0.21469230940E+02 -0.18161926484E+03  0.20846983782E+03  0.00000000000E+00 0. -1.
        -11    1    5    5    0    0 -0.87479423299E+02  0.65167056181E+02 -0.14060188392E+03  0.17795584979E+03  0.00000000000E+00 0.  1.
          1    1    6    6  503    0  0.41750676974E+03 -0.18173671119E+03  0.14154356305E+03  0.47683824848E+03  0.00000000000E+00 0. -1.
         -1    1    6    6    0  503  0.13531248383E+03 -0.75480281515E+02 -0.68504007596E+01  0.15509245362E+03  0.00000000000E+00 0.  1.
<mgrwt>
<rscale>  0 0.14491834E+04</rscale>
<asrwt>0</asrwt>
<pdfrwt beam="1">  1        2 0.14896538E+00 0.14491834E+04</pdfrwt>
<pdfrwt beam="2">  1       -1 0.83420855E-01 0.14491834E+04</pdfrwt>
<totfact> 0.41682664E+01</totfact>
</mgrwt>
</event>
<event>
12    6  0.1521603E-007  0.1124832E+04  0.7818608E-02  0.9181322E-01
         -1   -1    0    0    0  501 -0.00000000000E+00  0.00000000000E+00  0.23964671590E+03  0.23964671590E+03  0.00000000000E+00 0.  1.
          2   -1    0    0  501    0  0.00000000000E+00 -0.00000000000E+00 -0.13199077318E+04  0.13199077318E+04  0.00000000000E+00 0. -1.
         24    2    1    2    0    0  0.12734020205E+03 -0.17293327539E+01 -0.52270956844E+03  0.54388838161E+03  0.79817047454E+02 0.  0.
        254    2    1    2    0    0 -0.12734020205E+03  0.17293327539E+01 -0.55755144748E+03  0.10156660661E+04  0.83934225653E+03 0.  0.
         23    2    4    4    0    0 -0.12577175001E+03 -0.13442572239E+03 -0.74153177400E+03  0.76965652224E+03  0.92806155181E+02 0.  0.
         23    2    4    4    0    0 -0.15684520419E+01  0.13615505514E+03  0.18398032652E+03  0.24600954386E+03  0.90173588387E+02 0.  0.
          4    1    3    3  502    0  0.11740496652E+03  0.25934455416E+02 -0.43902564263E+03  0.45519230775E+03  0.00000000000E+00 0. -1.
         -3    1    3    3    0  502  0.99352355316E+01 -0.27663788170E+02 -0.83683925805E+02  0.88696073865E+02  0.00000000000E+00 0.  1.
         11    1    5    5    0    0 -0.12940464581E+03 -0.10222619214E+03 -0.51342480819E+03  0.53925948335E+03  0.00000000000E+00 0. -1.
        -11    1    5    5    0    0  0.36328958027E+01 -0.32199530256E+02 -0.22810696580E+03  0.23039703889E+03  0.00000000000E+00 0.  1.
          2    1    6    6  503    0  0.13349010833E+02  0.14470233968E+03  0.17137089792E+03  0.22468855746E+03  0.00000000000E+00 0. -1.
         -2    1    6    6    0  503 -0.14917462875E+02 -0.85472845372E+01  0.12609428594E+02  0.21320986399E+02  0.00000000000E+00 0.  1.
<mgrwt>
<rscale>  0 0.11248316E+04</rscale>
<asrwt>0</asrwt>
<pdfrwt beam="1">  1        2 0.20306273E+00 0.11248316E+04</pdfrwt>
<pdfrwt beam="2">  1       -1 0.36868726E-01 0.11248316E+04</pdfrwt>
<totfact> 0.12838472E+02</totfact>
</mgrwt>
</event>
<event>
12    6  0.1521603E-007  0.6201320E+04  0.7818608E-02  0.7665930E-01
          2   -1    0    0  501    0  0.00000000000E+00  0.00000000000E+00  0.38133891350E+04  0.38133891350E+04  0.00000000000E+00 0. -1.
         -1   -1    0    0    0  501 -0.00000000000E+00 -0.00000000000E+00 -0.25211411916E+04  0.25211411916E+04  0.00000000000E+00 0.  1.
         24    2    1    2    0    0  0.13510318512E+04  0.16918557916E+04  0.28101886673E+04  0.35484567945E+04  0.81988987023E+02 0.  0.
        254    2    1    2    0    0 -0.13510318512E+04 -0.16918557916E+04 -0.15179407239E+04  0.27860735320E+04  0.87772353378E+03 0.  0.
         23    2    4    4    0    0 -0.14410243722E+04 -0.14303498317E+04 -0.14168322488E+04  0.24775518127E+04  0.91637769716E+02 0.  0.
         23    2    4    4    0    0  0.89992520942E+02 -0.26150595991E+03 -0.10110847510E+03  0.30852171935E+03  0.92079892914E+02 0.  0.
          2    1    3    3  502    0  0.13195290663E+04  0.16695880295E+04  0.27611518750E+04  0.34860638006E+04  0.00000000000E+00 0. -1.
         -1    1    3    3    0  502  0.31502784957E+02  0.22267762069E+02  0.49036792345E+02  0.62392993926E+02  0.00000000000E+00 0.  1.
         11    1    5    5    0    0 -0.76036300391E+03 -0.73419491178E+03 -0.79034611734E+03  0.13197882601E+04  0.00000000000E+00 0. -1.
        -11    1    5    5    0    0 -0.68066136828E+03 -0.69615491991E+03 -0.62648613150E+03  0.11577635526E+04  0.00000000000E+00 0.  1.
          1    1    6    6  503    0  0.10382653058E+03 -0.21312670598E+03 -0.62708827808E+02  0.24522507690E+03  0.00000000000E+00 0. -1.
         -1    1    6    6    0  503 -0.13834009639E+02 -0.48379253927E+02 -0.38399647290E+02  0.63296642449E+02  0.00000000000E+00 0.  1.
<mgrwt>
<rscale>  0 0.62013200E+04</rscale>
<asrwt>0</asrwt>
<pdfrwt beam="1">  1        2 0.58667525E+00 0.62013200E+04</pdfrwt>
<pdfrwt beam="2">  1       -1 0.38786788E+00 0.62013200E+04</pdfrwt>
<totfact> 0.31177360E-03</totfact>
</mgrwt>
</event>
<event>
12    6  0.1521603E-007  0.1965776E+04  0.7818608E-02  0.8622791E-01
         -1   -1    0    0    0  501 -0.00000000000E+00  0.00000000000E+00  0.14027106406E+04  0.14027106406E+04  0.00000000000E+00 0.  1.
          2   -1    0    0  501    0  0.00000000000E+00 -0.00000000000E+00 -0.68871572497E+03  0.68871572497E+03  0.00000000000E+00 0. -1.
         24    2    1    2    0    0 -0.35504711053E+02  0.56011686694E+03 -0.28247860394E+03  0.63326392969E+03  0.78978185713E+02 0.  0.
        254    2    1    2    0    0  0.35504711053E+02 -0.56011686694E+03  0.99647351955E+03  0.14581624359E+04  0.90459202132E+03 0.  0.
         23    2    4    4    0    0 -0.19481172301E+03 -0.37453207884E+02 -0.82211061921E+02  0.23415933773E+03  0.93368016697E+02 0.  0.
         23    2    4    4    0    0  0.23031643406E+03 -0.52266365906E+03  0.10786845815E+04  0.12240030981E+04  0.91652591982E+02 0.  0.
          2    1    3    3  502    0 -0.40750223095E+02  0.54642373553E+03 -0.26017727181E+03  0.60657373187E+03  0.00000000000E+00 0. -1.
         -1    1    3    3    0  502  0.52455120415E+01  0.13693131411E+02 -0.22301332133E+02  0.26690197813E+02  0.00000000000E+00 0.  1.
         11    1    5    5    0    0 -0.97209547000E+01 -0.32466268198E+02 -0.16435174955E+02  0.37665242688E+02  0.00000000000E+00 0.  1.
        -11    1    5    5    0    0 -0.18509076831E+03 -0.49869396866E+01 -0.65775886966E+02  0.19649409504E+03  0.00000000000E+00 0. -1.
          4    1    6    6  503    0  0.99915270745E+02 -0.18812969755E+03  0.31685044840E+03  0.38179844300E+03  0.00000000000E+00 0. -1.
         -4    1    6    6    0  503  0.13040116332E+03 -0.33453396151E+03  0.76183413307E+03  0.84220465512E+03  0.00000000000E+00 0.  1.
<mgrwt>
<rscale>  0 0.19657761E+04</rscale>
<asrwt>0</asrwt>
<pdfrwt beam="1">  1        2 0.10595627E+00 0.19657761E+04</pdfrwt>
<pdfrwt beam="2">  1       -1 0.21580164E+00 0.19657761E+04</pdfrwt>
<totfact> 0.52236273E+00</totfact>
</mgrwt>
</event>
<event>
12    6  0.1521603E-007  0.1217773E+04  0.7818608E-02  0.9097440E-01
          2   -1    0    0  501    0  0.00000000000E+00  0.00000000000E+00  0.26363295597E+03  0.26363295597E+03  0.00000000000E+00 0. -1.
         -1   -1    0    0    0  501 -0.00000000000E+00 -0.00000000000E+00 -0.14062840945E+04  0.14062840945E+04  0.00000000000E+00 0.  1.
         24    2    1    2    0    0 -0.16287242838E+03 -0.16472017203E+03 -0.40791401587E+03  0.47586895623E+03  0.79982849201E+02 0.  0.
        254    2    1    2    0    0  0.16287242838E+03  0.16472017203E+03 -0.73473712270E+03  0.11940480943E+04  0.91227849310E+03 0.  0.
         23    2    4    4    0    0  0.11944253225E+03  0.35082139065E+03 -0.86484401790E+03  0.94514465593E+03  0.89448748961E+02 0.  0.
         23    2    4    4    0    0  0.43429896130E+02 -0.18610121862E+03  0.13010689520E+03  0.24890343835E+03  0.92224172487E+02 0.  0.
          2    1    3    3  502    0 -0.56987212774E+02 -0.12585806672E+02 -0.77513644653E+02  0.97027367565E+02  0.00000000000E+00 0. -1.
         -3    1    3    3    0  502 -0.10588521561E+03 -0.15213436535E+03 -0.33040037121E+03  0.37884158867E+03  0.00000000000E+00 0.  1.
         11    1    5    5    0    0 -0.11737773682E+02  0.23915688581E+02 -0.38108765301E+02  0.46497456749E+02  0.00000000000E+00 0. -1.
        -11    1    5    5    0    0  0.13118030594E+03  0.32690570207E+03 -0.82673525259E+03  0.89864719918E+03  0.00000000000E+00 0.  1.
          4    1    6    6  503    0 -0.28762725948E+02 -0.66582697656E+02  0.46531729731E+02  0.86172802571E+02  0.00000000000E+00 0. -1.
         -4    1    6    6    0  503  0.72192622077E+02 -0.11951852097E+03  0.83575165468E+02  0.16273063578E+03  0.00000000000E+00 0.  1.
<mgrwt>
<rscale>  0 0.12177731E+04</rscale>
<asrwt>0</asrwt>
<pdfrwt beam="1">  1        2 0.40558916E-01 0.12177731E+04</pdfrwt>
<pdfrwt beam="2">  1       -1 0.21635140E+00 0.12177731E+04</pdfrwt>
<totfact> 0.16696928E+01</totfact>
</mgrwt>
</event>
<event>
12    6  0.1521603E-007  0.1430112E+04  0.7818608E-02  0.8932306E-01
         -1   -1    0    0    0  501 -0.00000000000E+00  0.00000000000E+00  0.13702052758E+04  0.13702052758E+04  0.00000000000E+00 0.  1.
          2   -1    0    0  501    0  0.00000000000E+00 -0.00000000000E+00 -0.37315940337E+03  0.37315940337E+03  0.00000000000E+00 0. -1.
         24    2    1    2    0    0  0.33448486824E+03  0.26406158740E+03  0.24452895588E+03  0.49577074252E+03  0.66223635157E+02 0.  0.
        254    2    1    2    0    0 -0.33448486824E+03 -0.26406158740E+03  0.75251691654E+03  0.12475939366E+04  0.89922203712E+03 0.  0.
         23    2    4    4    0    0  0.29127602527E+03 -0.13635925357E+02  0.31480660660E+03  0.43876101724E+03  0.91544357202E+02 0.  0.
         23    2    4    4    0    0 -0.62576089351E+03 -0.25042566204E+03  0.43771030994E+03  0.80883291940E+03  0.91272493230E+02 0.  0.
          2    1    3    3  502    0  0.11040298598E+03  0.84645725404E+02  0.11650096522E+03  0.18145576056E+03  0.00000000000E+00 0. -1.
         -1    1    3    3    0  502  0.22408188227E+03  0.17941586199E+03  0.12802799066E+03  0.31431498196E+03  0.00000000000E+00 0.  1.
         11    1    5    5    0    0  0.24733889834E+03 -0.31081975527E+02  0.21854855956E+03  0.33152087825E+03  0.00000000000E+00 0.  1.
        -11    1    5    5    0    0  0.43937126929E+02  0.17446050170E+02  0.96258047047E+02  0.10724013899E+03  0.00000000000E+00 0. -1.
          1    1    6    6  503    0 -0.40068244349E+03 -0.19096380264E+03  0.32536777593E+03  0.55034333288E+03  0.00000000000E+00 0. -1.
         -1    1    6    6    0  503 -0.22507845002E+03 -0.59461859402E+02  0.11234253401E+03  0.25848958651E+03  0.00000000000E+00 0.  1.
<mgrwt>
<rscale>  0 0.14301119E+04</rscale>
<asrwt>0</asrwt>
<pdfrwt beam="1">  1        2 0.57409140E-01 0.14301119E+04</pdfrwt>
<pdfrwt beam="2">  1       -1 0.21080081E+00 0.14301119E+04</pdfrwt>
<totfact> 0.12134682E+01</totfact>
</mgrwt>
</event>
<event>
12    6  0.1521603E-007  0.2594323E+04  0.7818608E-02  0.8370132E-01
          2   -1    0    0  501    0  0.00000000000E+00  0.00000000000E+00  0.35423353668E+04  0.35423353668E+04  0.00000000000E+00 0. -1.
         -1   -1    0    0    0  501 -0.00000000000E+00 -0.00000000000E+00 -0.47500542504E+03  0.47500542504E+03  0.00000000000E+00 0.  1.
         24    2    1    2    0    0  0.73652707849E+03  0.44348391733E+03  0.25241595049E+04  0.26677679146E+04  0.80338767167E+02 0.  0.
        254    2    1    2    0    0 -0.73652707849E+03 -0.44348391733E+03  0.54317043683E+03  0.13495728772E+04  0.88722190306E+03 0.  0.
         23    2    4    4    0    0 -0.61754106508E+02  0.18334577527E+03 -0.86042632283E+02  0.23053478730E+03  0.91179551466E+02 0.  0.
         23    2    4    4    0    0 -0.67477297198E+03 -0.62682969260E+03  0.62921306911E+03  0.11190380899E+04  0.90017404747E+02 0.  0.
          2    1    3    3  502    0  0.58509255629E+03  0.38860166308E+03  0.20613252910E+04  0.21777067083E+04  0.00000000000E+00 0. -1.
         -1    1    3    3    0  502  0.15143452220E+03  0.54882254251E+02  0.46283421389E+03  0.49006120627E+03  0.00000000000E+00 0.  1.
         11    1    5    5    0    0 -0.59864071452E+02  0.10790115134E+03 -0.10640188041E+02  0.12385305451E+03  0.00000000000E+00 0. -1.
        -11    1    5    5    0    0 -0.18900350559E+01  0.75444623932E+02 -0.75402444241E+02  0.10668173279E+03  0.00000000000E+00 0.  1.
          4    1    6    6  503    0 -0.11698824819E+03 -0.14368556965E+03  0.96522132221E+02  0.20892179194E+03  0.00000000000E+00 0. -1.
         -4    1    6    6    0  503 -0.55778472380E+03 -0.48314412295E+03  0.53269093689E+03  0.91011629800E+03  0.00000000000E+00 0.  1.
<mgrwt>
<rscale>  0 0.25943234E+04</rscale>
<asrwt>0</asrwt>
<pdfrwt beam="1">  1        2 0.54497465E+00 0.25943234E+04</pdfrwt>
<pdfrwt beam="2">  1       -1 0.73077760E-01 0.25943234E+04</pdfrwt>
<totfact> 0.14428096E+00</totfact>
</mgrwt>
</event>
<event>
12    6  0.1521603E-007  0.1701204E+04  0.7818608E-02  0.8760678E-01
         -1   -1    0    0    0  501 -0.00000000000E+00  0.00000000000E+00  0.67672850778E+03  0.67672850778E+03  0.00000000000E+00 0.  1.
          2   -1    0    0  501    0  0.00000000000E+00 -0.00000000000E+00 -0.10691490424E+04  0.10691490424E+04  0.00000000000E+00 0. -1.
         24    2    1    2    0    0 -0.19989326355E+03  0.32463233433E+03 -0.63012570450E+03  0.74077295867E+03  0.79641091843E+02 0.  0.
        254    2    1    2    0    0  0.19989326355E+03 -0.32463233433E+03  0.23770516989E+03  0.10051045915E+04  0.89910401109E+03 0.  0.
         23    2    4    4    0    0  0.13307676170E+03 -0.59208239009E+03 -0.25733727964E+02  0.61304790886E+03  0.83033322521E+02 0.  0.
         23    2    4    4    0    0  0.66816501853E+02  0.26745005576E+03  0.26343889786E+03  0.39205668264E+03  0.91183399000E+02 0.  0.
          2    1    3    3  502    0 -0.20561379637E+03  0.29773166769E+03 -0.58039315044E+03  0.68394253288E+03  0.00000000000E+00 0. -1.
         -1    1    3    3    0  502  0.57205328209E+01  0.26900666645E+02 -0.49732554066E+02  0.56830425791E+02  0.00000000000E+00 0.  1.
         11    1    5    5    0    0  0.73140252557E+02 -0.18741589040E+03  0.16144653172E+02  0.20182879464E+03  0.00000000000E+00 0.  1.
        -11    1    5    5    0    0  0.59936509142E+02 -0.40466649968E+03 -0.41878381136E+02  0.41121911422E+03  0.00000000000E+00 0. -1.
          3    1    6    6  503    0 -0.16864771391E+02  0.67041064673E+02  0.93566604700E+02  0.11633414968E+03  0.00000000000E+00 0. -1.
         -3    1    6    6    0  503  0.83681273243E+02  0.20040899108E+03  0.16987229316E+03  0.27572253296E+03  0.00000000000E+00 0.  1.
<mgrwt>
<rscale>  0 0.17012039E+04</rscale>
<asrwt>0</asrwt>
<pdfrwt beam="1">  1        2 0.16448447E+00 0.17012039E+04</pdfrwt>
<pdfrwt beam="2">  1       -1 0.10411208E+00 0.17012039E+04</pdfrwt>
<totfact> 0.21462934E+01</totfact>
</mgrwt>
</event>
<event>
12    6  0.1521603E-007  0.1645822E+04  0.7818608E-02  0.8792882E-01
         -1   -1    0    0    0  501 -0.00000000000E+00  0.00000000000E+00  0.31861103676E+03  0.31861103676E+03  0.00000000000E+00 0.  1.
          2   -1    0    0  501    0  0.00000000000E+00 -0.00000000000E+00 -0.21254219867E+04  0.21254219867E+04  0.00000000000E+00 0. -1.
         24    2    1    2    0    0 -0.12549591857E+02 -0.16510608858E+03  0.18054811785E+03  0.25797751940E+03  0.80853354389E+02 0.  0.
        254    2    1    2    0    0  0.12549591857E+02  0.16510608858E+03 -0.19873590678E+04  0.21860555040E+04  0.89544686596E+03 0.  0.
         23    2    4    4    0    0 -0.37177110979E+03 -0.13482695021E+03 -0.10480917808E+04  0.11239082486E+04  0.91001679935E+02 0.  0.
         23    2    4    4    0    0  0.38432070165E+03  0.29993303879E+03 -0.93926728697E+03  0.10621472554E+04  0.90947932157E+02 0.  0.
          4    1    3    3  502    0 -0.23303950632E+02 -0.14094506922E+02  0.54708849125E+02  0.61112907091E+02  0.00000000000E+00 0. -1.
         -3    1    3    3    0  502  0.10754358776E+02 -0.15101158166E+03  0.12583926872E+03  0.19686461231E+03  0.00000000000E+00 0.  1.
         11    1    5    5    0    0 -0.40005258088E+02 -0.47603285606E+02 -0.14021592705E+03  0.15338513511E+03  0.00000000000E+00 0.  1.
        -11    1    5    5    0    0 -0.33176585170E+03 -0.87223664607E+02 -0.90787585376E+03  0.97052311352E+03  0.00000000000E+00 0. -1.
          2    1    6    6  503    0  0.15194826787E+02  0.89183350750E+01 -0.88046925850E+01  0.19696245152E+02  0.00000000000E+00 0.  1.
         -2    1    6    6    0  503  0.36912587486E+03  0.29101470372E+03 -0.93046259439E+03  0.10424510103E+04  0.00000000000E+00 0. -1.
<mgrwt>
<rscale>  0 0.16458225E+04</rscale>
<asrwt>0</asrwt>
<pdfrwt beam="1">  1        2 0.32698798E+00 0.16458225E+04</pdfrwt>
<pdfrwt beam="2">  1       -1 0.49017086E-01 0.16458225E+04</pdfrwt>
<totfact> 0.25808646E+01</totfact>
</mgrwt>
</event>
<event>
12    6  0.1521603E-007  0.1244161E+04  0.7818608E-02  0.9075057E-01
          2   -1    0    0  501    0  0.00000000000E+00  0.00000000000E+00  0.11056813451E+04  0.11056813451E+04  0.00000000000E+00 0. -1.
         -1   -1    0    0    0  501 -0.00000000000E+00 -0.00000000000E+00 -0.34999624720E+03  0.34999624720E+03  0.00000000000E+00 0.  1.
         24    2    1    2    0    0  0.12806744487E+03 -0.24461354154E+03  0.79414740278E+02  0.29914489691E+03  0.83330146029E+02 0.  0.
        254    2    1    2    0    0 -0.12806744487E+03  0.24461354154E+03  0.67627035760E+03  0.11565326954E+04  0.89665446173E+03 0.  0.
         23    2    4    4    0    0  0.24214310478E+02 -0.32267441532E+03  0.31695044346E+03  0.46203586854E+03  0.91183600927E+02 0.  0.
         23    2    4    4    0    0 -0.15228175534E+03  0.56728795685E+03  0.35931991413E+03  0.69449682682E+03  0.90607299755E+02 0.  0.
          2    1    3    3  502    0  0.34933516610E+02 -0.31478697494E+02  0.42993394749E+02  0.63715704270E+02  0.00000000000E+00 0. -1.
         -1    1    3    3    0  502  0.93133928256E+02 -0.21313484404E+03  0.36421345529E+02  0.23542919264E+03  0.00000000000E+00 0.  1.
         11    1    5    5    0    0  0.51959017840E+02 -0.24552263081E+03  0.20972302126E+03  0.32705480797E+03  0.00000000000E+00 0. -1.
        -11    1    5    5    0    0 -0.27744707362E+02 -0.77151784506E+02  0.10722742221E+03  0.13498106057E+03  0.00000000000E+00 0.  1.
          2    1    6    6  503    0 -0.72285241445E+02  0.42063281697E+03  0.27048226904E+03  0.50528979874E+03  0.00000000000E+00 0.  1.
         -2    1    6    6    0  503 -0.79996513898E+02  0.14665513988E+03  0.88837645094E+02  0.18920702808E+03  0.00000000000E+00 0. -1.
<mgrwt>
<rscale>  0 0.12441613E+04</rscale>
<asrwt>0</asrwt>
<pdfrwt beam="1">  1        2 0.17010482E+00 0.12441613E+04</pdfrwt>
<pdfrwt beam="2">  1       -1 0.53845577E-01 0.12441613E+04</pdfrwt>
<totfact> 0.84399072E+01</totfact>
</mgrwt>
</event>
<event>
12    6  0.1521603E-007  0.1236183E+04  0.7818608E-02  0.9081762E-01
          2   -1    0    0  501    0  0.00000000000E+00  0.00000000000E+00  0.24196586204E+04  0.24196586204E+04  0.00000000000E+00 0. -1.
         -1   -1    0    0    0  501 -0.00000000000E+00 -0.00000000000E+00 -0.15788893058E+03  0.15788893058E+03  0.00000000000E+00 0.  1.
         24    2    1    2    0    0  0.26283143238E+03  0.64865573306E+02  0.79793912697E+03  0.84931492037E+03  0.10649450299E+03 0.  0.
        254    2    1    2    0    0 -0.26283143238E+03 -0.64865573306E+02  0.14638305629E+04  0.17282326307E+04  0.87789532654E+03 0.  0.
         23    2    4    4    0    0 -0.19843627198E+02 -0.52626280285E+02  0.14635884163E+04  0.14679769597E+04  0.98498766764E+02 0.  0.
         23    2    4    4    0    0 -0.24298780518E+03 -0.12239293021E+02  0.24214660988E+00  0.26025567094E+03  0.92412563332E+02 0.  0.
          2    1    3    3  502    0  0.25735827321E+03  0.34037971740E+02  0.71289956771E+03  0.75869470668E+03  0.00000000000E+00 0. -1.
         -1    1    3    3    0  502  0.54731591763E+01  0.30827601566E+02  0.85039559258E+02  0.90620213686E+02  0.00000000000E+00 0.  1.
         11    1    5    5    0    0  0.30695274233E+02  0.31942536199E+01  0.22565854002E+03  0.22775903890E+03  0.00000000000E+00 0. -1.
        -11    1    5    5    0    0 -0.50538901431E+02 -0.55820533905E+02  0.12379298763E+04  0.12402179208E+04  0.00000000000E+00 0.  1.
          3    1    6    6  503    0 -0.12705241068E+03 -0.42847400525E+02  0.28465473902E+02  0.13707114210E+03  0.00000000000E+00 0. -1.
         -3    1    6    6    0  503 -0.11593539450E+03  0.30608107504E+02 -0.28223327292E+02  0.12318452885E+03  0.00000000000E+00 0.  1.
<mgrwt>
<rscale>  0 0.12361833E+04</rscale>
<asrwt>0</asrwt>
<pdfrwt beam="1">  1        2 0.37225515E+00 0.12361833E+04</pdfrwt>
<pdfrwt beam="2">  1       -1 0.24290606E-01 0.12361833E+04</pdfrwt>
<totfact> 0.64222068E+01</totfact>
</mgrwt>
</event>
<event>
12    6  0.1521603E-007  0.2150907E+04  0.7818608E-02  0.8539144E-01
          2   -1    0    0  501    0  0.00000000000E+00  0.00000000000E+00  0.14801775452E+04  0.14801775452E+04  0.00000000000E+00 0. -1.
         -1   -1    0    0    0  501 -0.00000000000E+00 -0.00000000000E+00 -0.78139312144E+03  0.78139312144E+03  0.00000000000E+00 0.  1.
         24    2    1    2    0    0  0.26487239922E+03  0.59252581162E+03 -0.34027321120E+03  0.73725633616E+03  0.80726833448E+02 0.  0.
        254    2    1    2    0    0 -0.26487239922E+03 -0.59252581162E+03  0.10390576350E+04  0.15243143305E+04  0.90700010148E+03 0.  0.
         23    2    4    4    0    0 -0.31927775605E+02 -0.31806164531E+03 -0.82841840607E+02  0.34257268596E+03  0.91162939491E+02 0.  0.
         23    2    4    4    0    0 -0.23294462362E+03 -0.27446416631E+03  0.11218994756E+04  0.11817416445E+04  0.90890620481E+02 0.  0.
          2    1    3    3  502    0  0.38679415633E+02  0.54274941038E+02 -0.12878891651E+02  0.67880278937E+02  0.00000000000E+00 0. -1.
         -1    1    3    3    0  502  0.22619298359E+03  0.53825087058E+03 -0.32739431955E+03  0.66937605722E+03  0.00000000000E+00 0.  1.
         11    1    5    5    0    0 -0.19600324272E+02 -0.30229026503E+03 -0.54365879739E+02  0.30776488741E+03  0.00000000000E+00 0.  1.
        -11    1    5    5    0    0 -0.12327451332E+02 -0.15771380281E+02 -0.28475960868E+02  0.34807798547E+02  0.00000000000E+00 0. -1.
          1    1    6    6  503    0 -0.53161931277E+02 -0.12667148189E+03  0.46284234895E+03  0.48279902159E+03  0.00000000000E+00 0. -1.
         -1    1    6    6    0  503 -0.17978269234E+03 -0.14779268442E+03  0.65905712662E+03  0.69894262296E+03  0.00000000000E+00 0.  1.
<mgrwt>
<rscale>  0 0.21509073E+04</rscale>
<asrwt>0</asrwt>
<pdfrwt beam="1">  1        2 0.22771962E+00 0.21509073E+04</pdfrwt>
<pdfrwt beam="2">  1       -1 0.12021433E+00 0.21509073E+04</pdfrwt>
<totfact> 0.83951375E+00</totfact>
</mgrwt>
</event>
<event>
12    6  0.1521603E-007  0.1684440E+04  0.7818608E-02  0.8770289E-01
          2   -1    0    0  501    0  0.00000000000E+00  0.00000000000E+00  0.13805045797E+04  0.13805045797E+04  0.00000000000E+00 0. -1.
         -1   -1    0    0    0  501 -0.00000000000E+00 -0.00000000000E+00 -0.51382244429E+03  0.51382244429E+03  0.00000000000E+00 0.  1.
         24    2    1    2    0    0 -0.48610274201E+03 -0.13865425536E+03 -0.61052431733E+02  0.51667266482E+03  0.87763117698E+02 0.  0.
        254    2    1    2    0    0  0.48610274201E+03  0.13865425536E+03  0.92773456711E+03  0.13776543591E+04  0.88414887203E+03 0.  0.
         23    2    4    4    0    0  0.49778023856E+03 -0.17820576013E+03  0.89943455019E+03  0.10465707408E+04  0.82373214882E+02 0.  0.
         23    2    4    4    0    0 -0.11677496553E+02  0.31686001550E+03  0.28300016919E+02  0.33108361835E+03  0.90988120311E+02 0.  0.
          2    1    3    3  502    0 -0.11859684357E+03 -0.74315273634E+02 -0.16991583355E+02  0.14098469812E+03  0.00000000000E+00 0. -1.
         -1    1    3    3    0  502 -0.36750589844E+03 -0.64338981730E+02 -0.44060848378E+02  0.37568796669E+03  0.00000000000E+00 0.  1.
         11    1    5    5    0    0  0.51098636556E+02  0.37960487002E+01  0.11177836280E+03  0.12296293358E+03  0.00000000000E+00 0. -1.
        -11    1    5    5    0    0  0.44668160201E+03 -0.18200180883E+03  0.78765618740E+03  0.92360780721E+03  0.00000000000E+00 0.  1.
          4    1    6    6  503    0 -0.14003467294E+02  0.31326749752E+02  0.29934648543E+02  0.45536200211E+02  0.00000000000E+00 0. -1.
         -4    1    6    6    0  503  0.23259707414E+01  0.28553326575E+03 -0.16346316240E+01  0.28554741814E+03  0.00000000000E+00 0.  1.
<mgrwt>
<rscale>  0 0.16844397E+04</rscale>
<asrwt>0</asrwt>
<pdfrwt beam="1">  1        2 0.21238532E+00 0.16844397E+04</pdfrwt>
<pdfrwt beam="2">  1       -1 0.79049607E-01 0.16844397E+04</pdfrwt>
<totfact> 0.25800032E+01</totfact>
</mgrwt>
</event>
<event>
12    6  0.1521603E-007  0.2094257E+04  0.7818608E-02  0.8563777E-01
          2   -1    0    0  501    0  0.00000000000E+00  0.00000000000E+00  0.75753575731E+03  0.75753575731E+03  0.00000000000E+00 0. -1.
         -1   -1    0    0    0  501 -0.00000000000E+00 -0.00000000000E+00 -0.14474275683E+04  0.14474275683E+04  0.00000000000E+00 0.  1.
         24    2    1    2    0    0 -0.63261035595E+03 -0.28509196523E+03  0.23945033404E+03  0.73779183555E+03  0.74344058494E+02 0.  0.
        254    2    1    2    0    0  0.63261035595E+03  0.28509196523E+03 -0.92934214499E+03  0.14671714900E+04  0.89857780276E+03 0.  0.
         23    2    4    4    0    0  0.57512250845E+03 -0.13856263702E+03 -0.22998917374E+03  0.64162886034E+03  0.93952489446E+02 0.  0.
         23    2    4    4    0    0  0.57487847499E+02  0.42365460225E+03 -0.69935297125E+03  0.82554262969E+03  0.98173216479E+02 0.  0.
          4    1    3    3  502    0 -0.48675826372E-01  0.32341888759E+00  0.54075721443E+01  0.54174537939E+01  0.00000000000E+00 0. -1.
         -3    1    3    3    0  502 -0.63256168012E+03 -0.28541538412E+03  0.23404276190E+03  0.73237438175E+03  0.00000000000E+00 0.  1.
         11    1    5    5    0    0  0.43905017921E+03 -0.11044480651E+03 -0.13191421089E+03  0.47155537764E+03  0.00000000000E+00 0. -1.
        -11    1    5    5    0    0  0.13607232924E+03 -0.28117830512E+02 -0.98074962848E+02  0.17007348270E+03  0.00000000000E+00 0.  1.
          1    1    6    6  503    0  0.71706481218E+02  0.34040318791E+03 -0.50074098216E+03  0.60971934609E+03  0.00000000000E+00 0. -1.
         -1    1    6    6    0  503 -0.14218633719E+02  0.83251414336E+02 -0.19861198909E+03  0.21582328360E+03  0.00000000000E+00 0.  1.
<mgrwt>
<rscale>  0 0.20942570E+04</rscale>
<asrwt>0</asrwt>
<pdfrwt beam="1">  1        2 0.11654396E+00 0.20942570E+04</pdfrwt>
<pdfrwt beam="2">  1       -1 0.22268116E+00 0.20942570E+04</pdfrwt>
<totfact> 0.41122474E+00</totfact>
</mgrwt>
</event>
<event>
12    6  0.1521603E-007  0.1876205E+04  0.7818608E-02  0.8666792E-01
         -1   -1    0    0    0  501 -0.00000000000E+00  0.00000000000E+00  0.13256099508E+04  0.13256099508E+04  0.00000000000E+00 0.  1.
          2   -1    0    0  501    0  0.00000000000E+00 -0.00000000000E+00 -0.66387291215E+03  0.66387291215E+03  0.00000000000E+00 0. -1.
         24    2    1    2    0    0  0.50724992453E+03  0.41419329443E+03 -0.67370075578E+02  0.66323254164E+03  0.80499106337E+02 0.  0.
        254    2    1    2    0    0 -0.50724992453E+03 -0.41419329443E+03  0.72910711425E+03  0.13262503213E+04  0.89357940873E+03 0.  0.
         23    2    4    4    0    0  0.49862493626E+02 -0.10730805363E+03 -0.16776327722E+03  0.22288488792E+03  0.86786343611E+02 0.  0.
         23    2    4    4    0    0 -0.55711241815E+03 -0.30688524080E+03  0.89687039147E+03  0.11033654334E+04  0.92119395817E+02 0.  0.
          4    1    3    3  502    0  0.47270543246E+03  0.35704874209E+03 -0.51732756737E+02  0.59465158558E+03  0.00000000000E+00 0. -1.
         -1    1    3    3    0  502  0.34544492066E+02  0.57144552336E+02 -0.15637318841E+02  0.68580956061E+02  0.00000000000E+00 0.  1.
         11    1    5    5    0    0  0.61945380242E+02 -0.90812694808E+02 -0.16986255365E+03  0.20233008379E+03  0.00000000000E+00 0.  1.
        -11    1    5    5    0    0 -0.12082886616E+02 -0.16495358817E+02  0.20992764350E+01  0.20554804135E+02  0.00000000000E+00 0. -1.
          3    1    6    6  503    0 -0.57829572157E+02 -0.43874395985E+02  0.15590176906E+03  0.17197262467E+03  0.00000000000E+00 0. -1.
         -3    1    6    6    0  503 -0.49928284600E+03 -0.26301084482E+03  0.74096862240E+03  0.93139280875E+03  0.00000000000E+00 0.  1.
<mgrwt>
<rscale>  0 0.18762053E+04</rscale>
<asrwt>0</asrwt>
<pdfrwt beam="1">  1        2 0.10213429E+00 0.18762053E+04</pdfrwt>
<pdfrwt beam="2">  1       -1 0.20393999E+00 0.18762053E+04</pdfrwt>
<totfact> 0.66344093E+00</totfact>
</mgrwt>
</event>
<event>
12    6  0.1521603E-007  0.1474300E+04  0.7818608E-02  0.8901725E-01
         -1   -1    0    0    0  501 -0.00000000000E+00  0.00000000000E+00  0.30466537217E+03  0.30466537217E+03  0.00000000000E+00 0.  1.
          2   -1    0    0  501    0  0.00000000000E+00 -0.00000000000E+00 -0.17835643220E+04  0.17835643220E+04  0.00000000000E+00 0. -1.
         24    2    1    2    0    0 -0.11800069439E+03  0.18489838386E+03  0.10399209066E+03  0.25659984355E+03  0.83171801460E+02 0.  0.
        254    2    1    2    0    0  0.11800069439E+03 -0.18489838386E+03 -0.15828910405E+04  0.18316298507E+04  0.89510462371E+03 0.  0.
         23    2    4    4    0    0 -0.35227946205E+03 -0.19802610702E+03 -0.51728380455E+03  0.66325080620E+03  0.94889088071E+02 0.  0.
         23    2    4    4    0    0  0.47028015645E+03  0.13127723161E+02 -0.10656072360E+04  0.11683790444E+04  0.90857291831E+02 0.  0.
          4    1    3    3  502    0 -0.29459491878E+02  0.12257706442E+02 -0.75663300461E+01  0.32792718388E+02  0.00000000000E+00 0. -1.
         -3    1    3    3    0  502 -0.88541202515E+02  0.17264067742E+03  0.11155842071E+03  0.22380712516E+03  0.00000000000E+00 0.  1.
         11    1    5    5    0    0 -0.31517908032E+03 -0.17443935394E+03 -0.40157428291E+03  0.53947089409E+03  0.00000000000E+00 0.  1.
        -11    1    5    5    0    0 -0.37100381737E+02 -0.23586753079E+02 -0.11570952164E+03  0.12377991211E+03  0.00000000000E+00 0. -1.
          3    1    6    6  503    0  0.26570530503E+03  0.44577781330E+02 -0.53976436661E+03  0.60326781712E+03  0.00000000000E+00 0. -1.
         -3    1    6    6    0  503  0.20457485142E+03 -0.31450058169E+02 -0.52584286936E+03  0.56511122733E+03  0.00000000000E+00 0.  1.
<mgrwt>
<rscale>  0 0.14743002E+04</rscale>
<asrwt>0</asrwt>
<pdfrwt beam="1">  1        2 0.27439451E+00 0.14743002E+04</pdfrwt>
<pdfrwt beam="2">  1       -1 0.46871596E-01 0.14743002E+04</pdfrwt>
<totfact> 0.44088896E+01</totfact>
</mgrwt>
</event>
<event>
12    6  0.1521603E-007  0.1502660E+04  0.7818608E-02  0.8882686E-01
          2   -1    0    0  501    0  0.00000000000E+00  0.00000000000E+00  0.14377117262E+04  0.14377117262E+04  0.00000000000E+00 0. -1.
         -1   -1    0    0    0  501 -0.00000000000E+00 -0.00000000000E+00 -0.39263540501E+03  0.39263540501E+03  0.00000000000E+00 0.  1.
         24    2    1    2    0    0  0.45404437138E+03 -0.14061884916E+03  0.28915932282E+03  0.56175000904E+03  0.77588702519E+02 0.  0.
        254    2    1    2    0    0 -0.45404437138E+03  0.14061884916E+03  0.75591699834E+03  0.12685971221E+04  0.90110942622E+03 0.  0.
         23    2    4    4    0    0 -0.39523597974E+03  0.36022735595E+03  0.77917192986E+02  0.54770030351E+03  0.89046649786E+02 0.  0.
         23    2    4    4    0    0 -0.58808391632E+02 -0.21960850679E+03  0.67799980536E+03  0.72089681864E+03  0.91225894794E+02 0.  0.
          4    1    3    3  502    0  0.58912763759E+02 -0.46079823155E+02  0.35580385186E+02  0.82825283856E+02  0.00000000000E+00 0. -1.
         -3    1    3    3    0  502  0.39513160762E+03 -0.94539026005E+02  0.25357893764E+03  0.47892472518E+03  0.00000000000E+00 0.  1.
         11    1    5    5    0    0 -0.39502808659E+03  0.36355466559E+03  0.73059826279E+02  0.54180893522E+03  0.00000000000E+00 0. -1.
        -11    1    5    5    0    0 -0.20789315139E+00 -0.33273096354E+01  0.48573667071E+01  0.58913682876E+01  0.00000000000E+00 0.  1.
          1    1    6    6  503    0  0.95186479015E+01 -0.13690574403E+03  0.35863295381E+03  0.38399398819E+03  0.00000000000E+00 0. -1.
         -1    1    6    6    0  503 -0.68327039534E+02 -0.82702762761E+02  0.31936685155E+03  0.33690283046E+03  0.00000000000E+00 0.  1.
<mgrwt>
<rscale>  0 0.15026597E+04</rscale>
<asrwt>0</asrwt>
<pdfrwt beam="1">  1        2 0.22118642E+00 0.15026597E+04</pdfrwt>
<pdfrwt beam="2">  1       -1 0.60405448E-01 0.15026597E+04</pdfrwt>
<totfact> 0.42127863E+01</totfact>
</mgrwt>
</event>
<event>
12    6  0.1521603E-007  0.1870115E+04  0.7818608E-02  0.8669877E-01
         -3   -1    0    0    0  501 -0.00000000000E+00  0.00000000000E+00  0.44664976967E+03  0.44664976967E+03  0.00000000000E+00 0.  1.
          2   -1    0    0  501    0  0.00000000000E+00 -0.00000000000E+00 -0.19575342450E+04  0.19575342450E+04  0.00000000000E+00 0. -1.
         24    2    1    2    0    0  0.69573194338E+03 -0.12854572498E+03 -0.40049377629E+03  0.81715710683E+03  0.82362199776E+02 0.  0.
        254    2    1    2    0    0 -0.69573194338E+03  0.12854572498E+03 -0.11103906991E+04  0.15870269078E+04  0.88606995279E+03 0.  0.
         23    2    4    4    0    0 -0.47378665586E+03 -0.30494507687E+03 -0.85865072019E+03  0.10312864158E+04  0.93836649901E+02 0.  0.
         23    2    4    4    0    0 -0.22194528751E+03  0.43349080185E+03 -0.25173997886E+03  0.55574049208E+03  0.91107034006E+02 0.  0.
          4    1    3    3  502    0  0.15263408802E+03 -0.29396692999E+02 -0.12870527196E+03  0.20180777343E+03  0.00000000000E+00 0. -1.
         -3    1    3    3    0  502  0.54309785535E+03 -0.99149031977E+02 -0.27178850433E+03  0.61534933340E+03  0.00000000000E+00 0.  1.
         11    1    5    5    0    0 -0.15589355485E+03 -0.14906816625E+03 -0.28993122298E+03  0.36136440429E+03  0.00000000000E+00 0. -1.
        -11    1    5    5    0    0 -0.31789310102E+03 -0.15587691062E+03 -0.56871949722E+03  0.66992201147E+03  0.00000000000E+00 0.  1.
          2    1    6    6  503    0 -0.13633961194E+03  0.33908305615E+03 -0.16135309806E+03  0.39950047685E+03  0.00000000000E+00 0.  1.
         -2    1    6    6    0  503 -0.85605675575E+02  0.94407745703E+02 -0.90386880796E+02  0.15624001523E+03  0.00000000000E+00 0. -1.
<mgrwt>
<rscale>  0 0.18701147E+04</rscale>
<asrwt>0</asrwt>
<pdfrwt beam="1">  1        2 0.30115912E+00 0.18701147E+04</pdfrwt>
<pdfrwt beam="2">  1       -3 0.68715348E-01 0.18701147E+04</pdfrwt>
<totfact> 0.86126324E+00</totfact>
</mgrwt>
</event>
<event>
12    6  0.1521603E-007  0.1537628E+04  0.7818608E-02  0.8859809E-01
         -1   -1    0    0    0  501 -0.00000000000E+00  0.00000000000E+00  0.10804647274E+04  0.10804647274E+04  0.00000000000E+00 0.  1.
          2   -1    0    0  501    0  0.00000000000E+00 -0.00000000000E+00 -0.54705613335E+03  0.54705613335E+03  0.00000000000E+00 0. -1.
         24    2    1    2    0    0 -0.33780119517E+03 -0.13440546560E+02  0.58159833974E+03  0.67796323351E+03  0.84185636773E+02 0.  0.
        254    2    1    2    0    0  0.33780119517E+03  0.13440546560E+02 -0.48189745673E+02  0.94955762727E+03  0.88602885967E+03 0.  0.
         23    2    4    4    0    0  0.53578825303E+03 -0.18102601480E+03  0.15560975289E+03  0.59374299564E+03  0.92069970998E+02 0.  0.
         23    2    4    4    0    0 -0.19798705786E+03  0.19446656136E+03 -0.20379949856E+03  0.35581463163E+03  0.89742397457E+02 0.  0.
          4    1    3    3  502    0 -0.79545625409E+02  0.22168051263E+02  0.19405420775E+03  0.21089325395E+03  0.00000000000E+00 0. -1.
         -3    1    3    3    0  502 -0.25825556977E+03 -0.35608597823E+02  0.38754413200E+03  0.46706997955E+03  0.00000000000E+00 0.  1.
         11    1    5    5    0    0  0.26406271429E+03 -0.44191445772E+02  0.55189504513E+02  0.27336401074E+03  0.00000000000E+00 0.  1.
        -11    1    5    5    0    0  0.27172553874E+03 -0.13683456903E+03  0.10042024838E+03  0.32037898491E+03  0.00000000000E+00 0. -1.
          1    1    6    6  503    0 -0.75432050273E+02  0.10147248720E+03 -0.14170483818E+03  0.18991293013E+03  0.00000000000E+00 0. -1.
         -1    1    6    6    0  503 -0.12255500758E+03  0.92994074161E+02 -0.62094660385E+02  0.16590170150E+03  0.00000000000E+00 0.  1.
<mgrwt>
<rscale>  0 0.15376279E+04</rscale>
<asrwt>0</asrwt>
<pdfrwt beam="1">  1        2 0.84162482E-01 0.15376279E+04</pdfrwt>
<pdfrwt beam="2">  1       -1 0.16622534E+00 0.15376279E+04</pdfrwt>
<totfact> 0.16008318E+01</totfact>
</mgrwt>
</event>
<event>
12    6  0.1521603E-007  0.2544361E+04  0.7818608E-02  0.8387350E-01
         -1   -1    0    0    0  501 -0.00000000000E+00  0.00000000000E+00  0.85307636478E+03  0.85307636478E+03  0.00000000000E+00 0.  1.
          2   -1    0    0  501    0  0.00000000000E+00 -0.00000000000E+00 -0.18971850210E+04  0.18971850210E+04  0.00000000000E+00 0. -1.
         24    2    1    2    0    0  0.84675697065E+03  0.70698509860E+03 -0.58157503251E+03  0.12495776809E+04  0.79934756144E+02 0.  0.
        254    2    1    2    0    0 -0.84675697065E+03 -0.70698509860E+03 -0.46253362369E+03  0.15006837048E+04  0.90624992795E+03 0.  0.
         23    2    4    4    0    0 -0.22950704484E+03 -0.71426934131E+03 -0.60619577874E+02  0.75832169032E+03  0.92319430374E+02 0.  0.
         23    2    4    4    0    0 -0.61724992581E+03  0.72842427160E+01 -0.40191404581E+03  0.74236201451E+03  0.92281792640E+02 0.  0.
          4    1    3    3  502    0  0.20487470968E+03  0.15283754899E+03 -0.17007045170E+03  0.30701290134E+03  0.00000000000E+00 0. -1.
         -3    1    3    3    0  502  0.64188226097E+03  0.55414754960E+03 -0.41150458081E+03  0.94256477958E+03  0.00000000000E+00 0.  1.
         11    1    5    5    0    0 -0.13623160160E+03 -0.54369267644E+03 -0.28078076038E+02  0.56120330900E+03  0.00000000000E+00 0. -1.
        -11    1    5    5    0    0 -0.93275443241E+02 -0.17057666488E+03 -0.32541501837E+02  0.19711838132E+03  0.00000000000E+00 0.  1.
          1    1    6    6  503    0 -0.27839684991E+03 -0.37774022648E+02 -0.15694204537E+03  0.32181126213E+03  0.00000000000E+00 0. -1.
         -1    1    6    6    0  503 -0.33885307591E+03  0.45058265364E+02 -0.24497200044E+03  0.42055075238E+03  0.00000000000E+00 0.  1.
<mgrwt>
<rscale>  0 0.25443614E+04</rscale>
<asrwt>0</asrwt>
<pdfrwt beam="1">  1        2 0.29187461E+00 0.25443614E+04</pdfrwt>
<pdfrwt beam="2">  1       -1 0.13124252E+00 0.25443614E+04</pdfrwt>
<totfact> 0.38153404E+00</totfact>
</mgrwt>
</event>
<event>
12    6  0.1521603E-007  0.3189862E+04  0.7818608E-02  0.8191500E-01
          2   -1    0    0  501    0  0.00000000000E+00  0.00000000000E+00  0.45725354669E+04  0.45725354669E+04  0.00000000000E+00 0. -1.
         -1   -1    0    0    0  501 -0.00000000000E+00 -0.00000000000E+00 -0.55632269772E+03  0.55632269772E+03  0.00000000000E+00 0.  1.
         24    2    1    2    0    0  0.66528827390E+03 -0.56853378428E+03 -0.43983736017E+02  0.87993564624E+03  0.80703291326E+02 0.  0.
        254    2    1    2    0    0 -0.66528827390E+03  0.56853378428E+03  0.40601965051E+04  0.42489225183E+04  0.89571633629E+03 0.  0.
         23    2    4    4    0    0 -0.59617578703E+03  0.19688648452E+03  0.11536898936E+04  0.13165515364E+04  0.90098394238E+02 0.  0.
         23    2    4    4    0    0 -0.69112486868E+02  0.37164729976E+03  0.29065066116E+04  0.29323709819E+04  0.90114600614E+02 0.  0.
          4    1    3    3  502    0  0.16953706629E+03 -0.19215685112E+03 -0.20019239704E+02  0.25703665543E+03  0.00000000000E+00 0. -1.
         -3    1    3    3    0  502  0.49575120762E+03 -0.37637693317E+03 -0.23964496313E+02  0.62289899081E+03  0.00000000000E+00 0.  1.
         11    1    5    5    0    0 -0.82396751136E+02 -0.19864717828E+01  0.17541557156E+03  0.19381381121E+03  0.00000000000E+00 0. -1.
        -11    1    5    5    0    0 -0.51377903590E+03  0.19887295630E+03  0.97827432201E+03  0.11227377252E+04  0.00000000000E+00 0.  1.
          4    1    6    6  503    0 -0.96186551656E+01  0.87021124026E+02  0.42779228890E+03  0.43665940617E+03  0.00000000000E+00 0. -1.
         -4    1    6    6    0  503 -0.59493831703E+02  0.28462617574E+03  0.24787143227E+04  0.24957115758E+04  0.00000000000E+00 0.  1.
<mgrwt>
<rscale>  0 0.31898622E+04</rscale>
<asrwt>0</asrwt>
<pdfrwt beam="1">  1        2 0.70346697E+00 0.31898622E+04</pdfrwt>
<pdfrwt beam="2">  1       -1 0.85588110E-01 0.31898622E+04</pdfrwt>
<totfact> 0.13416232E-01</totfact>
</mgrwt>
</event>
<event>
12    6  0.1521603E-007  0.1990184E+04  0.7818608E-02  0.8611224E-01
         -3   -1    0    0    0  501 -0.00000000000E+00  0.00000000000E+00  0.17304796245E+04  0.17304796245E+04  0.00000000000E+00 0.  1.
          4   -1    0    0  501    0  0.00000000000E+00 -0.00000000000E+00 -0.57221573105E+03  0.57221573105E+03  0.00000000000E+00 0. -1.
         24    2    1    2    0    0  0.26643558202E+03  0.36260927808E+03  0.12047075824E+04  0.12885325098E+04  0.80760521628E+02 0.  0.
        254    2    1    2    0    0 -0.26643558202E+03 -0.36260927808E+03 -0.46443688968E+02  0.10141628457E+04  0.90768709006E+03 0.  0.
         23    2    4    4    0    0  0.77933351020E+02 -0.17496285934E+03  0.37533289758E+03  0.43115777790E+03  0.91305181101E+02 0.  0.
         23    2    4    4    0    0 -0.34436893304E+03 -0.18764641875E+03 -0.42177658655E+03  0.58300506781E+03  0.90544351697E+02 0.  0.
          4    1    3    3  502    0  0.44363042584E+02  0.57357239346E+02  0.29145154170E+03  0.30033636745E+03  0.00000000000E+00 0. -1.
         -3    1    3    3    0  502  0.22207253944E+03  0.30525203874E+03  0.91325604072E+03  0.98819614239E+03  0.00000000000E+00 0.  1.
         11    1    5    5    0    0  0.67172988522E+02 -0.15794694943E+03  0.37336778449E+03  0.41092937558E+03  0.00000000000E+00 0.  1.
        -11    1    5    5    0    0  0.10760362497E+02 -0.17015909910E+02  0.19651130870E+01  0.20228402324E+02  0.00000000000E+00 0. -1.
          3    1    6    6  503    0 -0.57954979636E+02 -0.56506116729E+02 -0.47665400959E+02  0.93934612050E+02  0.00000000000E+00 0. -1.
         -3    1    6    6    0  503 -0.28641395340E+03 -0.13114030202E+03 -0.37411118559E+03  0.48907045576E+03  0.00000000000E+00 0.  1.
<mgrwt>
<rscale>  0 0.19901836E+04</rscale>
<asrwt>0</asrwt>
<pdfrwt beam="1">  1        4 0.88033190E-01 0.19901836E+04</pdfrwt>
<pdfrwt beam="2">  1       -3 0.26622763E+00 0.19901836E+04</pdfrwt>
<totfact> 0.13991918E-01</totfact>
</mgrwt>
</event>
<event>
12    6  0.1521603E-007  0.1598306E+04  0.7818608E-02  0.8821590E-01
         -1   -1    0    0    0  501 -0.00000000000E+00  0.00000000000E+00  0.63724967749E+03  0.63724967749E+03  0.00000000000E+00 0.  1.
          2   -1    0    0  501    0  0.00000000000E+00 -0.00000000000E+00 -0.10021898977E+04  0.10021898977E+04  0.00000000000E+00 0. -1.
         24    2    1    2    0    0  0.12077639059E+03 -0.32022301860E+03 -0.44824522871E+03  0.56994576910E+03  0.82369147692E+02 0.  0.
        254    2    1    2    0    0 -0.12077639059E+03  0.32022301860E+03  0.83305008493E+02  0.10694938061E+04  0.10098255090E+04 0.  0.
         23    2    4    4    0    0  0.39070493003E+03 -0.16370174926E+02  0.18461522979E+03  0.44191602666E+03  0.91042114314E+02 0.  0.
         23    2    4    4    0    0 -0.51148132062E+03  0.33659319353E+03 -0.10131022129E+03  0.62757777943E+03  0.93177191576E+02 0.  0.
          4    1    3    3  502    0  0.11355840130E+03 -0.26430392769E+03 -0.32260338741E+03  0.43223260204E+03  0.00000000000E+00 0. -1.
         -3    1    3    3    0  502  0.72179892913E+01 -0.55919090917E+02 -0.12564184130E+03  0.13771316706E+03  0.00000000000E+00 0.  1.
         11    1    5    5    0    0  0.62619245178E+02  0.30026007723E+02  0.42156996921E+02  0.81240035671E+02  0.00000000000E+00 0.  1.
        -11    1    5    5    0    0  0.32808568485E+03 -0.46396182649E+02  0.14245823286E+03  0.36067599099E+03  0.00000000000E+00 0. -1.
          4    1    6    6  503    0 -0.36502644288E+01  0.51070439841E+01 -0.13395718816E+02  0.14793634146E+02  0.00000000000E+00 0. -1.
         -4    1    6    6    0  503 -0.50783105619E+03  0.33148614955E+03 -0.87914502477E+02  0.61278414529E+03  0.00000000000E+00 0.  1.
<mgrwt>
<rscale>  0 0.15983056E+04</rscale>
<asrwt>0</asrwt>
<pdfrwt beam="1">  1        2 0.15418306E+00 0.15983056E+04</pdfrwt>
<pdfrwt beam="2">  1       -1 0.98038412E-01 0.15983056E+04</pdfrwt>
<totfact> 0.27400881E+01</totfact>
</mgrwt>
</event>
<event>
12    6  0.1521603E-007  0.1233416E+04  0.7818608E-02  0.9084100E-01
         -1   -1    0    0    0  501 -0.00000000000E+00  0.00000000000E+00  0.36627323801E+03  0.36627323801E+03  0.00000000000E+00 0.  1.
          2   -1    0    0  501    0  0.00000000000E+00 -0.00000000000E+00 -0.10383747420E+04  0.10383747420E+04  0.00000000000E+00 0. -1.
         24    2    1    2    0    0  0.10105998694E+03  0.20096431905E+03 -0.36941480173E+03  0.43983607462E+03  0.79929333194E+02 0.  0.
        254    2    1    2    0    0 -0.10105998694E+03 -0.20096431905E+03 -0.30268670227E+03  0.96481190539E+03  0.88805573843E+03 0.  0.
         23    2    4    4    0    0 -0.36993219625E+03 -0.39262520952E+03 -0.29557828220E+03  0.62216145823E+03  0.93348670206E+02 0.  0.
         23    2    4    4    0    0  0.26887220930E+03  0.19166089047E+03 -0.71084200699E+01  0.34265044716E+03  0.91283281225E+02 0.  0.
          2    1    3    3  502    0  0.10166858068E+03  0.20772475364E+03 -0.35233619721E+03  0.42145802808E+03  0.00000000000E+00 0. -1.
         -1    1    3    3    0  502 -0.60859374015E+00 -0.67604345825E+01 -0.17078604524E+02  0.18378046538E+02  0.00000000000E+00 0.  1.
         11    1    5    5    0    0 -0.31985251294E+03 -0.37789810519E+03 -0.27195458271E+03  0.56486449968E+03  0.00000000000E+00 0. -1.
        -11    1    5    5    0    0 -0.50079683308E+02 -0.14727104337E+02 -0.23623699491E+02  0.57296958558E+02  0.00000000000E+00 0.  1.
          3    1    6    6  503    0  0.65834327095E+02  0.73591324678E+02 -0.37907575636E+02  0.10576779275E+03  0.00000000000E+00 0. -1.
         -3    1    6    6    0  503  0.20303788221E+03  0.11806956579E+03  0.30799155566E+02  0.23688265441E+03  0.00000000000E+00 0.  1.
<mgrwt>
<rscale>  0 0.12334162E+04</rscale>
<asrwt>0</asrwt>
<pdfrwt beam="1">  1        2 0.15974996E+00 0.12334162E+04</pdfrwt>
<pdfrwt beam="2">  1       -1 0.56349729E-01 0.12334162E+04</pdfrwt>
<totfact> 0.85196971E+01</totfact>
</mgrwt>
</event>
<event>
12    6  0.1521603E-007  0.1479885E+04  0.7818608E-02  0.8897940E-01
          2   -1    0    0  501    0  0.00000000000E+00  0.00000000000E+00  0.78413214055E+03  0.78413214055E+03  0.00000000000E+00 0. -1.
         -1   -1    0    0    0  501 -0.00000000000E+00 -0.00000000000E+00 -0.69824362311E+03  0.69824362311E+03  0.00000000000E+00 0.  1.
         24    2    1    2    0    0 -0.52261659786E+02 -0.48435432456E+03 -0.11208330652E+03  0.50624524663E+03  0.79944914385E+02 0.  0.
        254    2    1    2    0    0  0.52261659786E+02  0.48435432456E+03  0.19797182396E+03  0.97613051703E+03  0.82237920109E+03 0.  0.
         23    2    4    4    0    0 -0.33656049547E+03  0.34749093145E+02  0.27737186052E+02  0.35100642990E+03  0.89194706996E+02 0.  0.
         23    2    4    4    0    0  0.38882215525E+03  0.44960523141E+03  0.17023463791E+03  0.62512408713E+03  0.92047595499E+02 0.  0.
          2    1    3    3  502    0 -0.17846743522E+02 -0.25002374775E+02 -0.19526026091E+02  0.36399047977E+02  0.00000000000E+00 0. -1.
         -1    1    3    3    0  502 -0.34414916264E+02 -0.45935194978E+03 -0.92557280433E+02  0.46984619866E+03  0.00000000000E+00 0.  1.
         11    1    5    5    0    0 -0.28146075751E+03  0.25034518158E+01  0.44579998520E+02  0.28498035293E+03  0.00000000000E+00 0. -1.
        -11    1    5    5    0    0 -0.55099737956E+02  0.32245641329E+02 -0.16842812468E+02  0.66026076965E+02  0.00000000000E+00 0.  1.
          1    1    6    6  503    0  0.37941684013E+03  0.42228144649E+03  0.14303191418E+03  0.58543734686E+03  0.00000000000E+00 0. -1.
         -1    1    6    6    0  503  0.94053151257E+01  0.27323784917E+02  0.27202723730E+02  0.39686740269E+02  0.00000000000E+00 0.  1.
<mgrwt>
<rscale>  0 0.14798855E+04</rscale>
<asrwt>0</asrwt>
<pdfrwt beam="1">  1        2 0.12063571E+00 0.14798855E+04</pdfrwt>
<pdfrwt beam="2">  1       -1 0.10742210E+00 0.14798855E+04</pdfrwt>
<totfact> 0.31555325E+01</totfact>
</mgrwt>
</event>
<event>
12    6  0.1521603E-007  0.1112053E+04  0.7818608E-02  0.9193523E-01
          2   -1    0    0  501    0  0.00000000000E+00  0.00000000000E+00  0.81139466474E+03  0.81139466474E+03  0.00000000000E+00 0. -1.
         -1   -1    0    0    0  501 -0.00000000000E+00 -0.00000000000E+00 -0.38102984999E+03  0.38102984999E+03  0.00000000000E+00 0.  1.
         24    2    1    2    0    0  0.11592655491E+03 -0.24007261438E+02  0.18022553520E+03  0.22957768335E+03  0.78799456959E+02 0.  0.
        254    2    1    2    0    0 -0.11592655491E+03  0.24007261438E+02  0.25013927955E+03  0.96284683138E+03  0.92221963046E+03 0.  0.
         23    2    4    4    0    0 -0.17547309777E+03 -0.21528330836E+03 -0.25836469531E+03  0.39007653086E+03  0.90937743763E+02 0.  0.
         23    2    4    4    0    0  0.59546542854E+02  0.23929056980E+03  0.50850397486E+03  0.57277030053E+03  0.93186679058E+02 0.  0.
          2    1    3    3  502    0  0.67042981050E+02  0.17227411767E+02  0.13348471975E+03  0.15036527335E+03  0.00000000000E+00 0. -1.
         -3    1    3    3    0  502  0.48883573865E+02 -0.41234673205E+02  0.46740815452E+02  0.79212409995E+02  0.00000000000E+00 0.  1.
         11    1    5    5    0    0 -0.18617115484E+03 -0.20702611774E+03 -0.24993869357E+03  0.37415085576E+03  0.00000000000E+00 0.  1.
        -11    1    5    5    0    0  0.10698057068E+02 -0.82571906168E+01 -0.84260017451E+01  0.15925675098E+02  0.00000000000E+00 0. -1.
          2    1    6    6  503    0  0.32541424061E+02  0.23044691466E+03  0.47413824924E+03  0.52817781489E+03  0.00000000000E+00 0.  1.
         -2    1    6    6    0  503  0.27005118793E+02  0.88436551431E+01  0.34365725624E+02  0.44592485633E+02  0.00000000000E+00 0. -1.
<mgrwt>
<rscale>  0 0.11120532E+04</rscale>
<asrwt>0</asrwt>
<pdfrwt beam="1">  1        2 0.12482995E+00 0.11120532E+04</pdfrwt>
<pdfrwt beam="2">  1       -1 0.58619977E-01 0.11120532E+04</pdfrwt>
<totfact> 0.11289473E+02</totfact>
</mgrwt>
</event>
<event>
12    6  0.1521603E-007  0.1169075E+04  0.7818608E-02  0.9140364E-01
         -1   -1    0    0    0  501 -0.00000000000E+00  0.00000000000E+00  0.74690491982E+03  0.74690491982E+03  0.00000000000E+00 0.  1.
          2   -1    0    0  501    0  0.00000000000E+00 -0.00000000000E+00 -0.45746686443E+03  0.45746686443E+03  0.00000000000E+00 0. -1.
         24    2    1    2    0    0  0.17707306640E+03 -0.11797571030E+03  0.99944381638E+02  0.24807655678E+03  0.79246195743E+02 0.  0.
        254    2    1    2    0    0 -0.17707306640E+03  0.11797571030E+03  0.18949367375E+03  0.95629522746E+03  0.91286339099E+03 0.  0.
         23    2    4    4    0    0 -0.44385629379E+03  0.34851341970E+03  0.86193007656E+02  0.57761081934E+03  0.87948910198E+02 0.  0.
         23    2    4    4    0    0  0.26678322739E+03 -0.23053770940E+03  0.10330066609E+03  0.37868440812E+03  0.91705656684E+02 0.  0.
          2    1    3    3  502    0  0.33081676754E+02 -0.12563641388E+02  0.52695991641E+02  0.63475270435E+02  0.00000000000E+00 0. -1.
         -1    1    3    3    0  502  0.14399138965E+03 -0.10541206891E+03  0.47248389997E+02  0.18460128635E+03  0.00000000000E+00 0.  1.
         11    1    5    5    0    0 -0.11611442770E+02  0.26034679287E+02  0.18761396700E+02  0.34126531246E+02  0.00000000000E+00 0.  1.
        -11    1    5    5    0    0 -0.43224485102E+03  0.32247874041E+03  0.67431610956E+02  0.54348428809E+03  0.00000000000E+00 0. -1.
          1    1    6    6  503    0  0.10045743990E+03 -0.14581049194E+03  0.39491080216E+02  0.18141648825E+03  0.00000000000E+00 0. -1.
         -1    1    6    6    0  503  0.16632578749E+03 -0.84727217459E+02  0.63809585876E+02  0.19726791987E+03  0.00000000000E+00 0.  1.
<mgrwt>
<rscale>  0 0.11690753E+04</rscale>
<asrwt>0</asrwt>
<pdfrwt beam="1">  1        2 0.70379518E-01 0.11690753E+04</pdfrwt>
<pdfrwt beam="2">  1       -1 0.11490845E+00 0.11690753E+04</pdfrwt>
<totfact> 0.53110468E+01</totfact>
</mgrwt>
</event>
<event>
12    6  0.1521603E-007  0.2199705E+04  0.7818608E-02  0.8518551E-01
         -1   -1    0    0    0  501 -0.00000000000E+00  0.00000000000E+00  0.25921146140E+03  0.25921146140E+03  0.00000000000E+00 0.  1.
          2   -1    0    0  501    0  0.00000000000E+00 -0.00000000000E+00 -0.46667523836E+04  0.46667523836E+04  0.00000000000E+00 0. -1.
         24    2    1    2    0    0  0.71852929764E+03  0.49627498823E+03 -0.13127774282E+04  0.15787594957E+04  0.80769757175E+02 0.  0.
        254    2    1    2    0    0 -0.71852929764E+03 -0.49627498823E+03 -0.30947634940E+04  0.33472043493E+04  0.92932376320E+03 0.  0.
         23    2    4    4    0    0  0.10285318061E+03 -0.33379626496E+03 -0.48279304216E+03  0.60282937378E+03  0.91188864887E+02 0.  0.
         23    2    4    4    0    0 -0.82138247825E+03 -0.16247872328E+03 -0.26119704518E+04  0.27443749755E+04  0.90198968918E+02 0.  0.
          2    1    3    3  502    0  0.12507666450E+03  0.12541922238E+03 -0.25816189603E+03  0.31308420258E+03  0.00000000000E+00 0. -1.
         -1    1    3    3    0  502  0.59345263314E+03  0.37085576586E+03 -0.10546155322E+04  0.12656752931E+04  0.00000000000E+00 0.  1.
         11    1    5    5    0    0  0.81254862871E+02 -0.19234336503E+03 -0.35034308201E+03  0.40784629203E+03  0.00000000000E+00 0.  1.
        -11    1    5    5    0    0  0.21598317741E+02 -0.14145289992E+03 -0.13244996015E+03  0.19498308175E+03  0.00000000000E+00 0. -1.
          2    1    6    6  503    0 -0.30992089185E+03 -0.66600379719E+02 -0.11339945462E+04  0.11774677068E+04  0.00000000000E+00 0. -1.
         -2    1    6    6    0  503 -0.51146158640E+03 -0.95878343558E+02 -0.14779759056E+04  0.15669072687E+04  0.00000000000E+00 0.  1.
<mgrwt>
<rscale>  0 0.21997052E+04</rscale>
<asrwt>0</asrwt>
<pdfrwt beam="1">  1        2 0.71796183E+00 0.21997052E+04</pdfrwt>
<pdfrwt beam="2">  1       -1 0.39878690E-01 0.21997052E+04</pdfrwt>
<totfact> 0.53770414E-01</totfact>
</mgrwt>
</event>
<event>
12    6  0.1521603E-007  0.1885580E+04  0.7818608E-02  0.8662068E-01
         -1   -1    0    0    0  501 -0.00000000000E+00  0.00000000000E+00  0.75541448410E+03  0.75541448410E+03  0.00000000000E+00 0.  1.
          2   -1    0    0  501    0  0.00000000000E+00 -0.00000000000E+00 -0.11766427480E+04  0.11766427480E+04  0.00000000000E+00 0. -1.
         24    2    1    2    0    0 -0.51690577587E+03 -0.51019811706E+03 -0.15367408881E+03  0.74711737081E+03  0.84112665022E+02 0.  0.
        254    2    1    2    0    0  0.51690577587E+03  0.51019811706E+03 -0.26755417506E+03  0.11849398613E+04  0.89721989413E+03 0.  0.
         23    2    4    4    0    0  0.21752475674E+03  0.16854877780E+02 -0.50282450622E+03  0.55539868625E+03  0.89633196633E+02 0.  0.
         23    2    4    4    0    0  0.29938101914E+03  0.49334323928E+03  0.23527033116E+03  0.62954117501E+03  0.89181926106E+02 0.  0.
          4    1    3    3  502    0 -0.17376570372E+03 -0.16381736588E+03 -0.90886193002E+02  0.25552093698E+03  0.00000000000E+00 0. -1.
         -3    1    3    3    0  502 -0.34314007215E+03 -0.34638075118E+03 -0.62787895813E+02  0.49159643384E+03  0.00000000000E+00 0.  1.
         11    1    5    5    0    0  0.12882901737E+03  0.46640013606E+02 -0.35419929940E+03  0.37977539451E+03  0.00000000000E+00 0.  1.
        -11    1    5    5    0    0  0.88695739368E+02 -0.29785135825E+02 -0.14862520682E+03  0.17562329174E+03  0.00000000000E+00 0. -1.
          1    1    6    6  503    0  0.44429698843E+02  0.28275051829E+02  0.31571667222E+02  0.61402336001E+02  0.00000000000E+00 0. -1.
         -1    1    6    6    0  503  0.25495132029E+03  0.46506818745E+03  0.20369866393E+03  0.56813883900E+03  0.00000000000E+00 0.  1.
<mgrwt>
<rscale>  0 0.18855800E+04</rscale>
<asrwt>0</asrwt>
<pdfrwt beam="1">  1        2 0.18102196E+00 0.18855800E+04</pdfrwt>
<pdfrwt beam="2">  1       -1 0.11621761E+00 0.18855800E+04</pdfrwt>
<totfact> 0.13998885E+01</totfact>
</mgrwt>
</event>
<event>
12    6  0.1521603E-007  0.2390702E+04  0.7818608E-02  0.8442993E-01
          2   -1    0    0  501    0  0.00000000000E+00  0.00000000000E+00  0.42038858099E+04  0.42038858099E+04  0.00000000000E+00 0. -1.
         -1   -1    0    0    0  501 -0.00000000000E+00 -0.00000000000E+00 -0.33989129661E+03  0.33989129661E+03  0.00000000000E+00 0.  1.
         24    2    1    2    0    0  0.16445040381E+03  0.75108201885E+03  0.37743013669E+03  0.86028536303E+03  0.80431731336E+02 0.  0.
        254    2    1    2    0    0 -0.16445040381E+03 -0.75108201885E+03  0.34865643766E+04  0.36834917435E+04  0.90598683090E+03 0.  0.
         23    2    4    4    0    0  0.31392240431E+03 -0.58718803483E+03  0.20684448063E+04  0.21747026567E+04  0.86779400038E+02 0.  0.
         23    2    4    4    0    0 -0.47837280812E+03 -0.16389398402E+03  0.14181195703E+04  0.15087890867E+04  0.98385014605E+02 0.  0.
          4    1    3    3  502    0  0.69010227973E+02  0.24626862218E+03  0.16488682038E+03  0.30429970321E+03  0.00000000000E+00 0. -1.
         -3    1    3    3    0  502  0.95440175839E+02  0.50481339667E+03  0.21254331631E+03  0.55598565982E+03  0.00000000000E+00 0.  1.
         11    1    5    5    0    0  0.28576400574E+03 -0.56618972538E+03  0.19150282668E+04  0.20173163199E+04  0.00000000000E+00 0.  1.
        -11    1    5    5    0    0  0.28158398570E+02 -0.20998309453E+02  0.15341653952E+03  0.15738633679E+03  0.00000000000E+00 0. -1.
          1    1    6    6  503    0 -0.34330236597E+03 -0.14995677152E+03  0.94431014714E+03  0.10159060989E+04  0.00000000000E+00 0. -1.
         -1    1    6    6    0  503 -0.13507044215E+03 -0.13937212493E+02  0.47380942315E+03  0.49288298784E+03  0.00000000000E+00 0.  1.
<mgrwt>
<rscale>  0 0.23907022E+04</rscale>
<asrwt>0</asrwt>
<pdfrwt beam="1">  1        2 0.64675163E+00 0.23907022E+04</pdfrwt>
<pdfrwt beam="2">  1       -1 0.52290972E-01 0.23907022E+04</pdfrwt>
<totfact> 0.87529140E-01</totfact>
</mgrwt>
</event>
<event>
12    6  0.1521603E-007  0.1442931E+04  0.7818608E-02  0.8923316E-01
         -1   -1    0    0    0  501 -0.00000000000E+00  0.00000000000E+00  0.10514574754E+04  0.10514574754E+04  0.00000000000E+00 0.  1.
          2   -1    0    0  501    0  0.00000000000E+00 -0.00000000000E+00 -0.49503880414E+03  0.49503880414E+03  0.00000000000E+00 0. -1.
         24    2    1    2    0    0 -0.85536235970E+02 -0.55301624713E+02 -0.27704164000E+03  0.30642502691E+03  0.82277028756E+02 0.  0.
        254    2    1    2    0    0  0.85536235970E+02  0.55301624713E+02  0.83346031126E+03  0.12400712526E+04  0.91254912404E+03 0.  0.
         23    2    4    4    0    0 -0.28536107203E+03 -0.97866606316E+02  0.15111440915E+01  0.31227312647E+03  0.80643709594E+02 0.  0.
         23    2    4    4    0    0  0.37089730800E+03  0.15316823103E+03  0.83194916717E+03  0.92779812616E+03  0.87433552342E+02 0.  0.
          2    1    3    3  502    0 -0.23976774783E+02 -0.31732938220E+02 -0.20481471338E+03  0.20864067655E+03  0.00000000000E+00 0. -1.
         -1    1    3    3    0  502 -0.61559461187E+02 -0.23568686493E+02 -0.72226926628E+02  0.97784350357E+02  0.00000000000E+00 0.  1.
         11    1    5    5    0    0 -0.27731958180E+03 -0.91766589047E+02 -0.15471210460E+02  0.29251771855E+03  0.00000000000E+00 0.  1.
        -11    1    5    5    0    0 -0.80414902302E+01 -0.61000172690E+01  0.16982354552E+02  0.19755407916E+02  0.00000000000E+00 0. -1.
          3    1    6    6  503    0  0.98546255612E+02  0.77535323401E+02  0.20915537412E+03  0.24386279215E+03  0.00000000000E+00 0. -1.
         -3    1    6    6    0  503  0.27235105239E+03  0.75632907628E+02  0.62279379304E+03  0.68393533401E+03  0.00000000000E+00 0.  1.
<mgrwt>
<rscale>  0 0.14429307E+04</rscale>
<asrwt>0</asrwt>
<pdfrwt beam="1">  1        2 0.76159816E-01 0.14429307E+04</pdfrwt>
<pdfrwt beam="2">  1       -1 0.16176269E+00 0.14429307E+04</pdfrwt>
<totfact> 0.19587230E+01</totfact>
</mgrwt>
</event>
<event>
12    6  0.1521603E-007  0.2557842E+04  0.7818608E-02  0.8382664E-01
         -1   -1    0    0    0  501 -0.00000000000E+00  0.00000000000E+00  0.65654065162E+03  0.65654065162E+03  0.00000000000E+00 0.  1.
          2   -1    0    0  501    0  0.00000000000E+00 -0.00000000000E+00 -0.24912988770E+04  0.24912988770E+04  0.00000000000E+00 0. -1.
         24    2    1    2    0    0 -0.10678099789E+04  0.32504580106E+03 -0.69433671153E+03  0.13169435965E+04  0.79774955150E+02 0.  0.
        254    2    1    2    0    0  0.10678099789E+04 -0.32504580106E+03 -0.11404215139E+04  0.18308959322E+04  0.89763342257E+03 0.  0.
         23    2    4    4    0    0  0.19541791234E+03  0.26065311257E+03 -0.47809890818E+03  0.58554197788E+03  0.90291950378E+02 0.  0.
         23    2    4    4    0    0  0.87239206657E+03 -0.58569891362E+03 -0.66232260568E+03  0.12453539543E+04  0.90133801789E+02 0.  0.
          2    1    3    3  502    0 -0.10304290628E+04  0.30969026820E+03 -0.68487273705E+03  0.12754382704E+04  0.00000000000E+00 0. -1.
         -1    1    3    3    0  502 -0.37380916102E+02  0.15355532859E+02 -0.94639744845E+01  0.41505326056E+02  0.00000000000E+00 0.  1.
         11    1    5    5    0    0  0.19973366376E+03  0.26486060477E+03 -0.46587354786E+03  0.57191156571E+03  0.00000000000E+00 0.  1.
        -11    1    5    5    0    0 -0.43157514249E+01 -0.42074921985E+01 -0.12225360325E+02  0.13630412174E+02  0.00000000000E+00 0. -1.
          3    1    6    6  503    0  0.27630315932E+03 -0.13850235177E+03 -0.17938629260E+03  0.35735945387E+03  0.00000000000E+00 0. -1.
         -3    1    6    6    0  503  0.59608890725E+03 -0.44719656185E+03 -0.48293631307E+03  0.88799450041E+03  0.00000000000E+00 0.  1.
<mgrwt>
<rscale>  0 0.25578420E+04</rscale>
<asrwt>0</asrwt>
<pdfrwt beam="1">  1        2 0.38327676E+00 0.25578420E+04</pdfrwt>
<pdfrwt beam="2">  1       -1 0.10100625E+00 0.25578420E+04</pdfrwt>
<totfact> 0.33107598E+00</totfact>
</mgrwt>
</event>
<event>
12    6  0.1521603E-007  0.3243764E+04  0.7818608E-02  0.8177354E-01
         -1   -1    0    0    0  501 -0.00000000000E+00  0.00000000000E+00  0.15511984646E+04  0.15511984646E+04  0.00000000000E+00 0.  1.
          2   -1    0    0  501    0  0.00000000000E+00 -0.00000000000E+00 -0.16957867527E+04  0.16957867527E+04  0.00000000000E+00 0. -1.
         24    2    1    2    0    0 -0.11563320746E+03  0.28516824929E+03 -0.15279735099E+04  0.15613384306E+04  0.91556971185E+02 0.  0.
        254    2    1    2    0    0  0.11563320746E+03 -0.28516824929E+03  0.13833852218E+04  0.16856467866E+04  0.91266557301E+03 0.  0.
         23    2    4    4    0    0  0.44391294505E+03 -0.31325190111E+02  0.36726435715E+03  0.58407445606E+03  0.90663619301E+02 0.  0.
         23    2    4    4    0    0 -0.32827973759E+03 -0.25384305918E+03  0.10161208647E+04  0.11015723306E+04  0.93574050818E+02 0.  0.
          2    1    3    3  502    0 -0.81976354600E+02  0.27017239487E+03 -0.12905250205E+04  0.13210480968E+04  0.00000000000E+00 0. -1.
         -1    1    3    3    0  502 -0.33656852857E+02  0.14995854425E+02 -0.23744848941E+03  0.24029033380E+03  0.00000000000E+00 0.  1.
         11    1    5    5    0    0  0.43960878502E+02 -0.20495780590E+02  0.14383471847E+02  0.50591700140E+02  0.00000000000E+00 0. -1.
        -11    1    5    5    0    0  0.39995206655E+03 -0.10829409521E+02  0.35288088531E+03  0.53348275592E+03  0.00000000000E+00 0.  1.
          3    1    6    6  503    0 -0.11271542987E+02  0.56062187256E+01  0.13316481764E+02  0.18325011768E+02  0.00000000000E+00 0. -1.
         -3    1    6    6    0  503 -0.31700819461E+03 -0.25944927791E+03  0.10028043829E+04  0.10832473188E+04  0.00000000000E+00 0.  1.
<mgrwt>
<rscale>  0 0.32437644E+04</rscale>
<asrwt>0</asrwt>
<pdfrwt beam="1">  1        2 0.26089027E+00 0.32437644E+04</pdfrwt>
<pdfrwt beam="2">  1       -1 0.23864592E+00 0.32437644E+04</pdfrwt>
<totfact> 0.77919038E-01</totfact>
</mgrwt>
</event>
<event>
12    6  0.1521603E-007  0.1144749E+04  0.7818608E-02  0.9162642E-01
          2   -1    0    0  501    0  0.00000000000E+00  0.00000000000E+00  0.11934790532E+04  0.11934790532E+04  0.00000000000E+00 0. -1.
         -1   -1    0    0    0  501 -0.00000000000E+00 -0.00000000000E+00 -0.27450207254E+03  0.27450207254E+03  0.00000000000E+00 0.  1.
         24    2    1    2    0    0  0.14497227950E+03  0.12347557201E+03  0.29359395476E+03  0.35898385873E+03  0.80055117602E+02 0.  0.
        254    2    1    2    0    0 -0.14497227950E+03 -0.12347557201E+03  0.62538302585E+03  0.11089972670E+04  0.89582801385E+03 0.  0.
         23    2    4    4    0    0 -0.51391283716E+03 -0.26255259760E+02  0.32944415797E+03  0.61759214781E+03  0.89949235425E+02 0.  0.
         23    2    4    4    0    0  0.36894055766E+03 -0.97220312247E+02  0.29593886787E+03  0.49140511915E+03  0.91270221874E+02 0.  0.
          4    1    3    3  502    0  0.11724150319E+03  0.66342808168E+02  0.24278303968E+03  0.27765183706E+03  0.00000000000E+00 0. -1.
         -3    1    3    3    0  502  0.27730776308E+02  0.57132763839E+02  0.50810915082E+02  0.81332021677E+02  0.00000000000E+00 0.  1.
         11    1    5    5    0    0 -0.37444439766E+03 -0.32346833013E+02  0.28298475939E+03  0.47046285569E+03  0.00000000000E+00 0. -1.
        -11    1    5    5    0    0 -0.13946843950E+03  0.60915732527E+01  0.46459398586E+02  0.14712929212E+03  0.00000000000E+00 0.  1.
          1    1    6    6  503    0  0.28304334886E+03 -0.33160591668E+02  0.22139656485E+03  0.36087338653E+03  0.00000000000E+00 0. -1.
         -1    1    6    6    0  503  0.85897208800E+02 -0.64059720579E+02  0.74542303025E+02  0.13053173262E+03  0.00000000000E+00 0.  1.
<mgrwt>
<rscale>  0 0.11447488E+04</rscale>
<asrwt>0</asrwt>
<pdfrwt beam="1">  1        2 0.18361216E+00 0.11447488E+04</pdfrwt>
<pdfrwt beam="2">  1       -1 0.42231089E-01 0.11447488E+04</pdfrwt>
<totfact> 0.11882333E+02</totfact>
</mgrwt>
</event>
<event>
12    6  0.1521603E-007  0.1697594E+04  0.7818608E-02  0.8762738E-01
          2   -1    0    0  501    0  0.00000000000E+00  0.00000000000E+00  0.83658389034E+03  0.83658389034E+03  0.00000000000E+00 0. -1.
         -1   -1    0    0    0  501 -0.00000000000E+00 -0.00000000000E+00 -0.86118861859E+03  0.86118861859E+03  0.00000000000E+00 0.  1.
         24    2    1    2    0    0 -0.39728490585E+03  0.49491068583E+03  0.13275307642E+02  0.63978666917E+03  0.79867796320E+02 0.  0.
        254    2    1    2    0    0  0.39728490585E+03 -0.49491068583E+03 -0.37880035889E+02  0.10579858398E+04  0.84565197134E+03 0.  0.
         23    2    4    4    0    0  0.77222725520E+02 -0.63126421877E+03 -0.18592068862E+03  0.66854808158E+03  0.89062740210E+02 0.  0.
         23    2    4    4    0    0  0.32006218033E+03  0.13635353294E+03  0.14804065273E+03  0.38943775817E+03  0.93346919638E+02 0.  0.
          2    1    3    3  502    0 -0.45997813873E+02  0.28409156802E+02  0.13859250797E+02  0.55811807926E+02  0.00000000000E+00 0. -1.
         -1    1    3    3    0  502 -0.35128709198E+03  0.46650152903E+03 -0.58394315440E+00  0.58397486125E+03  0.00000000000E+00 0.  1.
         11    1    5    5    0    0  0.40488349805E+02 -0.39260789650E+03 -0.70591702917E+02  0.40095318353E+03  0.00000000000E+00 0.  1.
        -11    1    5    5    0    0  0.36734375714E+02 -0.23865632227E+03 -0.11532898570E+03  0.26759489805E+03  0.00000000000E+00 0. -1.
          1    1    6    6  503    0  0.11499133784E+03  0.82715413775E+02  0.96176082328E+02  0.17121532135E+03  0.00000000000E+00 0. -1.
         -1    1    6    6    0  503  0.20507084250E+03  0.53638119162E+02  0.51864570405E+02  0.21822243682E+03  0.00000000000E+00 0.  1.
<mgrwt>
<rscale>  0 0.16975942E+04</rscale>
<asrwt>0</asrwt>
<pdfrwt beam="1">  1        2 0.12870521E+00 0.16975942E+04</pdfrwt>
<pdfrwt beam="2">  1       -1 0.13249056E+00 0.16975942E+04</pdfrwt>
<totfact> 0.17031744E+01</totfact>
</mgrwt>
</event>
<event>
12    6  0.1521603E-007  0.3300053E+04  0.7818608E-02  0.8162882E-01
          2   -1    0    0  501    0  0.00000000000E+00  0.00000000000E+00  0.12693231668E+04  0.12693231668E+04  0.00000000000E+00 0. -1.
         -1   -1    0    0    0  501 -0.00000000000E+00 -0.00000000000E+00 -0.21449127843E+04  0.21449127843E+04  0.00000000000E+00 0.  1.
         24    2    1    2    0    0 -0.17788530960E+03 -0.42257065076E+03 -0.19090623998E+04  0.19644352150E+04  0.65401294837E+02 0.  0.
        254    2    1    2    0    0  0.17788530960E+03  0.42257065076E+03  0.10334727822E+04  0.14498007361E+04  0.90755002322E+03 0.  0.
         23    2    4    4    0    0  0.36421197847E+03  0.13881370699E+03  0.10224410437E+04  0.10980495085E+04  0.91692010470E+02 0.  0.
         23    2    4    4    0    0 -0.18632666887E+03  0.28375694377E+03  0.11031738562E+02  0.35175122766E+03  0.91496427448E+02 0.  0.
          2    1    3    3  502    0 -0.50696415135E+02 -0.62552155343E+02 -0.29114752204E+03  0.30207578228E+03  0.00000000000E+00 0. -1.
         -1    1    3    3    0  502 -0.12718889447E+03 -0.36001849542E+03 -0.16179148777E+04  0.16623594327E+04  0.00000000000E+00 0.  1.
         11    1    5    5    0    0  0.27321766051E+03  0.12437984124E+03  0.86526383538E+03  0.91586010926E+03  0.00000000000E+00 0. -1.
        -11    1    5    5    0    0  0.90994317959E+02  0.14433865742E+02  0.15717720829E+03  0.18218939922E+03  0.00000000000E+00 0.  1.
          4    1    6    6  503    0 -0.16320595184E+03  0.18368813517E+03  0.29214676534E+02  0.24744900696E+03  0.00000000000E+00 0. -1.
         -4    1    6    6    0  503 -0.23120717025E+02  0.10006880860E+03 -0.18182937971E+02  0.10430222070E+03  0.00000000000E+00 0.  1.
<mgrwt>
<rscale>  0 0.33000530E+04</rscale>
<asrwt>0</asrwt>
<pdfrwt beam="1">  1        2 0.19528049E+00 0.33000530E+04</pdfrwt>
<pdfrwt beam="2">  1       -1 0.32998658E+00 0.33000530E+04</pdfrwt>
<totfact> 0.34502348E-01</totfact>
</mgrwt>
</event>
<event>
12    6  0.1521603E-007  0.1622081E+04  0.7818608E-02  0.8807096E-01
          2   -1    0    0  501    0  0.00000000000E+00  0.00000000000E+00  0.53151780496E+03  0.53151780496E+03  0.00000000000E+00 0. -1.
         -1   -1    0    0    0  501 -0.00000000000E+00 -0.00000000000E+00 -0.12375629939E+04  0.12375629939E+04  0.00000000000E+00 0.  1.
         24    2    1    2    0    0 -0.24293931334E+03  0.45126850943E+03 -0.76267990973E+01  0.51869379594E+03  0.79512944304E+02 0.  0.
        254    2    1    2    0    0  0.24293931334E+03 -0.45126850943E+03 -0.69841838983E+03  0.12503870029E+04  0.90167434931E+03 0.  0.
         23    2    4    4    0    0  0.22139966302E+03  0.57575840790E+02  0.12648305849E+03  0.27619109231E+03  0.89167074406E+02 0.  0.
         23    2    4    4    0    0  0.21539650320E+02 -0.50884435022E+03 -0.82490144831E+03  0.97419591059E+03  0.95962198199E+02 0.  0.
          4    1    3    3  502    0 -0.22345179594E+03  0.40149581889E+03  0.17085436243E+02  0.45980594801E+03  0.00000000000E+00 0. -1.
         -3    1    3    3    0  502 -0.19487517398E+02  0.49772690538E+02 -0.24712235340E+02  0.58887847925E+02  0.00000000000E+00 0.  1.
         11    1    5    5    0    0  0.17379288309E+03  0.76004494284E+02  0.75845258331E+02  0.20428693687E+03  0.00000000000E+00 0. -1.
        -11    1    5    5    0    0  0.47606779936E+02 -0.18428653493E+02  0.50637800158E+02  0.71904155445E+02  0.00000000000E+00 0.  1.
          2    1    6    6  503    0  0.41800818388E+02 -0.45732539215E+03 -0.76785319315E+03  0.89470238010E+03  0.00000000000E+00 0. -1.
         -2    1    6    6    0  503 -0.20261168068E+02 -0.51518958066E+02 -0.57048255167E+02  0.79493530487E+02  0.00000000000E+00 0.  1.
<mgrwt>
<rscale>  0 0.16220811E+04</rscale>
<asrwt>0</asrwt>
<pdfrwt beam="1">  1        2 0.81771971E-01 0.16220811E+04</pdfrwt>
<pdfrwt beam="2">  1       -1 0.19039430E+00 0.16220811E+04</pdfrwt>
<totfact> 0.11009875E+01</totfact>
</mgrwt>
</event>
<event>
12    6  0.1521603E-007  0.2194669E+04  0.7818608E-02  0.8520650E-01
          2   -1    0    0  501    0  0.00000000000E+00  0.00000000000E+00  0.12488389795E+04  0.12488389795E+04  0.00000000000E+00 0. -1.
         -1   -1    0    0    0  501 -0.00000000000E+00 -0.00000000000E+00 -0.96420968719E+03  0.96420968719E+03  0.00000000000E+00 0.  1.
         24    2    1    2    0    0  0.21759267711E+03 -0.67832902942E+02  0.10045301903E+04  0.10333902508E+04  0.82865140559E+02 0.  0.
        254    2    1    2    0    0 -0.21759267711E+03  0.67832902942E+02 -0.71990089799E+03  0.11796584158E+04  0.90630502549E+03 0.  0.
         23    2    4    4    0    0  0.13222264525E+03  0.40645096462E+03 -0.39209786095E+03  0.58555970403E+03  0.80338159473E+02 0.  0.
         23    2    4    4    0    0 -0.34981532236E+03 -0.33861806168E+03 -0.32780303703E+03  0.59409871178E+03  0.92008134440E+02 0.  0.
          4    1    3    3  502    0  0.17126936194E+03 -0.87033164340E+02  0.81528841995E+03  0.83761755816E+03  0.00000000000E+00 0. -1.
         -3    1    3    3    0  502  0.46323315176E+02  0.19200261398E+02  0.18924177030E+03  0.19577269267E+03  0.00000000000E+00 0.  1.
         11    1    5    5    0    0  0.83932917444E+02  0.18759693803E+03 -0.23314807385E+03  0.31079795708E+03  0.00000000000E+00 0. -1.
        -11    1    5    5    0    0  0.48289727804E+02  0.21885402659E+03 -0.15894978711E+03  0.27476174695E+03  0.00000000000E+00 0.  1.
          2    1    6    6  503    0 -0.32222474867E+03 -0.30536242822E+03 -0.26231543228E+03  0.51563978438E+03  0.00000000000E+00 0. -1.
         -2    1    6    6    0  503 -0.27590573690E+02 -0.33255633457E+02 -0.65487604748E+02  0.78458927400E+02  0.00000000000E+00 0.  1.
<mgrwt>
<rscale>  0 0.21946687E+04</rscale>
<asrwt>0</asrwt>
<pdfrwt beam="1">  1        2 0.19212907E+00 0.21946687E+04</pdfrwt>
<pdfrwt beam="2">  1       -1 0.14833995E+00 0.21946687E+04</pdfrwt>
<totfact> 0.66391538E+00</totfact>
</mgrwt>
</event>
<event>
12    6  0.1521603E-007  0.1594107E+04  0.7818608E-02  0.8824176E-01
          2   -1    0    0  501    0  0.00000000000E+00  0.00000000000E+00  0.20549543280E+04  0.20549543280E+04  0.00000000000E+00 0. -1.
         -1   -1    0    0    0  501 -0.00000000000E+00 -0.00000000000E+00 -0.30915258959E+03  0.30915258959E+03  0.00000000000E+00 0.  1.
         24    2    1    2    0    0 -0.30338029281E+03  0.43657443266E+03  0.64256514748E+03  0.83788343989E+03  0.80757988835E+02 0.  0.
        254    2    1    2    0    0  0.30338029281E+03 -0.43657443266E+03  0.11032365909E+04  0.15262234777E+04  0.91081847312E+03 0.  0.
         23    2    4    4    0    0  0.18746945932E+03 -0.67154785492E+03  0.10154329085E+04  0.12355114520E+04  0.96245709722E+02 0.  0.
         23    2    4    4    0    0  0.11591083349E+03  0.23497342225E+03  0.87803682415E+02  0.29071202572E+03  0.90311487460E+02 0.  0.
          2    1    3    3  502    0 -0.23119393988E+03  0.36677316840E+03  0.48010636956E+03  0.64689668494E+03  0.00000000000E+00 0. -1.
         -1    1    3    3    0  502 -0.72186352925E+02  0.69801264266E+02  0.16245877792E+03  0.19098675494E+03  0.00000000000E+00 0.  1.
         11    1    5    5    0    0  0.18639955815E+03 -0.55578623590E+03  0.87954532769E+03  0.10569972179E+04  0.00000000000E+00 0. -1.
        -11    1    5    5    0    0  0.10699011666E+01 -0.11576161902E+03  0.13588758084E+03  0.17851423403E+03  0.00000000000E+00 0.  1.
          2    1    6    6  503    0  0.10558003708E+03  0.23242452664E+03  0.10031886637E+03  0.27428485150E+03  0.00000000000E+00 0. -1.
         -2    1    6    6    0  503  0.10330796412E+02  0.25488956169E+01 -0.12515183959E+02  0.16427174221E+02  0.00000000000E+00 0.  1.
<mgrwt>
<rscale>  0 0.15941072E+04</rscale>
<asrwt>0</asrwt>
<pdfrwt beam="1">  1        2 0.31614681E+00 0.15941072E+04</pdfrwt>
<pdfrwt beam="2">  1       -1 0.47561938E-01 0.15941072E+04</pdfrwt>
<totfact> 0.30037530E+01</totfact>
</mgrwt>
</event>
<event>
12    6  0.1521603E-007  0.1664229E+04  0.7818608E-02  0.8782033E-01
          2   -1    0    0  501    0  0.00000000000E+00  0.00000000000E+00  0.27687923642E+04  0.27687923642E+04  0.00000000000E+00 0. -1.
         -1   -1    0    0    0  501 -0.00000000000E+00 -0.00000000000E+00 -0.25007829314E+03  0.25007829314E+03  0.00000000000E+00 0.  1.
         24    2    1    2    0    0 -0.50454797692E+03 -0.30446529000E+03  0.71929858075E+03  0.93324911107E+03  0.79345328861E+02 0.  0.
        254    2    1    2    0    0  0.50454797692E+03  0.30446529000E+03  0.17994154903E+04  0.20856215462E+04  0.87444459726E+03 0.  0.
         23    2    4    4    0    0  0.23324814650E+03  0.21475391220E+03  0.17507497588E+04  0.17815895885E+04  0.91721334469E+02 0.  0.
         23    2    4    4    0    0  0.27129983042E+03  0.89711377797E+02  0.48665731491E+02  0.30403195778E+03  0.91735209356E+02 0.  0.
          2    1    3    3  502    0 -0.90642280503E+02 -0.28317363253E+02  0.14568030615E+03  0.17389838319E+03  0.00000000000E+00 0. -1.
         -1    1    3    3    0  502 -0.41390569642E+03 -0.27614792675E+03  0.57361827460E+03  0.75935072787E+03  0.00000000000E+00 0.  1.
         11    1    5    5    0    0  0.72466728783E+02  0.79604301739E+02  0.84365006580E+03  0.85049027341E+03  0.00000000000E+00 0. -1.
        -11    1    5    5    0    0  0.16078141772E+03  0.13514961046E+03  0.90709969298E+03  0.93109931506E+03  0.00000000000E+00 0.  1.
          3    1    6    6  503    0  0.12833312156E+03  0.75247421621E+02  0.58829438201E+02  0.15997645874E+03  0.00000000000E+00 0. -1.
         -3    1    6    6    0  503  0.14296670886E+03  0.14463956176E+02 -0.10163706710E+02  0.14405549904E+03  0.00000000000E+00 0.  1.
<mgrwt>
<rscale>  0 0.16642294E+04</rscale>
<asrwt>0</asrwt>
<pdfrwt beam="1">  1        2 0.42596803E+00 0.16642294E+04</pdfrwt>
<pdfrwt beam="2">  1       -1 0.38473586E-01 0.16642294E+04</pdfrwt>
<totfact> 0.17218608E+01</totfact>
</mgrwt>
</event>
<event>
12    6  0.1521603E-007  0.3208203E+04  0.7818608E-02  0.8186654E-01
          2   -1    0    0  501    0  0.00000000000E+00  0.00000000000E+00  0.89237028433E+03  0.89237028433E+03  0.00000000000E+00 0. -1.
         -1   -1    0    0    0  501 -0.00000000000E+00 -0.00000000000E+00 -0.28834902199E+04  0.28834902199E+04  0.00000000000E+00 0.  1.
         24    2    1    2    0    0  0.10579088251E+04  0.42898663983E+03  0.18557866096E+03  0.11592838031E+04  0.79365466474E+02 0.  0.
        254    2    1    2    0    0 -0.10579088251E+04 -0.42898663983E+03 -0.21766985965E+04  0.26165767011E+04  0.89736070430E+03 0.  0.
         23    2    4    4    0    0 -0.59160066078E+03 -0.51266844594E+03 -0.66679459025E+03  0.10313802569E+04  0.79435077450E+02 0.  0.
         23    2    4    4    0    0 -0.46630816431E+03  0.83681806114E+02 -0.15099040062E+04  0.15851964442E+04  0.92691476654E+02 0.  0.
          4    1    3    3  502    0  0.10559985262E+04  0.42232586078E+03  0.18333215287E+03  0.11519994350E+04  0.00000000000E+00 0. -1.
         -3    1    3    3    0  502  0.19102989279E+01  0.66607790496E+01  0.22465080847E+01  0.72843680657E+01  0.00000000000E+00 0.  1.
         11    1    5    5    0    0 -0.35744501663E+03 -0.26172062960E+03 -0.39570737729E+03  0.59401090589E+03  0.00000000000E+00 0.  1.
        -11    1    5    5    0    0 -0.23415564414E+03 -0.25094781634E+03 -0.27108721297E+03  0.43736935106E+03  0.00000000000E+00 0. -1.
          2    1    6    6  503    0 -0.38536865398E+02 -0.31813875323E+01 -0.63345602788E+02  0.74215069992E+02  0.00000000000E+00 0. -1.
         -2    1    6    6    0  503 -0.42777129892E+03  0.86863193646E+02 -0.14465584035E+04  0.15109813742E+04  0.00000000000E+00 0.  1.
<mgrwt>
<rscale>  0 0.32082026E+04</rscale>
<asrwt>0</asrwt>
<pdfrwt beam="1">  1        2 0.13728773E+00 0.32082026E+04</pdfrwt>
<pdfrwt beam="2">  1       -1 0.44361389E+00 0.32082026E+04</pdfrwt>
<totfact> 0.10181003E-01</totfact>
</mgrwt>
</event>
<event>
12    6  0.1521603E-007  0.1306907E+04  0.7818608E-02  0.9024106E-01
         -1   -1    0    0    0  501 -0.00000000000E+00  0.00000000000E+00  0.14730433008E+03  0.14730433008E+03  0.00000000000E+00 0.  1.
          2   -1    0    0  501    0  0.00000000000E+00 -0.00000000000E+00 -0.28987697159E+04  0.28987697159E+04  0.00000000000E+00 0. -1.
         24    2    1    2    0    0 -0.16170499039E+03 -0.23832749689E+03 -0.11172029727E+04  0.11563652572E+04  0.78036055735E+02 0.  0.
        254    2    1    2    0    0  0.16170499039E+03  0.23832749689E+03 -0.16342624130E+04  0.18897087888E+04  0.90401171011E+03 0.  0.
         23    2    4    4    0    0 -0.33305587520E+03  0.27375320307E+03 -0.83855287529E+03  0.94732027851E+03  0.91530067272E+02 0.  0.
         23    2    4    4    0    0  0.49476086558E+03 -0.35425706177E+02 -0.79570953774E+03  0.94238851027E+03  0.94335258824E+02 0.  0.
          2    1    3    3  502    0 -0.11557946817E+03 -0.16524684976E+03 -0.90589794314E+03  0.92807123552E+03  0.00000000000E+00 0. -1.
         -1    1    3    3    0  502 -0.46125522216E+02 -0.73080647134E+02 -0.21130502961E+03  0.22829402166E+03  0.00000000000E+00 0.  1.
         11    1    5    5    0    0 -0.31335088747E+03  0.23026205898E+03 -0.78169883993E+03  0.87307644043E+03  0.00000000000E+00 0. -1.
        -11    1    5    5    0    0 -0.19704987729E+02  0.43491144090E+02 -0.56854035362E+02  0.74243838079E+02  0.00000000000E+00 0.  1.
          2    1    6    6  503    0  0.29050890897E+03 -0.66282779696E+02 -0.48765876589E+03  0.57148919940E+03  0.00000000000E+00 0. -1.
         -2    1    6    6    0  503  0.20425195662E+03  0.30857073518E+02 -0.30805077185E+03  0.37089931087E+03  0.00000000000E+00 0.  1.
<mgrwt>
<rscale>  0 0.13069068E+04</rscale>
<asrwt>0</asrwt>
<pdfrwt beam="1">  1        2 0.44596458E+00 0.13069068E+04</pdfrwt>
<pdfrwt beam="2">  1       -1 0.22662204E-01 0.13069068E+04</pdfrwt>
<totfact> 0.37561905E+01</totfact>
</mgrwt>
</event>
<event>
12    6  0.1521603E-007  0.2223529E+04  0.7818608E-02  0.8508698E-01
         -1   -1    0    0    0  501 -0.00000000000E+00  0.00000000000E+00  0.78444740673E+03  0.78444740673E+03  0.00000000000E+00 0.  1.
          2   -1    0    0  501    0  0.00000000000E+00 -0.00000000000E+00 -0.15756572484E+04  0.15756572484E+04  0.00000000000E+00 0. -1.
         24    2    1    2    0    0 -0.18601540243E+03  0.53897320598E+03 -0.11072618239E+04  0.12479400366E+04  0.78941380490E+02 0.  0.
        254    2    1    2    0    0  0.18601540243E+03 -0.53897320598E+03  0.31605198219E+03  0.11121646186E+04  0.90107016190E+03 0.  0.
         23    2    4    4    0    0  0.29462677808E+03 -0.45756458922E+03 -0.18763694613E+03  0.58223884298E+03  0.87316407681E+02 0.  0.
         23    2    4    4    0    0 -0.10861137565E+03 -0.81408616763E+02  0.50368892832E+03  0.52992577560E+03  0.93246969557E+02 0.  0.
          2    1    3    3  502    0 -0.16970006447E+03  0.53097364363E+03 -0.10713591825E+04  0.12077009647E+04  0.00000000000E+00 0. -1.
         -3    1    3    3    0  502 -0.16315337954E+02  0.79995623480E+01 -0.35902641332E+02  0.40239071870E+02  0.00000000000E+00 0.  1.
         11    1    5    5    0    0  0.86608384453E+02 -0.18462533008E+03 -0.36113782333E+02  0.20710318694E+03  0.00000000000E+00 0.  1.
        -11    1    5    5    0    0  0.20801839363E+03 -0.27293925913E+03 -0.15152316380E+03  0.37513565604E+03  0.00000000000E+00 0. -1.
          1    1    6    6  503    0 -0.11365707103E+03 -0.95331411608E+02  0.47522253129E+03  0.49783778692E+03  0.00000000000E+00 0. -1.
         -1    1    6    6    0  503  0.50456953782E+01  0.13922794845E+02  0.28466397025E+02  0.32087988683E+02  0.00000000000E+00 0.  1.
<mgrwt>
<rscale>  0 0.22235289E+04</rscale>
<asrwt>0</asrwt>
<pdfrwt beam="1">  1        2 0.24240880E+00 0.22235289E+04</pdfrwt>
<pdfrwt beam="2">  1       -1 0.12068422E+00 0.22235289E+04</pdfrwt>
<totfact> 0.73003033E+00</totfact>
</mgrwt>
</event>
<event>
12    6  0.1521603E-007  0.1261670E+04  0.7818608E-02  0.9060526E-01
         -1   -1    0    0    0  501 -0.00000000000E+00  0.00000000000E+00  0.42841999193E+03  0.42841999193E+03  0.00000000000E+00 0.  1.
          2   -1    0    0  501    0  0.00000000000E+00 -0.00000000000E+00 -0.92888531753E+03  0.92888531753E+03  0.00000000000E+00 0. -1.
         24    2    1    2    0    0  0.16594794470E+03 -0.19009976046E+02  0.16839039320E+03  0.24981410242E+03  0.78432529629E+02 0.  0.
        254    2    1    2    0    0 -0.16594794470E+03  0.19009976046E+02 -0.66885571880E+03  0.11074912070E+04  0.86675757946E+03 0.  0.
         23    2    4    4    0    0  0.31965318323E+03 -0.54923857332E+02 -0.45216857627E+03  0.56256217517E+03  0.82613509263E+02 0.  0.
         23    2    4    4    0    0 -0.48560112793E+03  0.73933833378E+02 -0.21668714253E+03  0.54492903187E+03  0.93379145798E+02 0.  0.
          4    1    3    3  502    0 -0.41058846303E+00 -0.17402977352E+02  0.23180908619E+02  0.28989424416E+02  0.00000000000E+00 0. -1.
         -3    1    3    3    0  502  0.16635853316E+03 -0.16069986946E+01  0.14520948458E+03  0.22082467800E+03  0.00000000000E+00 0.  1.
         11    1    5    5    0    0  0.80951543979E+02 -0.25649885578E+02 -0.18216802864E+03  0.20098820802E+03  0.00000000000E+00 0. -1.
        -11    1    5    5    0    0  0.23870163925E+03 -0.29273971754E+02 -0.27000054763E+03  0.36157396715E+03  0.00000000000E+00 0.  1.
          3    1    6    6  503    0 -0.16364241959E+03  0.68858343132E+02 -0.65931446571E+02  0.18938655854E+03  0.00000000000E+00 0. -1.
         -3    1    6    6    0  503 -0.32195870834E+03  0.50754902465E+01 -0.15075569596E+03  0.35554247333E+03  0.00000000000E+00 0.  1.
<mgrwt>
<rscale>  0 0.12616704E+04</rscale>
<asrwt>0</asrwt>
<pdfrwt beam="1">  1        2 0.14290543E+00 0.12616704E+04</pdfrwt>
<pdfrwt beam="2">  1       -1 0.65910768E-01 0.12616704E+04</pdfrwt>
<totfact> 0.73369058E+01</totfact>
</mgrwt>
</event>
<event>
12    6  0.1521603E-007  0.1097581E+04  0.7818608E-02  0.9207553E-01
         -1   -1    0    0    0  501 -0.00000000000E+00  0.00000000000E+00  0.15796509967E+03  0.15796509967E+03  0.00000000000E+00 0.  1.
          2   -1    0    0  501    0  0.00000000000E+00 -0.00000000000E+00 -0.19065654913E+04  0.19065654913E+04  0.00000000000E+00 0. -1.
         24    2    1    2    0    0  0.99568676452E+02 -0.81303347490E+02 -0.21306070859E+03  0.26039889301E+03  0.76736968240E+02 0.  0.
        254    2    1    2    0    0 -0.99568676452E+02  0.81303347490E+02 -0.15355396831E+04  0.18041316980E+04  0.93834157414E+03 0.  0.
         23    2    4    4    0    0 -0.19837891244E+03 -0.33491336398E+03 -0.31815374009E+03  0.51066882001E+03  0.89664302358E+02 0.  0.
         23    2    4    4    0    0  0.98810235988E+02  0.41621671148E+03 -0.12173859430E+04  0.12934628780E+04  0.89542553606E+02 0.  0.
          4    1    3    3  502    0 -0.93505926435E+01 -0.90328041968E+01 -0.48652504754E+02  0.50359620265E+02  0.00000000000E+00 0. -1.
         -3    1    3    3    0  502  0.10891926910E+03 -0.72270543294E+02 -0.16440820383E+03  0.21003927275E+03  0.00000000000E+00 0.  1.
         11    1    5    5    0    0 -0.17662710684E+03 -0.23577806821E+03 -0.20640969202E+03  0.35971293176E+03  0.00000000000E+00 0. -1.
        -11    1    5    5    0    0 -0.21751805597E+02 -0.99135295777E+02 -0.11174404807E+03  0.15095588824E+03  0.00000000000E+00 0.  1.
          4    1    6    6  503    0  0.86992417411E+02  0.41516705220E+03 -0.11961704174E+04  0.12691552425E+04  0.00000000000E+00 0. -1.
         -4    1    6    6    0  503  0.11817818577E+02  0.10496592757E+01 -0.21215525547E+02  0.24307635524E+02  0.00000000000E+00 0.  1.
<mgrwt>
<rscale>  0 0.10975806E+04</rscale>
<asrwt>0</asrwt>
<pdfrwt beam="1">  1        2 0.29331777E+00 0.10975806E+04</pdfrwt>
<pdfrwt beam="2">  1       -1 0.24302323E-01 0.10975806E+04</pdfrwt>
<totfact> 0.12542260E+02</totfact>
</mgrwt>
</event>
<event>
12    6  0.1521603E-007  0.1953174E+04  0.7818608E-02  0.8628832E-01
          2   -1    0    0  501    0  0.00000000000E+00  0.00000000000E+00  0.24025522077E+04  0.24025522077E+04  0.00000000000E+00 0. -1.
         -1   -1    0    0    0  501 -0.00000000000E+00 -0.00000000000E+00 -0.39696213316E+03  0.39696213316E+03  0.00000000000E+00 0.  1.
         24    2    1    2    0    0 -0.51262213080E+03 -0.33340398834E+03  0.14551278821E+04  0.15803648279E+04  0.78842676095E+02 0.  0.
        254    2    1    2    0    0  0.51262213080E+03  0.33340398834E+03  0.55046219243E+03  0.12191495129E+04  0.89965395635E+03 0.  0.
         23    2    4    4    0    0  0.59335442119E+02  0.47872120195E+03  0.54541049559E+03  0.73416487441E+03  0.93972177946E+02 0.  0.
         23    2    4    4    0    0  0.45328668868E+03 -0.14531721362E+03  0.50516968388E+01  0.48498463853E+03  0.92728988216E+02 0.  0.
          4    1    3    3  502    0 -0.39773383882E+03 -0.21893746173E+03  0.10961024601E+04  0.11864090449E+04  0.00000000000E+00 0. -1.
         -3    1    3    3    0  502 -0.11488829198E+03 -0.11446652660E+03  0.35902542198E+03  0.39395578302E+03  0.00000000000E+00 0.  1.
         11    1    5    5    0    0  0.79340888624E+02  0.33288073493E+03  0.34978525978E+03  0.48934066687E+03  0.00000000000E+00 0. -1.
        -11    1    5    5    0    0 -0.20005446505E+02  0.14584046702E+03  0.19562523581E+03  0.24482420754E+03  0.00000000000E+00 0.  1.
          1    1    6    6  503    0  0.28988986485E+03 -0.47960680124E+02 -0.11566004037E+02  0.29405804364E+03  0.00000000000E+00 0. -1.
         -1    1    6    6    0  503  0.16339682384E+03 -0.97356533493E+02  0.16617700876E+02  0.19092659489E+03  0.00000000000E+00 0.  1.
<mgrwt>
<rscale>  0 0.19531741E+04</rscale>
<asrwt>0</asrwt>
<pdfrwt beam="1">  1        2 0.36962341E+00 0.19531741E+04</pdfrwt>
<pdfrwt beam="2">  1       -1 0.61071099E-01 0.19531741E+04</pdfrwt>
<totfact> 0.11443402E+01</totfact>
</mgrwt>
</event>
<event>
12    6  0.1521603E-007  0.1878683E+04  0.7818608E-02  0.8665541E-01
         -1   -1    0    0    0  501 -0.00000000000E+00  0.00000000000E+00  0.14087157988E+04  0.14087157988E+04  0.00000000000E+00 0.  1.
          2   -1    0    0  501    0  0.00000000000E+00 -0.00000000000E+00 -0.62635940746E+03  0.62635940746E+03  0.00000000000E+00 0. -1.
         24    2    1    2    0    0  0.26149325957E+03  0.63561413892E+03  0.80209980689E+02  0.69680144685E+03  0.81942400122E+02 0.  0.
        254    2    1    2    0    0 -0.26149325957E+03 -0.63561413892E+03  0.70214641065E+03  0.13382737594E+04  0.90861598860E+03 0.  0.
         23    2    4    4    0    0  0.20216852663E+03 -0.29609483955E+03 -0.64371797039E+02  0.37591585203E+03  0.92869437291E+02 0.  0.
         23    2    4    4    0    0 -0.46366178620E+03 -0.33951929937E+03  0.76651820769E+03  0.96235790738E+03  0.91252246803E+02 0.  0.
          4    1    3    3  502    0  0.10743082244E+03  0.19654279307E+03  0.55864686965E+02  0.23084911603E+03  0.00000000000E+00 0. -1.
         -3    1    3    3    0  502  0.15406243712E+03  0.43907134584E+03  0.24345293724E+02  0.46595233082E+03  0.00000000000E+00 0.  1.
         11    1    5    5    0    0  0.46638591481E+02 -0.10909314182E+03  0.16080024480E+02  0.11972902320E+03  0.00000000000E+00 0.  1.
        -11    1    5    5    0    0  0.15552993515E+03 -0.18700169772E+03 -0.80451821519E+02  0.25618682883E+03  0.00000000000E+00 0. -1.
          1    1    6    6  503    0 -0.30144965436E+03 -0.26091238785E+03  0.57119063068E+03  0.69656722922E+03  0.00000000000E+00 0. -1.
         -1    1    6    6    0  503 -0.16221213184E+03 -0.78606911514E+02  0.19532757701E+03  0.26579067816E+03  0.00000000000E+00 0.  1.
<mgrwt>
<rscale>  0 0.18786829E+04</rscale>
<asrwt>0</asrwt>
<pdfrwt beam="1">  1        2 0.96362986E-01 0.18786829E+04</pdfrwt>
<pdfrwt beam="2">  1       -1 0.21672551E+00 0.18786829E+04</pdfrwt>
<totfact> 0.58367008E+00</totfact>
</mgrwt>
</event>
<event>
12    6  0.1804043E-007  0.1786739E+04  0.7818608E-02  0.8713384E-01
         -1   -1    0    0    0  501 -0.00000000000E+00  0.00000000000E+00  0.94018097593E+03  0.94018097593E+03  0.00000000000E+00 0.  1.
          2   -1    0    0  501    0  0.00000000000E+00 -0.00000000000E+00 -0.84888841868E+03  0.84888841868E+03  0.00000000000E+00 0. -1.
         24    2    1    2    0    0 -0.62752873022E+02  0.47772180267E+03  0.48614798455E+03  0.68902844910E+03  0.79147311836E+02 0.  0.
        254    2    1    2    0    0  0.62752873022E+02 -0.47772180267E+03 -0.39485542729E+03  0.11000409455E+04  0.90665496718E+03 0.  0.
         23    2    4    4    0    0 -0.15094256320E+03  0.11924258715E+03 -0.40673762915E+03  0.45920027800E+03  0.91798389799E+02 0.  0.
         23    2    4    4    0    0  0.21369543622E+03 -0.59696438982E+03  0.11882201860E+02  0.64084066751E+03  0.92213622846E+02 0.  0.
          4    1    3    3  502    0 -0.10070761929E+02  0.87195395701E+01  0.29276438475E+02  0.32164584032E+02  0.00000000000E+00 0. -1.
         -1    1    3    3    0  502 -0.52682111094E+02  0.46900226310E+03  0.45687154607E+03  0.65686386507E+03  0.00000000000E+00 0.  1.
         11    1    5    5    0    0 -0.34898682075E+02 -0.92874587126E+01 -0.41643876966E+02  0.55121569178E+02  0.00000000000E+00 0. -1.
        -11    1    5    5    0    0 -0.11604388112E+03  0.12853004586E+03 -0.36509375219E+03  0.40407870882E+03  0.00000000000E+00 0.  1.
          1    1    6    6  503    0  0.75724514208E+01 -0.84518317874E+01 -0.12392200045E+02  0.16803038506E+02  0.00000000000E+00 0. -1.
         -1    1    6    6    0  503  0.20612298480E+03 -0.58851255803E+03  0.24274401905E+02  0.62403762900E+03  0.00000000000E+00 0.  1.
<mgrwt>
<rscale>  0 0.17867386E+04</rscale>
<asrwt>0</asrwt>
<pdfrwt beam="1">  1        2 0.13059822E+00 0.17867386E+04</pdfrwt>
<pdfrwt beam="2">  1       -1 0.14464323E+00 0.17867386E+04</pdfrwt>
<totfact> 0.13191169E+01</totfact>
</mgrwt>
</event>
<event>
12    6  0.1521603E-007  0.1203240E+04  0.7818608E-02  0.9110025E-01
         -1   -1    0    0    0  501 -0.00000000000E+00  0.00000000000E+00  0.23152388177E+03  0.23152388177E+03  0.00000000000E+00 0.  1.
          2   -1    0    0  501    0  0.00000000000E+00 -0.00000000000E+00 -0.15633234488E+04  0.15633234488E+04  0.00000000000E+00 0. -1.
         24    2    1    2    0    0 -0.40003228696E+02  0.60695082607E+02 -0.66550148605E+03  0.67435304297E+03  0.81090364823E+02 0.  0.
        254    2    1    2    0    0  0.40003228696E+02 -0.60695082607E+02 -0.66629808103E+03  0.11204942876E+04  0.89792547826E+03 0.  0.
         23    2    4    4    0    0  0.40288514214E+03  0.15826434419E+03 -0.20519116456E+03  0.48780261227E+03  0.92108273944E+02 0.  0.
         23    2    4    4    0    0 -0.36288191344E+03 -0.21895942680E+03 -0.46110691646E+03  0.63269167537E+03  0.89736581117E+02 0.  0.
          2    1    3    3  502    0 -0.26268707903E+02  0.37565498042E+02 -0.61851408580E+03  0.62021035624E+03  0.00000000000E+00 0. -1.
         -1    1    3    3    0  502 -0.13734520793E+02  0.23129584565E+02 -0.46987400249E+02  0.54142686724E+02  0.00000000000E+00 0.  1.
         11    1    5    5    0    0  0.35975620205E+03  0.16837912498E+03 -0.17414713661E+03  0.43370875001E+03  0.00000000000E+00 0.  1.
        -11    1    5    5    0    0  0.43128940088E+02 -0.10114780790E+02 -0.31044027948E+02  0.54093862266E+02  0.00000000000E+00 0. -1.
          4    1    6    6  503    0 -0.87040658972E+02 -0.49899341442E+02 -0.58273885755E+02  0.11602528324E+03  0.00000000000E+00 0. -1.
         -4    1    6    6    0  503 -0.27584125447E+03 -0.16906008536E+03 -0.40283303071E+03  0.51666639213E+03  0.00000000000E+00 0.  1.
<mgrwt>
<rscale>  0 0.12032401E+04</rscale>
<asrwt>0</asrwt>
<pdfrwt beam="1">  1        2 0.24051131E+00 0.12032401E+04</pdfrwt>
<pdfrwt beam="2">  1       -1 0.35619058E-01 0.12032401E+04</pdfrwt>
<totfact> 0.98781895E+01</totfact>
</mgrwt>
</event>
<event>
12    6  0.1521603E-007  0.1532993E+04  0.7818608E-02  0.8862804E-01
         -1   -1    0    0    0  501 -0.00000000000E+00  0.00000000000E+00  0.46500610311E+03  0.46500610311E+03  0.00000000000E+00 0.  1.
          2   -1    0    0  501    0  0.00000000000E+00 -0.00000000000E+00 -0.12634609918E+04  0.12634609918E+04  0.00000000000E+00 0. -1.
         24    2    1    2    0    0  0.22574599295E+03 -0.36438502079E+03  0.31035839453E+02  0.43706770020E+03  0.79544041396E+02 0.  0.
        254    2    1    2    0    0 -0.22574599295E+03  0.36438502079E+03 -0.82949072819E+03  0.12913993948E+04  0.89214339203E+03 0.  0.
         23    2    4    4    0    0 -0.45799014128E+03  0.88995608673E+00 -0.16748211921E+03  0.49607190410E+03  0.91001715646E+02 0.  0.
         23    2    4    4    0    0  0.23224414833E+03  0.36349506470E+03 -0.66200860898E+03  0.79532749066E+03  0.90688546954E+02 0.  0.
          2    1    3    3  502    0  0.14176082688E+03 -0.19007214044E+03 -0.16936577163E+02  0.23771915837E+03  0.00000000000E+00 0. -1.
         -1    1    3    3    0  502  0.83985166061E+02 -0.17431288034E+03  0.47972416615E+02  0.19934854183E+03  0.00000000000E+00 0.  1.
         11    1    5    5    0    0 -0.17090075909E+03 -0.26898544952E+01 -0.11000967315E+03  0.20326444096E+03  0.00000000000E+00 0.  1.
        -11    1    5    5    0    0 -0.28708938219E+03  0.35798105820E+01 -0.57472446057E+02  0.29280746313E+03  0.00000000000E+00 0. -1.
          1    1    6    6  503    0  0.13460203710E+03  0.28082052714E+03 -0.49743107753E+03  0.58686928165E+03  0.00000000000E+00 0. -1.
         -1    1    6    6    0  503  0.97642111233E+02  0.82674537561E+02 -0.16457753145E+03  0.20845820901E+03  0.00000000000E+00 0.  1.
<mgrwt>
<rscale>  0 0.15329932E+04</rscale>
<asrwt>0</asrwt>
<pdfrwt beam="1">  1        2 0.19437861E+00 0.15329932E+04</pdfrwt>
<pdfrwt beam="2">  1       -1 0.71539400E-01 0.15329932E+04</pdfrwt>
<totfact> 0.37647399E+01</totfact>
</mgrwt>
</event>
<event>
12    6  0.1521603E-007  0.1223682E+04  0.7818608E-02  0.9092377E-01
          2   -1    0    0  501    0  0.00000000000E+00  0.00000000000E+00  0.27995475065E+04  0.27995475065E+04  0.00000000000E+00 0. -1.
         -1   -1    0    0    0  501 -0.00000000000E+00 -0.00000000000E+00 -0.13371785328E+03  0.13371785328E+03  0.00000000000E+00 0.  1.
         24    2    1    2    0    0 -0.76585260907E+02 -0.15010188031E+03  0.11814136824E+04  0.11959769860E+04  0.78909984072E+02 0.  0.
        254    2    1    2    0    0  0.76585260907E+02  0.15010188031E+03  0.14844159708E+04  0.17372883737E+04  0.88672670106E+03 0.  0.
         23    2    4    4    0    0  0.12564752094E+03  0.35064969088E+03  0.19846285410E+03  0.43172979531E+03  0.90887878580E+02 0.  0.
         23    2    4    4    0    0 -0.49062260038E+02 -0.20054781056E+03  0.12859531167E+04  0.13055585784E+04  0.90450282264E+02 0.  0.
          4    1    3    3  502    0 -0.82711698578E+02 -0.13178522379E+03  0.11362983622E+04  0.11469012766E+04  0.00000000000E+00 0. -1.
         -3    1    3    3    0  502  0.61264376708E+01 -0.18316656526E+02  0.45115320190E+02  0.49075709478E+02  0.00000000000E+00 0.  1.
         11    1    5    5    0    0  0.11327907861E+03  0.32896954006E+03  0.20759353283E+03  0.40515204900E+03  0.00000000000E+00 0. -1.
        -11    1    5    5    0    0  0.12368442335E+02  0.21680150815E+02 -0.91306787235E+01  0.26577746313E+02  0.00000000000E+00 0.  1.
          3    1    6    6  503    0 -0.41133611228E+02 -0.13205730388E+03  0.58079044998E+03  0.59703320868E+03  0.00000000000E+00 0. -1.
         -3    1    6    6    0  503 -0.79286488098E+01 -0.68490506688E+02  0.70516266674E+03  0.70852536973E+03  0.00000000000E+00 0.  1.
<mgrwt>
<rscale>  0 0.12236821E+04</rscale>
<asrwt>0</asrwt>
<pdfrwt beam="1">  1        2 0.43069957E+00 0.12236821E+04</pdfrwt>
<pdfrwt beam="2">  1       -1 0.20571980E-01 0.12236821E+04</pdfrwt>
<totfact> 0.51175964E+01</totfact>
</mgrwt>
</event>
<event>
12    6  0.1521603E-007  0.1697003E+04  0.7818608E-02  0.8763075E-01
         -1   -1    0    0    0  501 -0.00000000000E+00  0.00000000000E+00  0.10456310757E+04  0.10456310757E+04  0.00000000000E+00 0.  1.
          2   -1    0    0  501    0  0.00000000000E+00 -0.00000000000E+00 -0.68853626657E+03  0.68853626657E+03  0.00000000000E+00 0. -1.
         24    2    1    2    0    0  0.20014706212E+03 -0.32855461618E+03  0.60777752398E+03  0.72356160081E+03  0.78363826030E+02 0.  0.
        254    2    1    2    0    0 -0.20014706212E+03  0.32855461618E+03 -0.25068271489E+03  0.10106057414E+04  0.90026393837E+03 0.  0.
         23    2    4    4    0    0  0.15465451097E+02 -0.27817880124E+03 -0.20694114210E+03  0.35921725281E+03  0.92681027120E+02 0.  0.
         23    2    4    4    0    0 -0.21561251322E+03  0.60673341742E+03 -0.43741572791E+02  0.65138848860E+03  0.88201146319E+02 0.  0.
          2    1    3    3  502    0  0.96421238033E+01  0.79016204360E+00  0.53765851198E+01  0.11068088139E+02  0.00000000000E+00 0. -1.
         -1    1    3    3    0  502  0.19050493832E+03 -0.32934477822E+03  0.60240093886E+03  0.71249351268E+03  0.00000000000E+00 0.  1.
         11    1    5    5    0    0 -0.15655035435E+01 -0.17577436440E+02  0.94870175482E+01  0.20035482902E+02  0.00000000000E+00 0.  1.
        -11    1    5    5    0    0  0.17030954640E+02 -0.26060136480E+03 -0.21642815965E+03  0.33918176991E+03  0.00000000000E+00 0. -1.
          2    1    6    6  503    0 -0.21233227086E+03  0.50151446153E+03 -0.34109313180E+02  0.54567865417E+03  0.00000000000E+00 0. -1.
         -2    1    6    6    0  503 -0.32802423584E+01  0.10521895589E+03 -0.96322596104E+01  0.10570983442E+03  0.00000000000E+00 0.  1.
<mgrwt>
<rscale>  0 0.16970031E+04</rscale>
<asrwt>0</asrwt>
<pdfrwt beam="1">  1        2 0.10592866E+00 0.16970031E+04</pdfrwt>
<pdfrwt beam="2">  1       -1 0.16086632E+00 0.16970031E+04</pdfrwt>
<totfact> 0.13090553E+01</totfact>
</mgrwt>
</event>
<event>
12    6  0.1521603E-007  0.1388345E+04  0.7818608E-02  0.8962299E-01
          2   -1    0    0  501    0  0.00000000000E+00  0.00000000000E+00  0.14082882755E+04  0.14082882755E+04  0.00000000000E+00 0. -1.
         -1   -1    0    0    0  501 -0.00000000000E+00 -0.00000000000E+00 -0.34217079174E+03  0.34217079174E+03  0.00000000000E+00 0.  1.
         24    2    1    2    0    0 -0.90128863500E+02  0.20130440446E+03  0.66819279437E+03  0.70779736649E+03  0.76477619413E+02 0.  0.
        254    2    1    2    0    0  0.90128863500E+02 -0.20130440446E+03  0.39792468938E+03  0.10426617007E+04  0.93816453166E+03 0.  0.
         23    2    4    4    0    0  0.50183371304E+03 -0.17568282125E+03  0.19463774914E+03  0.57357150103E+03  0.91645426430E+02 0.  0.
         23    2    4    4    0    0 -0.41170484953E+03 -0.25621583213E+02  0.20328694023E+03  0.46909019970E+03  0.92534786560E+02 0.  0.
          4    1    3    3  502    0 -0.18339057577E+02  0.12361203641E+03  0.41467639348E+03  0.43309671886E+03  0.00000000000E+00 0. -1.
         -3    1    3    3    0  502 -0.71789805923E+02  0.77692368053E+02  0.25351640089E+03  0.27470064763E+03  0.00000000000E+00 0.  1.
         11    1    5    5    0    0  0.25953769015E+01 -0.38380962464E+01  0.15257474514E+02  0.15945453666E+02  0.00000000000E+00 0. -1.
        -11    1    5    5    0    0  0.49923833613E+03 -0.17184472501E+03  0.17938027463E+03  0.55762604737E+03  0.00000000000E+00 0.  1.
          4    1    6    6  503    0 -0.11512251146E+03  0.94305179832E+01  0.10092482993E+03  0.15338822840E+03  0.00000000000E+00 0. -1.
         -4    1    6    6    0  503 -0.29658233807E+03 -0.35052101196E+02  0.10236211030E+03  0.31570197130E+03  0.00000000000E+00 0.  1.
<mgrwt>
<rscale>  0 0.13883445E+04</rscale>
<asrwt>0</asrwt>
<pdfrwt beam="1">  1        2 0.21665973E+00 0.13883445E+04</pdfrwt>
<pdfrwt beam="2">  1       -1 0.52641661E-01 0.13883445E+04</pdfrwt>
<totfact> 0.57780820E+01</totfact>
</mgrwt>
</event>
<event>
12    6  0.1521603E-007  0.2216765E+04  0.7818608E-02  0.8511482E-01
         -1   -1    0    0    0  501 -0.00000000000E+00  0.00000000000E+00  0.31957795171E+04  0.31957795171E+04  0.00000000000E+00 0.  1.
          2   -1    0    0  501    0  0.00000000000E+00 -0.00000000000E+00 -0.38441698878E+03  0.38441698878E+03  0.00000000000E+00 0. -1.
         24    2    1    2    0    0  0.79725830004E+03 -0.41030407895E+03  0.81715473168E+03  0.12159224943E+04  0.82191377643E+02 0.  0.
        254    2    1    2    0    0 -0.79725830004E+03  0.41030407895E+03  0.19942077966E+04  0.23642740115E+04  0.89942016389E+03 0.  0.
         23    2    4    4    0    0 -0.39939997343E+03  0.14700747652E+03  0.17816660504E+04  0.18340671476E+04  0.91306352294E+02 0.  0.
         23    2    4    4    0    0 -0.39785832660E+03  0.26329660243E+03  0.21254174622E+03  0.53020686387E+03  0.91263222103E+02 0.  0.
          2    1    3    3  502    0  0.14516628693E+02 -0.22862581012E+01  0.29208802045E+02  0.32697302666E+02  0.00000000000E+00 0. -1.
         -3    1    3    3    0  502  0.78274167135E+03 -0.40801782085E+03  0.78794592963E+03  0.11832251917E+04  0.00000000000E+00 0.  1.
         11    1    5    5    0    0 -0.92570489320E+02  0.27906338012E+02  0.58621063808E+03  0.59413043298E+03  0.00000000000E+00 0.  1.
        -11    1    5    5    0    0 -0.30682948411E+03  0.11910113850E+03  0.11954554123E+04  0.12399367146E+04  0.00000000000E+00 0. -1.
          2    1    6    6  503    0 -0.22792850950E+02 -0.40368250926E+01  0.49831725508E+00  0.23152933537E+02  0.00000000000E+00 0. -1.
         -2    1    6    6    0  503 -0.37506547565E+03  0.26733342753E+03  0.21204342897E+03  0.50705393034E+03  0.00000000000E+00 0.  1.
<mgrwt>
<rscale>  0 0.22167652E+04</rscale>
<asrwt>0</asrwt>
<pdfrwt beam="1">  1        2 0.59141077E-01 0.22167652E+04</pdfrwt>
<pdfrwt beam="2">  1       -1 0.49165837E+00 0.22167652E+04</pdfrwt>
<totfact> 0.14599574E-01</totfact>
</mgrwt>
</event>
<event>
12    6  0.2053248E-007  0.1720616E+04  0.7818608E-02  0.8749693E-01
         -3   -1    0    0    0  501 -0.00000000000E+00  0.00000000000E+00  0.24318556384E+03  0.24318556384E+03  0.00000000000E+00 0.  1.
          2   -1    0    0  501    0  0.00000000000E+00 -0.00000000000E+00 -0.30434762398E+04  0.30434762398E+04  0.00000000000E+00 0. -1.
         24    2    1    2    0    0 -0.29763928127E+03  0.22232849327E+03 -0.75705770837E+02  0.39291456141E+03  0.10310862306E+03 0.  0.
        254    2    1    2    0    0  0.29763928127E+03 -0.22232849327E+03 -0.27245849052E+04  0.28937472423E+04  0.90132740777E+03 0.  0.
         23    2    4    4    0    0  0.20350614806E+03 -0.48859611457E+03 -0.23777842720E+04  0.24376374233E+04  0.89873510071E+02 0.  0.
         23    2    4    4    0    0  0.94133133210E+02  0.26626762129E+03 -0.34680063315E+03  0.45610981895E+03  0.89476225209E+02 0.  0.
          2    1    3    3  502    0 -0.22638128584E+02  0.13965255508E+02  0.21785783405E+02  0.34382169590E+02  0.00000000000E+00 0. -1.
         -1    1    3    3    0  502 -0.27500115269E+03  0.20836323776E+03 -0.97491554242E+02  0.35853239182E+03  0.00000000000E+00 0.  1.
         11    1    5    5    0    0  0.19939756808E+03 -0.49222655299E+03 -0.23439506847E+04  0.24033624741E+04  0.00000000000E+00 0.  1.
        -11    1    5    5    0    0  0.41085799803E+01  0.36304384202E+01 -0.33833587276E+02  0.34274949169E+02  0.00000000000E+00 0. -1.
          3    1    6    6  503    0  0.13541713080E+01  0.38974925641E+02 -0.11723350657E+02  0.40722420842E+02  0.00000000000E+00 0. -1.
         -3    1    6    6    0  503  0.92778961902E+02  0.22729269565E+03 -0.33507728249E+03  0.41538739811E+03  0.00000000000E+00 0.  1.
<mgrwt>
<rscale>  0 0.17206156E+04</rscale>
<asrwt>0</asrwt>
<pdfrwt beam="1">  1        2 0.46822711E+00 0.17206156E+04</pdfrwt>
<pdfrwt beam="2">  1       -3 0.37413164E-01 0.17206156E+04</pdfrwt>
<totfact> 0.71682140E+00</totfact>
</mgrwt>
</event>
<event>
12    6  0.1521603E-007  0.1457156E+04  0.7818608E-02  0.8913455E-01
         -1   -1    0    0    0  501 -0.00000000000E+00  0.00000000000E+00  0.26021738389E+03  0.26021738389E+03  0.00000000000E+00 0.  1.
          2   -1    0    0  501    0  0.00000000000E+00 -0.00000000000E+00 -0.20399317567E+04  0.20399317567E+04  0.00000000000E+00 0. -1.
         24    2    1    2    0    0  0.57521334416E+02  0.19783969417E+03  0.72987982825E+02  0.23203489307E+03  0.77869746799E+02 0.  0.
        254    2    1    2    0    0 -0.57521334416E+02 -0.19783969417E+03 -0.18527023557E+04  0.20681142475E+04  0.89562339949E+03 0.  0.
         23    2    4    4    0    0  0.28393065957E+03 -0.74346889373E+02 -0.18333892974E+03  0.35730908042E+03  0.88952438916E+02 0.  0.
         23    2    4    4    0    0 -0.34145199399E+03 -0.12349280479E+03 -0.16693634259E+04  0.17108051671E+04  0.90775189389E+02 0.  0.
          2    1    3    3  502    0 -0.98562116537E+01  0.82651975178E+02  0.80467036679E+01  0.83625614192E+02  0.00000000000E+00 0. -1.
         -1    1    3    3    0  502  0.67377546070E+02  0.11518771899E+03  0.64941279157E+02  0.14840927888E+03  0.00000000000E+00 0.  1.
         11    1    5    5    0    0  0.35329048390E+02 -0.38591921426E+02 -0.13241619792E+02  0.53970534129E+02  0.00000000000E+00 0.  1.
        -11    1    5    5    0    0  0.24860161118E+03 -0.35754967947E+02 -0.17009730995E+03  0.30333854629E+03  0.00000000000E+00 0. -1.
          1    1    6    6  503    0 -0.29576163675E+03 -0.10052244769E+03 -0.12547405771E+04  0.12930404573E+04  0.00000000000E+00 0. -1.
         -1    1    6    6    0  503 -0.45690357243E+02 -0.22970357100E+02 -0.41462284879E+03  0.41776470984E+03  0.00000000000E+00 0.  1.
<mgrwt>
<rscale>  0 0.14571557E+04</rscale>
<asrwt>0</asrwt>
<pdfrwt beam="1">  1        2 0.31383565E+00 0.14571557E+04</pdfrwt>
<pdfrwt beam="2">  1       -1 0.40033444E-01 0.14571557E+04</pdfrwt>
<totfact> 0.42647121E+01</totfact>
</mgrwt>
</event>
<event>
12    6  0.1521603E-007  0.1420266E+04  0.7818608E-02  0.8939278E-01
         -1   -1    0    0    0  501 -0.00000000000E+00  0.00000000000E+00  0.63196138357E+03  0.63196138357E+03  0.00000000000E+00 0.  1.
          2   -1    0    0  501    0  0.00000000000E+00 -0.00000000000E+00 -0.79797405174E+03  0.79797405174E+03  0.00000000000E+00 0. -1.
         24    2    1    2    0    0  0.31393258443E+03 -0.12723034221E+03 -0.33127452553E+03  0.48048531736E+03  0.79888055366E+02 0.  0.
        254    2    1    2    0    0 -0.31393258443E+03  0.12723034221E+03  0.16526185736E+03  0.94945011796E+03  0.87143721371E+03 0.  0.
         23    2    4    4    0    0 -0.75370080770E+02  0.47903864547E+03  0.14158857251E+03  0.51348166124E+03  0.91964230164E+02 0.  0.
         23    2    4    4    0    0 -0.23856250366E+03 -0.35180830326E+03  0.23673284844E+02  0.43596845672E+03  0.93951692056E+02 0.  0.
          4    1    3    3  502    0  0.18934378388E+03 -0.90628859700E+02 -0.15220827642E+03  0.25929137686E+03  0.00000000000E+00 0. -1.
         -3    1    3    3    0  502  0.12458880055E+03 -0.36601482509E+02 -0.17906624910E+03  0.22119394050E+03  0.00000000000E+00 0.  1.
         11    1    5    5    0    0 -0.38369718099E+02  0.50462394957E+02  0.17029712092E+02  0.65640686055E+02  0.00000000000E+00 0. -1.
        -11    1    5    5    0    0 -0.37000362672E+02  0.42857625052E+03  0.12455886042E+03  0.44784097518E+03  0.00000000000E+00 0.  1.
          3    1    6    6  503    0 -0.47265424644E+02 -0.96932130264E+02  0.44381313004E+02  0.11661714792E+03  0.00000000000E+00 0. -1.
         -3    1    6    6    0  503 -0.19129707901E+03 -0.25487617300E+03 -0.20708028160E+02  0.31935130880E+03  0.00000000000E+00 0.  1.
<mgrwt>
<rscale>  0 0.14202659E+04</rscale>
<asrwt>0</asrwt>
<pdfrwt beam="1">  1        2 0.12276524E+00 0.14202659E+04</pdfrwt>
<pdfrwt beam="2">  1       -1 0.97224828E-01 0.14202659E+04</pdfrwt>
<totfact> 0.38989968E+01</totfact>
</mgrwt>
</event>
<event>
12    6  0.1521603E-007  0.1556326E+04  0.7818608E-02  0.8847837E-01
          2   -1    0    0  501    0  0.00000000000E+00  0.00000000000E+00  0.16090832185E+04  0.16090832185E+04  0.00000000000E+00 0. -1.
         -1   -1    0    0    0  501 -0.00000000000E+00 -0.00000000000E+00 -0.37632460228E+03  0.37632460228E+03  0.00000000000E+00 0.  1.
         24    2    1    2    0    0  0.24952225417E+03 -0.39510383604E+03  0.68886119292E+03  0.83685990387E+03  0.86234326198E+02 0.  0.
        254    2    1    2    0    0 -0.24952225417E+03  0.39510383604E+03  0.54389742331E+03  0.11485479169E+04  0.89720093278E+03 0.  0.
         23    2    4    4    0    0 -0.23381543631E+03  0.59907126981E+03  0.10887248370E+03  0.65888718533E+03  0.93397327171E+02 0.  0.
         23    2    4    4    0    0 -0.15706817867E+02 -0.20396743377E+03  0.43502493961E+03  0.48966073158E+03  0.93120974012E+02 0.  0.
          2    1    3    3  502    0  0.25516095299E+03 -0.37713700485E+03  0.67094449645E+03  0.81086740573E+03  0.00000000000E+00 0. -1.
         -1    1    3    3    0  502 -0.56386988148E+01 -0.17966831186E+02  0.17916696471E+02  0.25992498141E+02  0.00000000000E+00 0.  1.
         11    1    5    5    0    0 -0.23515081444E+03  0.52340492391E+03  0.89198451836E+02  0.58069353683E+03  0.00000000000E+00 0. -1.
        -11    1    5    5    0    0  0.13353781343E+01  0.75666345900E+02  0.19674031862E+02  0.78193648503E+02  0.00000000000E+00 0.  1.
          1    1    6    6  503    0  0.15196513991E+02 -0.10706177745E+03  0.31099103604E+03  0.32925458649E+03  0.00000000000E+00 0. -1.
         -1    1    6    6    0  503 -0.30903331858E+02 -0.96905656326E+02  0.12403390357E+03  0.16040614509E+03  0.00000000000E+00 0.  1.
<mgrwt>
<rscale>  0 0.15563259E+04</rscale>
<asrwt>0</asrwt>
<pdfrwt beam="1">  1        2 0.24755126E+00 0.15563259E+04</pdfrwt>
<pdfrwt beam="2">  1       -1 0.57896094E-01 0.15563259E+04</pdfrwt>
<totfact> 0.36512751E+01</totfact>
</mgrwt>
</event>
<event>
12    6  0.1521603E-007  0.2814330E+04  0.7818608E-02  0.8298833E-01
         -3   -1    0    0    0  501 -0.00000000000E+00  0.00000000000E+00  0.60357456974E+03  0.60357456974E+03  0.00000000000E+00 0.  1.
          2   -1    0    0  501    0  0.00000000000E+00 -0.00000000000E+00 -0.32806446413E+04  0.32806446413E+04  0.00000000000E+00 0. -1.
         24    2    1    2    0    0 -0.84377645877E+02 -0.63027114639E+03  0.30128678973E+03  0.70832260224E+03  0.81153398464E+02 0.  0.
        254    2    1    2    0    0  0.84377645877E+02  0.63027114639E+03 -0.29783568613E+04  0.31758966088E+04  0.90074878378E+03 0.  0.
         23    2    4    4    0    0 -0.20139702996E+03  0.30556872530E+02 -0.18500279823E+04  0.18632964777E+04  0.88180170424E+02 0.  0.
         23    2    4    4    0    0  0.28577467584E+03  0.59971427386E+03 -0.11283288790E+04  0.13126001310E+04  0.92025373199E+02 0.  0.
          2    1    3    3  502    0 -0.33039549585E+01 -0.17665063200E+03  0.50827183692E+02  0.18384712265E+03  0.00000000000E+00 0. -1.
         -1    1    3    3    0  502 -0.81073690919E+02 -0.45362051439E+03  0.25045960604E+03  0.52447547959E+03  0.00000000000E+00 0.  1.
         11    1    5    5    0    0 -0.40573310627E+02  0.33121315864E+02 -0.71676901601E+03  0.71868006611E+03  0.00000000000E+00 0.  1.
        -11    1    5    5    0    0 -0.16082371934E+03 -0.25644433343E+01 -0.11332589663E+04  0.11446164116E+04  0.00000000000E+00 0. -1.
          1    1    6    6  503    0  0.87012292632E+02  0.98740493536E+02 -0.23029465170E+03  0.26524790430E+03  0.00000000000E+00 0. -1.
         -1    1    6    6    0  503  0.19876238321E+03  0.50097378032E+03 -0.89803422726E+03  0.10473522267E+04  0.00000000000E+00 0.  1.
<mgrwt>
<rscale>  0 0.28143302E+04</rscale>
<asrwt>0</asrwt>
<pdfrwt beam="1">  1        2 0.50471456E+00 0.28143302E+04</pdfrwt>
<pdfrwt beam="2">  1       -3 0.92857626E-01 0.28143302E+04</pdfrwt>
<totfact> 0.66323225E-01</totfact>
</mgrwt>
</event>
<event>
12    6  0.1521603E-007  0.1679850E+04  0.7818608E-02  0.8772941E-01
          2   -1    0    0  501    0  0.00000000000E+00  0.00000000000E+00  0.14719425162E+04  0.14719425162E+04  0.00000000000E+00 0. -1.
         -1   -1    0    0    0  501 -0.00000000000E+00 -0.00000000000E+00 -0.47928089304E+03  0.47928089304E+03  0.00000000000E+00 0.  1.
         24    2    1    2    0    0 -0.33981935707E+03  0.45304723872E+03  0.46788089906E+03  0.73890206890E+03  0.79591053282E+02 0.  0.
        254    2    1    2    0    0  0.33981935707E+03 -0.45304723872E+03  0.52478072411E+03  0.12123213404E+04  0.93466530263E+03 0.  0.
         23    2    4    4    0    0  0.11628097766E+03 -0.11699038687E+03 -0.26088888998E+03  0.32435539197E+03  0.99676431529E+02 0.  0.
         23    2    4    4    0    0  0.22353837941E+03 -0.33605685185E+03  0.78566961409E+03  0.88796594839E+03  0.91121722176E+02 0.  0.
          2    1    3    3  502    0 -0.42873515380E+02  0.71924522841E+02  0.10692535514E+03  0.13580981879E+03  0.00000000000E+00 0. -1.
         -1    1    3    3    0  502 -0.29694584169E+03  0.38112271588E+03  0.36095554392E+03  0.60309225011E+03  0.00000000000E+00 0.  1.
         11    1    5    5    0    0  0.98800036069E+02 -0.84284875480E+02 -0.11382872685E+03  0.17269153546E+03  0.00000000000E+00 0.  1.
        -11    1    5    5    0    0  0.17480941586E+02 -0.32705511392E+02 -0.14706016313E+03  0.15166385651E+03  0.00000000000E+00 0. -1.
          4    1    6    6  503    0  0.51156348291E+02 -0.33278634366E+02  0.16895192535E+03  0.17963627850E+03  0.00000000000E+00 0. -1.
         -4    1    6    6    0  503  0.17238203112E+03 -0.30277821749E+03  0.61671768874E+03  0.70832966989E+03  0.00000000000E+00 0.  1.
<mgrwt>
<rscale>  0 0.16798499E+04</rscale>
<asrwt>0</asrwt>
<pdfrwt beam="1">  1        2 0.22645269E+00 0.16798499E+04</pdfrwt>
<pdfrwt beam="2">  1       -1 0.73735523E-01 0.16798499E+04</pdfrwt>
<totfact> 0.26491750E+01</totfact>
</mgrwt>
</event>
<event>
12    6  0.1521603E-007  0.1466935E+04  0.7818608E-02  0.8906744E-01
          2   -1    0    0  501    0  0.00000000000E+00  0.00000000000E+00  0.13717736977E+04  0.13717736977E+04  0.00000000000E+00 0. -1.
         -3   -1    0    0    0  501 -0.00000000000E+00 -0.00000000000E+00 -0.39217436973E+03  0.39217436973E+03  0.00000000000E+00 0.  1.
         24    2    1    2    0    0  0.13455227034E+03 -0.21395508338E+03 -0.14823884348E+03  0.30390632601E+03  0.80642477113E+02 0.  0.
        254    2    1    2    0    0 -0.13455227034E+03  0.21395508338E+03  0.11278381715E+04  0.14600417415E+04  0.89208847912E+03 0.  0.
         23    2    4    4    0    0 -0.40151274291E+03  0.36045931977E+03  0.43945266748E+03  0.70185347428E+03  0.91303058402E+02 0.  0.
         23    2    4    4    0    0  0.26696047256E+03 -0.14650423640E+03  0.68838550401E+03  0.75818826718E+03  0.90793508409E+02 0.  0.
          4    1    3    3  502    0  0.47123834754E+02 -0.11819687331E+03 -0.35554843529E+02  0.13211852088E+03  0.00000000000E+00 0. -1.
         -3    1    3    3    0  502  0.87428435589E+02 -0.95758210065E+02 -0.11268399995E+03  0.17178780512E+03  0.00000000000E+00 0.  1.
         11    1    5    5    0    0 -0.77389730394E+02  0.26596580899E+02  0.70511667724E+02  0.10802057106E+03  0.00000000000E+00 0.  1.
        -11    1    5    5    0    0 -0.32412301251E+03  0.33386273888E+03  0.36894099976E+03  0.59383290323E+03  0.00000000000E+00 0. -1.
          2    1    6    6  503    0  0.13753077289E+02  0.20428638696E+01  0.56391202150E+01  0.15004002949E+02  0.00000000000E+00 0.  1.
         -2    1    6    6    0  503  0.25320739528E+03 -0.14854710027E+03  0.68274638379E+03  0.74318426423E+03  0.00000000000E+00 0. -1.
<mgrwt>
<rscale>  0 0.14669349E+04</rscale>
<asrwt>0</asrwt>
<pdfrwt beam="1">  1        2 0.21104210E+00 0.14669349E+04</pdfrwt>
<pdfrwt beam="2">  1       -3 0.60334519E-01 0.14669349E+04</pdfrwt>
<totfact> 0.24932862E+01</totfact>
</mgrwt>
</event>
<event>
12    6  0.1521603E-007  0.1885852E+04  0.7818608E-02  0.8661931E-01
         -1   -1    0    0    0  501 -0.00000000000E+00  0.00000000000E+00  0.46312280171E+03  0.46312280171E+03  0.00000000000E+00 0.  1.
          2   -1    0    0  501    0  0.00000000000E+00 -0.00000000000E+00 -0.19198144034E+04  0.19198144034E+04  0.00000000000E+00 0. -1.
         24    2    1    2    0    0  0.13990432512E+03 -0.24322108212E+03  0.28118399896E+03  0.40525679432E+03  0.80242838265E+02 0.  0.
        254    2    1    2    0    0 -0.13990432512E+03  0.24322108212E+03 -0.17378756006E+04  0.19776804108E+04  0.90126493824E+03 0.  0.
         23    2    4    4    0    0 -0.27788334799E+03  0.49088624711E+03 -0.14700941011E+04  0.15772183013E+04  0.90842948275E+02 0.  0.
         23    2    4    4    0    0  0.13797902287E+03 -0.24766516499E+03 -0.26778149950E+03  0.40046210941E+03  0.91031450064E+02 0.  0.
          4    1    3    3  502    0  0.77060022194E+02 -0.73349140936E+02  0.71524972932E+02  0.12819580824E+03  0.00000000000E+00 0. -1.
         -3    1    3    3    0  502  0.62844302929E+02 -0.16987194119E+03  0.20965902603E+03  0.27706098608E+03  0.00000000000E+00 0.  1.
         11    1    5    5    0    0 -0.16076204224E+03  0.22803456118E+03 -0.62423048047E+03  0.68374548486E+03  0.00000000000E+00 0. -1.
        -11    1    5    5    0    0 -0.11712130576E+03  0.26285168593E+03 -0.84586362064E+03  0.89347281648E+03  0.00000000000E+00 0.  1.
          4    1    6    6  503    0  0.13557235651E+03 -0.16408942431E+03 -0.20860498568E+03  0.29802892992E+03  0.00000000000E+00 0. -1.
         -4    1    6    6    0  503  0.24066663618E+01 -0.83575740681E+02 -0.59176513819E+02  0.10243317949E+03  0.00000000000E+00 0.  1.
<mgrwt>
<rscale>  0 0.18858524E+04</rscale>
<asrwt>0</asrwt>
<pdfrwt beam="1">  1        2 0.29535606E+00 0.18858524E+04</pdfrwt>
<pdfrwt beam="2">  1       -1 0.71249663E-01 0.18858524E+04</pdfrwt>
<totfact> 0.15724718E+01</totfact>
</mgrwt>
</event>
<event>
12    6  0.1521603E-007  0.1551661E+04  0.7818608E-02  0.8850808E-01
          2   -1    0    0  501    0  0.00000000000E+00  0.00000000000E+00  0.72360449203E+03  0.72360449203E+03  0.00000000000E+00 0. -1.
         -1   -1    0    0    0  501 -0.00000000000E+00 -0.00000000000E+00 -0.83182563116E+03  0.83182563116E+03  0.00000000000E+00 0.  1.
         24    2    1    2    0    0 -0.37089363782E+03 -0.84170555692E+02  0.30203735844E+03  0.49215147548E+03  0.79622458573E+02 0.  0.
        254    2    1    2    0    0  0.37089363782E+03  0.84170555692E+02 -0.41025849757E+03  0.10632786477E+04  0.90421384352E+03 0.  0.
         23    2    4    4    0    0  0.43761610103E+03 -0.28079716520E+03 -0.40292067278E+02  0.53097589223E+03  0.99785006768E+02 0.  0.
         23    2    4    4    0    0 -0.66722463215E+02  0.36496772089E+03 -0.36996643029E+03  0.53230275547E+03  0.93902819701E+02 0.  0.
          4    1    3    3  502    0 -0.33303698978E+03 -0.48662910652E+02  0.25795869411E+03  0.42405707553E+03  0.00000000000E+00 0. -1.
         -3    1    3    3    0  502 -0.37856648037E+02 -0.35507645040E+02  0.44078664327E+02  0.68094399959E+02  0.00000000000E+00 0.  1.
         11    1    5    5    0    0  0.34811627617E+03 -0.22852668434E+03 -0.71968550601E+02  0.42259775137E+03  0.00000000000E+00 0. -1.
        -11    1    5    5    0    0  0.89499824858E+02 -0.52270480864E+02  0.31676483323E+02  0.10837814085E+03  0.00000000000E+00 0.  1.
          1    1    6    6  503    0  0.57444277755E+01  0.19894689127E+03 -0.16300076716E+03  0.25725884647E+03  0.00000000000E+00 0. -1.
         -1    1    6    6    0  503 -0.72466890991E+02  0.16602082962E+03 -0.20696566313E+03  0.27504390900E+03  0.00000000000E+00 0.  1.
<mgrwt>
<rscale>  0 0.15516607E+04</rscale>
<asrwt>0</asrwt>
<pdfrwt beam="1">  1        2 0.11132377E+00 0.15516607E+04</pdfrwt>
<pdfrwt beam="2">  1       -1 0.12797317E+00 0.15516607E+04</pdfrwt>
<totfact> 0.22783533E+01</totfact>
</mgrwt>
</event>
<event>
12    6  0.1521603E-007  0.1027298E+04  0.7818608E-02  0.9279102E-01
          2   -1    0    0  501    0  0.00000000000E+00  0.00000000000E+00  0.19635681719E+04  0.19635681719E+04  0.00000000000E+00 0. -1.
         -1   -1    0    0    0  501 -0.00000000000E+00 -0.00000000000E+00 -0.13436510478E+03  0.13436510478E+03  0.00000000000E+00 0.  1.
         24    2    1    2    0    0 -0.53854942858E+02 -0.54915701107E+01  0.75605204657E+02  0.12990839626E+03  0.90716769309E+02 0.  0.
        254    2    1    2    0    0  0.53854942858E+02  0.54915701107E+01  0.17535978625E+04  0.19680248805E+04  0.89167592462E+03 0.  0.
         23    2    4    4    0    0  0.18805363953E+03  0.50868536214E+02  0.90535594581E+01  0.21548416265E+03  0.91649757750E+02 0.  0.
         23    2    4    4    0    0 -0.13419869667E+03 -0.45376966104E+02  0.17445443031E+04  0.17525407178E+04  0.88858218996E+02 0.  0.
          2    1    3    3  502    0 -0.22323458102E+02 -0.35116065843E+02  0.75995578880E+02  0.86641807872E+02  0.00000000000E+00 0. -1.
         -1    1    3    3    0  502 -0.31531484757E+02  0.29624495733E+02 -0.39037422287E+00  0.43266588384E+02  0.00000000000E+00 0.  1.
         11    1    5    5    0    0  0.15709497061E+03  0.56351638401E+02 -0.25426330407E+02  0.16882190385E+03  0.00000000000E+00 0. -1.
        -11    1    5    5    0    0  0.30958668918E+02 -0.54831021865E+01  0.34479889866E+02  0.46662258796E+02  0.00000000000E+00 0.  1.
          1    1    6    6  503    0 -0.72284168927E+02  0.40466073569E+01  0.12093187674E+04  0.12114839071E+04  0.00000000000E+00 0. -1.
         -1    1    6    6    0  503 -0.61914527744E+02 -0.49423573461E+02  0.53522553567E+03  0.54105681069E+03  0.00000000000E+00 0.  1.
<mgrwt>
<rscale>  0 0.10272975E+04</rscale>
<asrwt>0</asrwt>
<pdfrwt beam="1">  1        2 0.30208739E+00 0.10272975E+04</pdfrwt>
<pdfrwt beam="2">  1       -1 0.20671556E-01 0.10272975E+04</pdfrwt>
<totfact> 0.15427280E+02</totfact>
</mgrwt>
</event>
<event>
12    6  0.1521603E-007  0.1659267E+04  0.7818608E-02  0.8784943E-01
          2   -1    0    0  501    0  0.00000000000E+00  0.00000000000E+00  0.63549088198E+03  0.63549088198E+03  0.00000000000E+00 0. -1.
         -1   -1    0    0    0  501 -0.00000000000E+00 -0.00000000000E+00 -0.10830862720E+04  0.10830862720E+04  0.00000000000E+00 0.  1.
         24    2    1    2    0    0 -0.11136251307E+03  0.20758151692E+03 -0.71138740129E+03  0.75438846876E+03  0.86822990089E+02 0.  0.
        254    2    1    2    0    0  0.11136251307E+03 -0.20758151692E+03  0.26379201122E+03  0.96418868527E+03  0.89698489404E+03 0.  0.
         23    2    4    4    0    0  0.13261580968E+03 -0.19354029937E+03 -0.30051058341E+03  0.39172895549E+03  0.90000907608E+02 0.  0.
         23    2    4    4    0    0 -0.21253296613E+02 -0.14041217547E+02  0.56430259464E+03  0.57245972978E+03  0.92864769917E+02 0.  0.
          4    1    3    3  502    0 -0.37507024623E+02  0.11514753812E+02 -0.15415054453E+03  0.15906525966E+03  0.00000000000E+00 0. -1.
         -3    1    3    3    0  502 -0.73855488447E+02  0.19606676310E+03 -0.55723685676E+03  0.59532320910E+03  0.00000000000E+00 0.  1.
         11    1    5    5    0    0  0.11777952606E+03 -0.14835386730E+03 -0.28401956153E+03  0.34139126824E+03  0.00000000000E+00 0. -1.
        -11    1    5    5    0    0  0.14836283626E+02 -0.45186432072E+02 -0.16491021888E+02  0.50337687254E+02  0.00000000000E+00 0.  1.
          4    1    6    6  503    0  0.10521171653E+02  0.68201428603E+00  0.49209648192E+03  0.49220941449E+03  0.00000000000E+00 0. -1.
         -4    1    6    6    0  503 -0.31774468266E+02 -0.14723231833E+02  0.72206112718E+02  0.80250315283E+02  0.00000000000E+00 0.  1.
<mgrwt>
<rscale>  0 0.16592666E+04</rscale>
<asrwt>0</asrwt>
<pdfrwt beam="1">  1        2 0.97767828E-01 0.16592666E+04</pdfrwt>
<pdfrwt beam="2">  1       -1 0.16662866E+00 0.16592666E+04</pdfrwt>
<totfact> 0.13137458E+01</totfact>
</mgrwt>
</event>
<event>
12    6  0.1521603E-007  0.1943308E+04  0.7818608E-02  0.8633595E-01
          2   -1    0    0  501    0  0.00000000000E+00  0.00000000000E+00  0.26039541167E+04  0.26039541167E+04  0.00000000000E+00 0. -1.
         -1   -1    0    0    0  501 -0.00000000000E+00 -0.00000000000E+00 -0.36256827212E+03  0.36256827212E+03  0.00000000000E+00 0.  1.
         24    2    1    2    0    0  0.29377523486E+03 -0.24449162462E+02 -0.18751511878E+03  0.35977493733E+03  0.85874534063E+02 0.  0.
        254    2    1    2    0    0 -0.29377523486E+03  0.24449162462E+02  0.24289009633E+04  0.26067474515E+04  0.89926121670E+03 0.  0.
         23    2    4    4    0    0  0.11337541390E+03 -0.32676038445E+03  0.13702072095E+04  0.14161018344E+04  0.90831025957E+02 0.  0.
         23    2    4    4    0    0 -0.40715064875E+03  0.35120954692E+03  0.10586937539E+04  0.11906456170E+04  0.87662559022E+02 0.  0.
          4    1    3    3  502    0  0.71467239180E+02  0.24075126669E+02 -0.22508181169E+02  0.78700674837E+02  0.00000000000E+00 0. -1.
         -3    1    3    3    0  502  0.22230799568E+03 -0.48524289131E+02 -0.16500693761E+03  0.28107426249E+03  0.00000000000E+00 0.  1.
         11    1    5    5    0    0  0.12841122836E+03 -0.27172382354E+03  0.11547252945E+04  0.11931947811E+04  0.00000000000E+00 0. -1.
        -11    1    5    5    0    0 -0.15035814461E+02 -0.55036560910E+02  0.21548191494E+03  0.22290705332E+03  0.00000000000E+00 0.  1.
          3    1    6    6  503    0 -0.32607583942E+03  0.23347709680E+03  0.80824492238E+03  0.90227316392E+03  0.00000000000E+00 0. -1.
         -3    1    6    6    0  503 -0.81074809337E+02  0.11773245011E+03  0.25044883148E+03  0.28837245310E+03  0.00000000000E+00 0.  1.
<mgrwt>
<rscale>  0 0.19433076E+04</rscale>
<asrwt>0</asrwt>
<pdfrwt beam="1">  1        2 0.40060831E+00 0.19433076E+04</pdfrwt>
<pdfrwt beam="2">  1       -1 0.55779736E-01 0.19433076E+04</pdfrwt>
<totfact> 0.10465475E+01</totfact>
</mgrwt>
</event>
<event>
12    6  0.1521603E-007  0.2430517E+04  0.7818608E-02  0.8428166E-01
         -1   -1    0    0    0  501 -0.00000000000E+00  0.00000000000E+00  0.92338157377E+03  0.92338157377E+03  0.00000000000E+00 0.  1.
          2   -1    0    0  501    0  0.00000000000E+00 -0.00000000000E+00 -0.15993958092E+04  0.15993958092E+04  0.00000000000E+00 0. -1.
         24    2    1    2    0    0  0.59372626522E+03 -0.83733365278E+03 -0.79083943239E+02  0.10325701957E+04  0.79425530847E+02 0.  0.
        254    2    1    2    0    0 -0.59372626522E+03  0.83733365278E+03 -0.59693029223E+03  0.14902071873E+04  0.90041832675E+03 0.  0.
         23    2    4    4    0    0  0.40188988605E+02  0.14509704891E+03  0.19220671458E+03  0.26046623925E+03  0.90724485396E+02 0.  0.
         23    2    4    4    0    0 -0.63391525382E+03  0.69223660387E+03 -0.78913700681E+03  0.12297409480E+04  0.92116876720E+02 0.  0.
          4    1    3    3  502    0  0.53178705189E+03 -0.70843517683E+03 -0.81314853278E+02  0.88954481263E+03  0.00000000000E+00 0. -1.
         -3    1    3    3    0  502  0.61939213332E+02 -0.12889847595E+03  0.22309100391E+01  0.14302538310E+03  0.00000000000E+00 0.  1.
         11    1    5    5    0    0  0.59460726707E+02  0.14404166935E+03  0.17751582074E+03  0.23621059914E+03  0.00000000000E+00 0.  1.
        -11    1    5    5    0    0 -0.19271738102E+02  0.10553795585E+01  0.14690893836E+02  0.24255640110E+02  0.00000000000E+00 0. -1.
          3    1    6    6  503    0 -0.11832174866E+03  0.13898968336E+03 -0.10878446204E+03  0.21249053501E+03  0.00000000000E+00 0. -1.
         -3    1    6    6    0  503 -0.51559350516E+03  0.55324692051E+03 -0.68035254476E+03  0.10172504130E+04  0.00000000000E+00 0.  1.
<mgrwt>
<rscale>  0 0.24305165E+04</rscale>
<asrwt>0</asrwt>
<pdfrwt beam="1">  1        2 0.24606089E+00 0.24305165E+04</pdfrwt>
<pdfrwt beam="2">  1       -1 0.14205871E+00 0.24305165E+04</pdfrwt>
<totfact> 0.45989277E+00</totfact>
</mgrwt>
</event>
<event>
12    6  0.1521603E-007  0.2169766E+04  0.7818608E-02  0.8531119E-01
         -1   -1    0    0    0  501 -0.00000000000E+00  0.00000000000E+00  0.32191567920E+03  0.32191567920E+03  0.00000000000E+00 0.  1.
          2   -1    0    0  501    0  0.00000000000E+00 -0.00000000000E+00 -0.36561476669E+04  0.36561476669E+04  0.00000000000E+00 0. -1.
         24    2    1    2    0    0 -0.71317321688E+03 -0.51777572815E+03 -0.10830265464E+04  0.13985714155E+04  0.79672843788E+02 0.  0.
        254    2    1    2    0    0  0.71317321688E+03  0.51777572815E+03 -0.22512054413E+04  0.25794919307E+04  0.89952484085E+03 0.  0.
         23    2    4    4    0    0  0.71069214599E+03  0.32376561157E+02 -0.16658100028E+04  0.18135717733E+04  0.89375853877E+02 0.  0.
         23    2    4    4    0    0  0.24810708840E+01  0.48539916700E+03 -0.58539543854E+03  0.76592015740E+03  0.91254375338E+02 0.  0.
          4    1    3    3  502    0 -0.43852551890E+03 -0.31049770698E+03 -0.59868595890E+03  0.80444908736E+03  0.00000000000E+00 0. -1.
         -3    1    3    3    0  502 -0.27464769797E+03 -0.20727802118E+03 -0.48434058751E+03  0.59412232812E+03  0.00000000000E+00 0.  1.
         11    1    5    5    0    0  0.88275926117E+02 -0.20262730800E+02 -0.17110873606E+03  0.19360118013E+03  0.00000000000E+00 0.  1.
        -11    1    5    5    0    0  0.62241621987E+03  0.52639291957E+02 -0.14947012667E+04  0.16199705931E+04  0.00000000000E+00 0. -1.
          3    1    6    6  503    0  0.23322264833E+01  0.37089816272E+03 -0.38156067987E+03  0.53212727689E+03  0.00000000000E+00 0. -1.
         -3    1    6    6    0  503  0.14884440068E+00  0.11450100427E+03 -0.20383475867E+03  0.23379288051E+03  0.00000000000E+00 0.  1.
<mgrwt>
<rscale>  0 0.21697661E+04</rscale>
<asrwt>0</asrwt>
<pdfrwt beam="1">  1        2 0.56248424E+00 0.21697661E+04</pdfrwt>
<pdfrwt beam="2">  1       -1 0.49525490E-01 0.21697661E+04</pdfrwt>
<totfact> 0.26922935E+00</totfact>
</mgrwt>
</event>
<event>
12    6  0.1521603E-007  0.1892963E+04  0.7818608E-02  0.8658367E-01
          2   -1    0    0  501    0  0.00000000000E+00  0.00000000000E+00  0.26711171050E+04  0.26711171050E+04  0.00000000000E+00 0. -1.
         -1   -1    0    0    0  501 -0.00000000000E+00 -0.00000000000E+00 -0.33537563971E+03  0.33537563971E+03  0.00000000000E+00 0.  1.
         24    2    1    2    0    0  0.54966534303E+03 -0.86727862590E+02  0.15062198589E+03  0.58201955367E+03  0.80037908154E+02 0.  0.
        254    2    1    2    0    0 -0.54966534303E+03  0.86727862590E+02  0.21851194794E+04  0.24244731910E+04  0.89088125095E+03 0.  0.
         23    2    4    4    0    0 -0.65947054189E+02 -0.13787053818E+03  0.16636975852E+04  0.16731128640E+04  0.89775840335E+02 0.  0.
         23    2    4    4    0    0 -0.48371828884E+03  0.22459840077E+03  0.52142189416E+03  0.75136032697E+03  0.90739873524E+02 0.  0.
          2    1    3    3  502    0  0.53187232955E+02  0.14347345065E+02  0.79993317718E+01  0.55666124067E+02  0.00000000000E+00 0. -1.
         -1    1    3    3    0  502  0.49647811007E+03 -0.10107520765E+03  0.14262265412E+03  0.52635342960E+03  0.00000000000E+00 0.  1.
         11    1    5    5    0    0  0.35547505340E+01  0.26580621458E+01  0.38439151246E+01  0.58717313644E+01  0.00000000000E+00 0. -1.
        -11    1    5    5    0    0 -0.69501804723E+02 -0.14052860033E+03  0.16598536701E+04  0.16672411327E+04  0.00000000000E+00 0.  1.
          1    1    6    6  503    0 -0.20275744606E+02 -0.67899595451E+01  0.33556729225E+02  0.39790243104E+02  0.00000000000E+00 0. -1.
         -1    1    6    6    0  503 -0.46344254423E+03  0.23138836032E+03  0.48786516493E+03  0.71157008386E+03  0.00000000000E+00 0.  1.
<mgrwt>
<rscale>  0 0.18929634E+04</rscale>
<asrwt>0</asrwt>
<pdfrwt beam="1">  1        2 0.41094108E+00 0.18929634E+04</pdfrwt>
<pdfrwt beam="2">  1       -1 0.51596254E-01 0.18929634E+04</pdfrwt>
<totfact> 0.11156196E+01</totfact>
</mgrwt>
</event>
<event>
12    6  0.1521603E-007  0.1388622E+04  0.7818608E-02  0.8962096E-01
          2   -1    0    0  501    0  0.00000000000E+00  0.00000000000E+00  0.41035489296E+03  0.41035489296E+03  0.00000000000E+00 0. -1.
         -1   -1    0    0    0  501 -0.00000000000E+00 -0.00000000000E+00 -0.11747576257E+04  0.11747576257E+04  0.00000000000E+00 0.  1.
         24    2    1    2    0    0 -0.11997884691E+03 -0.34468429385E+03 -0.95315867251E+02  0.38530330116E+03  0.78557833491E+02 0.  0.
        254    2    1    2    0    0  0.11997884691E+03  0.34468429385E+03 -0.66908686546E+03  0.11998092175E+04  0.92664056605E+03 0.  0.
         23    2    4    4    0    0  0.25654931735E+03  0.50477108878E+03 -0.94121852484E+02  0.58105529222E+03  0.90304624514E+02 0.  0.
         23    2    4    4    0    0 -0.13657047043E+03 -0.16008679493E+03 -0.57496501298E+03  0.61875392524E+03  0.89400103749E+02 0.  0.
          2    1    3    3  502    0 -0.52388741176E+02 -0.24055470232E+03 -0.40110767892E+02  0.24943940890E+03  0.00000000000E+00 0. -1.
         -1    1    3    3    0  502 -0.67590105737E+02 -0.10412959153E+03 -0.55205099359E+02  0.13586389226E+03  0.00000000000E+00 0.  1.
         11    1    5    5    0    0  0.12716139513E+03  0.32105914025E+03 -0.87580377424E+02  0.35625737109E+03  0.00000000000E+00 0. -1.
        -11    1    5    5    0    0  0.12938792222E+03  0.18371194853E+03 -0.65414750600E+01  0.22479792113E+03  0.00000000000E+00 0.  1.
          1    1    6    6  503    0  0.11021974490E+02 -0.29669376978E+02 -0.76679526997E+02  0.82954841404E+02  0.00000000000E+00 0. -1.
         -1    1    6    6    0  503 -0.14759244492E+03 -0.13041741795E+03 -0.49828548598E+03  0.53579908384E+03  0.00000000000E+00 0.  1.
<mgrwt>
<rscale>  0 0.13886217E+04</rscale>
<asrwt>0</asrwt>
<pdfrwt beam="1">  1        2 0.63131523E-01 0.13886217E+04</pdfrwt>
<pdfrwt beam="2">  1       -1 0.18073194E+00 0.13886217E+04</pdfrwt>
<totfact> 0.17700780E+01</totfact>
</mgrwt>
</event>
<event>
12    6  0.1521603E-007  0.1359517E+04  0.7818608E-02  0.8983655E-01
          2   -1    0    0  501    0  0.00000000000E+00  0.00000000000E+00  0.18434350260E+04  0.18434350260E+04  0.00000000000E+00 0. -1.
         -1   -1    0    0    0  501 -0.00000000000E+00 -0.00000000000E+00 -0.25065811073E+03  0.25065811073E+03  0.00000000000E+00 0.  1.
         24    2    1    2    0    0 -0.11979164866E+03  0.22051952906E+03  0.86984728215E+03  0.90894244209E+03  0.81013375275E+02 0.  0.
        254    2    1    2    0    0  0.11979164866E+03 -0.22051952906E+03  0.72292963312E+03  0.11851506946E+04  0.90497293484E+03 0.  0.
         23    2    4    4    0    0  0.49293095249E+03 -0.61025578106E+02  0.27845809032E+03  0.57666923503E+03  0.91123287193E+02 0.  0.
         23    2    4    4    0    0 -0.37313930383E+03 -0.15949395095E+03  0.44447154280E+03  0.60848145961E+03  0.89573845961E+02 0.  0.
          2    1    3    3  502    0 -0.12231491577E+03  0.15343965853E+03  0.66810812119E+03  0.69632831986E+03  0.00000000000E+00 0. -1.
         -1    1    3    3    0  502  0.25232671138E+01  0.67079870525E+02  0.20173916096E+03  0.21261412223E+03  0.00000000000E+00 0.  1.
         11    1    5    5    0    0  0.57158426645E+02 -0.37456413256E+01  0.69329678608E+02  0.89931751353E+02  0.00000000000E+00 0.  1.
        -11    1    5    5    0    0  0.43577252584E+03 -0.57279936780E+02  0.20912841171E+03  0.48673748368E+03  0.00000000000E+00 0. -1.
          3    1    6    6  503    0 -0.36544979973E+03 -0.14341766748E+03  0.39950714924E+03  0.56011440418E+03  0.00000000000E+00 0. -1.
         -3    1    6    6    0  503 -0.76895040975E+01 -0.16076283472E+02  0.44964393561E+02  0.48367055439E+02  0.00000000000E+00 0.  1.
<mgrwt>
<rscale>  0 0.13595175E+04</rscale>
<asrwt>0</asrwt>
<pdfrwt beam="1">  1        2 0.28360538E+00 0.13595175E+04</pdfrwt>
<pdfrwt beam="2">  1       -1 0.38562787E-01 0.13595175E+04</pdfrwt>
<totfact> 0.59122144E+01</totfact>
</mgrwt>
</event>
<event>
12    6  0.1521603E-007  0.2165810E+04  0.7818608E-02  0.8532795E-01
         -1   -1    0    0    0  501 -0.00000000000E+00  0.00000000000E+00  0.38064040241E+03  0.38064040241E+03  0.00000000000E+00 0.  1.
          2   -1    0    0  501    0  0.00000000000E+00 -0.00000000000E+00 -0.30808166121E+04  0.30808166121E+04  0.00000000000E+00 0. -1.
         24    2    1    2    0    0  0.57215332656E+03 -0.29760796801E+03 -0.13911615935E+03  0.66560372935E+03  0.88006175989E+02 0.  0.
        254    2    1    2    0    0 -0.57215332656E+03  0.29760796801E+03 -0.25610600504E+04  0.27958532852E+04  0.91751680041E+03 0.  0.
         23    2    4    4    0    0 -0.13925893568E+03 -0.26302855696E+03 -0.13888343355E+04  0.14233346691E+04  0.91889584936E+02 0.  0.
         23    2    4    4    0    0 -0.43289439088E+03  0.56063652497E+03 -0.11722257148E+04  0.13725186161E+04  0.89349640000E+02 0.  0.
          2    1    3    3  502    0  0.73502336019E+02 -0.66241947129E+02 -0.41472264098E+02  0.10728717374E+03  0.00000000000E+00 0. -1.
         -1    1    3    3    0  502  0.49865099054E+03 -0.23136602089E+03 -0.97643895254E+02  0.55831655561E+03  0.00000000000E+00 0.  1.
         11    1    5    5    0    0 -0.14030925856E+03 -0.26656840925E+03 -0.13867561717E+04  0.14190976304E+04  0.00000000000E+00 0.  1.
        -11    1    5    5    0    0  0.10503228778E+01  0.35398522880E+01 -0.20781638655E+01  0.42370387560E+01  0.00000000000E+00 0. -1.
          3    1    6    6  503    0 -0.65258966564E+02  0.75492324459E+02 -0.23076923956E+03  0.25142049578E+03  0.00000000000E+00 0. -1.
         -3    1    6    6    0  503 -0.36763542432E+03  0.48514420051E+03 -0.94145647528E+03  0.11210981203E+04  0.00000000000E+00 0.  1.
<mgrwt>
<rscale>  0 0.21658100E+04</rscale>
<asrwt>0</asrwt>
<pdfrwt beam="1">  1        2 0.47397176E+00 0.21658100E+04</pdfrwt>
<pdfrwt beam="2">  1       -1 0.58560066E-01 0.21658100E+04</pdfrwt>
<totfact> 0.47792622E+00</totfact>
</mgrwt>
</event>
<event>
12    6  0.1521603E-007  0.1829858E+04  0.7818608E-02  0.8690581E-01
          2   -1    0    0  501    0  0.00000000000E+00  0.00000000000E+00  0.16351399914E+04  0.16351399914E+04  0.00000000000E+00 0. -1.
         -1   -1    0    0    0  501 -0.00000000000E+00 -0.00000000000E+00 -0.51194078585E+03  0.51194078585E+03  0.00000000000E+00 0.  1.
         24    2    1    2    0    0 -0.40971376920E+03  0.40227034800E+03  0.75284814497E+03  0.95015563648E+03  0.79552489456E+02 0.  0.
        254    2    1    2    0    0  0.40971376920E+03 -0.40227034800E+03  0.37035106059E+03  0.11969251408E+04  0.98274263111E+03 0.  0.
         23    2    4    4    0    0 -0.24401059298E+02 -0.24306362375E+03  0.61364627567E+03  0.66651211070E+03  0.89450014927E+02 0.  0.
         23    2    4    4    0    0  0.43411482850E+03 -0.15920672425E+03 -0.24329521508E+03  0.53041303009E+03  0.91339780143E+02 0.  0.
          2    1    3    3  502    0 -0.38097038453E+03  0.33830782078E+03  0.66553825620E+03  0.83817169241E+03  0.00000000000E+00 0. -1.
         -1    1    3    3    0  502 -0.28743384678E+02  0.63962527224E+02  0.87309888773E+02  0.11198394407E+03  0.00000000000E+00 0.  1.
         11    1    5    5    0    0 -0.14708980742E+02 -0.24796991689E+03  0.59719622421E+03  0.64679885901E+03  0.00000000000E+00 0. -1.
        -11    1    5    5    0    0 -0.96920785558E+01  0.49062931405E+01  0.16450051459E+02  0.19713251688E+02  0.00000000000E+00 0.  1.
          3    1    6    6  503    0  0.34537845082E+03 -0.10336914585E+03 -0.22213447588E+03  0.42345623148E+03  0.00000000000E+00 0. -1.
         -3    1    6    6    0  503  0.88736377684E+02 -0.55837578396E+02 -0.21160739200E+02  0.10695679861E+03  0.00000000000E+00 0.  1.
<mgrwt>
<rscale>  0 0.18298578E+04</rscale>
<asrwt>0</asrwt>
<pdfrwt beam="1">  1        2 0.25156000E+00 0.18298578E+04</pdfrwt>
<pdfrwt beam="2">  1       -1 0.78760122E-01 0.18298578E+04</pdfrwt>
<totfact> 0.18440670E+01</totfact>
</mgrwt>
</event>
<event>
12    6  0.1521603E-007  0.2090576E+04  0.7818608E-02  0.8565406E-01
         -1   -1    0    0    0  501 -0.00000000000E+00  0.00000000000E+00  0.88451336306E+03  0.88451336306E+03  0.00000000000E+00 0.  1.
          2   -1    0    0  501    0  0.00000000000E+00 -0.00000000000E+00 -0.12352855690E+04  0.12352855690E+04  0.00000000000E+00 0. -1.
         24    2    1    2    0    0 -0.55064662619E+03  0.75077862239E+02  0.51025975973E+03  0.75742210777E+03  0.66894204564E+02 0.  0.
        254    2    1    2    0    0  0.55064662619E+03 -0.75077862239E+02 -0.86103196568E+03  0.13623768243E+04  0.89768935223E+03 0.  0.
         23    2    4    4    0    0  0.14581448874E+03  0.39251330933E+03 -0.39194779451E+03  0.58090359424E+03  0.92181066666E+02 0.  0.
         23    2    4    4    0    0  0.40483213745E+03 -0.46759117157E+03 -0.46908417117E+03  0.78147323005E+03  0.90165882718E+02 0.  0.
          2    1    3    3  502    0 -0.27072250358E+03  0.69915297797E+02  0.24545736070E+03  0.37205932152E+03  0.00000000000E+00 0. -1.
         -1    1    3    3    0  502 -0.27992412261E+03  0.51625644418E+01  0.26480239903E+03  0.38536278625E+03  0.00000000000E+00 0.  1.
         11    1    5    5    0    0  0.14041767731E+03  0.31738652893E+03 -0.27976036591E+03  0.44577706893E+03  0.00000000000E+00 0. -1.
        -11    1    5    5    0    0  0.53968114276E+01  0.75126780396E+02 -0.11218742860E+03  0.13512652531E+03  0.00000000000E+00 0.  1.
          3    1    6    6  503    0  0.28835943790E+03 -0.37269197970E+03 -0.39007239829E+03  0.61172457288E+03  0.00000000000E+00 0. -1.
         -3    1    6    6    0  503  0.11647269955E+03 -0.94899191865E+02 -0.79011772880E+02  0.16974865717E+03  0.00000000000E+00 0.  1.
<mgrwt>
<rscale>  0 0.20905756E+04</rscale>
<asrwt>0</asrwt>
<pdfrwt beam="1">  1        2 0.19004393E+00 0.20905756E+04</pdfrwt>
<pdfrwt beam="2">  1       -1 0.13607898E+00 0.20905756E+04</pdfrwt>
<totfact> 0.85632514E+00</totfact>
</mgrwt>
</event>
<event>
12    6  0.1521603E-007  0.1872485E+04  0.7818608E-02  0.8668675E-01
          2   -1    0    0  501    0  0.00000000000E+00  0.00000000000E+00  0.31311389240E+04  0.31311389240E+04  0.00000000000E+00 0. -1.
         -1   -1    0    0    0  501 -0.00000000000E+00 -0.00000000000E+00 -0.27994613321E+03  0.27994613321E+03  0.00000000000E+00 0.  1.
         24    2    1    2    0    0 -0.73852555065E+02  0.70765514747E+03  0.92110159621E+03  0.11678733709E+04  0.96281110429E+02 0.  0.
        254    2    1    2    0    0  0.73852555065E+02 -0.70765514747E+03  0.19300911946E+04  0.22432116863E+04  0.89471595642E+03 0.  0.
         23    2    4    4    0    0 -0.38623811951E+03 -0.44789724600E+03  0.88063888025E+03  0.10647935353E+04  0.92025037553E+02 0.  0.
         23    2    4    4    0    0  0.46009067457E+03 -0.25975790147E+03  0.10494523143E+04  0.11784181510E+04  0.90341476354E+02 0.  0.
          4    1    3    3  502    0 -0.57042414118E+02  0.16160834652E+03  0.20581106230E+03  0.26782324029E+03  0.00000000000E+00 0. -1.
         -3    1    3    3    0  502 -0.16810140946E+02  0.54604680094E+03  0.71529053391E+03  0.90005013058E+03  0.00000000000E+00 0.  1.
         11    1    5    5    0    0 -0.15757430532E+03 -0.20066887122E+03  0.45930695417E+03  0.52541463219E+03  0.00000000000E+00 0.  1.
        -11    1    5    5    0    0 -0.22866381419E+03 -0.24722837478E+03  0.42133192609E+03  0.53937890314E+03  0.00000000000E+00 0. -1.
          1    1    6    6  503    0  0.13800073826E+03 -0.46981058919E+02  0.35733234300E+03  0.38592463903E+03  0.00000000000E+00 0. -1.
         -1    1    6    6    0  503  0.32208993632E+03 -0.21277684255E+03  0.69211997133E+03  0.79249351197E+03  0.00000000000E+00 0.  1.
<mgrwt>
<rscale>  0 0.18724852E+04</rscale>
<asrwt>0</asrwt>
<pdfrwt beam="1">  1        2 0.48171366E+00 0.18724852E+04</pdfrwt>
<pdfrwt beam="2">  1       -1 0.43068638E-01 0.18724852E+04</pdfrwt>
<totfact> 0.81949864E+00</totfact>
</mgrwt>
</event>
<event>
12    6  0.1521603E-007  0.3331484E+04  0.7818608E-02  0.8154930E-01
          2   -1    0    0  501    0  0.00000000000E+00  0.00000000000E+00  0.17800920951E+04  0.17800920951E+04  0.00000000000E+00 0. -1.
         -3   -1    0    0    0  501 -0.00000000000E+00 -0.00000000000E+00 -0.15587379900E+04  0.15587379900E+04  0.00000000000E+00 0.  1.
         24    2    1    2    0    0  0.75230759258E+02 -0.13267887075E+03 -0.14361532292E+04  0.14464785987E+04  0.80628090011E+02 0.  0.
        254    2    1    2    0    0 -0.75230759258E+02  0.13267887075E+03  0.16575073342E+04  0.18923514864E+04  0.90022232545E+03 0.  0.
         23    2    4    4    0    0  0.33814381902E+03 -0.11243050385E+02  0.29405589488E+03  0.45742573558E+03  0.91114135784E+02 0.  0.
         23    2    4    4    0    0 -0.41337457828E+03  0.14392192113E+03  0.13634514394E+04  0.14349257508E+04  0.91760675576E+02 0.  0.
          4    1    3    3  502    0 -0.10852066854E+02 -0.44830898479E+02 -0.27646994813E+03  0.28029129318E+03  0.00000000000E+00 0. -1.
         -3    1    3    3    0  502  0.86082826111E+02 -0.87847972268E+02 -0.11596832810E+04  0.11661873055E+04  0.00000000000E+00 0.  1.
         11    1    5    5    0    0  0.33009282861E+03 -0.18644518330E+02  0.25690684721E+03  0.41870039611E+03  0.00000000000E+00 0. -1.
        -11    1    5    5    0    0  0.80509904079E+01  0.74014679454E+01  0.37149047668E+02  0.38725339468E+02  0.00000000000E+00 0.  1.
          4    1    6    6  503    0 -0.31201092180E+03  0.10253444160E+03  0.11355195588E+04  0.11820612486E+04  0.00000000000E+00 0. -1.
         -4    1    6    6    0  503 -0.10136365648E+03  0.41387479534E+02  0.22793188062E+03  0.25286450229E+03  0.00000000000E+00 0.  1.
<mgrwt>
<rscale>  0 0.33314845E+04</rscale>
<asrwt>0</asrwt>
<pdfrwt beam="1">  1        2 0.27386032E+00 0.33314845E+04</pdfrwt>
<pdfrwt beam="2">  1       -3 0.23980585E+00 0.33314845E+04</pdfrwt>
<totfact> 0.38982118E-01</totfact>
</mgrwt>
</event>
<event>
12    6  0.1521603E-007  0.1480397E+04  0.7818608E-02  0.8897594E-01
         -1   -1    0    0    0  501 -0.00000000000E+00  0.00000000000E+00  0.65455286330E+03  0.65455286330E+03  0.00000000000E+00 0.  1.
          2   -1    0    0  501    0  0.00000000000E+00 -0.00000000000E+00 -0.83705077790E+03  0.83705077790E+03  0.00000000000E+00 0. -1.
         24    2    1    2    0    0  0.34040122729E+02 -0.18739445044E+03 -0.47231626755E+03  0.51534294588E+03  0.78868785169E+02 0.  0.
        254    2    1    2    0    0 -0.34040122729E+02  0.18739445044E+03  0.28981835295E+03  0.97626069531E+03  0.91258690408E+03 0.  0.
         23    2    4    4    0    0 -0.27494810691E+03  0.12052624056E+03  0.53086626687E+03  0.61690416716E+03  0.92890914563E+02 0.  0.
         23    2    4    4    0    0  0.24090798418E+03  0.66868209878E+02 -0.24104791392E+03  0.35935652815E+03  0.92330943803E+02 0.  0.
          4    1    3    3  502    0  0.59143833764E+02 -0.12198284565E+03 -0.32829561509E+03  0.35518420375E+03  0.00000000000E+00 0. -1.
         -3    1    3    3    0  502 -0.25103711035E+02 -0.65411604791E+02 -0.14402065246E+03  0.16015874214E+03  0.00000000000E+00 0.  1.
         11    1    5    5    0    0 -0.11649519110E+03  0.86486713738E+02  0.31647296075E+03  0.34814683122E+03  0.00000000000E+00 0.  1.
        -11    1    5    5    0    0 -0.15845291581E+03  0.34039526823E+02  0.21439330612E+03  0.26875733594E+03  0.00000000000E+00 0. -1.
          2    1    6    6  503    0  0.13538958740E+02  0.32351178124E+02 -0.19993495813E+02  0.40368824662E+02  0.00000000000E+00 0. -1.
         -2    1    6    6    0  503  0.22736902544E+03  0.34517031754E+02 -0.22105441811E+03  0.31898770348E+03  0.00000000000E+00 0.  1.
<mgrwt>
<rscale>  0 0.14803972E+04</rscale>
<asrwt>0</asrwt>
<pdfrwt beam="1">  1        2 0.12877704E+00 0.14803972E+04</pdfrwt>
<pdfrwt beam="2">  1       -1 0.10070044E+00 0.14803972E+04</pdfrwt>
<totfact> 0.33590150E+01</totfact>
</mgrwt>
</event>
<event>
12    6  0.1521603E-007  0.1882635E+04  0.7818608E-02  0.8663549E-01
          2   -1    0    0  501    0  0.00000000000E+00  0.00000000000E+00  0.12470202943E+04  0.12470202943E+04  0.00000000000E+00 0. -1.
         -1   -1    0    0    0  501 -0.00000000000E+00 -0.00000000000E+00 -0.71055685751E+03  0.71055685751E+03  0.00000000000E+00 0.  1.
         24    2    1    2    0    0  0.58250367218E+02  0.62056204273E+03 -0.12112560587E+03  0.63985289509E+03  0.79056693638E+02 0.  0.
        254    2    1    2    0    0 -0.58250367218E+02 -0.62056204273E+03  0.65758904271E+03  0.13177242568E+04  0.95680902672E+03 0.  0.
         23    2    4    4    0    0 -0.36192247353E+03 -0.18116189435E+03 -0.58513180950E+02  0.41898870220E+03  0.91215302534E+02 0.  0.
         23    2    4    4    0    0  0.30367210631E+03 -0.43940014838E+03  0.71610222366E+03  0.89873555456E+03  0.98152757229E+02 0.  0.
          2    1    3    3  502    0  0.36095689346E+02  0.19531759204E+03 -0.58794112678E+01  0.19871192220E+03  0.00000000000E+00 0. -1.
         -1    1    3    3    0  502  0.22154677872E+02  0.42524445069E+03 -0.11524619460E+03  0.44114097289E+03  0.00000000000E+00 0.  1.
         11    1    5    5    0    0 -0.79530951725E+01 -0.22646120999E+02 -0.15949012994E+02  0.28817868322E+02  0.00000000000E+00 0.  1.
        -11    1    5    5    0    0 -0.35396937836E+03 -0.15851577335E+03 -0.42564167956E+02  0.39017083388E+03  0.00000000000E+00 0. -1.
          1    1    6    6  503    0  0.19455478068E+03 -0.33709557141E+03  0.46425923613E+03  0.60582309735E+03  0.00000000000E+00 0. -1.
         -1    1    6    6    0  503  0.10911732563E+03 -0.10230457697E+03  0.25184298753E+03  0.29291245721E+03  0.00000000000E+00 0.  1.
<mgrwt>
<rscale>  0 0.18826352E+04</rscale>
<asrwt>0</asrwt>
<pdfrwt beam="1">  1        2 0.19184927E+00 0.18826352E+04</pdfrwt>
<pdfrwt beam="2">  1       -1 0.10931644E+00 0.18826352E+04</pdfrwt>
<totfact> 0.14708928E+01</totfact>
</mgrwt>
</event>
<event>
12    6  0.1521603E-007  0.2102679E+04  0.7818608E-02  0.8560064E-01
         -1   -1    0    0    0  501 -0.00000000000E+00  0.00000000000E+00  0.10033715892E+04  0.10033715892E+04  0.00000000000E+00 0.  1.
          2   -1    0    0  501    0  0.00000000000E+00 -0.00000000000E+00 -0.11016007133E+04  0.11016007133E+04  0.00000000000E+00 0. -1.
         24    2    1    2    0    0 -0.54970658702E+03 -0.11605856776E+03 -0.68679551952E+03  0.89068185381E+03  0.77325003151E+02 0.  0.
        254    2    1    2    0    0  0.54970658702E+03  0.11605856776E+03  0.58856639542E+03  0.12142904486E+04  0.90135673781E+03 0.  0.
         23    2    4    4    0    0  0.15384108432E+03 -0.31662129357E+03  0.49116468863E+03  0.61282386179E+03  0.10195200564E+03 0.  0.
         23    2    4    4    0    0  0.39586550270E+03  0.43267986133E+03  0.97401706790E+02  0.60146658682E+03  0.91398052192E+02 0.  0.
          4    1    3    3  502    0 -0.45257189225E+03 -0.88384600836E+02 -0.51395366445E+03  0.69049368174E+03  0.00000000000E+00 0. -1.
         -3    1    3    3    0  502 -0.97134694766E+02 -0.27673966921E+02 -0.17284185507E+03  0.20018817207E+03  0.00000000000E+00 0.  1.
         11    1    5    5    0    0  0.14310398916E+03 -0.30851482774E+03  0.49333214739E+03  0.59919676092E+03  0.00000000000E+00 0.  1.
        -11    1    5    5    0    0  0.10737095155E+02 -0.81064658316E+01 -0.21674587587E+01  0.13627100870E+02  0.00000000000E+00 0. -1.
          1    1    6    6  503    0  0.27316826871E+03  0.35528068937E+03  0.65335824603E+02  0.45289517688E+03  0.00000000000E+00 0. -1.
         -1    1    6    6    0  503  0.12269723399E+03  0.77399171958E+02  0.32065882187E+02  0.14857140993E+03  0.00000000000E+00 0.  1.
<mgrwt>
<rscale>  0 0.21026791E+04</rscale>
<asrwt>0</asrwt>
<pdfrwt beam="1">  1        2 0.16947703E+00 0.21026791E+04</pdfrwt>
<pdfrwt beam="2">  1       -1 0.15436486E+00 0.21026791E+04</pdfrwt>
<totfact> 0.73708285E+00</totfact>
</mgrwt>
</event>
<event>
12    6  0.1521603E-007  0.2031636E+04  0.7818608E-02  0.8591971E-01
          2   -1    0    0  501    0  0.00000000000E+00  0.00000000000E+00  0.13713783831E+04  0.13713783831E+04  0.00000000000E+00 0. -1.
         -1   -1    0    0    0  501 -0.00000000000E+00 -0.00000000000E+00 -0.75244434386E+03  0.75244434386E+03  0.00000000000E+00 0.  1.
         24    2    1    2    0    0  0.46179744141E+03  0.12461380037E+03 -0.44387658805E+03  0.65751044516E+03  0.80672696399E+02 0.  0.
        254    2    1    2    0    0 -0.46179744141E+03 -0.12461380037E+03  0.10628106273E+04  0.14663122818E+04  0.88978638005E+03 0.  0.
         23    2    4    4    0    0  0.56494408207E+02  0.10542135882E+01  0.89354062183E+03  0.89948841505E+03  0.86439785033E+02 0.  0.
         23    2    4    4    0    0 -0.51829184961E+03 -0.12566801396E+03  0.16927000543E+03  0.56682386671E+03  0.90653571520E+02 0.  0.
          4    1    3    3  502    0  0.92643047154E+02  0.58811349790E+02 -0.11132808243E+03  0.15631842817E+03  0.00000000000E+00 0. -1.
         -3    1    3    3    0  502  0.36915439425E+03  0.65802450579E+02 -0.33254850562E+03  0.50119201699E+03  0.00000000000E+00 0.  1.
         11    1    5    5    0    0  0.18511832622E+02 -0.24145589454E+02  0.69967661423E+03  0.70033781987E+03  0.00000000000E+00 0. -1.
        -11    1    5    5    0    0  0.37982575585E+02  0.25199803042E+02  0.19386400760E+03  0.19915059519E+03  0.00000000000E+00 0.  1.
          2    1    6    6  503    0 -0.17948015945E+03 -0.28232511347E+02  0.15956214956E+02  0.18238641158E+03  0.00000000000E+00 0. -1.
         -2    1    6    6    0  503 -0.33881169017E+03 -0.97435502611E+02  0.15331379047E+03  0.38443745514E+03  0.00000000000E+00 0.  1.
<mgrwt>
<rscale>  0 0.20316357E+04</rscale>
<asrwt>0</asrwt>
<pdfrwt beam="1">  1        2 0.21098129E+00 0.20316357E+04</pdfrwt>
<pdfrwt beam="2">  1       -1 0.11576067E+00 0.20316357E+04</pdfrwt>
<totfact> 0.10724042E+01</totfact>
</mgrwt>
</event>
<event>
12    6  0.1521603E-007  0.1630426E+04  0.7818608E-02  0.8802071E-01
         -3   -1    0    0    0  501 -0.00000000000E+00  0.00000000000E+00  0.91580093898E+03  0.91580093898E+03  0.00000000000E+00 0.  1.
          4   -1    0    0  501    0  0.00000000000E+00 -0.00000000000E+00 -0.72567297025E+03  0.72567297025E+03  0.00000000000E+00 0. -1.
         24    2    1    2    0    0  0.42526244043E+02 -0.50341463608E+03  0.32698152450E+03  0.60690219296E+03  0.78603926062E+02 0.  0.
        254    2    1    2    0    0 -0.42526244043E+02  0.50341463608E+03 -0.13685355578E+03  0.10345717163E+04  0.89239843295E+03 0.  0.
         23    2    4    4    0    0 -0.14217259505E+03  0.72821809113E+03 -0.28889532346E+02  0.74800075276E+03  0.90309944135E+02 0.  0.
         23    2    4    4    0    0  0.99646351007E+02 -0.22480345505E+03 -0.10796402343E+03  0.28657096352E+03  0.10000349047E+03 0.  0.
          4    1    3    3  502    0  0.31693750526E+02 -0.23819214159E+03  0.20007480960E+03  0.31268181843E+03  0.00000000000E+00 0. -1.
         -3    1    3    3    0  502  0.10832493517E+02 -0.26522249449E+03  0.12690671490E+03  0.29422037453E+03  0.00000000000E+00 0.  1.
         11    1    5    5    0    0 -0.12895287020E+03  0.71652857733E+03 -0.36108079724E+02  0.72893472841E+03  0.00000000000E+00 0. -1.
        -11    1    5    5    0    0 -0.13219724850E+02  0.11689513801E+02  0.72185473784E+01  0.19066024343E+02  0.00000000000E+00 0.  1.
          1    1    6    6  503    0  0.22154938214E+02 -0.15387765536E+03 -0.91061469748E+02  0.18017037875E+03  0.00000000000E+00 0. -1.
         -1    1    6    6    0  503  0.77491412793E+02 -0.70925799689E+02 -0.16902553685E+02  0.10640058477E+03  0.00000000000E+00 0.  1.
<mgrwt>
<rscale>  0 0.16304257E+04</rscale>
<asrwt>0</asrwt>
<pdfrwt beam="1">  1        4 0.11164199E+00 0.16304257E+04</pdfrwt>
<pdfrwt beam="2">  1       -3 0.14089245E+00 0.16304257E+04</pdfrwt>
<totfact> 0.52468016E-01</totfact>
</mgrwt>
</event>
<event>
12    6  0.1521603E-007  0.1581916E+04  0.7818608E-02  0.8831736E-01
         -1   -1    0    0    0  501 -0.00000000000E+00  0.00000000000E+00  0.60830884734E+03  0.60830884734E+03  0.00000000000E+00 0.  1.
          2   -1    0    0  501    0  0.00000000000E+00 -0.00000000000E+00 -0.10284485294E+04  0.10284485294E+04  0.00000000000E+00 0. -1.
         24    2    1    2    0    0  0.14433288309E+03 -0.48612735594E+03 -0.30269058687E+03  0.59614259116E+03  0.81317957964E+02 0.  0.
        254    2    1    2    0    0 -0.14433288309E+03  0.48612735594E+03 -0.11744909519E+03  0.10406147856E+04  0.90107327930E+03 0.  0.
         23    2    4    4    0    0 -0.17718098672E+03  0.30007824530E+02 -0.43274572650E+03  0.47761652100E+03  0.92493814613E+02 0.  0.
         23    2    4    4    0    0  0.32848103628E+02  0.45611953141E+03  0.31529663131E+03  0.56299826458E+03  0.91820778486E+02 0.  0.
          4    1    3    3  502    0  0.76283321078E+02 -0.17418068044E+03 -0.15017659084E+03  0.24230365856E+03  0.00000000000E+00 0. -1.
         -3    1    3    3    0  502  0.68049562011E+02 -0.31194667549E+03 -0.15251399602E+03  0.35383893260E+03  0.00000000000E+00 0.  1.
         11    1    5    5    0    0 -0.16161183239E+03  0.28134305234E+01 -0.40383365594E+03  0.43498036902E+03  0.00000000000E+00 0. -1.
        -11    1    5    5    0    0 -0.15569154324E+02  0.27194394006E+02 -0.28912070554E+02  0.42636151978E+02  0.00000000000E+00 0.  1.
          1    1    6    6  503    0  0.12404468994E+02  0.37426228305E+03  0.21450229644E+03  0.43155227093E+03  0.00000000000E+00 0. -1.
         -1    1    6    6    0  503  0.20443634634E+02  0.81857248357E+02  0.10079433487E+03  0.13144599365E+03  0.00000000000E+00 0.  1.
<mgrwt>
<rscale>  0 0.15819157E+04</rscale>
<asrwt>0</asrwt>
<pdfrwt beam="1">  1        2 0.15822285E+00 0.15819157E+04</pdfrwt>
<pdfrwt beam="2">  1       -1 0.93585977E-01 0.15819157E+04</pdfrwt>
<totfact> 0.29309761E+01</totfact>
</mgrwt>
</event>
<event>
12    6  0.1521603E-007  0.1314634E+04  0.7818608E-02  0.9018040E-01
         -1   -1    0    0    0  501 -0.00000000000E+00  0.00000000000E+00  0.86141251533E+03  0.86141251533E+03  0.00000000000E+00 0.  1.
          2   -1    0    0  501    0  0.00000000000E+00 -0.00000000000E+00 -0.50157777337E+03  0.50157777337E+03  0.00000000000E+00 0. -1.
         24    2    1    2    0    0  0.16441164332E+03 -0.10708937117E+03  0.38694134477E+03  0.44095942877E+03  0.78881503853E+02 0.  0.
        254    2    1    2    0    0 -0.16441164332E+03  0.10708937117E+03 -0.27106602805E+02  0.92203085993E+03  0.90050364623E+03 0.  0.
         23    2    4    4    0    0 -0.12431119999E+03 -0.15857540022E+03  0.37264663978E+03  0.43231926623E+03  0.86226433402E+02 0.  0.
         23    2    4    4    0    0 -0.40100443323E+02  0.26566477138E+03 -0.39975324259E+03  0.48971159370E+03  0.88481488076E+02 0.  0.
          4    1    3    3  502    0  0.12139349038E+02  0.88949830416E+01  0.96155209620E+01  0.17858968664E+02  0.00000000000E+00 0. -1.
         -3    1    3    3    0  502  0.15227229428E+03 -0.11598435421E+03  0.37732582381E+03  0.42310046010E+03  0.00000000000E+00 0.  1.
         11    1    5    5    0    0 -0.12856968485E+03 -0.15311742738E+03  0.37503046564E+03  0.42499760069E+03  0.00000000000E+00 0.  1.
        -11    1    5    5    0    0  0.42584848553E+01 -0.54579728319E+01 -0.23838258552E+01  0.73216655485E+01  0.00000000000E+00 0. -1.
          4    1    6    6  503    0  0.61066210528E+01  0.46101178750E+01  0.24145600229E+01  0.80233476560E+01  0.00000000000E+00 0. -1.
         -4    1    6    6    0  503 -0.46207064376E+02  0.26105465351E+03 -0.40216780261E+03  0.48168824604E+03  0.00000000000E+00 0.  1.
<mgrwt>
<rscale>  0 0.13146336E+04</rscale>
<asrwt>0</asrwt>
<pdfrwt beam="1">  1        2 0.77165811E-01 0.13146336E+04</pdfrwt>
<pdfrwt beam="2">  1       -1 0.13252500E+00 0.13146336E+04</pdfrwt>
<totfact> 0.33187888E+01</totfact>
</mgrwt>
</event>
<event>
12    6  0.1661519E-007  0.1531727E+04  0.7818608E-02  0.8863625E-01
          2   -1    0    0  501    0  0.00000000000E+00  0.00000000000E+00  0.89230924609E+03  0.89230924609E+03  0.00000000000E+00 0. -1.
         -1   -1    0    0    0  501 -0.00000000000E+00 -0.00000000000E+00 -0.65733598857E+03  0.65733598857E+03  0.00000000000E+00 0.  1.
         24    2    1    2    0    0  0.29403863324E+03 -0.19304227612E+03 -0.33660471864E+03  0.49205475141E+03  0.71351969570E+02 0.  0.
        254    2    1    2    0    0 -0.29403863324E+03  0.19304227612E+03  0.57157797616E+03  0.10575904833E+04  0.81735684326E+03 0.  0.
         23    2    4    4    0    0 -0.47630924653E+03 -0.13000336580E+03  0.38587398564E+03  0.63328743727E+03  0.91558025071E+02 0.  0.
         23    2    4    4    0    0  0.18227061329E+03  0.32304564192E+03  0.18570399052E+03  0.42430304599E+03  0.89252672250E+02 0.  0.
          4    1    3    3  502    0  0.60447915978E+02 -0.38599437302E+02 -0.32757783062E+02  0.78847571030E+02  0.00000000000E+00 0. -1.
         -3    1    3    3    0  502  0.23359071726E+03 -0.15444283882E+03 -0.30384693558E+03  0.41320718038E+03  0.00000000000E+00 0.  1.
         11    1    5    5    0    0 -0.38187626529E+02  0.14366156550E+02  0.33931192548E+02  0.53066063559E+02  0.00000000000E+00 0. -1.
        -11    1    5    5    0    0 -0.43812162001E+03 -0.14436952235E+03  0.35194279309E+03  0.58022137371E+03  0.00000000000E+00 0.  1.
          1    1    6    6  503    0 -0.52607821932E+00  0.77309653850E+00  0.17293266182E+02  0.17318530301E+02  0.00000000000E+00 0. -1.
         -1    1    6    6    0  503  0.18279669151E+03  0.32227254538E+03  0.16841072434E+03  0.40698451568E+03  0.00000000000E+00 0.  1.
<mgrwt>
<rscale>  0 0.15317271E+04</rscale>
<asrwt>0</asrwt>
<pdfrwt beam="1">  1        2 0.13727834E+00 0.15317271E+04</pdfrwt>
<pdfrwt beam="2">  1       -1 0.10112861E+00 0.15317271E+04</pdfrwt>
<totfact> 0.30333540E+01</totfact>
</mgrwt>
</event>
<event>
12    6  0.1521603E-007  0.1704322E+04  0.7818608E-02  0.8758903E-01
          2   -1    0    0  501    0  0.00000000000E+00  0.00000000000E+00  0.97347956118E+03  0.97347956118E+03  0.00000000000E+00 0. -1.
         -1   -1    0    0    0  501 -0.00000000000E+00 -0.00000000000E+00 -0.74596131238E+03  0.74596131238E+03  0.00000000000E+00 0.  1.
         24    2    1    2    0    0 -0.24768309805E+03  0.46320554463E+03 -0.15816170754E+03  0.55442402123E+03  0.80402586716E+02 0.  0.
        254    2    1    2    0    0  0.24768309805E+03 -0.46320554463E+03  0.38567995634E+03  0.11650168523E+04  0.96571680313E+03 0.  0.
         23    2    4    4    0    0 -0.32762965616E+02 -0.16464769283E+03 -0.30350926558E+03  0.35840914368E+03  0.90315919457E+02 0.  0.
         23    2    4    4    0    0  0.28044606367E+03 -0.29855785180E+03  0.68918922193E+03  0.80660770865E+03  0.88585701623E+02 0.  0.
          2    1    3    3  502    0 -0.25358620498E+03  0.45739866581E+03 -0.15709316660E+03  0.54607487201E+03  0.00000000000E+00 0. -1.
         -1    1    3    3    0  502  0.59031069311E+01  0.58068788163E+01 -0.10685409389E+01  0.83491492240E+01  0.00000000000E+00 0.  1.
         11    1    5    5    0    0 -0.44902973883E+02 -0.16645602325E+03 -0.25115512676E+03  0.30463549110E+03  0.00000000000E+00 0.  1.
        -11    1    5    5    0    0  0.12140008267E+02  0.18083304214E+01 -0.52354138825E+02  0.53773652579E+02  0.00000000000E+00 0. -1.
          2    1    6    6  503    0  0.87558910083E+01 -0.28403018420E+02  0.21099084481E+02  0.36449532901E+02  0.00000000000E+00 0. -1.
         -2    1    6    6    0  503  0.27169017266E+03 -0.27015483338E+03  0.66809013745E+03  0.77015817575E+03  0.00000000000E+00 0.  1.
<mgrwt>
<rscale>  0 0.17043217E+04</rscale>
<asrwt>0</asrwt>
<pdfrwt beam="1">  1        2 0.14976609E+00 0.17043217E+04</pdfrwt>
<pdfrwt beam="2">  1       -1 0.11476328E+00 0.17043217E+04</pdfrwt>
<totfact> 0.19622439E+01</totfact>
</mgrwt>
</event>
<event>
12    6  0.1521603E-007  0.2527318E+04  0.7818608E-02  0.8393317E-01
          2   -1    0    0  501    0  0.00000000000E+00  0.00000000000E+00  0.87224857376E+03  0.87224857376E+03  0.00000000000E+00 0. -1.
         -1   -1    0    0    0  501 -0.00000000000E+00 -0.00000000000E+00 -0.18307103641E+04  0.18307103641E+04  0.00000000000E+00 0.  1.
         24    2    1    2    0    0  0.16988456209E+03 -0.20304183309E+03  0.72304809747E+03  0.77390489338E+03  0.77739837361E+02 0.  0.
        254    2    1    2    0    0 -0.16988456209E+03  0.20304183309E+03 -0.16815098879E+04  0.19290540445E+04  0.90757217526E+03 0.  0.
         23    2    4    4    0    0  0.18397443299E+03 -0.50820019990E+02 -0.13701721642E+04  0.13860360485E+04  0.85410197557E+02 0.  0.
         23    2    4    4    0    0 -0.35385899509E+03  0.25386185308E+03 -0.31133772369E+03  0.54301799603E+03  0.90968879084E+02 0.  0.
          2    1    3    3  502    0  0.17025221306E+03 -0.16321341445E+03  0.60681379536E+03  0.65103564952E+03  0.00000000000E+00 0. -1.
         -1    1    3    3    0  502 -0.36765096235E+00 -0.39828418636E+02  0.11623430212E+03  0.12286924386E+03  0.00000000000E+00 0.  1.
         11    1    5    5    0    0  0.19495366533E+02  0.83553375843E+01 -0.37717982931E+03  0.37777573323E+03  0.00000000000E+00 0. -1.
        -11    1    5    5    0    0  0.16447906646E+03 -0.59175357574E+02 -0.99299233485E+03  0.10082603153E+04  0.00000000000E+00 0.  1.
          1    1    6    6  503    0 -0.21038669591E+03  0.10708357675E+03 -0.13207782674E+03  0.27050694361E+03  0.00000000000E+00 0. -1.
         -1    1    6    6    0  503 -0.14347229918E+03  0.14677827633E+03 -0.17925989696E+03  0.27251105242E+03  0.00000000000E+00 0.  1.
<mgrwt>
<rscale>  0 0.25273183E+04</rscale>
<asrwt>0</asrwt>
<pdfrwt beam="1">  1        2 0.13419209E+00 0.25273183E+04</pdfrwt>
<pdfrwt beam="2">  1       -1 0.28164775E+00 0.25273183E+04</pdfrwt>
<totfact> 0.13498517E+00</totfact>
</mgrwt>
</event>
<event>
12    6  0.1521603E-007  0.1392861E+04  0.7818608E-02  0.8959002E-01
          2   -1    0    0  501    0  0.00000000000E+00  0.00000000000E+00  0.45869554396E+04  0.45869554396E+04  0.00000000000E+00 0. -1.
         -1   -1    0    0    0  501 -0.00000000000E+00 -0.00000000000E+00 -0.10573805838E+03  0.10573805838E+03  0.00000000000E+00 0.  1.
         24    2    1    2    0    0  0.89808374265E+02  0.38882400167E+03  0.15408003639E+04  0.15936807670E+04  0.80641038534E+02 0.  0.
        254    2    1    2    0    0 -0.89808374265E+02 -0.38882400167E+03  0.29404170172E+04  0.30990127310E+04  0.89363192825E+03 0.  0.
         23    2    4    4    0    0  0.32689894905E+03 -0.40580408060E+03  0.19470918141E+04  0.20179726663E+04  0.97505253953E+02 0.  0.
         23    2    4    4    0    0 -0.41670732332E+03  0.16980078931E+02  0.99332520313E+03  0.10810400647E+04  0.89550800932E+02 0.  0.
          2    1    3    3  502    0  0.59943924317E+02  0.19455585109E+03  0.93053991428E+03  0.95254909864E+03  0.00000000000E+00 0. -1.
         -1    1    3    3    0  502  0.29864449948E+02  0.19426815058E+03  0.61026044967E+03  0.64113166833E+03  0.00000000000E+00 0.  1.
         11    1    5    5    0    0  0.25620290851E+03 -0.36066798975E+03  0.17166666608E+04  0.17727565409E+04  0.00000000000E+00 0. -1.
        -11    1    5    5    0    0  0.70696040544E+02 -0.45136090847E+02  0.23042515331E+03  0.24521612533E+03  0.00000000000E+00 0.  1.
          1    1    6    6  503    0 -0.34180063311E+03  0.37394815598E+02  0.73793305980E+03  0.81410763770E+03  0.00000000000E+00 0. -1.
         -1    1    6    6    0  503 -0.74906690214E+02 -0.20414736667E+02  0.25539214333E+03  0.26693242700E+03  0.00000000000E+00 0.  1.
<mgrwt>
<rscale>  0 0.13928615E+04</rscale>
<asrwt>0</asrwt>
<pdfrwt beam="1">  1        2 0.70568530E+00 0.13928615E+04</pdfrwt>
<pdfrwt beam="2">  1       -1 0.16267397E-01 0.13928615E+04</pdfrwt>
<totfact> 0.33687758E+00</totfact>
</mgrwt>
</event>
<event>
12    6  0.1521603E-007  0.2617722E+04  0.7818608E-02  0.8362206E-01
          2   -1    0    0  501    0  0.00000000000E+00  0.00000000000E+00  0.32630348556E+04  0.32630348556E+04  0.00000000000E+00 0. -1.
         -1   -1    0    0    0  501 -0.00000000000E+00 -0.00000000000E+00 -0.52500717288E+03  0.52500717288E+03  0.00000000000E+00 0.  1.
         24    2    1    2    0    0 -0.84659790739E+03  0.77429605285E+03  0.14403480955E+04  0.18431264264E+04  0.79056899521E+02 0.  0.
        254    2    1    2    0    0  0.84659790739E+03 -0.77429605285E+03  0.12976795873E+04  0.19449156021E+04  0.88456881800E+03 0.  0.
         23    2    4    4    0    0  0.62307729719E+03 -0.85712590029E+03  0.64389051365E+03  0.12432296722E+04  0.90193664290E+02 0.  0.
         23    2    4    4    0    0  0.22352061020E+03  0.82829847440E+02  0.65378907362E+03  0.70168592988E+03  0.90004136536E+02 0.  0.
          4    1    3    3  502    0 -0.79015994150E+03  0.74096255503E+03  0.13369295846E+04  0.17206856062E+04  0.00000000000E+00 0. -1.
         -3    1    3    3    0  502 -0.56437965893E+02  0.33333497827E+02  0.10341851089E+03  0.12244082026E+03  0.00000000000E+00 0.  1.
         11    1    5    5    0    0  0.58759359590E+03 -0.82968279308E+03  0.60028314401E+03  0.11806691425E+04  0.00000000000E+00 0. -1.
        -11    1    5    5    0    0  0.35483701292E+02 -0.27443107216E+02  0.43607369648E+02  0.62560529718E+02  0.00000000000E+00 0.  1.
          3    1    6    6  503    0  0.22770734909E+03  0.85433529532E+02  0.59636028947E+03  0.64404589872E+03  0.00000000000E+00 0. -1.
         -3    1    6    6    0  503 -0.41867388982E+01 -0.26036820916E+01  0.57428784147E+02  0.57640031155E+02  0.00000000000E+00 0.  1.
<mgrwt>
<rscale>  0 0.26177217E+04</rscale>
<asrwt>0</asrwt>
<pdfrwt beam="1">  1        2 0.50200535E+00 0.26177217E+04</pdfrwt>
<pdfrwt beam="2">  1       -1 0.80770336E-01 0.26177217E+04</pdfrwt>
<totfact> 0.18093385E+00</totfact>
</mgrwt>
</event>
<event>
12    6  0.1521603E-007  0.2196129E+04  0.7818608E-02  0.8520041E-01
         -1   -1    0    0    0  501 -0.00000000000E+00  0.00000000000E+00  0.11610110363E+04  0.11610110363E+04  0.00000000000E+00 0.  1.
          2   -1    0    0  501    0  0.00000000000E+00 -0.00000000000E+00 -0.10385310487E+04  0.10385310487E+04  0.00000000000E+00 0. -1.
         24    2    1    2    0    0  0.79954667796E+03 -0.29771326537E+03  0.37309081510E+03  0.93475678329E+03  0.81641956027E+02 0.  0.
        254    2    1    2    0    0 -0.79954667796E+03  0.29771326537E+03 -0.25061082750E+03  0.12647853018E+04  0.89942648067E+03 0.  0.
         23    2    4    4    0    0 -0.74141678845E+03  0.51452052806E+03 -0.38802615227E+03  0.98656668448E+03  0.91210197225E+02 0.  0.
         23    2    4    4    0    0 -0.58129889504E+02 -0.21680726269E+03  0.13741532477E+03  0.27821861730E+03  0.90211719436E+02 0.  0.
          2    1    3    3  502    0  0.30775453479E+03 -0.13149013730E+03  0.10665260128E+03  0.35125103167E+03  0.00000000000E+00 0. -1.
         -1    1    3    3    0  502  0.49179214317E+03 -0.16622312807E+03  0.26643821382E+03  0.58350575162E+03  0.00000000000E+00 0.  1.
         11    1    5    5    0    0 -0.53801382655E+03  0.40979594668E+03 -0.31778223419E+03  0.74724637426E+03  0.00000000000E+00 0.  1.
        -11    1    5    5    0    0 -0.20340296190E+03  0.10472458138E+03 -0.70243918081E+02  0.23932031021E+03  0.00000000000E+00 0. -1.
          4    1    6    6  503    0  0.16796069096E+02 -0.60587663804E+01  0.14484158200E+02  0.22991464196E+02  0.00000000000E+00 0. -1.
         -4    1    6    6    0  503 -0.74925958600E+02 -0.21074849631E+03  0.12293116657E+03  0.25522715311E+03  0.00000000000E+00 0.  1.
<mgrwt>
<rscale>  0 0.21961293E+04</rscale>
<asrwt>0</asrwt>
<pdfrwt beam="1">  1        2 0.15977401E+00 0.21961293E+04</pdfrwt>
<pdfrwt beam="2">  1       -1 0.17861708E+00 0.21961293E+04</pdfrwt>
<totfact> 0.52847177E+00</totfact>
</mgrwt>
</event>
<event>
12    6  0.1521603E-007  0.1452105E+04  0.7818608E-02  0.8916943E-01
          2   -1    0    0  501    0  0.00000000000E+00  0.00000000000E+00  0.14012551187E+04  0.14012551187E+04  0.00000000000E+00 0. -1.
         -1   -1    0    0    0  501 -0.00000000000E+00 -0.00000000000E+00 -0.37619990204E+03  0.37619990204E+03  0.00000000000E+00 0.  1.
         24    2    1    2    0    0 -0.16248544030E+03 -0.23207577788E+03 -0.95125545766E+02  0.31212766020E+03  0.90078420385E+02 0.  0.
        254    2    1    2    0    0  0.16248544030E+03  0.23207577788E+03  0.11201807624E+04  0.14653273605E+04  0.90117625804E+03 0.  0.
         23    2    4    4    0    0 -0.26926242528E+03 -0.40098177500E+02  0.81415664674E+03  0.86339151587E+03  0.92107256756E+02 0.  0.
         23    2    4    4    0    0  0.43174786557E+03  0.27217395538E+03  0.30602411569E+03  0.60193584467E+03  0.90504808174E+02 0.  0.
          2    1    3    3  502    0 -0.52555171005E+02 -0.96296894568E+02 -0.81942519905E+02  0.13692959677E+03  0.00000000000E+00 0. -1.
         -1    1    3    3    0  502 -0.10993026929E+03 -0.13577888331E+03 -0.13183025861E+02  0.17519806343E+03  0.00000000000E+00 0.  1.
         11    1    5    5    0    0 -0.36920986439E+02  0.63327913123E+01  0.44909434460E+02  0.58481798783E+02  0.00000000000E+00 0.  1.
        -11    1    5    5    0    0 -0.23234143884E+03 -0.46430968813E+02  0.76924721228E+03  0.80490971709E+03  0.00000000000E+00 0. -1.
          1    1    6    6  503    0  0.23847572700E+03  0.96870795103E+02  0.15367163267E+03  0.29978257788E+03  0.00000000000E+00 0. -1.
         -1    1    6    6    0  503  0.19327213858E+03  0.17530316028E+03  0.15235248302E+03  0.30215326680E+03  0.00000000000E+00 0.  1.
<mgrwt>
<rscale>  0 0.14521047E+04</rscale>
<asrwt>0</asrwt>
<pdfrwt beam="1">  1        2 0.21557771E+00 0.14521047E+04</pdfrwt>
<pdfrwt beam="2">  1       -1 0.57876909E-01 0.14521047E+04</pdfrwt>
<totfact> 0.48277254E+01</totfact>
</mgrwt>
</event>
<event>
12    6  0.1521603E-007  0.1970811E+04  0.7818608E-02  0.8620390E-01
          2   -1    0    0  501    0  0.00000000000E+00  0.00000000000E+00  0.89608671593E+03  0.89608671593E+03  0.00000000000E+00 0. -1.
         -1   -1    0    0    0  501 -0.00000000000E+00 -0.00000000000E+00 -0.10836271177E+04  0.10836271177E+04  0.00000000000E+00 0.  1.
         24    2    1    2    0    0 -0.41760428600E+02  0.65683234518E+03  0.37040396832E+03  0.76096194433E+03  0.93227238002E+02 0.  0.
        254    2    1    2    0    0  0.41760428600E+02 -0.65683234518E+03 -0.55794437009E+03  0.12187518893E+04  0.86074478477E+03 0.  0.
         23    2    4    4    0    0  0.40923921435E+03 -0.47812790515E+03 -0.19790974862E+03  0.66676333210E+03  0.96550733763E+02 0.  0.
         23    2    4    4    0    0 -0.36747878575E+03 -0.17870444002E+03 -0.36003462146E+03  0.55198855720E+03  0.89947227682E+02 0.  0.
          2    1    3    3  502    0 -0.23639383373E+02  0.60529671459E+03  0.36202414369E+03  0.70569427782E+03  0.00000000000E+00 0. -1.
         -1    1    3    3    0  502 -0.18121045227E+02  0.51535630589E+02  0.83798246269E+01  0.55267666507E+02  0.00000000000E+00 0.  1.
         11    1    5    5    0    0  0.42005388714E+02 -0.17940875435E+02 -0.13200856187E+00  0.45676526999E+02  0.00000000000E+00 0. -1.
        -11    1    5    5    0    0  0.36723382563E+03 -0.46018702972E+03 -0.19777774006E+03  0.62108680510E+03  0.00000000000E+00 0.  1.
          2    1    6    6  503    0 -0.56048782336E+02 -0.65798619293E+02 -0.61825955411E+02  0.10627028307E+03  0.00000000000E+00 0. -1.
         -2    1    6    6    0  503 -0.31143000341E+03 -0.11290582073E+03 -0.29820866605E+03  0.44571827413E+03  0.00000000000E+00 0.  1.
<mgrwt>
<rscale>  0 0.19708109E+04</rscale>
<asrwt>0</asrwt>
<pdfrwt beam="1">  1        2 0.13785950E+00 0.19708109E+04</pdfrwt>
<pdfrwt beam="2">  1       -1 0.16671186E+00 0.19708109E+04</pdfrwt>
<totfact> 0.81576327E+00</totfact>
</mgrwt>
</event>
<event>
12    6  0.1521603E-007  0.1251836E+04  0.7818608E-02  0.9068656E-01
         -1   -1    0    0    0  501 -0.00000000000E+00  0.00000000000E+00  0.30947339180E+04  0.30947339180E+04  0.00000000000E+00 0.  1.
          2   -1    0    0  501    0  0.00000000000E+00 -0.00000000000E+00 -0.12659364562E+03  0.12659364562E+03  0.00000000000E+00 0. -1.
         24    2    1    2    0    0 -0.14128668934E+02  0.14748804771E+03  0.64220293196E+02  0.18009273553E+03  0.79729566840E+02 0.  0.
        254    2    1    2    0    0  0.14128668934E+02 -0.14748804771E+03  0.29039199792E+04  0.30412348281E+04  0.89129439054E+03 0.  0.
         23    2    4    4    0    0 -0.12432090381E+03  0.32654832329E+03  0.16775741045E+04  0.17159495818E+04  0.90214171531E+02 0.  0.
         23    2    4    4    0    0  0.13844957275E+03 -0.47403637101E+03  0.12263458747E+04  0.13252852463E+04  0.92617570490E+02 0.  0.
          4    1    3    3  502    0  0.18640366194E+02  0.98500884958E+02  0.67838006297E+02  0.12104496143E+03  0.00000000000E+00 0. -1.
         -3    1    3    3    0  502 -0.32769035129E+02  0.48987162755E+02 -0.36177131013E+01  0.59047774100E+02  0.00000000000E+00 0.  1.
         11    1    5    5    0    0 -0.46689837520E+02  0.14877108750E+03  0.54435108669E+03  0.56624277742E+03  0.00000000000E+00 0.  1.
        -11    1    5    5    0    0 -0.77631066292E+02  0.17777723580E+03  0.11332230178E+04  0.11497068044E+04  0.00000000000E+00 0. -1.
          2    1    6    6  503    0  0.14042666749E+02 -0.57265046002E+02  0.81413998783E+02  0.10052224222E+03  0.00000000000E+00 0.  1.
         -2    1    6    6    0  503  0.12440690600E+03 -0.41677132501E+03  0.11449318759E+04  0.12247630041E+04  0.00000000000E+00 0. -1.
<mgrwt>
<rscale>  0 0.12518365E+04</rscale>
<asrwt>0</asrwt>
<pdfrwt beam="1">  1        2 0.19475948E-01 0.12518365E+04</pdfrwt>
<pdfrwt beam="2">  1       -1 0.47611286E+00 0.12518365E+04</pdfrwt>
<totfact> 0.71969448E-01</totfact>
</mgrwt>
</event>
<event>
12    6  0.1521603E-007  0.1416547E+04  0.7818608E-02  0.8941927E-01
         -3   -1    0    0    0  501 -0.00000000000E+00  0.00000000000E+00  0.42864866205E+03  0.42864866205E+03  0.00000000000E+00 0.  1.
          4   -1    0    0  501    0  0.00000000000E+00 -0.00000000000E+00 -0.11703096989E+04  0.11703096989E+04  0.00000000000E+00 0. -1.
         24    2    1    2    0    0  0.21388410309E+03  0.25937469550E+03  0.39724392884E+02  0.34816952859E+03  0.81377828868E+02 0.  0.
        254    2    1    2    0    0 -0.21388410309E+03 -0.25937469550E+03 -0.78138542975E+03  0.12507888324E+04  0.91699938449E+03 0.  0.
         23    2    4    4    0    0  0.28517959217E+03  0.11024947612E+03 -0.41707400295E+03  0.52490467124E+03  0.89954672911E+02 0.  0.
         23    2    4    4    0    0 -0.49906369525E+03 -0.36962417162E+03 -0.36431142680E+03  0.72588416114E+03  0.92186764372E+02 0.  0.
          2    1    3    3  502    0  0.26588768967E+02  0.17369107219E+02  0.27333720571E+02  0.41902038148E+02  0.00000000000E+00 0. -1.
         -1    1    3    3    0  502  0.18729533412E+03  0.24200558828E+03  0.12390672313E+02  0.30626749044E+03  0.00000000000E+00 0.  1.
         11    1    5    5    0    0  0.20322633995E+03  0.10006668060E+03 -0.24285580529E+03  0.33210424264E+03  0.00000000000E+00 0. -1.
        -11    1    5    5    0    0  0.81953252218E+02  0.10182795528E+02 -0.17421819765E+03  0.19280042860E+03  0.00000000000E+00 0.  1.
          3    1    6    6  503    0 -0.40335330002E+03 -0.25522869933E+03 -0.29756434017E+03  0.56247676408E+03  0.00000000000E+00 0. -1.
         -3    1    6    6    0  503 -0.95710395234E+02 -0.11439547229E+03 -0.66747086637E+02  0.16340739705E+03  0.00000000000E+00 0.  1.
<mgrwt>
<rscale>  0 0.14165475E+04</rscale>
<asrwt>0</asrwt>
<pdfrwt beam="1">  1        4 0.18004764E+00 0.14165475E+04</pdfrwt>
<pdfrwt beam="2">  1       -3 0.65945949E-01 0.14165475E+04</pdfrwt>
<totfact> 0.88603847E-01</totfact>
</mgrwt>
</event>
<event>
12    6  0.1521603E-007  0.1264874E+04  0.7818608E-02  0.9057894E-01
         -1   -1    0    0    0  501 -0.00000000000E+00  0.00000000000E+00  0.60691195453E+03  0.60691195453E+03  0.00000000000E+00 0.  1.
          2   -1    0    0  501    0  0.00000000000E+00 -0.00000000000E+00 -0.65903569014E+03  0.65903569014E+03  0.00000000000E+00 0. -1.
         24    2    1    2    0    0 -0.28557482454E+03  0.10186641822E+03  0.17593870159E+03  0.36243358104E+03  0.92053931874E+02 0.  0.
        254    2    1    2    0    0  0.28557482454E+03 -0.10186641822E+03 -0.22806243721E+03  0.90351406363E+03  0.81999721971E+03 0.  0.
         23    2    4    4    0    0  0.34518144241E+03 -0.27922951226E+03  0.14730984639E+03  0.47583099207E+03  0.87152702014E+02 0.  0.
         23    2    4    4    0    0 -0.59606617869E+02  0.17736309404E+03 -0.37537228359E+03  0.42768307156E+03  0.83653107434E+02 0.  0.
          4    1    3    3  502    0 -0.16272673785E+03  0.55267390256E+02  0.46591984794E+02  0.17805978963E+03  0.00000000000E+00 0. -1.
         -3    1    3    3    0  502 -0.12284808669E+03  0.46599027960E+02  0.12934671680E+03  0.18437379141E+03  0.00000000000E+00 0.  1.
         11    1    5    5    0    0  0.24491969810E+03 -0.20686388568E+03  0.64503420878E+02  0.32701531619E+03  0.00000000000E+00 0.  1.
        -11    1    5    5    0    0  0.10026174431E+03 -0.72365626582E+02  0.82806425508E+02  0.14881567588E+03  0.00000000000E+00 0. -1.
          4    1    6    6  503    0  0.21367147527E+02  0.30279056607E+02 -0.68195890579E+02  0.77614790822E+02  0.00000000000E+00 0. -1.
         -4    1    6    6    0  503 -0.80973765396E+02  0.14708403744E+03 -0.30717639301E+03  0.35006828074E+03  0.00000000000E+00 0.  1.
<mgrwt>
<rscale>  0 0.12648741E+04</rscale>
<asrwt>0</asrwt>
<pdfrwt beam="1">  1        2 0.10139011E+00 0.12648741E+04</pdfrwt>
<pdfrwt beam="2">  1       -1 0.93371070E-01 0.12648741E+04</pdfrwt>
<totfact> 0.55252467E+01</totfact>
</mgrwt>
</event>
<event>
12    6  0.1521603E-007  0.4370520E+04  0.7818608E-02  0.7933705E-01
         -1   -1    0    0    0  501 -0.00000000000E+00  0.00000000000E+00  0.15473760939E+04  0.15473760939E+04  0.00000000000E+00 0.  1.
          2   -1    0    0  501    0  0.00000000000E+00 -0.00000000000E+00 -0.30861030546E+04  0.30861030546E+04  0.00000000000E+00 0. -1.
         24    2    1    2    0    0  0.93997135905E+03  0.18348225280E+04 -0.11144822728E+04  0.23449143835E+04  0.80205139044E+02 0.  0.
        254    2    1    2    0    0 -0.93997135905E+03 -0.18348225280E+04 -0.42424468791E+03  0.22885647650E+04  0.89856845218E+03 0.  0.
         23    2    4    4    0    0 -0.84233709687E+03 -0.14631305218E+04  0.23236045613E+02  0.16916047912E+04  0.10346084778E+03 0.  0.
         23    2    4    4    0    0 -0.97634262180E+02 -0.37169200616E+03 -0.44748073352E+03  0.59695997381E+03  0.91841204612E+02 0.  0.
          2    1    3    3  502    0  0.56942733195E+03  0.10945765278E+04 -0.71064310009E+03  0.14238535308E+04  0.00000000000E+00 0. -1.
         -3    1    3    3    0  502  0.37054402710E+03  0.74024600023E+03 -0.40383917275E+03  0.92106085268E+03  0.00000000000E+00 0.  1.
         11    1    5    5    0    0 -0.16650066024E+03 -0.33131855934E+03 -0.32223897828E+02  0.37219999626E+03  0.00000000000E+00 0. -1.
        -11    1    5    5    0    0 -0.67583643663E+03 -0.11318119625E+04  0.55459943441E+02  0.13194047949E+04  0.00000000000E+00 0.  1.
          3    1    6    6  503    0 -0.64265007926E+02 -0.87002859799E+02 -0.13348786212E+03  0.17180948225E+03  0.00000000000E+00 0. -1.
         -3    1    6    6    0  503 -0.33369254253E+02 -0.28468914636E+03 -0.31399287140E+03  0.42515049156E+03  0.00000000000E+00 0.  1.
<mgrwt>
<rscale>  0 0.43705204E+04</rscale>
<asrwt>0</asrwt>
<pdfrwt beam="1">  1        2 0.47478508E+00 0.43705204E+04</pdfrwt>
<pdfrwt beam="2">  1       -1 0.23805786E+00 0.43705204E+04</pdfrwt>
<totfact> 0.11144207E-01</totfact>
</mgrwt>
</event>
<event>
12    6  0.1521603E-007  0.1779011E+04  0.7818608E-02  0.8717542E-01
         -1   -1    0    0    0  501 -0.00000000000E+00  0.00000000000E+00  0.17746220595E+03  0.17746220595E+03  0.00000000000E+00 0.  1.
          2   -1    0    0  501    0  0.00000000000E+00 -0.00000000000E+00 -0.44585264825E+04  0.44585264825E+04  0.00000000000E+00 0. -1.
         24    2    1    2    0    0  0.41968033858E+03  0.45603774877E+03 -0.21580444460E+04  0.22466832389E+04  0.79547031272E+02 0.  0.
        254    2    1    2    0    0 -0.41968033858E+03 -0.45603774877E+03 -0.21230198306E+04  0.23893054496E+04  0.90413788517E+03 0.  0.
         23    2    4    4    0    0 -0.25602867350E+03  0.13982858216E+03 -0.19094927995E+03  0.35874073023E+03  0.84442702281E+02 0.  0.
         23    2    4    4    0    0 -0.16365166508E+03 -0.59586633093E+03 -0.19320705507E+04  0.20305647194E+04  0.91966923215E+02 0.  0.
          2    1    3    3  502    0  0.40829878113E+03  0.44152130375E+03 -0.20263658030E+04  0.21137188375E+04  0.00000000000E+00 0. -1.
         -1    1    3    3    0  502  0.11381557449E+02  0.14516445017E+02 -0.13167864293E+03  0.13296440136E+03  0.00000000000E+00 0.  1.
         11    1    5    5    0    0 -0.10231433890E+03  0.10565615632E+02 -0.64506967745E+02  0.12141254081E+03  0.00000000000E+00 0. -1.
        -11    1    5    5    0    0 -0.15371433460E+03  0.12926296653E+03 -0.12644231221E+03  0.23732818942E+03  0.00000000000E+00 0.  1.
          3    1    6    6  503    0 -0.19306647142E+02 -0.56485140033E+02 -0.29240053447E+03  0.29843155032E+03  0.00000000000E+00 0. -1.
         -3    1    6    6    0  503 -0.14434501794E+03 -0.53938119090E+03 -0.16396700162E+04  0.17321331691E+04  0.00000000000E+00 0.  1.
<mgrwt>
<rscale>  0 0.17790109E+04</rscale>
<asrwt>0</asrwt>
<pdfrwt beam="1">  1        2 0.68592708E+00 0.17790109E+04</pdfrwt>
<pdfrwt beam="2">  1       -1 0.27301881E-01 0.17790109E+04</pdfrwt>
<totfact> 0.17889182E+00</totfact>
</mgrwt>
</event>
<event>
12    6  0.1521603E-007  0.1609417E+04  0.7818608E-02  0.8814784E-01
          2   -1    0    0  501    0  0.00000000000E+00  0.00000000000E+00  0.22976031781E+04  0.22976031781E+04  0.00000000000E+00 0. -1.
         -1   -1    0    0    0  501 -0.00000000000E+00 -0.00000000000E+00 -0.28183963483E+03  0.28183963483E+03  0.00000000000E+00 0.  1.
         24    2    1    2    0    0 -0.49079559019E+03 -0.16450019590E+03  0.10263556259E+04  0.11536318433E+04  0.97570145095E+02 0.  0.
        254    2    1    2    0    0  0.49079559019E+03  0.16450019590E+03  0.98940791739E+03  0.14258109697E+04  0.88660491113E+03 0.  0.
         23    2    4    4    0    0  0.56289830597E+03  0.42575133250E+03  0.54995314275E+03  0.89967218450E+03  0.94036590479E+02 0.  0.
         23    2    4    4    0    0 -0.72102715782E+02 -0.26125113660E+03  0.43945477464E+03  0.52613878517E+03  0.10124507055E+03 0.  0.
          2    1    3    3  502    0 -0.42865558386E+03 -0.10641746922E+03  0.85699060404E+03  0.96410745394E+03  0.00000000000E+00 0. -1.
         -1    1    3    3    0  502 -0.62140006331E+02 -0.58082726682E+02  0.16936502187E+03  0.18952438935E+03  0.00000000000E+00 0.  1.
         11    1    5    5    0    0  0.48431474950E+02  0.63724457989E+02  0.89598503984E+02  0.12014285758E+03  0.00000000000E+00 0. -1.
        -11    1    5    5    0    0  0.51446683102E+03  0.36202687451E+03  0.46035463877E+03  0.77952932692E+03  0.00000000000E+00 0.  1.
          4    1    6    6  503    0 -0.89093568831E+01 -0.15089733357E+02  0.10303441280E+03  0.10451395560E+03  0.00000000000E+00 0. -1.
         -4    1    6    6    0  503 -0.63193358899E+02 -0.24616140325E+03  0.33642036184E+03  0.42162482958E+03  0.00000000000E+00 0.  1.
<mgrwt>
<rscale>  0 0.16094168E+04</rscale>
<asrwt>0</asrwt>
<pdfrwt beam="1">  1        2 0.35347740E+00 0.16094168E+04</pdfrwt>
<pdfrwt beam="2">  1       -1 0.43359945E-01 0.16094168E+04</pdfrwt>
<totfact> 0.26077234E+01</totfact>
</mgrwt>
</event>
<event>
12    6  0.1625594E-007  0.1601443E+04  0.7818608E-02  0.8819662E-01
          2   -1    0    0  501    0  0.00000000000E+00  0.00000000000E+00  0.13002209719E+04  0.13002209719E+04  0.00000000000E+00 0. -1.
         -1   -1    0    0    0  501 -0.00000000000E+00 -0.00000000000E+00 -0.49311231259E+03  0.49311231259E+03  0.00000000000E+00 0.  1.
         24    2    1    2    0    0 -0.40440786977E+03  0.56291302901E+02 -0.13677251513E+03  0.43791656426E+03  0.79685384161E+02 0.  0.
        254    2    1    2    0    0  0.40440786977E+03 -0.56291302901E+02  0.94388117443E+03  0.13554167202E+04  0.88290904293E+03 0.  0.
         23    2    4    4    0    0  0.18083248254E+03  0.33896896656E+03  0.76343352953E+03  0.85952084802E+03  0.91350901184E+02 0.  0.
         23    2    4    4    0    0  0.22357538723E+03 -0.39526026946E+03  0.18044764491E+03  0.49589587219E+03  0.84467325715E+02 0.  0.
          2    1    3    3  502    0 -0.24141103564E+02  0.54456580422E+01 -0.31549349557E+02  0.40097500300E+02  0.00000000000E+00 0. -1.
         -1    1    3    3    0  502 -0.38026676620E+03  0.50845644859E+02 -0.10522316558E+03  0.39781906396E+03  0.00000000000E+00 0.  1.
         11    1    5    5    0    0  0.17538642673E+03  0.30092117997E+03  0.72893368756E+03  0.80787268558E+03  0.00000000000E+00 0.  1.
        -11    1    5    5    0    0  0.54460558071E+01  0.38047786597E+02  0.34499841964E+02  0.51648162448E+02  0.00000000000E+00 0. -1.
          2    1    6    6  503    0  0.54691245438E+01 -0.13504437014E+02  0.26157759917E+02  0.29941769257E+02  0.00000000000E+00 0. -1.
         -2    1    6    6    0  503  0.21810626268E+03 -0.38175583245E+03  0.15428988499E+03  0.46595410294E+03  0.00000000000E+00 0.  1.
<mgrwt>
<rscale>  0 0.16014431E+04</rscale>
<asrwt>0</asrwt>
<pdfrwt beam="1">  1        2 0.20003400E+00 0.16014431E+04</pdfrwt>
<pdfrwt beam="2">  1       -1 0.75863433E-01 0.16014431E+04</pdfrwt>
<totfact> 0.31532501E+01</totfact>
</mgrwt>
</event>
<event>
12    6  0.1521603E-007  0.1380442E+04  0.7818608E-02  0.8968099E-01
         -1   -1    0    0    0  501 -0.00000000000E+00  0.00000000000E+00  0.45263674382E+03  0.45263674382E+03  0.00000000000E+00 0.  1.
          2   -1    0    0  501    0  0.00000000000E+00 -0.00000000000E+00 -0.10525105413E+04  0.10525105413E+04  0.00000000000E+00 0. -1.
         24    2    1    2    0    0  0.16667047730E+03  0.10695589076E+03 -0.53331858183E+03  0.57442826948E+03  0.79501676008E+02 0.  0.
        254    2    1    2    0    0 -0.16667047730E+03 -0.10695589076E+03 -0.66555215700E+02  0.93071901568E+03  0.90696729756E+03 0.  0.
         23    2    4    4    0    0 -0.32356274084E+03  0.12242366715E+03 -0.36639268139E+03  0.51220995205E+03  0.91842454568E+02 0.  0.
         23    2    4    4    0    0  0.15689226354E+03 -0.22937955791E+03  0.29983746569E+03  0.41850906363E+03  0.89538631706E+02 0.  0.
          4    1    3    3  502    0  0.15549912460E+03  0.75796844292E+02 -0.37919365789E+03  0.41678887886E+03  0.00000000000E+00 0. -1.
         -3    1    3    3    0  502  0.11171352697E+02  0.31159046465E+02 -0.15412492393E+03  0.15763939062E+03  0.00000000000E+00 0.  1.
         11    1    5    5    0    0 -0.25003816892E+02 -0.87190232927E+01 -0.56303768132E+02  0.62219984991E+02  0.00000000000E+00 0. -1.
        -11    1    5    5    0    0 -0.29855892395E+03  0.13114269045E+03 -0.31008891326E+03  0.44998996706E+03  0.00000000000E+00 0.  1.
          4    1    6    6  503    0  0.10927942620E+03 -0.85993238473E+02  0.16715161812E+03  0.21743158348E+03  0.00000000000E+00 0. -1.
         -4    1    6    6    0  503  0.47612837343E+02 -0.14338631944E+03  0.13268584757E+03  0.20107748016E+03  0.00000000000E+00 0.  1.
<mgrwt>
<rscale>  0 0.13804419E+04</rscale>
<asrwt>0</asrwt>
<pdfrwt beam="1">  1        2 0.16192470E+00 0.13804419E+04</pdfrwt>
<pdfrwt beam="2">  1       -1 0.69636423E-01 0.13804419E+04</pdfrwt>
<totfact> 0.54084635E+01</totfact>
</mgrwt>
</event>
<event>
12    6  0.1521603E-007  0.2727912E+04  0.7818608E-02  0.8326005E-01
         -1   -1    0    0    0  501 -0.00000000000E+00  0.00000000000E+00  0.15340201629E+04  0.15340201629E+04  0.00000000000E+00 0.  1.
          2   -1    0    0  501    0  0.00000000000E+00 -0.00000000000E+00 -0.12127455331E+04  0.12127455331E+04  0.00000000000E+00 0. -1.
         24    2    1    2    0    0 -0.76459731080E+03 -0.49103812754E+03 -0.66770560481E+03  0.11307062423E+04  0.83296706225E+02 0.  0.
        254    2    1    2    0    0  0.76459731080E+03  0.49103812754E+03  0.98898023467E+03  0.16160594537E+04  0.89879851083E+03 0.  0.
         23    2    4    4    0    0 -0.11493581481E+03  0.29492297410E+02 -0.67122811292E+02  0.16333561049E+03  0.89961173440E+02 0.  0.
         23    2    4    4    0    0  0.87953312562E+03  0.46154583013E+03  0.10561030460E+04  0.14527238432E+04  0.91923058465E+02 0.  0.
          2    1    3    3  502    0 -0.64216722569E+03 -0.38639767301E+03 -0.57721980788E+03  0.94597284002E+03  0.00000000000E+00 0. -1.
         -1    1    3    3    0  502 -0.12243008512E+03 -0.10464045453E+03 -0.90485796930E+02  0.18473340226E+03  0.00000000000E+00 0.  1.
         11    1    5    5    0    0 -0.12306181836E+03  0.12148116402E+02 -0.39680936852E+02  0.12987056872E+03  0.00000000000E+00 0. -1.
        -11    1    5    5    0    0  0.81260035436E+01  0.17344181008E+02 -0.27441874440E+02  0.33465041778E+02  0.00000000000E+00 0.  1.
          1    1    6    6  503    0  0.60094969865E+03  0.27034426264E+03  0.67253049509E+03  0.94155394294E+03  0.00000000000E+00 0. -1.
         -1    1    6    6    0  503  0.27858342697E+03  0.19120156749E+03  0.38357255087E+03  0.51116990030E+03  0.00000000000E+00 0.  1.
<mgrwt>
<rscale>  0 0.27279121E+04</rscale>
<asrwt>0</asrwt>
<pdfrwt beam="1">  1        2 0.18657624E+00 0.27279121E+04</pdfrwt>
<pdfrwt beam="2">  1       -1 0.23600310E+00 0.27279121E+04</pdfrwt>
<totfact> 0.15989407E+00</totfact>
</mgrwt>
</event>
<event>
12    6  0.1521603E-007  0.1794521E+04  0.7818608E-02  0.8709218E-01
         -1   -1    0    0    0  501 -0.00000000000E+00  0.00000000000E+00  0.34073800858E+03  0.34073800858E+03  0.00000000000E+00 0.  1.
          2   -1    0    0  501    0  0.00000000000E+00 -0.00000000000E+00 -0.23627442269E+04  0.23627442269E+04  0.00000000000E+00 0. -1.
         24    2    1    2    0    0 -0.10046642456E+03 -0.43695696251E+03 -0.15308452072E+02  0.45609103594E+03  0.82217971314E+02 0.  0.
        254    2    1    2    0    0  0.10046642456E+03  0.43695696251E+03 -0.20066977662E+04  0.22473911995E+04  0.90714187928E+03 0.  0.
         23    2    4    4    0    0  0.38721194022E+03  0.39702250055E+03 -0.65930631835E+03  0.86631601079E+03  0.90877150852E+02 0.  0.
         23    2    4    4    0    0 -0.28674551566E+03  0.39934461962E+02 -0.13473914479E+04  0.13810751887E+04  0.89928922524E+02 0.  0.
          4    1    3    3  502    0 -0.57241733636E+02 -0.11608225117E+03 -0.26547813783E+02  0.13212301663E+03  0.00000000000E+00 0. -1.
         -3    1    3    3    0  502 -0.43224690927E+02 -0.32087471134E+03  0.11239361711E+02  0.32396801931E+03  0.00000000000E+00 0.  1.
         11    1    5    5    0    0  0.35959884430E+03  0.39481601637E+03 -0.63206783222E+03  0.82746647071E+03  0.00000000000E+00 0.  1.
        -11    1    5    5    0    0  0.27613095919E+02  0.22064841780E+01 -0.27238486126E+02  0.38849540089E+02  0.00000000000E+00 0. -1.
          3    1    6    6  503    0 -0.15450603772E+03  0.66305857420E+02 -0.77142944941E+03  0.78953909203E+03  0.00000000000E+00 0. -1.
         -3    1    6    6    0  503 -0.13223947793E+03 -0.26371395458E+02 -0.57596199844E+03  0.59153609668E+03  0.00000000000E+00 0.  1.
<mgrwt>
<rscale>  0 0.17945214E+04</rscale>
<asrwt>0</asrwt>
<pdfrwt beam="1">  1        2 0.36349911E+00 0.17945214E+04</pdfrwt>
<pdfrwt beam="2">  1       -1 0.52421233E-01 0.17945214E+04</pdfrwt>
<totfact> 0.16475439E+01</totfact>
</mgrwt>
</event>
<event>
12    6  0.1521603E-007  0.1717617E+04  0.7818608E-02  0.8751380E-01
          4   -1    0    0  501    0  0.00000000000E+00  0.00000000000E+00  0.37241154115E+03  0.37241154115E+03  0.00000000000E+00 0. -1.
         -3   -1    0    0    0  501 -0.00000000000E+00 -0.00000000000E+00 -0.19804767897E+04  0.19804767897E+04  0.00000000000E+00 0.  1.
         24    2    1    2    0    0  0.67956129246E+02 -0.42364044127E+03 -0.11853824267E+04  0.12631671845E+04  0.79815909028E+02 0.  0.
        254    2    1    2    0    0 -0.67956129246E+02  0.42364044127E+03 -0.42268282184E+03  0.10897211464E+04  0.90815315341E+03 0.  0.
         23    2    4    4    0    0 -0.44611363941E+03  0.39713733638E+03 -0.17707760211E+03  0.62889728925E+03  0.86138725566E+02 0.  0.
         23    2    4    4    0    0  0.37815751016E+03  0.26503104884E+02 -0.24560521973E+03  0.46082385715E+03  0.91275332356E+02 0.  0.
          4    1    3    3  502    0  0.57375823403E+02 -0.41305970254E+03 -0.11680872542E+04  0.12402975999E+04  0.00000000000E+00 0. -1.
         -3    1    3    3    0  502  0.10580305843E+02 -0.10580738728E+02 -0.17295172510E+02  0.22869584516E+02  0.00000000000E+00 0.  1.
         11    1    5    5    0    0 -0.49729223070E+02  0.82125309830E+02 -0.14338821027E+02  0.97072982494E+02  0.00000000000E+00 0. -1.
        -11    1    5    5    0    0 -0.39638441634E+03  0.31501202655E+03 -0.16273878108E+03  0.53182430676E+03  0.00000000000E+00 0.  1.
          4    1    6    6  503    0  0.23786366304E+02 -0.21100163352E+02 -0.13522384507E+02  0.34552322617E+02  0.00000000000E+00 0. -1.
         -4    1    6    6    0  503  0.35437114386E+03  0.47603268236E+02 -0.23208283522E+03  0.42627153453E+03  0.00000000000E+00 0.  1.
<mgrwt>
<rscale>  0 0.17176174E+04</rscale>
<asrwt>0</asrwt>
<pdfrwt beam="1">  1        4 0.57294082E-01 0.17176174E+04</pdfrwt>
<pdfrwt beam="2">  1       -3 0.30468874E+00 0.17176174E+04</pdfrwt>
<totfact> 0.22615229E-01</totfact>
</mgrwt>
</event>
<event>
12    6  0.1521603E-007  0.1192934E+04  0.7818608E-02  0.9119064E-01
          2   -1    0    0  501    0  0.00000000000E+00  0.00000000000E+00  0.14381729328E+04  0.14381729328E+04  0.00000000000E+00 0. -1.
         -1   -1    0    0    0  501 -0.00000000000E+00 -0.00000000000E+00 -0.24737842189E+03  0.24737842189E+03  0.00000000000E+00 0.  1.
         24    2    1    2    0    0 -0.17346052223E+03 -0.17482688881E+02  0.24952667439E+02  0.19341555325E+03  0.79954633679E+02 0.  0.
        254    2    1    2    0    0  0.17346052223E+03  0.17482688881E+02  0.11658418434E+04  0.14921358014E+04  0.91481574578E+03 0.  0.
         23    2    4    4    0    0 -0.10332893239E+02  0.44175156553E+03  0.47277385407E+03  0.65381082258E+03  0.93285906201E+02 0.  0.
         23    2    4    4    0    0  0.18379341546E+03 -0.42426887665E+03  0.69306798935E+03  0.83832497881E+03  0.93066819907E+02 0.  0.
          2    1    3    3  502    0 -0.37857963368E+02  0.26940383291E+02 -0.75303876578E+01  0.47071396628E+02  0.00000000000E+00 0. -1.
         -1    1    3    3    0  502 -0.13560255886E+03 -0.44423072172E+02  0.32483055097E+02  0.14634415663E+03  0.00000000000E+00 0.  1.
         11    1    5    5    0    0  0.25973476400E+02  0.23377295715E+03  0.19909110407E+03  0.30815853824E+03  0.00000000000E+00 0.  1.
        -11    1    5    5    0    0 -0.36306369639E+02  0.20797860839E+03  0.27368275000E+03  0.34565228434E+03  0.00000000000E+00 0. -1.
          4    1    6    6  503    0  0.16606220567E+03 -0.29541771693E+03  0.45906256103E+03  0.57060206674E+03  0.00000000000E+00 0. -1.
         -4    1    6    6    0  503  0.17731209790E+02 -0.12885115973E+03  0.23400542832E+03  0.26772291207E+03  0.00000000000E+00 0.  1.
<mgrwt>
<rscale>  0 0.11929341E+04</rscale>
<asrwt>0</asrwt>
<pdfrwt beam="1">  1        2 0.22125737E+00 0.11929341E+04</pdfrwt>
<pdfrwt beam="2">  1       -1 0.38058220E-01 0.11929341E+04</pdfrwt>
<totfact> 0.10320104E+02</totfact>
</mgrwt>
</event>
<event>
12    6  0.1521603E-007  0.1834242E+04  0.7818608E-02  0.8688299E-01
         -1   -1    0    0    0  501 -0.00000000000E+00  0.00000000000E+00  0.52709233560E+03  0.52709233560E+03  0.00000000000E+00 0.  1.
          2   -1    0    0  501    0  0.00000000000E+00 -0.00000000000E+00 -0.15957567682E+04  0.15957567682E+04  0.00000000000E+00 0. -1.
         24    2    1    2    0    0 -0.16867700273E+03  0.34310562573E+03  0.26241759002E+03  0.47066167314E+03  0.80535814079E+02 0.  0.
        254    2    1    2    0    0  0.16867700273E+03 -0.34310562573E+03 -0.13310820226E+04  0.16521874307E+04  0.90098310387E+03 0.  0.
         23    2    4    4    0    0 -0.44423819115E+02  0.27042221956E+03 -0.22729784873E+03  0.36735088027E+03  0.90447247983E+02 0.  0.
         23    2    4    4    0    0  0.21310082185E+03 -0.61352784528E+03 -0.11037841739E+04  0.12848365504E+04  0.10313622779E+03 0.  0.
          2    1    3    3  502    0 -0.11345593261E+03  0.26395207831E+03  0.15571936511E+03  0.32678964023E+03  0.00000000000E+00 0. -1.
         -1    1    3    3    0  502 -0.55221070122E+02  0.79153547415E+02  0.10669822491E+03  0.14387203291E+03  0.00000000000E+00 0.  1.
         11    1    5    5    0    0 -0.18666028256E+02  0.26019712507E+03 -0.20466268775E+03  0.33156866598E+03  0.00000000000E+00 0. -1.
        -11    1    5    5    0    0 -0.25757790859E+02  0.10225094490E+02 -0.22635160976E+02  0.35782214292E+02  0.00000000000E+00 0.  1.
          4    1    6    6  503    0  0.12831841169E+03 -0.48976571307E+03 -0.88433005915E+03  0.10190072237E+04  0.00000000000E+00 0. -1.
         -4    1    6    6    0  503  0.84782410160E+02 -0.12376213222E+03 -0.21945411475E+03  0.26582932668E+03  0.00000000000E+00 0.  1.
<mgrwt>
<rscale>  0 0.18342423E+04</rscale>
<asrwt>0</asrwt>
<pdfrwt beam="1">  1        2 0.24550104E+00 0.18342423E+04</pdfrwt>
<pdfrwt beam="2">  1       -1 0.81091128E-01 0.18342423E+04</pdfrwt>
<totfact> 0.18225167E+01</totfact>
</mgrwt>
</event>
<event>
12    6  0.1521603E-007  0.2965364E+04  0.7818608E-02  0.8253691E-01
         -1   -1    0    0    0  501 -0.00000000000E+00  0.00000000000E+00  0.10764916366E+04  0.10764916366E+04  0.00000000000E+00 0.  1.
          2   -1    0    0  501    0  0.00000000000E+00 -0.00000000000E+00 -0.20421396763E+04  0.20421396763E+04  0.00000000000E+00 0. -1.
         24    2    1    2    0    0  0.11236887454E+04  0.15737867441E+03  0.32085399260E+03  0.11817869995E+04  0.78922645704E+02 0.  0.
        254    2    1    2    0    0 -0.11236887454E+04 -0.15737867441E+03 -0.12865020323E+04  0.19368443134E+04  0.89935197323E+03 0.  0.
         23    2    4    4    0    0  0.54472274408E+02  0.90558106804E+02  0.36844462248E+02  0.14520039266E+03  0.92507514521E+02 0.  0.
         23    2    4    4    0    0 -0.11781610198E+04 -0.24793678121E+03 -0.13233464946E+04  0.17916439208E+04  0.95947684856E+02 0.  0.
          2    1    3    3  502    0  0.23567767139E+03  0.56503862690E+02  0.91980922170E+02  0.25922411410E+03  0.00000000000E+00 0. -1.
         -1    1    3    3    0  502  0.88801107397E+03  0.10087481172E+03  0.22887307043E+03  0.92256288539E+03  0.00000000000E+00 0.  1.
         11    1    5    5    0    0 -0.24634052073E+02  0.33390947611E+02  0.19183942362E+01  0.41538802828E+02  0.00000000000E+00 0.  1.
        -11    1    5    5    0    0  0.79106326482E+02  0.57167159193E+02  0.34926068011E+02  0.10366158983E+03  0.00000000000E+00 0. -1.
          2    1    6    6  503    0 -0.65080945341E+03 -0.11010836712E+03 -0.78368697873E+03  0.10246180156E+04  0.00000000000E+00 0. -1.
         -2    1    6    6    0  503 -0.52735156635E+03 -0.13782841409E+03 -0.53965951584E+03  0.76702590524E+03  0.00000000000E+00 0.  1.
<mgrwt>
<rscale>  0 0.29653642E+04</rscale>
<asrwt>0</asrwt>
<pdfrwt beam="1">  1        2 0.31417533E+00 0.29653642E+04</pdfrwt>
<pdfrwt beam="2">  1       -1 0.16561410E+00 0.29653642E+04</pdfrwt>
<totfact> 0.16389096E+00</totfact>
</mgrwt>
</event>
<event>
12    6  0.1521603E-007  0.1282393E+04  0.7818608E-02  0.9043645E-01
          2   -1    0    0  501    0  0.00000000000E+00  0.00000000000E+00  0.12409462945E+04  0.12409462945E+04  0.00000000000E+00 0. -1.
         -1   -1    0    0    0  501 -0.00000000000E+00 -0.00000000000E+00 -0.33130602437E+03  0.33130602437E+03  0.00000000000E+00 0.  1.
         24    2    1    2    0    0 -0.15635639644E+03  0.26538515167E+03  0.11341243484E+03  0.33762729556E+03  0.79077233741E+02 0.  0.
        254    2    1    2    0    0  0.15635639644E+03 -0.26538515167E+03  0.79622783524E+03  0.12346250233E+04  0.89187643821E+03 0.  0.
         23    2    4    4    0    0  0.41260809150E+03 -0.16191502233E+03  0.82662625016E+03  0.94235655750E+03  0.90901113211E+02 0.  0.
         23    2    4    4    0    0 -0.25625169506E+03 -0.10347012933E+03 -0.30398414921E+02  0.29226846576E+03  0.90143183677E+02 0.  0.
          4    1    3    3  502    0 -0.33375013628E+01  0.24836153475E+02  0.32949475564E+02  0.41396151690E+02  0.00000000000E+00 0. -1.
         -3    1    3    3    0  502 -0.15301889508E+03  0.24054899819E+03  0.80462959278E+02  0.29623114387E+03  0.00000000000E+00 0.  1.
         11    1    5    5    0    0  0.40885203970E+03 -0.15591803997E+03  0.77292517661E+03  0.88819128243E+03  0.00000000000E+00 0.  1.
        -11    1    5    5    0    0  0.37560517993E+01 -0.59969823675E+01  0.53701073551E+02  0.54165275068E+02  0.00000000000E+00 0. -1.
          3    1    6    6  503    0 -0.86404949677E+02 -0.31011014542E+01  0.19794147710E+02  0.88697465818E+02  0.00000000000E+00 0. -1.
         -3    1    6    6    0  503 -0.16984674538E+03 -0.10036902788E+03 -0.50192562631E+02  0.20357099995E+03  0.00000000000E+00 0.  1.
<mgrwt>
<rscale>  0 0.12823930E+04</rscale>
<asrwt>0</asrwt>
<pdfrwt beam="1">  1        2 0.19091481E+00 0.12823930E+04</pdfrwt>
<pdfrwt beam="2">  1       -1 0.50970158E-01 0.12823930E+04</pdfrwt>
<totfact> 0.77494271E+01</totfact>
</mgrwt>
</event>
<event>
12    6  0.1521603E-007  0.2581475E+04  0.7818608E-02  0.8374521E-01
          2   -1    0    0  501    0  0.00000000000E+00  0.00000000000E+00  0.16927491383E+04  0.16927491383E+04  0.00000000000E+00 0. -1.
         -1   -1    0    0    0  501 -0.00000000000E+00 -0.00000000000E+00 -0.98420009454E+03  0.98420009454E+03  0.00000000000E+00 0.  1.
         24    2    1    2    0    0  0.44031979860E+03  0.64549779779E+03 -0.53691345789E+03  0.95144981078E+03  0.80198186818E+02 0.  0.
        254    2    1    2    0    0 -0.44031979860E+03 -0.64549779779E+03  0.12454625016E+04  0.17254994220E+04  0.90311819852E+03 0.  0.
         23    2    4    4    0    0  0.92408394075E+02  0.14705366954E+03  0.69316567229E+02  0.20780660981E+03  0.90635023954E+02 0.  0.
         23    2    4    4    0    0 -0.53272819268E+03 -0.79255146733E+03  0.11761459344E+04  0.15176928122E+04  0.90194554521E+02 0.  0.
          4    1    3    3  502    0  0.19812781253E+03  0.24160683556E+03 -0.18050632052E+03  0.36084764768E+03  0.00000000000E+00 0. -1.
         -3    1    3    3    0  502  0.24219198608E+03  0.40389096223E+03 -0.35640713736E+03  0.59060216310E+03  0.00000000000E+00 0.  1.
         11    1    5    5    0    0  0.11580675991E+02  0.35847323649E+02  0.58924280924E+02  0.69937211494E+02  0.00000000000E+00 0. -1.
        -11    1    5    5    0    0  0.80827718084E+02  0.11120634589E+03  0.10392286306E+02  0.13786939831E+03  0.00000000000E+00 0.  1.
          3    1    6    6  503    0 -0.41302298793E+01 -0.24157880987E+02  0.16560371852E+02  0.29578842582E+02  0.00000000000E+00 0. -1.
         -3    1    6    6    0  503 -0.52859796280E+03 -0.76839358634E+03  0.11595855625E+04  0.14881139696E+04  0.00000000000E+00 0.  1.
<mgrwt>
<rscale>  0 0.25814754E+04</rscale>
<asrwt>0</asrwt>
<pdfrwt beam="1">  1        2 0.26042294E+00 0.25814754E+04</pdfrwt>
<pdfrwt beam="2">  1       -1 0.15141540E+00 0.25814754E+04</pdfrwt>
<totfact> 0.33959513E+00</totfact>
</mgrwt>
</event>
<event>
12    6  0.1553950E-007  0.1799148E+04  0.7818608E-02  0.8706753E-01
         -1   -1    0    0    0  501 -0.00000000000E+00  0.00000000000E+00  0.48662502572E+03  0.48662502572E+03  0.00000000000E+00 0.  1.
          2   -1    0    0  501    0  0.00000000000E+00 -0.00000000000E+00 -0.16629501035E+04  0.16629501035E+04  0.00000000000E+00 0. -1.
         24    2    1    2    0    0  0.14819557481E+03  0.64685850205E+03 -0.55028112245E+03  0.86579035281E+03  0.79973565817E+02 0.  0.
        254    2    1    2    0    0 -0.14819557481E+03 -0.64685850205E+03 -0.62604395535E+03  0.12837847764E+04  0.90320787647E+03 0.  0.
         23    2    4    4    0    0 -0.32862572364E+03  0.51204413817E+02 -0.38763080298E+03  0.51883063857E+03  0.91163774971E+02 0.  0.
         23    2    4    4    0    0  0.18043014883E+03 -0.69806291587E+03 -0.23841315237E+03  0.76495413787E+03  0.92017002213E+02 0.  0.
          4    1    3    3  502    0  0.14897972747E+03  0.59451440347E+03 -0.48183687239E+03  0.77962113024E+03  0.00000000000E+00 0. -1.
         -3    1    3    3    0  502 -0.78415265787E+00  0.52344098582E+02 -0.68444250061E+02  0.86169222569E+02  0.00000000000E+00 0.  1.
         11    1    5    5    0    0 -0.24111162039E+03  0.76327494301E+02 -0.30113021934E+03  0.39324306589E+03  0.00000000000E+00 0. -1.
        -11    1    5    5    0    0 -0.87514103250E+02 -0.25123080484E+02 -0.86500583642E+02  0.12558757268E+03  0.00000000000E+00 0.  1.
          2    1    6    6  503    0  0.16507075476E+03 -0.67774483514E+03 -0.24377294878E+03  0.73892602214E+03  0.00000000000E+00 0. -1.
         -2    1    6    6    0  503  0.15359394069E+02 -0.20318080725E+02  0.53597964116E+01  0.26028115723E+02  0.00000000000E+00 0.  1.
<mgrwt>
<rscale>  0 0.17991477E+04</rscale>
<asrwt>0</asrwt>
<pdfrwt beam="1">  1        2 0.25583848E+00 0.17991477E+04</pdfrwt>
<pdfrwt beam="2">  1       -1 0.74865388E-01 0.17991477E+04</pdfrwt>
<totfact> 0.19849650E+01</totfact>
</mgrwt>
</event>
<event>
12    6  0.1521603E-007  0.1806157E+04  0.7818608E-02  0.8703032E-01
          2   -1    0    0  501    0  0.00000000000E+00  0.00000000000E+00  0.56606608431E+03  0.56606608431E+03  0.00000000000E+00 0. -1.
         -1   -1    0    0    0  501 -0.00000000000E+00 -0.00000000000E+00 -0.14407337393E+04  0.14407337393E+04  0.00000000000E+00 0.  1.
         24    2    1    2    0    0  0.43715362646E+02  0.46568356196E+03 -0.87073795061E+03  0.99161214510E+03  0.79610645378E+02 0.  0.
        254    2    1    2    0    0 -0.43715362646E+02 -0.46568356196E+03 -0.39297044167E+01  0.10151876785E+04  0.90100963773E+03 0.  0.
         23    2    4    4    0    0  0.40773676811E+03 -0.18061942813E+03 -0.97770951053E+02  0.46559777159E+03  0.91375468015E+02 0.  0.
         23    2    4    4    0    0 -0.45145213076E+03 -0.28506413383E+03  0.93841246637E+02  0.54958990695E+03  0.90400771477E+02 0.  0.
          4    1    3    3  502    0 -0.30252027396E+01  0.10176279242E+02 -0.39832488449E+01  0.11339082070E+02  0.00000000000E+00 0. -1.
         -3    1    3    3    0  502  0.46740565386E+02  0.45550728272E+03 -0.86675470176E+03  0.98027306303E+03  0.00000000000E+00 0.  1.
         11    1    5    5    0    0  0.31309619763E+03 -0.14270894892E+03 -0.34974576501E+02  0.34585877764E+03  0.00000000000E+00 0. -1.
        -11    1    5    5    0    0  0.94640570485E+02 -0.37910479203E+02 -0.62796374553E+02  0.11973899395E+03  0.00000000000E+00 0.  1.
          4    1    6    6  503    0 -0.92308351311E+02 -0.67654946747E+02 -0.16194232436E+02  0.11558666318E+03  0.00000000000E+00 0. -1.
         -4    1    6    6    0  503 -0.35914377945E+03 -0.21740918709E+03  0.11003547907E+03  0.43400324377E+03  0.00000000000E+00 0.  1.
<mgrwt>
<rscale>  0 0.18061567E+04</rscale>
<asrwt>0</asrwt>
<pdfrwt beam="1">  1        2 0.87087089E-01 0.18061567E+04</pdfrwt>
<pdfrwt beam="2">  1       -1 0.22165135E+00 0.18061567E+04</pdfrwt>
<totfact> 0.61512052E+00</totfact>
</mgrwt>
</event>
<event>
12    6  0.1521603E-007  0.1670777E+04  0.7818608E-02  0.8778209E-01
          2   -1    0    0  501    0  0.00000000000E+00  0.00000000000E+00  0.79819738792E+03  0.79819738792E+03  0.00000000000E+00 0. -1.
         -1   -1    0    0    0  501 -0.00000000000E+00 -0.00000000000E+00 -0.87431231204E+03  0.87431231204E+03  0.00000000000E+00 0.  1.
         24    2    1    2    0    0  0.40079296705E+03  0.37672531192E+03 -0.19779601269E+03  0.58998191401E+03  0.79990206593E+02 0.  0.
        254    2    1    2    0    0 -0.40079296705E+03 -0.37672531192E+03  0.12168108858E+03  0.10825277860E+04  0.92439339946E+03 0.  0.
         23    2    4    4    0    0 -0.26397808913E+03 -0.67186382571E+03  0.15183425741E+03  0.74315089138E+03  0.90189654568E+02 0.  0.
         23    2    4    4    0    0 -0.13681487792E+03  0.29513851380E+03 -0.30153168829E+02  0.33937689457E+03  0.91882587219E+02 0.  0.
          2    1    3    3  502    0  0.11097384977E+01  0.52408352841E+01 -0.12695016235E+02  0.13779017063E+02  0.00000000000E+00 0. -1.
         -1    1    3    3    0  502  0.39968322855E+03  0.37148447663E+03 -0.18510099646E+03  0.57620289695E+03  0.00000000000E+00 0.  1.
         11    1    5    5    0    0  0.76674454051E-01 -0.44380833985E+02 -0.46345081137E+01  0.44622225063E+02  0.00000000000E+00 0.  1.
        -11    1    5    5    0    0 -0.26405476359E+03 -0.62748299173E+03  0.15646876552E+03  0.69852866632E+03  0.00000000000E+00 0. -1.
          2    1    6    6  503    0 -0.12116655553E+03  0.26761538059E+03 -0.55321892646E+02  0.29893115915E+03  0.00000000000E+00 0. -1.
         -2    1    6    6    0  503 -0.15648322392E+02  0.27523133209E+02  0.25168723817E+02  0.40445735423E+02  0.00000000000E+00 0.  1.
<mgrwt>
<rscale>  0 0.16707768E+04</rscale>
<asrwt>0</asrwt>
<pdfrwt beam="1">  1        2 0.12279960E+00 0.16707768E+04</pdfrwt>
<pdfrwt beam="2">  1       -1 0.13450959E+00 0.16707768E+04</pdfrwt>
<totfact> 0.17493494E+01</totfact>
</mgrwt>
</event>
<event>
12    6  0.1521603E-007  0.1588810E+04  0.7818608E-02  0.8827452E-01
          2   -1    0    0  501    0  0.00000000000E+00  0.00000000000E+00  0.11109535671E+04  0.11109535671E+04  0.00000000000E+00 0. -1.
         -1   -1    0    0    0  501 -0.00000000000E+00 -0.00000000000E+00 -0.56805171507E+03  0.56805171507E+03  0.00000000000E+00 0.  1.
         24    2    1    2    0    0  0.12777672263E+03 -0.44020454203E+03  0.45939596571E+03  0.65397202753E+03  0.80794986369E+02 0.  0.
        254    2    1    2    0    0 -0.12777672263E+03  0.44020454203E+03  0.83505886309E+02  0.10250332546E+04  0.91302410175E+03 0.  0.
         23    2    4    4    0    0  0.32087024722E+02 -0.87268663411E+02  0.37363114381E+03  0.39570047157E+03  0.91286553277E+02 0.  0.
         23    2    4    4    0    0 -0.15986374735E+03  0.52747320544E+03 -0.29012525750E+03  0.62933278306E+03  0.90014924456E+02 0.  0.
          2    1    3    3  502    0  0.94529218899E+02 -0.38681658045E+03  0.42454949311E+03  0.58206967988E+03  0.00000000000E+00 0. -1.
         -1    1    3    3    0  502  0.33247503733E+02 -0.53387961571E+02  0.34846472599E+02  0.71902347651E+02  0.00000000000E+00 0.  1.
         11    1    5    5    0    0  0.21770295868E+02  0.13093424340E+02  0.42233355102E+02  0.49285290161E+02  0.00000000000E+00 0. -1.
        -11    1    5    5    0    0  0.10316728854E+02 -0.10036208775E+03  0.33139778870E+03  0.34641518141E+03  0.00000000000E+00 0.  1.
          1    1    6    6  503    0 -0.91427077300E+01  0.29824449807E+02 -0.44296527729E+02  0.54178125473E+02  0.00000000000E+00 0. -1.
         -1    1    6    6    0  503 -0.15072103962E+03  0.49764875563E+03 -0.24582872977E+03  0.57515465759E+03  0.00000000000E+00 0.  1.
<mgrwt>
<rscale>  0 0.15888097E+04</rscale>
<asrwt>0</asrwt>
<pdfrwt beam="1">  1        2 0.17091593E+00 0.15888097E+04</pdfrwt>
<pdfrwt beam="2">  1       -1 0.87392572E-01 0.15888097E+04</pdfrwt>
<totfact> 0.30262917E+01</totfact>
</mgrwt>
</event>
<event>
12    6  0.1521603E-007  0.1845872E+04  0.7818608E-02  0.8682279E-01
          2   -1    0    0  501    0  0.00000000000E+00  0.00000000000E+00  0.23079892571E+04  0.23079892571E+04  0.00000000000E+00 0. -1.
         -1   -1    0    0    0  501 -0.00000000000E+00 -0.00000000000E+00 -0.36907039470E+03  0.36907039470E+03  0.00000000000E+00 0.  1.
         24    2    1    2    0    0  0.30657985754E+03  0.15871612378E+03 -0.12963019839E+03  0.37717003925E+03  0.79191118014E+02 0.  0.
        254    2    1    2    0    0 -0.30657985754E+03 -0.15871612378E+03  0.20685490608E+04  0.22998896126E+04  0.94414776179E+03 0.  0.
         23    2    4    4    0    0 -0.45769361194E+03  0.22129717685E+03  0.70806424215E+03  0.87623595718E+03  0.89323002284E+02 0.  0.
         23    2    4    4    0    0  0.15111375439E+03 -0.38001330064E+03  0.13604848186E+04  0.14236536554E+04  0.92872565080E+02 0.  0.
          2    1    3    3  502    0 -0.35101557514E+01 -0.27756072544E+01 -0.68143363406E+00  0.45265373993E+01  0.00000000000E+00 0. -1.
         -1    1    3    3    0  502  0.31009001330E+03  0.16149173104E+03 -0.12894876475E+03  0.37264350185E+03  0.00000000000E+00 0.  1.
         11    1    5    5    0    0 -0.28777812995E+03  0.18470289822E+03  0.48575419100E+03  0.59404422964E+03  0.00000000000E+00 0. -1.
        -11    1    5    5    0    0 -0.16991548199E+03  0.36594278635E+02  0.22231005115E+03  0.28219172754E+03  0.00000000000E+00 0.  1.
          1    1    6    6  503    0  0.13443623627E+03 -0.35378098037E+03  0.11447112259E+04  0.12056524683E+04  0.00000000000E+00 0. -1.
         -1    1    6    6    0  503  0.16677518124E+02 -0.26232320269E+02  0.21577359274E+03  0.21800118707E+03  0.00000000000E+00 0.  1.
<mgrwt>
<rscale>  0 0.18458716E+04</rscale>
<asrwt>0</asrwt>
<pdfrwt beam="1">  1        2 0.35507526E+00 0.18458716E+04</pdfrwt>
<pdfrwt beam="2">  1       -1 0.56780062E-01 0.18458716E+04</pdfrwt>
<totfact> 0.15093609E+01</totfact>
</mgrwt>
</event>
<event>
12    6  0.1521603E-007  0.1641976E+04  0.7818608E-02  0.8795167E-01
         -1   -1    0    0    0  501 -0.00000000000E+00  0.00000000000E+00  0.21745073863E+03  0.21745073863E+03  0.00000000000E+00 0.  1.
          2   -1    0    0  501    0  0.00000000000E+00 -0.00000000000E+00 -0.30996513161E+04  0.30996513161E+04  0.00000000000E+00 0. -1.
         24    2    1    2    0    0 -0.52592296845E+03 -0.19563507538E+03 -0.11359040745E+04  0.12694577640E+04  0.79855473743E+02 0.  0.
        254    2    1    2    0    0  0.52592296845E+03  0.19563507538E+03 -0.17462965029E+04  0.20476442907E+04  0.91017998965E+03 0.  0.
         23    2    4    4    0    0  0.64147236661E+03  0.42848017634E+03 -0.11148861458E+04  0.13588166206E+04  0.91265721300E+02 0.  0.
         23    2    4    4    0    0 -0.11554939816E+03 -0.23284510096E+03 -0.63141035717E+03  0.68882767004E+03  0.90752495361E+02 0.  0.
          2    1    3    3  502    0 -0.24363858133E+03 -0.10632800583E+03 -0.62090326920E+03  0.67541562970E+03  0.00000000000E+00 0. -1.
         -1    1    3    3    0  502 -0.28228438712E+03 -0.89307069546E+02 -0.51500080531E+03  0.59404213432E+03  0.00000000000E+00 0.  1.
         11    1    5    5    0    0  0.44696846831E+03  0.30483821926E+03 -0.85137239011E+03  0.10087329172E+04  0.00000000000E+00 0. -1.
        -11    1    5    5    0    0  0.19450389830E+03  0.12364195708E+03 -0.26351375565E+03  0.35008370345E+03  0.00000000000E+00 0.  1.
          2    1    6    6  503    0 -0.13957182904E+02 -0.76147513133E+02 -0.28450811217E+03  0.29485269645E+03  0.00000000000E+00 0. -1.
         -2    1    6    6    0  503 -0.10159221526E+03 -0.15669758783E+03 -0.34690224499E+03  0.39397497359E+03  0.00000000000E+00 0.  1.
<mgrwt>
<rscale>  0 0.16419762E+04</rscale>
<asrwt>0</asrwt>
<pdfrwt beam="1">  1        2 0.47686944E+00 0.16419762E+04</pdfrwt>
<pdfrwt beam="2">  1       -1 0.33453960E-01 0.16419762E+04</pdfrwt>
<totfact> 0.13875211E+01</totfact>
</mgrwt>
</event>
<event>
12    6  0.1521603E-007  0.2154828E+04  0.7818608E-02  0.8537468E-01
         -1   -1    0    0    0  501 -0.00000000000E+00  0.00000000000E+00  0.79464618140E+03  0.79464618140E+03  0.00000000000E+00 0.  1.
          2   -1    0    0  501    0  0.00000000000E+00 -0.00000000000E+00 -0.14608025861E+04  0.14608025861E+04  0.00000000000E+00 0. -1.
         24    2    1    2    0    0  0.34293260548E+03  0.81281525050E+03 -0.37052671457E+03  0.96078939198E+03  0.86918388118E+02 0.  0.
        254    2    1    2    0    0 -0.34293260548E+03 -0.81281525050E+03 -0.29562969014E+03  0.12946593755E+04  0.90026361784E+03 0.  0.
         23    2    4    4    0    0 -0.41495420711E+03 -0.68051303623E+03 -0.55899483352E+03  0.97777461912E+03  0.91010963133E+02 0.  0.
         23    2    4    4    0    0  0.72021601628E+02 -0.13230221427E+03  0.26336514338E+03  0.31688475641E+03  0.91453611721E+02 0.  0.
          4    1    3    3  502    0  0.26946991920E+03  0.62581579528E+03 -0.32440833742E+03  0.75465238114E+03  0.00000000000E+00 0. -1.
         -3    1    3    3    0  502  0.73462686288E+02  0.18699945522E+03 -0.46118377148E+02  0.20613701085E+03  0.00000000000E+00 0.  1.
         11    1    5    5    0    0 -0.80577630959E+02 -0.12950527578E+03 -0.65412401562E+02  0.16596130074E+03  0.00000000000E+00 0. -1.
        -11    1    5    5    0    0 -0.33437657615E+03 -0.55100776045E+03 -0.49358243196E+03  0.81181331838E+03  0.00000000000E+00 0.  1.
          2    1    6    6  503    0  0.45487009825E+02 -0.41651308375E+02  0.37789934332E+02  0.72332417967E+02  0.00000000000E+00 0. -1.
         -2    1    6    6    0  503  0.26534591803E+02 -0.90650905896E+02  0.22557520905E+03  0.24455233844E+03  0.00000000000E+00 0.  1.
<mgrwt>
<rscale>  0 0.21548283E+04</rscale>
<asrwt>0</asrwt>
<pdfrwt beam="1">  1        2 0.22473886E+00 0.21548283E+04</pdfrwt>
<pdfrwt beam="2">  1       -1 0.12225326E+00 0.21548283E+04</pdfrwt>
<totfact> 0.82585454E+00</totfact>
</mgrwt>
</event>
<event>
12    6  0.1521603E-007  0.1361400E+04  0.7818608E-02  0.8982243E-01
         -1   -1    0    0    0  501 -0.00000000000E+00  0.00000000000E+00  0.23943563736E+03  0.23943563736E+03  0.00000000000E+00 0.  1.
          2   -1    0    0  501    0  0.00000000000E+00 -0.00000000000E+00 -0.19351872512E+04  0.19351872512E+04  0.00000000000E+00 0. -1.
         24    2    1    2    0    0 -0.13406505211E+03  0.27283743882E+03 -0.14168553214E+03  0.34456753147E+03  0.78982830477E+02 0.  0.
        254    2    1    2    0    0  0.13406505211E+03 -0.27283743882E+03 -0.15540660817E+04  0.18300553571E+04  0.91736989132E+03 0.  0.
         23    2    4    4    0    0  0.23888787939E+03 -0.14735405685E+02 -0.73725081658E+01  0.25597054599E+03  0.90454493742E+02 0.  0.
         23    2    4    4    0    0 -0.10482282729E+03 -0.25810203313E+03 -0.15466935736E+04  0.15740848111E+04  0.88755267281E+02 0.  0.
          2    1    3    3  502    0  0.13908088642E+00  0.33786476165E+02  0.41576517343E+01  0.34041612521E+02  0.00000000000E+00 0. -1.
         -1    1    3    3    0  502 -0.13420413299E+03  0.23905096265E+03 -0.14584318387E+03  0.31052591895E+03  0.00000000000E+00 0.  1.
         11    1    5    5    0    0  0.26908832198E+02 -0.32691866901E+02 -0.87079312896E+01  0.43228132959E+02  0.00000000000E+00 0. -1.
        -11    1    5    5    0    0  0.21197904719E+03  0.17956461216E+02  0.13354231238E+01  0.21274241303E+03  0.00000000000E+00 0.  1.
          3    1    6    6  503    0 -0.12657468567E+02 -0.15539402519E+02 -0.30026302263E+03  0.30093116705E+03  0.00000000000E+00 0. -1.
         -3    1    6    6    0  503 -0.92165358721E+02 -0.24256263061E+03 -0.12464305509E+04  0.12731536441E+04  0.00000000000E+00 0.  1.
<mgrwt>
<rscale>  0 0.13614004E+04</rscale>
<asrwt>0</asrwt>
<pdfrwt beam="1">  1        2 0.29772111E+00 0.13614004E+04</pdfrwt>
<pdfrwt beam="2">  1       -1 0.36836253E-01 0.13614004E+04</pdfrwt>
<totfact> 0.57142564E+01</totfact>
</mgrwt>
</event>
<event>
12    6  0.1521603E-007  0.1093311E+04  0.7818608E-02  0.9211736E-01
         -1   -1    0    0    0  501 -0.00000000000E+00  0.00000000000E+00  0.23048003441E+03  0.23048003441E+03  0.00000000000E+00 0.  1.
          2   -1    0    0  501    0  0.00000000000E+00 -0.00000000000E+00 -0.12965640930E+04  0.12965640930E+04  0.00000000000E+00 0. -1.
         24    2    1    2    0    0  0.63012290758E+02 -0.28892971518E+02  0.30713289242E+02  0.10911387920E+03  0.78467699771E+02 0.  0.
        254    2    1    2    0    0 -0.63012290758E+02  0.28892971518E+02 -0.10967973478E+04  0.14179302482E+04  0.89596674826E+03 0.  0.
         23    2    4    4    0    0  0.39257636761E+03  0.12835411526E+03 -0.53022081479E+03  0.67818328206E+03  0.90595078906E+02 0.  0.
         23    2    4    4    0    0 -0.45558865837E+03 -0.99461143744E+02 -0.56657653301E+03  0.73974696612E+03  0.93611224643E+02 0.  0.
          4    1    3    3  502    0  0.20895717305E+02  0.23669810247E+02 -0.63931547924E+01  0.32214334496E+02  0.00000000000E+00 0. -1.
         -3    1    3    3    0  502  0.42116573453E+02 -0.52562781764E+02  0.37106444035E+02  0.76899544700E+02  0.00000000000E+00 0.  1.
         11    1    5    5    0    0  0.14181556756E+03  0.37962517788E+02 -0.12323339479E+03  0.19167492677E+03  0.00000000000E+00 0.  1.
        -11    1    5    5    0    0  0.25076080005E+03  0.90391597474E+02 -0.40698742000E+03  0.48650835529E+03  0.00000000000E+00 0. -1.
          4    1    6    6  503    0 -0.45144379239E+03 -0.96603668009E+02 -0.53021042129E+03  0.70303403702E+03  0.00000000000E+00 0. -1.
         -4    1    6    6    0  503 -0.41448659735E+01 -0.28574757346E+01 -0.36366111721E+02  0.36712929102E+02  0.00000000000E+00 0.  1.
<mgrwt>
<rscale>  0 0.10933108E+04</rscale>
<asrwt>0</asrwt>
<pdfrwt beam="1">  1        2 0.19947140E+00 0.10933108E+04</pdfrwt>
<pdfrwt beam="2">  1       -1 0.35458467E-01 0.10933108E+04</pdfrwt>
<totfact> 0.14237520E+02</totfact>
</mgrwt>
</event>
<event>
12    6  0.1521603E-007  0.4742189E+04  0.7818608E-02  0.7869556E-01
          2   -1    0    0  501    0  0.00000000000E+00  0.00000000000E+00  0.23790240985E+04  0.23790240985E+04  0.00000000000E+00 0. -1.
         -1   -1    0    0    0  501 -0.00000000000E+00 -0.00000000000E+00 -0.23631911639E+04  0.23631911639E+04  0.00000000000E+00 0.  1.
         24    2    1    2    0    0  0.45003390104E+02 -0.18087089787E+04 -0.13868894449E+04  0.22810885667E+04  0.80307173906E+02 0.  0.
        254    2    1    2    0    0 -0.45003390104E+02  0.18087089787E+04  0.14027223795E+04  0.24611266956E+04  0.90336098177E+03 0.  0.
         23    2    4    4    0    0 -0.53017821667E+02  0.88174588575E+03  0.12249316944E+04  0.15129821895E+04  0.91491822057E+02 0.  0.
         23    2    4    4    0    0  0.80144315632E+01  0.92696309294E+03  0.17779068513E+03  0.94814450613E+03  0.89686509573E+02 0.  0.
          2    1    3    3  502    0  0.39467216194E+01 -0.61779105980E+03 -0.51968795566E+03  0.80731464835E+03  0.00000000000E+00 0. -1.
         -1    1    3    3    0  502  0.41056668485E+02 -0.11909179189E+04 -0.86720148920E+03  0.14737739184E+04  0.00000000000E+00 0.  1.
         11    1    5    5    0    0 -0.15932166455E+02  0.72384951016E+03  0.96138144488E+03  0.12035224260E+04  0.00000000000E+00 0.  1.
        -11    1    5    5    0    0 -0.37085655213E+02  0.15789637560E+03  0.26355024947E+03  0.30945976353E+03  0.00000000000E+00 0. -1.
          2    1    6    6  503    0 -0.18624431919E+02  0.79185184489E+02  0.32482353379E+02  0.87591473260E+02  0.00000000000E+00 0. -1.
         -2    1    6    6    0  503  0.26638863482E+02  0.84777790845E+03  0.14530833175E+03  0.86055303287E+03  0.00000000000E+00 0.  1.
<mgrwt>
<rscale>  0 0.47421888E+04</rscale>
<asrwt>0</asrwt>
<pdfrwt beam="1">  1        2 0.36600371E+00 0.47421888E+04</pdfrwt>
<pdfrwt beam="2">  1       -1 0.36356787E+00 0.47421888E+04</pdfrwt>
<totfact> 0.43599110E-02</totfact>
</mgrwt>
</event>
<event>
12    6  0.1521603E-007  0.1802273E+04  0.7818608E-02  0.8705092E-01
         -1   -1    0    0    0  501 -0.00000000000E+00  0.00000000000E+00  0.59338130943E+03  0.59338130943E+03  0.00000000000E+00 0.  1.
          2   -1    0    0  501    0  0.00000000000E+00 -0.00000000000E+00 -0.13685077185E+04  0.13685077185E+04  0.00000000000E+00 0. -1.
         24    2    1    2    0    0 -0.24145987231E+02  0.30221351108E+03 -0.98531152963E+03  0.10338517194E+04  0.78067485770E+02 0.  0.
        254    2    1    2    0    0  0.24145987231E+02 -0.30221351108E+03  0.21018512052E+03  0.92803730855E+03  0.85156293144E+03 0.  0.
         23    2    4    4    0    0 -0.13817630919E+03 -0.45800810476E+03  0.39060623995E+03  0.62428819131E+03  0.91095524996E+02 0.  0.
         23    2    4    4    0    0  0.16232229642E+03  0.15579459369E+03 -0.18042111943E+03  0.30374911724E+03  0.95348112466E+02 0.  0.
          2    1    3    3  502    0  0.14854126361E+02  0.58009082575E+02 -0.28318933378E+03  0.28945102780E+03  0.00000000000E+00 0. -1.
         -1    1    3    3    0  502 -0.39000113591E+02  0.24420442850E+03 -0.70212219586E+03  0.74440069161E+03  0.00000000000E+00 0.  1.
         11    1    5    5    0    0 -0.10261724284E+03 -0.24585085206E+03  0.26203218731E+03  0.37367607252E+03  0.00000000000E+00 0.  1.
        -11    1    5    5    0    0 -0.35559066356E+02 -0.21215725270E+03  0.12857405264E+03  0.25061211879E+03  0.00000000000E+00 0. -1.
          4    1    6    6  503    0  0.94767695790E+02  0.13393899859E+03 -0.16160291498E+03  0.23029562228E+03  0.00000000000E+00 0. -1.
         -4    1    6    6    0  503  0.67554600634E+02  0.21855595096E+02 -0.18818204442E+02  0.73453494963E+02  0.00000000000E+00 0.  1.
<mgrwt>
<rscale>  0 0.18022729E+04</rscale>
<asrwt>0</asrwt>
<pdfrwt beam="1">  1        2 0.21053965E+00 0.18022729E+04</pdfrwt>
<pdfrwt beam="2">  1       -1 0.91289433E-01 0.18022729E+04</pdfrwt>
<totfact> 0.18998088E+01</totfact>
</mgrwt>
</event>
<event>
12    6  0.1521603E-007  0.1369209E+04  0.7818608E-02  0.8976413E-01
         -3   -1    0    0    0  501 -0.00000000000E+00  0.00000000000E+00  0.42839621314E+03  0.42839621314E+03  0.00000000000E+00 0.  1.
          4   -1    0    0  501    0  0.00000000000E+00 -0.00000000000E+00 -0.10940414327E+04  0.10940414327E+04  0.00000000000E+00 0. -1.
         24    2    1    2    0    0  0.23573298746E+03 -0.28381175091E+03 -0.92256338661E+02  0.38791430475E+03  0.76466492536E+02 0.  0.
        254    2    1    2    0    0 -0.23573298746E+03  0.28381175091E+03 -0.57338888085E+03  0.11345233410E+04  0.90677960462E+03 0.  0.
         23    2    4    4    0    0 -0.54563227735E+03  0.12575560955E+03 -0.16608534310E+03  0.59121664156E+03  0.91780829415E+02 0.  0.
         23    2    4    4    0    0  0.30989928990E+03  0.15805614136E+03 -0.40730353775E+03  0.54330669948E+03  0.90921307351E+02 0.  0.
          4    1    3    3  502    0  0.42645213524E+02 -0.79166886305E+02 -0.51483049618E+02  0.10361715361E+03  0.00000000000E+00 0. -1.
         -3    1    3    3    0  502  0.19308777393E+03 -0.20464486460E+03 -0.40773289043E+02  0.28429715115E+03  0.00000000000E+00 0.  1.
         11    1    5    5    0    0 -0.39978886075E+03  0.78307725982E+02 -0.16015018630E+03  0.43773429761E+03  0.00000000000E+00 0.  1.
        -11    1    5    5    0    0 -0.14584341660E+03  0.47447883564E+02 -0.59351568027E+01  0.15348234396E+03  0.00000000000E+00 0. -1.
          2    1    6    6  503    0  0.20562544018E+03  0.82582530835E+02 -0.19574408217E+03  0.29566440731E+03  0.00000000000E+00 0.  1.
         -2    1    6    6    0  503  0.10427384972E+03  0.75473610528E+02 -0.21155945558E+03  0.24764229216E+03  0.00000000000E+00 0. -1.
<mgrwt>
<rscale>  0 0.13692088E+04</rscale>
<asrwt>0</asrwt>
<pdfrwt beam="1">  1        4 0.16831406E+00 0.13692088E+04</pdfrwt>
<pdfrwt beam="2">  1       -3 0.65907111E-01 0.13692088E+04</pdfrwt>
<totfact> 0.10776821E+00</totfact>
</mgrwt>
</event>
<event>
12    6  0.1521603E-007  0.1707760E+04  0.7818608E-02  0.8756951E-01
         -1   -1    0    0    0  501 -0.00000000000E+00  0.00000000000E+00  0.37557392463E+03  0.37557392463E+03  0.00000000000E+00 0.  1.
          2   -1    0    0  501    0  0.00000000000E+00 -0.00000000000E+00 -0.19413259640E+04  0.19413259640E+04  0.00000000000E+00 0. -1.
         24    2    1    2    0    0 -0.26319552814E+03  0.22371679118E+03 -0.12716655049E+04  0.13203332581E+04  0.82617597063E+02 0.  0.
        254    2    1    2    0    0  0.26319552814E+03 -0.22371679118E+03 -0.29408653449E+03  0.99656663057E+03  0.88732016246E+03 0.  0.
         23    2    4    4    0    0 -0.13130651588E+03  0.16722969193E+03 -0.36189086669E+03  0.42960796009E+03  0.91601468367E+02 0.  0.
         23    2    4    4    0    0  0.39450204403E+03 -0.39094648311E+03  0.67804332195E+02  0.56695867048E+03  0.91507874911E+02 0.  0.
          4    1    3    3  502    0 -0.23322101469E+03  0.18756646375E+03 -0.11796892932E+04  0.12170620561E+04  0.00000000000E+00 0. -1.
         -3    1    3    3    0  502 -0.29974513452E+02  0.36150327427E+02 -0.91976211685E+02  0.10327120192E+03  0.00000000000E+00 0.  1.
         11    1    5    5    0    0 -0.32075869509E+02  0.10593361856E+03 -0.21706146074E+03  0.24365235620E+03  0.00000000000E+00 0. -1.
        -11    1    5    5    0    0 -0.99230646372E+02  0.61296073375E+02 -0.14482940595E+03  0.18595560389E+03  0.00000000000E+00 0.  1.
          3    1    6    6  503    0  0.15988667251E+02 -0.44406565328E+02 -0.90212752511E+01  0.48051679803E+02  0.00000000000E+00 0. -1.
         -3    1    6    6    0  503  0.37851337677E+03 -0.34653991778E+03  0.76825607446E+02  0.51890699068E+03  0.00000000000E+00 0.  1.
<mgrwt>
<rscale>  0 0.17077604E+04</rscale>
<asrwt>0</asrwt>
<pdfrwt beam="1">  1        2 0.29866553E+00 0.17077604E+04</pdfrwt>
<pdfrwt beam="2">  1       -1 0.57780603E-01 0.17077604E+04</pdfrwt>
<totfact> 0.23670937E+01</totfact>
</mgrwt>
</event>
<event>
12    6  0.1521603E-007  0.2845554E+04  0.7818608E-02  0.8289264E-01
         -1   -1    0    0    0  501 -0.00000000000E+00  0.00000000000E+00  0.78902789675E+03  0.78902789675E+03  0.00000000000E+00 0.  1.
          2   -1    0    0  501    0  0.00000000000E+00 -0.00000000000E+00 -0.25655552230E+04  0.25655552230E+04  0.00000000000E+00 0. -1.
         24    2    1    2    0    0  0.94462534020E+03  0.36611036245E+03 -0.17173982724E+04  0.19957411975E+04  0.84689257925E+02 0.  0.
        254    2    1    2    0    0 -0.94462534020E+03 -0.36611036245E+03 -0.59129053814E+02  0.13588419222E+04  0.90365994367E+03 0.  0.
         23    2    4    4    0    0  0.15490930181E+03 -0.41465055025E+02 -0.94319057826E+02  0.20776911574E+03  0.92496909211E+02 0.  0.
         23    2    4    4    0    0 -0.10995346420E+04 -0.32464530742E+03  0.35190004012E+02  0.11510728065E+04  0.96743293675E+02 0.  0.
          4    1    3    3  502    0  0.82927371847E+03  0.33739200775E+03 -0.15577899122E+04  0.17967297175E+04  0.00000000000E+00 0. -1.
         -3    1    3    3    0  502  0.11535162173E+03  0.28718354693E+02 -0.15960836019E+03  0.19901148001E+03  0.00000000000E+00 0.  1.
         11    1    5    5    0    0  0.13740583690E+02 -0.18752259470E+02 -0.54642239145E+02  0.59382027366E+02  0.00000000000E+00 0. -1.
        -11    1    5    5    0    0  0.14116871812E+03 -0.22712795555E+02 -0.39676818681E+02  0.14838708838E+03  0.00000000000E+00 0.  1.
          3    1    6    6  503    0 -0.26699414786E+03 -0.99744247404E+02  0.45513061565E+02  0.28862818410E+03  0.00000000000E+00 0. -1.
         -3    1    6    6    0  503 -0.83254049414E+03 -0.22490106002E+03 -0.10323057553E+02  0.86244462240E+03  0.00000000000E+00 0.  1.
<mgrwt>
<rscale>  0 0.28455542E+04</rscale>
<asrwt>0</asrwt>
<pdfrwt beam="1">  1        2 0.39470080E+00 0.28455542E+04</pdfrwt>
<pdfrwt beam="2">  1       -1 0.12138891E+00 0.28455542E+04</pdfrwt>
<totfact> 0.18901830E+00</totfact>
</mgrwt>
</event>
<event>
12    6  0.1521603E-007  0.1477104E+04  0.7818608E-02  0.8899823E-01
         -1   -1    0    0    0  501 -0.00000000000E+00  0.00000000000E+00  0.33148518813E+03  0.33148518813E+03  0.00000000000E+00 0.  1.
          2   -1    0    0  501    0  0.00000000000E+00 -0.00000000000E+00 -0.16455014758E+04  0.16455014758E+04  0.00000000000E+00 0. -1.
         24    2    1    2    0    0  0.36659252535E+03 -0.91376813237E+02 -0.19527321145E+03  0.43329854882E+03  0.82922877775E+02 0.  0.
        254    2    1    2    0    0 -0.36659252535E+03  0.91376813237E+02 -0.11187430762E+04  0.15436881151E+04  0.99430735919E+03 0.  0.
         23    2    4    4    0    0  0.17468893284E+03  0.36114433807E+03 -0.25076864098E+03  0.48197078036E+03  0.92029699765E+02 0.  0.
         23    2    4    4    0    0 -0.54128145819E+03 -0.26976752484E+03 -0.86797443525E+03  0.10617173348E+04  0.90021909904E+02 0.  0.
          2    1    3    3  502    0  0.14872196998E+03 -0.11795038902E+02 -0.11313378406E+03  0.18723407915E+03  0.00000000000E+00 0. -1.
         -1    1    3    3    0  502  0.21787055537E+03 -0.79581774335E+02 -0.82139427386E+02  0.24606446967E+03  0.00000000000E+00 0.  1.
         11    1    5    5    0    0  0.13065628568E+03  0.22191774904E+03 -0.20433540397E+03  0.32874231496E+03  0.00000000000E+00 0. -1.
        -11    1    5    5    0    0  0.44032647164E+02  0.13922658903E+03 -0.46433237009E+02  0.15322846540E+03  0.00000000000E+00 0.  1.
          4    1    6    6  503    0 -0.30431457671E+03 -0.10365540470E+03 -0.43384902597E+03  0.53997850129E+03  0.00000000000E+00 0. -1.
         -4    1    6    6    0  503 -0.23696688148E+03 -0.16611212014E+03 -0.43412540928E+03  0.52173883348E+03  0.00000000000E+00 0.  1.
<mgrwt>
<rscale>  0 0.14771044E+04</rscale>
<asrwt>0</asrwt>
<pdfrwt beam="1">  1        2 0.25315407E+00 0.14771044E+04</pdfrwt>
<pdfrwt beam="2">  1       -1 0.50997722E-01 0.14771044E+04</pdfrwt>
<totfact> 0.44822601E+01</totfact>
</mgrwt>
</event>
<event>
12    6  0.1521603E-007  0.1005128E+04  0.7818608E-02  0.9302939E-01
          2   -1    0    0  501    0  0.00000000000E+00  0.00000000000E+00  0.14842769471E+04  0.14842769471E+04  0.00000000000E+00 0. -1.
         -1   -1    0    0    0  501 -0.00000000000E+00 -0.00000000000E+00 -0.17016397019E+03  0.17016397019E+03  0.00000000000E+00 0.  1.
         24    2    1    2    0    0  0.57783771461E+02 -0.43471352224E+02  0.10696990043E+03  0.15146738131E+03  0.79190184332E+02 0.  0.
        254    2    1    2    0    0 -0.57783771461E+02  0.43471352224E+02  0.12071430764E+04  0.15029735359E+04  0.89247202758E+03 0.  0.
         23    2    4    4    0    0  0.10598395398E+02 -0.31920583877E+02 -0.12818640512E+03  0.16078792538E+03  0.91048079768E+02 0.  0.
         23    2    4    4    0    0 -0.68382166859E+02  0.75391936101E+02  0.13353294816E+04  0.13421856106E+04  0.89427759118E+02 0.  0.
          2    1    3    3  502    0  0.11030421469E+02 -0.16559032547E+02  0.93867794996E+02  0.95953294337E+02  0.00000000000E+00 0. -1.
         -1    1    3    3    0  502  0.46753349992E+02 -0.26912319677E+02  0.13102105437E+02  0.55514086976E+02  0.00000000000E+00 0.  1.
         11    1    5    5    0    0  0.93276333977E+01 -0.36038474002E+02 -0.50394346500E+01  0.37565572734E+02  0.00000000000E+00 0. -1.
        -11    1    5    5    0    0  0.12707619999E+01  0.41178901247E+01 -0.12314697047E+03  0.12322235264E+03  0.00000000000E+00 0.  1.
          3    1    6    6  503    0 -0.34330925044E+02 -0.14261326767E+02  0.26981168053E+03  0.27236068146E+03  0.00000000000E+00 0. -1.
         -3    1    6    6    0  503 -0.34051241815E+02  0.89653262868E+02  0.10655178010E+04  0.10698249291E+04  0.00000000000E+00 0.  1.
<mgrwt>
<rscale>  0 0.10051278E+04</rscale>
<asrwt>0</asrwt>
<pdfrwt beam="1">  1        2 0.22835029E+00 0.10051278E+04</pdfrwt>
<pdfrwt beam="2">  1       -1 0.26179073E-01 0.10051278E+04</pdfrwt>
<totfact> 0.19047092E+02</totfact>
</mgrwt>
</event>
<event>
12    6  0.1521603E-007  0.2426572E+04  0.7818608E-02  0.8429622E-01
          2   -1    0    0  501    0  0.00000000000E+00  0.00000000000E+00  0.21795439736E+04  0.21795439736E+04  0.00000000000E+00 0. -1.
         -1   -1    0    0    0  501 -0.00000000000E+00 -0.00000000000E+00 -0.67539925325E+03  0.67539925325E+03  0.00000000000E+00 0.  1.
         24    2    1    2    0    0 -0.59876350265E+03 -0.22075787484E+03 -0.31894643480E+03  0.71783642304E+03  0.79438847884E+02 0.  0.
        254    2    1    2    0    0  0.59876350265E+03  0.22075787484E+03  0.18230911552E+04  0.21371068039E+04  0.91450115340E+03 0.  0.
         23    2    4    4    0    0  0.79405495185E+03  0.51130369476E+02  0.10767292322E+04  0.13417800719E+04  0.88827588675E+02 0.  0.
         23    2    4    4    0    0 -0.19529144920E+03  0.16962750537E+03  0.74636192299E+03  0.79532673201E+03  0.92608044178E+02 0.  0.
          4    1    3    3  502    0 -0.30513808472E+02 -0.17269835725E+02 -0.39144894868E+02  0.52551522601E+02  0.00000000000E+00 0. -1.
         -3    1    3    3    0  502 -0.56824969418E+03 -0.20348803912E+03 -0.27980153993E+03  0.66528490044E+03  0.00000000000E+00 0.  1.
         11    1    5    5    0    0  0.73190842003E+03  0.70237831669E+02  0.97794775922E+03  0.12235216010E+04  0.00000000000E+00 0. -1.
        -11    1    5    5    0    0  0.62146531824E+02 -0.19107462193E+02  0.98781472977E+02  0.11825847087E+03  0.00000000000E+00 0.  1.
          1    1    6    6  503    0 -0.13561203457E+03  0.84834197131E+02  0.33699905200E+03  0.37303595801E+03  0.00000000000E+00 0. -1.
         -1    1    6    6    0  503 -0.59679414626E+02  0.84793308235E+02  0.40936287099E+03  0.42229077399E+03  0.00000000000E+00 0.  1.
<mgrwt>
<rscale>  0 0.24265716E+04</rscale>
<asrwt>0</asrwt>
<pdfrwt beam="1">  1        2 0.33531445E+00 0.24265716E+04</pdfrwt>
<pdfrwt beam="2">  1       -1 0.10390758E+00 0.24265716E+04</pdfrwt>
<totfact> 0.47214947E+00</totfact>
</mgrwt>
</event>
<event>
12    6  0.1521603E-007  0.1351151E+04  0.7818608E-02  0.8989957E-01
          2   -1    0    0  501    0  0.00000000000E+00  0.00000000000E+00  0.16507314160E+04  0.16507314160E+04  0.00000000000E+00 0. -1.
         -1   -1    0    0    0  501 -0.00000000000E+00 -0.00000000000E+00 -0.27648504928E+03  0.27648504928E+03  0.00000000000E+00 0.  1.
         24    2    1    2    0    0 -0.17668813397E+02  0.31977686354E+03  0.66036134536E+03  0.73857950615E+03  0.82783760768E+02 0.  0.
        254    2    1    2    0    0  0.17668813397E+02 -0.31977686354E+03  0.71388502133E+03  0.11886369591E+04  0.89479414808E+03 0.  0.
         23    2    4    4    0    0 -0.38742706628E+03 -0.34461281714E+03  0.32074782029E+03  0.61619815000E+03  0.89237158323E+02 0.  0.
         23    2    4    4    0    0  0.40509587967E+03  0.24835953602E+02  0.39313720103E+03  0.57243880910E+03  0.91705152542E+02 0.  0.
          4    1    3    3  502    0 -0.28600507024E+02  0.10299075179E+03  0.29293456997E+03  0.31182646815E+03  0.00000000000E+00 0. -1.
         -3    1    3    3    0  502  0.10931693627E+02  0.21678611175E+03  0.36742677538E+03  0.42675303800E+03  0.00000000000E+00 0.  1.
         11    1    5    5    0    0 -0.13116847673E+03 -0.17506089438E+03  0.12703085921E+03  0.25295913745E+03  0.00000000000E+00 0.  1.
        -11    1    5    5    0    0 -0.25625858955E+03 -0.16955192276E+03  0.19371696108E+03  0.36323901255E+03  0.00000000000E+00 0. -1.
          2    1    6    6  503    0  0.29866845497E+02  0.84287093984E+00  0.72052288017E+02  0.78001737800E+02  0.00000000000E+00 0. -1.
         -2    1    6    6    0  503  0.37522903418E+03  0.23993082662E+02  0.32108491302E+03  0.49443707130E+03  0.00000000000E+00 0.  1.
<mgrwt>
<rscale>  0 0.13511514E+04</rscale>
<asrwt>0</asrwt>
<pdfrwt beam="1">  1        2 0.25395867E+00 0.13511514E+04</pdfrwt>
<pdfrwt beam="2">  1       -1 0.42536162E-01 0.13511514E+04</pdfrwt>
<totfact> 0.63215442E+01</totfact>
</mgrwt>
</event>
<event>
12    6  0.1521603E-007  0.1233610E+04  0.7818608E-02  0.9083936E-01
          4   -1    0    0  501    0  0.00000000000E+00  0.00000000000E+00  0.38588514129E+03  0.38588514129E+03  0.00000000000E+00 0. -1.
         -3   -1    0    0    0  501 -0.00000000000E+00 -0.00000000000E+00 -0.98591106270E+03  0.98591106270E+03  0.00000000000E+00 0.  1.
         24    2    1    2    0    0  0.99799058956E+01  0.52134674582E+01 -0.50678812535E+03  0.51302872279E+03  0.78977766792E+02 0.  0.
        254    2    1    2    0    0 -0.99799058956E+01 -0.52134674582E+01 -0.93237796061E+02  0.85876748120E+03  0.85361672979E+03 0.  0.
         23    2    4    4    0    0  0.58899657420E+02  0.40600726860E+03  0.87331169384E+01  0.42006402456E+03  0.89813393201E+02 0.  0.
         23    2    4    4    0    0 -0.68879563316E+02 -0.41122073606E+03 -0.10197091300E+03  0.43870345663E+03  0.90640872416E+02 0.  0.
          2    1    3    3  502    0 -0.11469616612E+02 -0.24766343684E+02 -0.77589075885E+02  0.82249550646E+02  0.00000000000E+00 0. -1.
         -1    1    3    3    0  502  0.21449522508E+02  0.29979811143E+02 -0.42919904946E+03  0.43077917214E+03  0.00000000000E+00 0.  1.
         11    1    5    5    0    0  0.37900190585E+02  0.22495955556E+03 -0.39509718248E+02  0.23152590335E+03  0.00000000000E+00 0. -1.
        -11    1    5    5    0    0  0.20999466835E+02  0.18104771304E+03  0.48242835186E+02  0.18853812121E+03  0.00000000000E+00 0.  1.
          3    1    6    6  503    0 -0.41482819182E+02 -0.53895274700E+02 -0.10262118208E+02  0.68781072922E+02  0.00000000000E+00 0. -1.
         -3    1    6    6    0  503 -0.27396744134E+02 -0.35732546136E+03 -0.91708794791E+02  0.36992238371E+03  0.00000000000E+00 0.  1.
<mgrwt>
<rscale>  0 0.12336100E+04</rscale>
<asrwt>0</asrwt>
<pdfrwt beam="1">  1        4 0.59366946E-01 0.12336100E+04</pdfrwt>
<pdfrwt beam="2">  1       -3 0.15167862E+00 0.12336100E+04</pdfrwt>
<totfact> 0.18927985E+00</totfact>
</mgrwt>
</event>
<event>
12    6  0.1521603E-007  0.1880104E+04  0.7818608E-02  0.8664824E-01
          2   -1    0    0  501    0  0.00000000000E+00  0.00000000000E+00  0.19998038662E+04  0.19998038662E+04  0.00000000000E+00 0. -1.
         -1   -1    0    0    0  501 -0.00000000000E+00 -0.00000000000E+00 -0.44189204907E+03  0.44189204907E+03  0.00000000000E+00 0.  1.
         24    2    1    2    0    0  0.21029514058E+03  0.59266812854E+03  0.10561054700E+04  0.12317767411E+04  0.80222311836E+02 0.  0.
        254    2    1    2    0    0 -0.21029514058E+03 -0.59266812854E+03  0.50180634715E+03  0.12099191742E+04  0.90366766092E+03 0.  0.
         23    2    4    4    0    0 -0.19805311811E+03 -0.70450716240E+02  0.62430356507E+03  0.66532299894E+03  0.93334937446E+02 0.  0.
         23    2    4    4    0    0 -0.12242022476E+02 -0.52221741230E+03 -0.12249721792E+03  0.54459617529E+03  0.93373084539E+02 0.  0.
          2    1    3    3  502    0  0.19036487748E+02  0.26619255091E+02  0.90838319756E+02  0.96553471939E+02  0.00000000000E+00 0. -1.
         -1    1    3    3    0  502  0.19125865284E+03  0.56604887345E+03  0.96526715025E+03  0.11352232691E+04  0.00000000000E+00 0.  1.
         11    1    5    5    0    0 -0.20211907740E+03 -0.57770306318E+02  0.53136501661E+03  0.57143530747E+03  0.00000000000E+00 0. -1.
        -11    1    5    5    0    0  0.40659592898E+01 -0.12680409922E+02  0.92938548454E+02  0.93887691470E+02  0.00000000000E+00 0.  1.
          1    1    6    6  503    0  0.18558258499E+02 -0.31545580402E+02 -0.22281469023E+02  0.42848529301E+02  0.00000000000E+00 0. -1.
         -1    1    6    6    0  503 -0.30800280975E+02 -0.49067183190E+03 -0.10021574890E+03  0.50174764599E+03  0.00000000000E+00 0.  1.
<mgrwt>
<rscale>  0 0.18801036E+04</rscale>
<asrwt>0</asrwt>
<pdfrwt beam="1">  1        2 0.30766213E+00 0.18801036E+04</pdfrwt>
<pdfrwt beam="2">  1       -1 0.67983394E-01 0.18801036E+04</pdfrwt>
<totfact> 0.15637716E+01</totfact>
</mgrwt>
</event>
<event>
12    6  0.1521603E-007  0.1703698E+04  0.7818608E-02  0.8759258E-01
         -1   -1    0    0    0  501 -0.00000000000E+00  0.00000000000E+00  0.31476051423E+03  0.31476051423E+03  0.00000000000E+00 0.  1.
          2   -1    0    0  501    0  0.00000000000E+00 -0.00000000000E+00 -0.23053929267E+04  0.23053929267E+04  0.00000000000E+00 0. -1.
         24    2    1    2    0    0 -0.44732259268E+03 -0.29794707555E+03 -0.28183535342E+03  0.61139805074E+03  0.74205446312E+02 0.  0.
        254    2    1    2    0    0  0.44732259268E+03  0.29794707555E+03 -0.17087970590E+04  0.20087553902E+04  0.90897792427E+03 0.  0.
         23    2    4    4    0    0  0.61126249315E+03 -0.53836798041E+02 -0.12853223734E+04  0.14272761662E+04  0.92322341651E+02 0.  0.
         23    2    4    4    0    0 -0.16393990047E+03  0.35178387359E+03 -0.42347468568E+03  0.58147922398E+03  0.90327702416E+02 0.  0.
          2    1    3    3  502    0 -0.29749360585E+01  0.41971808502E+01 -0.17010706442E+01  0.54185065265E+01  0.00000000000E+00 0. -1.
         -1    1    3    3    0  502 -0.44434765662E+03 -0.30214425640E+03 -0.28013428278E+03  0.60597954422E+03  0.00000000000E+00 0.  1.
         11    1    5    5    0    0  0.69655696766E+02 -0.25935707658E+02 -0.10866977024E+03  0.13165749499E+03  0.00000000000E+00 0. -1.
        -11    1    5    5    0    0  0.54160679638E+03 -0.27901090383E+02 -0.11766526031E+04  0.12956186712E+04  0.00000000000E+00 0.  1.
          3    1    6    6  503    0 -0.25210847446E+02  0.12402544956E+03 -0.18224070517E+03  0.22187738413E+03  0.00000000000E+00 0. -1.
         -3    1    6    6    0  503 -0.13872905302E+03  0.22775842404E+03 -0.24123398051E+03  0.35960183985E+03  0.00000000000E+00 0.  1.
<mgrwt>
<rscale>  0 0.17036979E+04</rscale>
<asrwt>0</asrwt>
<pdfrwt beam="1">  1        2 0.35467583E+00 0.17036979E+04</pdfrwt>
<pdfrwt beam="2">  1       -1 0.48424695E-01 0.17036979E+04</pdfrwt>
<totfact> 0.20820082E+01</totfact>
</mgrwt>
</event>
<event>
12    6  0.3068155E-007  0.1761175E+04  0.7818608E-02  0.8727223E-01
         -1   -1    0    0    0  501 -0.00000000000E+00  0.00000000000E+00  0.23727426734E+03  0.23727426734E+03  0.00000000000E+00 0.  1.
          2   -1    0    0  501    0  0.00000000000E+00 -0.00000000000E+00 -0.32680939690E+04  0.32680939690E+04  0.00000000000E+00 0. -1.
         24    2    1    2    0    0  0.31302513255E+03 -0.37041671187E+03 -0.27419994577E+03  0.56633971820E+03  0.10179288833E+03 0.  0.
        254    2    1    2    0    0 -0.31302513255E+03  0.37041671187E+03 -0.27566197559E+04  0.29390285182E+04  0.89651708174E+03 0.  0.
         23    2    4    4    0    0 -0.36542311178E+03  0.54000341072E+03 -0.26076933504E+04  0.26898552876E+04  0.10059385690E+03 0.  0.
         23    2    4    4    0    0  0.52397979233E+02 -0.16958669885E+03 -0.14892640549E+03  0.24917323058E+03  0.91668031139E+02 0.  0.
          2    1    3    3  502    0  0.25846532116E+02 -0.70571955515E+02 -0.14263908034E+02  0.76497733300E+02  0.00000000000E+00 0. -1.
         -1    1    3    3    0  502  0.28717860043E+03 -0.29984475635E+03 -0.25993603774E+03  0.48984198490E+03  0.00000000000E+00 0.  1.
         11    1    5    5    0    0 -0.30170794964E+03  0.43615016998E+03 -0.22613727565E+04  0.23227271474E+04  0.00000000000E+00 0. -1.
        -11    1    5    5    0    0 -0.63715162146E+02  0.10385324075E+03 -0.34632059395E+03  0.36712814016E+03  0.00000000000E+00 0.  1.
          3    1    6    6  503    0  0.71550971024E+02 -0.15658598122E+03 -0.11132309005E+03  0.20501595389E+03  0.00000000000E+00 0. -1.
         -3    1    6    6    0  503 -0.19152991791E+02 -0.13000717629E+02 -0.37603315435E+02  0.44157276695E+02  0.00000000000E+00 0.  1.
<mgrwt>
<rscale>  0 0.17611753E+04</rscale>
<asrwt>0</asrwt>
<pdfrwt beam="1">  1        2 0.50278370E+00 0.17611753E+04</pdfrwt>
<pdfrwt beam="2">  1       -1 0.36503733E-01 0.17611753E+04</pdfrwt>
<totfact> 0.91306054E+00</totfact>
</mgrwt>
</event>
<event>
12    6  0.1521603E-007  0.1767976E+04  0.7818608E-02  0.8723517E-01
         -1   -1    0    0    0  501 -0.00000000000E+00  0.00000000000E+00  0.12527734001E+04  0.12527734001E+04  0.00000000000E+00 0.  1.
          2   -1    0    0  501    0  0.00000000000E+00 -0.00000000000E+00 -0.62376381041E+03  0.62376381041E+03  0.00000000000E+00 0. -1.
         24    2    1    2    0    0 -0.19101255205E+03  0.59754471750E+03  0.56467994692E+02  0.63488505472E+03  0.79654967397E+02 0.  0.
        254    2    1    2    0    0  0.19101255205E+03 -0.59754471750E+03  0.57254159495E+03  0.12416521557E+04  0.90573214221E+03 0.  0.
         23    2    4    4    0    0 -0.34907428225E+03 -0.34099267139E+03  0.24227168101E+03  0.55273488322E+03  0.93227824391E+02 0.  0.
         23    2    4    4    0    0  0.54008683430E+03 -0.25655204612E+03  0.33026991394E+03  0.68891727252E+03  0.89532403953E+02 0.  0.
          2    1    3    3  502    0 -0.62675249376E+01  0.11959320160E+03  0.16923413472E+02  0.12094716888E+03  0.00000000000E+00 0. -1.
         -1    1    3    3    0  502 -0.18474502712E+03  0.47795151591E+03  0.39544581220E+02  0.51393788584E+03  0.00000000000E+00 0.  1.
         11    1    5    5    0    0 -0.22913833099E+03 -0.18940757382E+03  0.18883345060E+03  0.35218982923E+03  0.00000000000E+00 0. -1.
        -11    1    5    5    0    0 -0.11993595126E+03 -0.15158509757E+03  0.53438230404E+02  0.20054505399E+03  0.00000000000E+00 0.  1.
          4    1    6    6  503    0  0.36464073241E+03 -0.16686347301E+03  0.17267048398E+03  0.43660208245E+03  0.00000000000E+00 0. -1.
         -4    1    6    6    0  503  0.17544610190E+03 -0.89688573104E+02  0.15759942996E+03  0.25231519007E+03  0.00000000000E+00 0.  1.
<mgrwt>
<rscale>  0 0.17679759E+04</rscale>
<asrwt>0</asrwt>
<pdfrwt beam="1">  1        2 0.95963663E-01 0.17679759E+04</pdfrwt>
<pdfrwt beam="2">  1       -1 0.19273437E+00 0.17679759E+04</pdfrwt>
<totfact> 0.86445519E+00</totfact>
</mgrwt>
</event>
<event>
12    6  0.1521603E-007  0.1434889E+04  0.7818608E-02  0.8928944E-01
         -1   -1    0    0    0  501 -0.00000000000E+00  0.00000000000E+00  0.46208687269E+03  0.46208687269E+03  0.00000000000E+00 0.  1.
          2   -1    0    0  501    0  0.00000000000E+00 -0.00000000000E+00 -0.11139178758E+04  0.11139178758E+04  0.00000000000E+00 0. -1.
         24    2    1    2    0    0 -0.16659247066E+03 -0.36446418395E+03 -0.15472417383E+02  0.41599279731E+03  0.11055957244E+03 0.  0.
        254    2    1    2    0    0  0.16659247066E+03  0.36446418395E+03 -0.63635858569E+03  0.11600119511E+04  0.88322606650E+03 0.  0.
         23    2    4    4    0    0 -0.23672600996E+03  0.10215092305E+03  0.85910327909E+02  0.28732225240E+03  0.93270989138E+02 0.  0.
         23    2    4    4    0    0  0.40331848062E+03  0.26231326090E+03 -0.72226891360E+03  0.87268969874E+03  0.91874278624E+02 0.  0.
          4    1    3    3  502    0 -0.13917591432E+03 -0.33162601526E+03  0.20313109521E+02  0.36021989332E+03  0.00000000000E+00 0. -1.
         -3    1    3    3    0  502 -0.27416556339E+02 -0.32838168683E+02 -0.35785526904E+02  0.55772903992E+02  0.00000000000E+00 0.  1.
         11    1    5    5    0    0 -0.23787513272E+03  0.92465915626E+02  0.96569995717E+02  0.27287412555E+03  0.00000000000E+00 0. -1.
        -11    1    5    5    0    0  0.11491227645E+01  0.96850074211E+01 -0.10659667808E+02  0.14448126856E+02  0.00000000000E+00 0.  1.
          4    1    6    6  503    0  0.36075260272E+03  0.26397773668E+03 -0.66610259690E+03  0.80219658154E+03  0.00000000000E+00 0. -1.
         -4    1    6    6    0  503  0.42565877895E+02 -0.16644757778E+01 -0.56166316703E+02  0.70493117200E+02  0.00000000000E+00 0.  1.
<mgrwt>
<rscale>  0 0.14348893E+04</rscale>
<asrwt>0</asrwt>
<pdfrwt beam="1">  1        2 0.17137198E+00 0.14348893E+04</pdfrwt>
<pdfrwt beam="2">  1       -1 0.71090288E-01 0.14348893E+04</pdfrwt>
<totfact> 0.47272926E+01</totfact>
</mgrwt>
</event>
<event>
12    6  0.1521603E-007  0.1224071E+04  0.7818608E-02  0.9092044E-01
         -1   -1    0    0    0  501 -0.00000000000E+00  0.00000000000E+00  0.60907842477E+03  0.60907842477E+03  0.00000000000E+00 0.  1.
          2   -1    0    0  501    0  0.00000000000E+00 -0.00000000000E+00 -0.61500721266E+03  0.61500721266E+03  0.00000000000E+00 0. -1.
         24    2    1    2    0    0 -0.99380925580E+02  0.72007384375E+02  0.24024499117E+03  0.28151969089E+03  0.80461474038E+02 0.  0.
        254    2    1    2    0    0  0.99380925580E+02 -0.72007384375E+02 -0.24617377906E+03  0.94256594654E+03  0.90153613478E+03 0.  0.
         23    2    4    4    0    0  0.39805183919E+03 -0.22957607237E+03  0.67446322410E+02  0.47324861209E+03  0.90910960554E+02 0.  0.
         23    2    4    4    0    0 -0.29867091361E+03  0.15756868799E+03 -0.31362010147E+03  0.46931733446E+03  0.88707306936E+02 0.  0.
          4    1    3    3  502    0 -0.48793105030E+02  0.43049800998E+02  0.48626749530E+02  0.81231848645E+02  0.00000000000E+00 0. -1.
         -3    1    3    3    0  502 -0.50587820549E+02  0.28957583377E+02  0.19161824164E+03  0.20028784225E+03  0.00000000000E+00 0.  1.
         11    1    5    5    0    0  0.30437814474E+03 -0.12794687926E+03  0.45230117728E+02  0.33325999229E+03  0.00000000000E+00 0.  1.
        -11    1    5    5    0    0  0.93673694445E+02 -0.10162919311E+03  0.22216204682E+02  0.13998861980E+03  0.00000000000E+00 0. -1.
          1    1    6    6  503    0 -0.13609608413E+02  0.32974286528E+02 -0.17171917897E+02  0.39590400067E+02  0.00000000000E+00 0. -1.
         -1    1    6    6    0  503 -0.28506130520E+03  0.12459440147E+03 -0.29644818357E+03  0.42972693439E+03  0.00000000000E+00 0.  1.
<mgrwt>
<rscale>  0 0.12240713E+04</rscale>
<asrwt>0</asrwt>
<pdfrwt beam="1">  1        2 0.94616494E-01 0.12240713E+04</pdfrwt>
<pdfrwt beam="2">  1       -1 0.93704373E-01 0.12240713E+04</pdfrwt>
<totfact> 0.59866864E+01</totfact>
</mgrwt>
</event>
<event>
12    6  0.1521603E-007  0.2320108E+04  0.7818608E-02  0.8470035E-01
         -1   -1    0    0    0  501 -0.00000000000E+00  0.00000000000E+00  0.60133493449E+03  0.60133493449E+03  0.00000000000E+00 0.  1.
          2   -1    0    0  501    0  0.00000000000E+00 -0.00000000000E+00 -0.22378961255E+04  0.22378961255E+04  0.00000000000E+00 0. -1.
         24    2    1    2    0    0  0.34835542470E+03 -0.76543731098E+03 -0.13244351397E+04  0.15708956551E+04  0.79617465582E+02 0.  0.
        254    2    1    2    0    0 -0.34835542470E+03  0.76543731098E+03 -0.31212605132E+03  0.12683354050E+04  0.89666395522E+03 0.  0.
         23    2    4    4    0    0 -0.38058442276E+03  0.30689044154E+03 -0.55118402910E+03  0.74251144660E+03  0.92158387857E+02 0.  0.
         23    2    4    4    0    0  0.32228998052E+02  0.45854686944E+03  0.23905797777E+03  0.52582395836E+03  0.89655890264E+02 0.  0.
          4    1    3    3  502    0  0.39540544205E+02 -0.14623036431E+03 -0.20551918462E+03  0.25531335517E+03  0.00000000000E+00 0. -1.
         -3    1    3    3    0  502  0.30881488050E+03 -0.61920694666E+03 -0.11189159551E+04  0.13155822999E+04  0.00000000000E+00 0.  1.
         11    1    5    5    0    0 -0.72835164000E+02  0.50451138554E+02 -0.52985011085E+02  0.10323608815E+03  0.00000000000E+00 0. -1.
        -11    1    5    5    0    0 -0.30774925876E+03  0.25643930299E+03 -0.49819901801E+03  0.63927535845E+03  0.00000000000E+00 0.  1.
          3    1    6    6  503    0 -0.32599833685E+01  0.10267860243E+03  0.15049229378E+02  0.10382678938E+03  0.00000000000E+00 0. -1.
         -3    1    6    6    0  503  0.35488981420E+02  0.35586826700E+03  0.22400874839E+03  0.42199716897E+03  0.00000000000E+00 0.  1.
<mgrwt>
<rscale>  0 0.23201079E+04</rscale>
<asrwt>0</asrwt>
<pdfrwt beam="1">  1        2 0.34429171E+00 0.23201079E+04</pdfrwt>
<pdfrwt beam="2">  1       -1 0.92513066E-01 0.23201079E+04</pdfrwt>
<totfact> 0.57522767E+00</totfact>
</mgrwt>
</event>
<event>
12    6  0.1521603E-007  0.1981783E+04  0.7818608E-02  0.8615186E-01
         -1   -1    0    0    0  501 -0.00000000000E+00  0.00000000000E+00  0.24769958256E+03  0.24769958256E+03  0.00000000000E+00 0.  1.
          2   -1    0    0  501    0  0.00000000000E+00 -0.00000000000E+00 -0.39639373621E+04  0.39639373621E+04  0.00000000000E+00 0. -1.
         24    2    1    2    0    0 -0.20553909413E+03  0.47447523752E+03 -0.27157629222E+04  0.27657109399E+04  0.80097959156E+02 0.  0.
        254    2    1    2    0    0  0.20553909413E+03 -0.47447523752E+03 -0.10004748573E+04  0.14459260048E+04  0.90685114596E+03 0.  0.
         23    2    4    4    0    0  0.10905861129E+03 -0.36033523747E+03 -0.11499969467E+04  0.12135864395E+04  0.92540826544E+02 0.  0.
         23    2    4    4    0    0  0.96480482842E+02 -0.11414000005E+03  0.14952208939E+03  0.23233956529E+03  0.96376320750E+02 0.  0.
          2    1    3    3  502    0 -0.15521692487E+03  0.41282574298E+03 -0.23912657843E+04  0.24315981245E+04  0.00000000000E+00 0. -1.
         -1    1    3    3    0  502 -0.50322169262E+02  0.61649494547E+02 -0.32449713786E+03  0.33411281534E+03  0.00000000000E+00 0.  1.
         11    1    5    5    0    0 -0.15395030892E+02 -0.56481245066E+02 -0.14785247350E+03  0.15902041360E+03  0.00000000000E+00 0. -1.
        -11    1    5    5    0    0  0.12445364218E+03 -0.30385399240E+03 -0.10021444732E+04  0.10545660259E+04  0.00000000000E+00 0.  1.
          2    1    6    6  503    0  0.10686781281E+02  0.22025447812E+01 -0.11566442739E+02  0.15900977810E+02  0.00000000000E+00 0. -1.
         -2    1    6    6    0  503  0.85793701561E+02 -0.11634254484E+03  0.16108853213E+03  0.21643858748E+03  0.00000000000E+00 0.  1.
<mgrwt>
<rscale>  0 0.19817827E+04</rscale>
<asrwt>0</asrwt>
<pdfrwt beam="1">  1        2 0.60983653E+00 0.19817827E+04</pdfrwt>
<pdfrwt beam="2">  1       -1 0.38107627E-01 0.19817827E+04</pdfrwt>
<totfact> 0.26049068E+00</totfact>
</mgrwt>
</event>
<event>
12    6  0.1521603E-007  0.1267077E+04  0.7818608E-02  0.9056088E-01
          2   -1    0    0  501    0  0.00000000000E+00  0.00000000000E+00  0.82796391168E+03  0.82796391168E+03  0.00000000000E+00 0. -1.
         -1   -1    0    0    0  501 -0.00000000000E+00 -0.00000000000E+00 -0.48476901580E+03  0.48476901580E+03  0.00000000000E+00 0.  1.
         24    2    1    2    0    0 -0.15582699747E+03  0.73561448013E+02  0.34373560698E+03  0.39266586877E+03  0.79617694112E+02 0.  0.
        254    2    1    2    0    0  0.15582699747E+03 -0.73561448013E+02 -0.54071110252E+00  0.92006705871E+03  0.90378634665E+03 0.  0.
         23    2    4    4    0    0 -0.35009205319E+03 -0.12525771811E+03 -0.92700008051E+02  0.39529690886E+03  0.97017591226E+02 0.  0.
         23    2    4    4    0    0  0.50591905066E+03  0.51696270102E+02  0.92159296949E+02  0.52477014986E+03  0.90905357417E+02 0.  0.
          2    1    3    3  502    0 -0.15512155610E+03  0.45368435619E+02  0.29254988490E+03  0.33422511466E+03  0.00000000000E+00 0. -1.
         -1    1    3    3    0  502 -0.70544136937E+00  0.28193012394E+02  0.51185722087E+02  0.58440754110E+02  0.00000000000E+00 0.  1.
         11    1    5    5    0    0 -0.26658190841E+03 -0.94791499423E+02 -0.11206392424E+03  0.30431836186E+03  0.00000000000E+00 0. -1.
        -11    1    5    5    0    0 -0.83510144780E+02 -0.30466218691E+02  0.19363916188E+02  0.90978546991E+02  0.00000000000E+00 0.  1.
          3    1    6    6  503    0  0.17091344722E+03 -0.22504774613E+02  0.47041835760E+02  0.17869192940E+03  0.00000000000E+00 0. -1.
         -3    1    6    6    0  503  0.33500560344E+03  0.74201044715E+02  0.45117461189E+02  0.34607822046E+03  0.00000000000E+00 0.  1.
<mgrwt>
<rscale>  0 0.12670773E+04</rscale>
<asrwt>0</asrwt>
<pdfrwt beam="1">  1        2 0.12737906E+00 0.12670773E+04</pdfrwt>
<pdfrwt beam="2">  1       -1 0.74579849E-01 0.12670773E+04</pdfrwt>
<totfact> 0.66753508E+01</totfact>
</mgrwt>
</event>
<event>
12    6  0.1521603E-007  0.1284551E+04  0.7818608E-02  0.9041906E-01
          2   -1    0    0  501    0  0.00000000000E+00  0.00000000000E+00  0.13921330553E+04  0.13921330553E+04  0.00000000000E+00 0. -1.
         -1   -1    0    0    0  501 -0.00000000000E+00 -0.00000000000E+00 -0.29632090229E+03  0.29632090229E+03  0.00000000000E+00 0.  1.
         24    2    1    2    0    0 -0.21753476792E+03  0.13474601956E+03  0.31476088166E+02  0.26980476708E+03  0.79536175214E+02 0.  0.
        254    2    1    2    0    0  0.21753476792E+03 -0.13474601956E+03  0.10643360649E+04  0.14186491905E+04  0.90237265128E+03 0.  0.
         23    2    4    4    0    0  0.18655965527E+03  0.36862844489E+03  0.52468334937E+03  0.67458390598E+03  0.95285852846E+02 0.  0.
         23    2    4    4    0    0  0.30975112653E+02 -0.50337446445E+03  0.53965271549E+03  0.74406528454E+03  0.89793013418E+02 0.  0.
          4    1    3    3  502    0 -0.11285230166E+02  0.52510261224E+01 -0.17422651296E+02  0.21412110438E+02  0.00000000000E+00 0. -1.
         -3    1    3    3    0  502 -0.20624953776E+03  0.12949499344E+03  0.48898739461E+02  0.24839265664E+03  0.00000000000E+00 0.  1.
         11    1    5    5    0    0  0.88698900214E+02  0.11045378819E+03  0.23503727781E+03  0.27442677745E+03  0.00000000000E+00 0.  1.
        -11    1    5    5    0    0  0.97860755057E+02  0.25817465670E+03  0.28964607156E+03  0.40015712853E+03  0.00000000000E+00 0. -1.
          1    1    6    6  503    0 -0.21082070880E+02 -0.39528008397E+02  0.58896913887E+02  0.73998402860E+02  0.00000000000E+00 0. -1.
         -1    1    6    6    0  503  0.52057183533E+02 -0.46384645605E+03  0.48075580160E+03  0.67006688168E+03  0.00000000000E+00 0.  1.
<mgrwt>
<rscale>  0 0.12845515E+04</rscale>
<asrwt>0</asrwt>
<pdfrwt beam="1">  1        2 0.21417431E+00 0.12845515E+04</pdfrwt>
<pdfrwt beam="2">  1       -1 0.45587832E-01 0.12845515E+04</pdfrwt>
<totfact> 0.78126955E+01</totfact>
</mgrwt>
</event>
<event>
12    6  0.1521603E-007  0.2092959E+04  0.7818608E-02  0.8564351E-01
         -1   -1    0    0    0  501 -0.00000000000E+00  0.00000000000E+00  0.42586456023E+03  0.42586456023E+03  0.00000000000E+00 0.  1.
          2   -1    0    0  501    0  0.00000000000E+00 -0.00000000000E+00 -0.25715198451E+04  0.25715198451E+04  0.00000000000E+00 0. -1.
         24    2    1    2    0    0  0.13450816684E+03  0.83695446095E+03 -0.80826826242E+03  0.11740238742E+04  0.80307262807E+02 0.  0.
        254    2    1    2    0    0 -0.13450816684E+03 -0.83695446095E+03 -0.13373870224E+04  0.18233605311E+04  0.90413182781E+03 0.  0.
         23    2    4    4    0    0 -0.15208821280E+03 -0.21229620409E+03  0.64489173865E+02  0.28599364661E+03  0.97123682035E+02 0.  0.
         23    2    4    4    0    0  0.17580045963E+02 -0.62465825686E+03 -0.14018761963E+04  0.15373668845E+04  0.87937887186E+02 0.  0.
          4    1    3    3  502    0  0.10025300613E+03  0.70193161377E+03 -0.71095195656E+03  0.10040972762E+04  0.00000000000E+00 0. -1.
         -3    1    3    3    0  502  0.34255160714E+02  0.13502284718E+03 -0.97316305860E+02  0.16992659793E+03  0.00000000000E+00 0.  1.
         11    1    5    5    0    0 -0.11864592263E+03 -0.14438058462E+03  0.88227819620E+02  0.20665613063E+03  0.00000000000E+00 0. -1.
        -11    1    5    5    0    0 -0.33442290172E+02 -0.67915619468E+02 -0.23738645755E+02  0.79337515980E+02  0.00000000000E+00 0.  1.
          2    1    6    6  503    0 -0.33515592957E+02 -0.26217905455E+03 -0.55264804927E+03  0.61260184294E+03  0.00000000000E+00 0. -1.
         -2    1    6    6    0  503  0.51095638920E+02 -0.36247920232E+03 -0.84922814701E+03  0.92476504156E+03  0.00000000000E+00 0.  1.
<mgrwt>
<rscale>  0 0.20929588E+04</rscale>
<asrwt>0</asrwt>
<pdfrwt beam="1">  1        2 0.39561845E+00 0.20929588E+04</pdfrwt>
<pdfrwt beam="2">  1       -1 0.65517623E-01 0.20929588E+04</pdfrwt>
<totfact> 0.78415096E+00</totfact>
</mgrwt>
</event>
<event>
12    6  0.1521603E-007  0.1134200E+04  0.7818608E-02  0.9172485E-01
         -1   -1    0    0    0  501 -0.00000000000E+00  0.00000000000E+00  0.97241569119E+03  0.97241569119E+03  0.00000000000E+00 0.  1.
          2   -1    0    0  501    0  0.00000000000E+00 -0.00000000000E+00 -0.33072506976E+03  0.33072506976E+03  0.00000000000E+00 0. -1.
         24    2    1    2    0    0  0.63116375408E+02 -0.13181871255E+03  0.29966651328E+03  0.34295816286E+03  0.80376815484E+02 0.  0.
        254    2    1    2    0    0 -0.63116375408E+02  0.13181871255E+03  0.34202410816E+03  0.96018259809E+03  0.88521764628E+03 0.  0.
         23    2    4    4    0    0  0.24219087863E+03  0.62006976765E+02  0.52340889075E+03  0.58719478240E+03  0.91321184299E+02 0.  0.
         23    2    4    4    0    0 -0.30530725404E+03  0.69811735788E+02 -0.18138478260E+03  0.37298781568E+03  0.90184663150E+02 0.  0.
          4    1    3    3  502    0  0.14613580249E+01  0.91870737743E+01  0.50901570040E+01  0.10604130805E+02  0.00000000000E+00 0. -1.
         -3    1    3    3    0  502  0.61655017383E+02 -0.14100578633E+03  0.29457635628E+03  0.33235403206E+03  0.00000000000E+00 0.  1.
         11    1    5    5    0    0  0.13813020653E+03  0.60791069755E+02  0.38870435748E+03  0.41697312340E+03  0.00000000000E+00 0.  1.
        -11    1    5    5    0    0  0.10406067210E+03  0.12159070093E+01  0.13470453328E+03  0.17022165900E+03  0.00000000000E+00 0. -1.
          1    1    6    6  503    0 -0.68068585837E+02  0.31960177994E+02 -0.57977712268E+01  0.75421479079E+02  0.00000000000E+00 0. -1.
         -1    1    6    6    0  503 -0.23723866820E+03  0.37851557794E+02 -0.17558701137E+03  0.29756633660E+03  0.00000000000E+00 0.  1.
<mgrwt>
<rscale>  0 0.11341997E+04</rscale>
<asrwt>0</asrwt>
<pdfrwt beam="1">  1        2 0.50880780E-01 0.11341997E+04</pdfrwt>
<pdfrwt beam="2">  1       -1 0.14960241E+00 0.11341997E+04</pdfrwt>
<totfact> 0.39274112E+01</totfact>
</mgrwt>
</event>
<event>
12    6  0.1521603E-007  0.1002046E+04  0.7818608E-02  0.9306304E-01
         -1   -1    0    0    0  501 -0.00000000000E+00  0.00000000000E+00  0.26569598252E+03  0.26569598252E+03  0.00000000000E+00 0.  1.
          2   -1    0    0  501    0  0.00000000000E+00 -0.00000000000E+00 -0.94477856654E+03  0.94477856654E+03  0.00000000000E+00 0. -1.
         24    2    1    2    0    0  0.64932725174E+01 -0.36588593964E+02 -0.11039778734E+03  0.14089197871E+03  0.79259008431E+02 0.  0.
        254    2    1    2    0    0 -0.64932725174E+01  0.36588593964E+02 -0.56868479668E+03  0.10695825704E+04  0.90510971106E+03 0.  0.
         23    2    4    4    0    0 -0.40485580044E+03  0.91921673052E+02 -0.49274469744E+03  0.65046827073E+03  0.89184198384E+02 0.  0.
         23    2    4    4    0    0  0.39836252793E+03 -0.55333079089E+02 -0.75940099235E+02  0.41911429963E+03  0.90196697188E+02 0.  0.
          4    1    3    3  502    0  0.13632577161E+00 -0.34523588476E+02 -0.12238826290E+03  0.12716439612E+03  0.00000000000E+00 0. -1.
         -3    1    3    3    0  502  0.63569467458E+01 -0.20650054875E+01  0.11990475555E+02  0.13727582585E+02  0.00000000000E+00 0.  1.
         11    1    5    5    0    0 -0.32808113903E+03  0.10665273169E+03 -0.42170569249E+03  0.54483734274E+03  0.00000000000E+00 0. -1.
        -11    1    5    5    0    0 -0.76774661412E+02 -0.14731058640E+02 -0.71039004947E+02  0.10563092799E+03  0.00000000000E+00 0.  1.
          2    1    6    6  503    0  0.31981467140E+03 -0.76135018643E+02 -0.43480200788E+02  0.33161497700E+03  0.00000000000E+00 0. -1.
         -2    1    6    6    0  503  0.78547856524E+02  0.20801939554E+02 -0.32459898448E+02  0.87499322632E+02  0.00000000000E+00 0.  1.
<mgrwt>
<rscale>  0 0.10020456E+04</rscale>
<asrwt>0</asrwt>
<pdfrwt beam="1">  1        2 0.14535055E+00 0.10020456E+04</pdfrwt>
<pdfrwt beam="2">  1       -1 0.40876305E-01 0.10020456E+04</pdfrwt>
<totfact> 0.18219800E+02</totfact>
</mgrwt>
</event>
<event>
12    6  0.1521603E-007  0.1221349E+04  0.7818608E-02  0.9094372E-01
          2   -1    0    0  501    0  0.00000000000E+00  0.00000000000E+00  0.21810494873E+04  0.21810494873E+04  0.00000000000E+00 0. -1.
         -1   -1    0    0    0  501 -0.00000000000E+00 -0.00000000000E+00 -0.17098340310E+03  0.17098340310E+03  0.00000000000E+00 0.  1.
         24    2    1    2    0    0 -0.25175023344E+03  0.70157798908E+02  0.66249897084E+03  0.71669595505E+03  0.80298871915E+02 0.  0.
        254    2    1    2    0    0  0.25175023344E+03 -0.70157798908E+02  0.13475671133E+04  0.16353369353E+04  0.88886977130E+03 0.  0.
         23    2    4    4    0    0  0.13198457080E+03  0.14428142435E+03 -0.42680522480E+02  0.22011134941E+03  0.91598705212E+02 0.  0.
         23    2    4    4    0    0  0.11976566264E+03 -0.21443922325E+03  0.13902476358E+04  0.14152255859E+04  0.98726773199E+02 0.  0.
          4    1    3    3  502    0 -0.24105306110E+02  0.12805311952E+02  0.23781030441E+02  0.36201922679E+02  0.00000000000E+00 0. -1.
         -3    1    3    3    0  502 -0.22764492733E+03  0.57352486956E+02  0.63871794040E+03  0.68049403237E+03  0.00000000000E+00 0.  1.
         11    1    5    5    0    0  0.13550993184E+03  0.10843349905E+03 -0.14092350108E+02  0.17412455219E+03  0.00000000000E+00 0. -1.
        -11    1    5    5    0    0 -0.35253610388E+01  0.35847925294E+02 -0.28588172373E+02  0.45986797213E+02  0.00000000000E+00 0.  1.
          2    1    6    6  503    0 -0.61847073279E+01  0.67144016035E+01  0.29425432554E+02  0.30808925243E+02  0.00000000000E+00 0. -1.
         -2    1    6    6    0  503  0.12595036997E+03 -0.22115362486E+03  0.13608222033E+04  0.13844166607E+04  0.00000000000E+00 0.  1.
<mgrwt>
<rscale>  0 0.12213489E+04</rscale>
<asrwt>0</asrwt>
<pdfrwt beam="1">  1        2 0.33554606E+00 0.12213489E+04</pdfrwt>
<pdfrwt beam="2">  1       -1 0.26305140E-01 0.12213489E+04</pdfrwt>
<totfact> 0.76415261E+01</totfact>
</mgrwt>
</event>
<event>
12    6  0.1521603E-007  0.3644060E+04  0.7818608E-02  0.8080473E-01
         -1   -1    0    0    0  501 -0.00000000000E+00  0.00000000000E+00  0.18699424640E+04  0.18699424640E+04  0.00000000000E+00 0.  1.
          2   -1    0    0  501    0  0.00000000000E+00 -0.00000000000E+00 -0.17753449437E+04  0.17753449437E+04  0.00000000000E+00 0. -1.
         24    2    1    2    0    0 -0.14246286563E+04 -0.94551343752E+03 -0.71377108631E+01  0.17128512125E+04  0.10122183818E+03 0.  0.
        254    2    1    2    0    0  0.14246286563E+04  0.94551343752E+03  0.10173523118E+03  0.19324361952E+04  0.89464916171E+03 0.  0.
         23    2    4    4    0    0  0.13486245689E+04  0.59679382820E+03 -0.15245479067E+03  0.14855253226E+04  0.92692609019E+02 0.  0.
         23    2    4    4    0    0  0.76004087402E+02  0.34871960932E+03  0.25419002185E+03  0.44691087262E+03  0.87947561849E+02 0.  0.
          4    1    3    3  502    0 -0.65196273239E+02 -0.29508509355E+02  0.16482405265E+02  0.73436883457E+02  0.00000000000E+00 0. -1.
         -3    1    3    3    0  502 -0.13594323830E+04 -0.91600492817E+03 -0.23620116128E+02  0.16394143291E+04  0.00000000000E+00 0.  1.
         11    1    5    5    0    0  0.96170978231E+03  0.38190310742E+03 -0.92311219226E+02  0.10388729711E+04  0.00000000000E+00 0.  1.
        -11    1    5    5    0    0  0.38691478656E+03  0.21489072078E+03 -0.60143571440E+02  0.44665235152E+03  0.00000000000E+00 0. -1.
          1    1    6    6  503    0  0.93354884697E+02  0.30423401501E+03  0.20611823783E+03  0.37915458371E+03  0.00000000000E+00 0.  1.
         -1    1    6    6    0  503 -0.17350797294E+02  0.44485594311E+02  0.48071784021E+02  0.67756288911E+02  0.00000000000E+00 0. -1.
<mgrwt>
<rscale>  0 0.36440598E+04</rscale>
<asrwt>0</asrwt>
<pdfrwt beam="1">  1        2 0.27312999E+00 0.36440598E+04</pdfrwt>
<pdfrwt beam="2">  1       -1 0.28768346E+00 0.36440598E+04</pdfrwt>
<totfact> 0.32662081E-01</totfact>
</mgrwt>
</event>
<event>
12    6  0.1521603E-007  0.1207914E+04  0.7818608E-02  0.9105958E-01
          2   -1    0    0  501    0  0.00000000000E+00  0.00000000000E+00  0.10736544251E+04  0.10736544251E+04  0.00000000000E+00 0. -1.
         -1   -1    0    0    0  501 -0.00000000000E+00 -0.00000000000E+00 -0.33974041144E+03  0.33974041144E+03  0.00000000000E+00 0.  1.
         24    2    1    2    0    0  0.62225893297E+02 -0.18709279078E+03 -0.41295785113E+02  0.21574935824E+03  0.77244220213E+02 0.  0.
        254    2    1    2    0    0 -0.62225893297E+02  0.18709279078E+03  0.77520979874E+03  0.11976454783E+04  0.89136338571E+03 0.  0.
         23    2    4    4    0    0 -0.30429290410E+03 -0.23243022119E+03  0.20769296076E+03  0.44591926941E+03  0.95339654275E+02 0.  0.
         23    2    4    4    0    0  0.24206701080E+03  0.41952301196E+03  0.56751683799E+03  0.75172620886E+03  0.91765660216E+02 0.  0.
          2    1    3    3  502    0  0.56924525081E+02 -0.15658581682E+03 -0.31811128862E+01  0.16664224874E+03  0.00000000000E+00 0. -1.
         -1    1    3    3    0  502  0.53013682158E+01 -0.30506973957E+02 -0.38114672227E+02  0.49107109505E+02  0.00000000000E+00 0.  1.
         11    1    5    5    0    0 -0.37942281660E+02 -0.11534373745E+02  0.54729503742E+02  0.67586811547E+02  0.00000000000E+00 0.  1.
        -11    1    5    5    0    0 -0.26635062244E+03 -0.22089584744E+03  0.15296345701E+03  0.37833245786E+03  0.00000000000E+00 0. -1.
          2    1    6    6  503    0  0.98340667966E+01  0.25002850342E+02  0.73248250047E+02  0.78020237951E+02  0.00000000000E+00 0.  1.
         -2    1    6    6    0  503  0.23223294401E+03  0.39452016162E+03  0.49426858794E+03  0.67370597091E+03  0.00000000000E+00 0. -1.
<mgrwt>
<rscale>  0 0.12079136E+04</rscale>
<asrwt>0</asrwt>
<pdfrwt beam="1">  1        2 0.16517760E+00 0.12079136E+04</pdfrwt>
<pdfrwt beam="2">  1       -1 0.52267756E-01 0.12079136E+04</pdfrwt>
<totfact> 0.93790941E+01</totfact>
</mgrwt>
</event>
<event>
12    6  0.1521603E-007  0.1362580E+04  0.7818608E-02  0.8981360E-01
         -1   -1    0    0    0  501 -0.00000000000E+00  0.00000000000E+00  0.35152550939E+03  0.35152550939E+03  0.00000000000E+00 0.  1.
          2   -1    0    0  501    0  0.00000000000E+00 -0.00000000000E+00 -0.13204045168E+04  0.13204045168E+04  0.00000000000E+00 0. -1.
         24    2    1    2    0    0  0.81831793730E+02  0.81118020967E+02  0.16727073517E+03  0.21777742505E+03  0.78555281345E+02 0.  0.
        254    2    1    2    0    0 -0.81831793730E+02 -0.81118020967E+02 -0.11361497426E+04  0.14541526012E+04  0.90024828467E+03 0.  0.
         23    2    4    4    0    0 -0.27413307060E+03 -0.39459436438E+03 -0.42637030930E+03  0.64876080650E+03  0.90803582573E+02 0.  0.
         23    2    4    4    0    0  0.19230127687E+03  0.31347634341E+03 -0.70977943332E+03  0.80539179467E+03  0.98091283953E+02 0.  0.
          2    1    3    3  502    0 -0.10947921968E+02  0.22764550838E+02  0.12652941012E+02  0.28252056324E+02  0.00000000000E+00 0. -1.
         -1    1    3    3    0  502  0.92779715697E+02  0.58353470128E+02  0.15461779416E+03  0.18952536873E+03  0.00000000000E+00 0.  1.
         11    1    5    5    0    0 -0.10042924178E+03 -0.19166018414E+03 -0.14316504301E+03  0.25945305612E+03  0.00000000000E+00 0. -1.
        -11    1    5    5    0    0 -0.17370382882E+03 -0.20293418024E+03 -0.28320526629E+03  0.38930775038E+03  0.00000000000E+00 0.  1.
          3    1    6    6  503    0  0.72712517754E+02  0.12698233011E+03 -0.38840898899E+03  0.41505802621E+03  0.00000000000E+00 0. -1.
         -3    1    6    6    0  503  0.11958875912E+03  0.18649401330E+03 -0.32137044433E+03  0.39033376845E+03  0.00000000000E+00 0.  1.
<mgrwt>
<rscale>  0 0.13625797E+04</rscale>
<asrwt>0</asrwt>
<pdfrwt beam="1">  1        2 0.20313916E+00 0.13625797E+04</pdfrwt>
<pdfrwt beam="2">  1       -1 0.54080847E-01 0.13625797E+04</pdfrwt>
<totfact> 0.61759980E+01</totfact>
</mgrwt>
</event>
<event>
12    6  0.1521603E-007  0.1196149E+04  0.7818608E-02  0.9116234E-01
          2   -1    0    0  501    0  0.00000000000E+00  0.00000000000E+00  0.16667711436E+04  0.16667711436E+04  0.00000000000E+00 0. -1.
         -1   -1    0    0    0  501 -0.00000000000E+00 -0.00000000000E+00 -0.21460251845E+03  0.21460251845E+03  0.00000000000E+00 0.  1.
         24    2    1    2    0    0 -0.75822226406E+02 -0.14307725914E+03  0.17073306528E+02  0.18072928527E+03  0.78431273462E+02 0.  0.
        254    2    1    2    0    0  0.75822226406E+02  0.14307725914E+03  0.14350953186E+04  0.17006443768E+04  0.89803820111E+03 0.  0.
         23    2    4    4    0    0 -0.33971354369E+03  0.26794052550E+03  0.92264573924E+03  0.10232405565E+04  0.92458960348E+02 0.  0.
         23    2    4    4    0    0  0.41553577010E+03 -0.12486326636E+03  0.51244957939E+03  0.67740382030E+03  0.89501691708E+02 0.  0.
          4    1    3    3  502    0  0.82723826211E+01 -0.37367274981E+02  0.24505783268E+02  0.45445340436E+02  0.00000000000E+00 0. -1.
         -3    1    3    3    0  502 -0.84094609027E+02 -0.10570998416E+03 -0.74324767408E+01  0.13528394483E+03  0.00000000000E+00 0.  1.
         11    1    5    5    0    0 -0.61218230363E+02  0.73131887185E+02  0.28710154120E+03  0.30252808070E+03  0.00000000000E+00 0. -1.
        -11    1    5    5    0    0 -0.27849531333E+03  0.19480863832E+03  0.63554419805E+03  0.72071247580E+03  0.00000000000E+00 0.  1.
          4    1    6    6  503    0  0.46863242827E+02 -0.45892442243E+02  0.86469247192E+02  0.10853207127E+03  0.00000000000E+00 0. -1.
         -4    1    6    6    0  503  0.36867252727E+03 -0.78970824116E+02  0.42598033220E+03  0.56887174903E+03  0.00000000000E+00 0.  1.
<mgrwt>
<rscale>  0 0.11961493E+04</rscale>
<asrwt>0</asrwt>
<pdfrwt beam="1">  1        2 0.25642632E+00 0.11961493E+04</pdfrwt>
<pdfrwt beam="2">  1       -1 0.33015773E-01 0.11961493E+04</pdfrwt>
<totfact> 0.99099323E+01</totfact>
</mgrwt>
</event>
<event>
12    6  0.1521603E-007  0.3616617E+04  0.7818608E-02  0.8086696E-01
         -1   -1    0    0    0  501 -0.00000000000E+00  0.00000000000E+00  0.10511950957E+04  0.10511950957E+04  0.00000000000E+00 0.  1.
          2   -1    0    0  501    0  0.00000000000E+00 -0.00000000000E+00 -0.31107252047E+04  0.31107252047E+04  0.00000000000E+00 0. -1.
         24    2    1    2    0    0 -0.51340983336E+03  0.13080899370E+04  0.12421230140E+03  0.14130645071E+04  0.81447314412E+02 0.  0.
        254    2    1    2    0    0  0.51340983336E+03 -0.13080899370E+04 -0.21837424104E+04  0.27488557933E+04  0.90154773410E+03 0.  0.
         23    2    4    4    0    0 -0.22459994920E+03 -0.23497303295E+03 -0.66181006828E+03  0.74326954724E+03  0.93806129708E+02 0.  0.
         23    2    4    4    0    0  0.73800978256E+03 -0.10731169041E+04 -0.15219323421E+04  0.20055862460E+04  0.99296562499E+02 0.  0.
          4    1    3    3  502    0 -0.12757633692E+03  0.37047105625E+03  0.20290095210E+01  0.39182731163E+03  0.00000000000E+00 0. -1.
         -3    1    3    3    0  502 -0.38583349644E+03  0.93761888078E+03  0.12218329188E+03  0.10212371955E+04  0.00000000000E+00 0.  1.
         11    1    5    5    0    0 -0.33488107607E+02 -0.80745222499E+02 -0.12060482907E+03  0.14895223765E+03  0.00000000000E+00 0. -1.
        -11    1    5    5    0    0 -0.19111184160E+03 -0.15422781046E+03 -0.54120523922E+03  0.59431730958E+03  0.00000000000E+00 0.  1.
          3    1    6    6  503    0  0.17913218381E+02 -0.13830360854E+02 -0.12207628927E+02  0.25713585479E+02  0.00000000000E+00 0. -1.
         -3    1    6    6    0  503  0.72009656418E+03 -0.10592865432E+04 -0.15097247132E+04  0.19798726605E+04  0.00000000000E+00 0.  1.
<mgrwt>
<rscale>  0 0.36166167E+04</rscale>
<asrwt>0</asrwt>
<pdfrwt beam="1">  1        2 0.47857310E+00 0.36166167E+04</pdfrwt>
<pdfrwt beam="2">  1       -1 0.16172233E+00 0.36166167E+04</pdfrwt>
<totfact> 0.38788799E-01</totfact>
</mgrwt>
</event>
<event>
12    6  0.1521603E-007  0.1998268E+04  0.7818608E-02  0.8607431E-01
          2   -1    0    0  501    0  0.00000000000E+00  0.00000000000E+00  0.30738472045E+04  0.30738472045E+04  0.00000000000E+00 0. -1.
         -1   -1    0    0    0  501 -0.00000000000E+00 -0.00000000000E+00 -0.32476192634E+03  0.32476192634E+03  0.00000000000E+00 0.  1.
         24    2    1    2    0    0 -0.34840617837E+02 -0.80439973616E+03  0.10225599766E+04  0.13039572388E+04  0.80017315156E+02 0.  0.
        254    2    1    2    0    0  0.34840617837E+02  0.80439973616E+03  0.17265253016E+04  0.20946518921E+04  0.87086401216E+03 0.  0.
         23    2    4    4    0    0 -0.25467564583E+03  0.76192648275E+03  0.88511332513E+03  0.11984963274E+04  0.87041362713E+02 0.  0.
         23    2    4    4    0    0  0.28951626366E+03  0.42473253412E+02  0.84141197648E+03  0.89615556465E+03  0.97452746025E+02 0.  0.
          4    1    3    3  502    0 -0.57511280239E+02 -0.62295139651E+03  0.81286566785E+03  0.10257322183E+04  0.00000000000E+00 0. -1.
         -3    1    3    3    0  502  0.22670662402E+02 -0.18144833965E+03  0.20969430871E+03  0.27822502045E+03  0.00000000000E+00 0.  1.
         11    1    5    5    0    0 -0.19729368842E+03  0.60162408480E+03  0.64197096697E+03  0.90166682390E+03  0.00000000000E+00 0. -1.
        -11    1    5    5    0    0 -0.57381957411E+02  0.16030239796E+03  0.24314235816E+03  0.29682950352E+03  0.00000000000E+00 0.  1.
          1    1    6    6  503    0  0.28996647720E+03  0.37127770748E+02  0.75564823381E+03  0.81022421744E+03  0.00000000000E+00 0. -1.
         -1    1    6    6    0  503 -0.45021353616E+00  0.53454826637E+01  0.85763742670E+02  0.85931347214E+02  0.00000000000E+00 0.  1.
<mgrwt>
<rscale>  0 0.19982678E+04</rscale>
<asrwt>0</asrwt>
<pdfrwt beam="1">  1        2 0.47289955E+00 0.19982678E+04</pdfrwt>
<pdfrwt beam="2">  1       -1 0.49963375E-01 0.19982678E+04</pdfrwt>
<totfact> 0.66664246E+00</totfact>
</mgrwt>
</event>
<event>
12    6  0.1521603E-007  0.3151655E+04  0.7818608E-02  0.8201703E-01
          2   -1    0    0  501    0  0.00000000000E+00  0.00000000000E+00  0.22662351111E+04  0.22662351111E+04  0.00000000000E+00 0. -1.
         -1   -1    0    0    0  501 -0.00000000000E+00 -0.00000000000E+00 -0.10957523966E+04  0.10957523966E+04  0.00000000000E+00 0.  1.
         24    2    1    2    0    0  0.10278238951E+04 -0.59490770675E+03  0.14212394753E+04  0.18537011359E+04  0.77130514078E+02 0.  0.
        254    2    1    2    0    0 -0.10278238951E+04  0.59490770675E+03 -0.25075676083E+03  0.15082863718E+04  0.89538354192E+03 0.  0.
         23    2    4    4    0    0 -0.91489683287E+03  0.13948825702E+03 -0.39238004288E+03  0.10098707462E+04  0.96869176261E+02 0.  0.
         23    2    4    4    0    0 -0.11292706227E+03  0.45541944974E+03  0.14162328205E+03  0.49841562557E+03  0.90562603774E+02 0.  0.
          4    1    3    3  502    0  0.89096593359E+03 -0.51192109748E+03  0.11867497951E+04  0.15697957131E+04  0.00000000000E+00 0. -1.
         -3    1    3    3    0  502  0.13685796155E+03 -0.82986609274E+02  0.23448968021E+03  0.28390542278E+03  0.00000000000E+00 0.  1.
         11    1    5    5    0    0 -0.37784300894E+03  0.10090282550E+03 -0.14201523806E+03  0.41607096443E+03  0.00000000000E+00 0.  1.
        -11    1    5    5    0    0 -0.53705382393E+03  0.38585431517E+02 -0.25036480482E+03  0.59379978176E+03  0.00000000000E+00 0. -1.
          3    1    6    6  503    0 -0.12476649262E+03  0.44310896106E+03  0.14048233103E+03  0.48129773985E+03  0.00000000000E+00 0. -1.
         -3    1    6    6    0  503  0.11839430344E+02  0.12310488675E+02  0.11409510171E+01  0.17117885719E+02  0.00000000000E+00 0.  1.
<mgrwt>
<rscale>  0 0.31516552E+04</rscale>
<asrwt>0</asrwt>
<pdfrwt beam="1">  1        2 0.34865155E+00 0.31516552E+04</pdfrwt>
<pdfrwt beam="2">  1       -1 0.16857729E+00 0.31516552E+04</pdfrwt>
<totfact> 0.11478549E+00</totfact>
</mgrwt>
</event>
<event>
12    6  0.1521603E-007  0.1165455E+04  0.7818608E-02  0.9143643E-01
          2   -1    0    0  501    0  0.00000000000E+00  0.00000000000E+00  0.10590350263E+04  0.10590350263E+04  0.00000000000E+00 0. -1.
         -1   -1    0    0    0  501 -0.00000000000E+00 -0.00000000000E+00 -0.32064204175E+03  0.32064204175E+03  0.00000000000E+00 0.  1.
         24    2    1    2    0    0 -0.10325682539E+03  0.46711929769E+02 -0.74544481457E+02  0.15673189310E+03  0.78511338208E+02 0.  0.
        254    2    1    2    0    0  0.10325682539E+03 -0.46711929769E+02  0.81293746606E+03  0.12229451750E+04  0.90657796187E+03 0.  0.
         23    2    4    4    0    0 -0.20930014853E+03  0.32053977971E+03  0.21091772358E+03  0.44618575229E+03  0.89683537366E+02 0.  0.
         23    2    4    4    0    0  0.31255697392E+03 -0.36725170948E+03  0.60201974247E+03  0.77675942271E+03  0.91442607059E+02 0.  0.
          2    1    3    3  502    0 -0.65574126862E+01 -0.19446211566E+02 -0.14053079918E+02  0.24872552354E+02  0.00000000000E+00 0. -1.
         -1    1    3    3    0  502 -0.96699412706E+02  0.66158141336E+02 -0.60491401539E+02  0.13185934075E+03  0.00000000000E+00 0.  1.
         11    1    5    5    0    0 -0.20141517479E+03  0.30554349581E+03  0.17327610773E+03  0.40490679172E+03  0.00000000000E+00 0. -1.
        -11    1    5    5    0    0 -0.78849737321E+01  0.14996283891E+02  0.37641615852E+02  0.41278960564E+02  0.00000000000E+00 0.  1.
          3    1    6    6  503    0  0.22395168244E+03 -0.30787972074E+03  0.42964224127E+03  0.57405290174E+03  0.00000000000E+00 0. -1.
         -3    1    6    6    0  503  0.88605291473E+02 -0.59371988740E+02  0.17237750121E+03  0.20270652097E+03  0.00000000000E+00 0.  1.
<mgrwt>
<rscale>  0 0.11654547E+04</rscale>
<asrwt>0</asrwt>
<pdfrwt beam="1">  1        2 0.16292846E+00 0.11654547E+04</pdfrwt>
<pdfrwt beam="2">  1       -1 0.49329546E-01 0.11654547E+04</pdfrwt>
<totfact> 0.10727247E+02</totfact>
</mgrwt>
</event>
<event>
12    6  0.1521603E-007  0.2085486E+04  0.7818608E-02  0.8567664E-01
         -1   -1    0    0    0  501 -0.00000000000E+00  0.00000000000E+00  0.47247776018E+03  0.47247776018E+03  0.00000000000E+00 0.  1.
          2   -1    0    0  501    0  0.00000000000E+00 -0.00000000000E+00 -0.23012987395E+04  0.23012987395E+04  0.00000000000E+00 0. -1.
         24    2    1    2    0    0  0.63639698825E+03  0.20266177903E+03 -0.14068421207E+04  0.15593199717E+04  0.78747052679E+02 0.  0.
        254    2    1    2    0    0 -0.63639698825E+03 -0.20266177903E+03 -0.42197885861E+03  0.12144565279E+04  0.92236954516E+03 0.  0.
         23    2    4    4    0    0 -0.48628668967E+03  0.28466870729E+03 -0.42605765084E+02  0.57234032962E+03  0.90814008973E+02 0.  0.
         23    2    4    4    0    0 -0.15011029858E+03 -0.48733048632E+03 -0.37937309353E+03  0.64211619833E+03  0.91461267370E+02 0.  0.
          4    1    3    3  502    0  0.54557350475E+03  0.19619045695E+03 -0.11754629420E+04  0.13106693986E+04  0.00000000000E+00 0. -1.
         -3    1    3    3    0  502  0.90823483504E+02  0.64713220794E+01 -0.23137917872E+03  0.24865057311E+03  0.00000000000E+00 0.  1.
         11    1    5    5    0    0 -0.27058106063E+02 -0.11932844604E+00  0.11236683664E+02  0.29298778178E+02  0.00000000000E+00 0.  1.
        -11    1    5    5    0    0 -0.45922858361E+03  0.28478803574E+03 -0.53842448748E+02  0.54304155144E+03  0.00000000000E+00 0. -1.
          1    1    6    6  503    0 -0.79855058565E+02 -0.38931153000E+03 -0.28728328107E+03  0.49037942590E+03  0.00000000000E+00 0. -1.
         -1    1    6    6    0  503 -0.70255240014E+02 -0.98018956325E+02 -0.92089812459E+02  0.15173677243E+03  0.00000000000E+00 0.  1.
<mgrwt>
<rscale>  0 0.20854855E+04</rscale>
<asrwt>0</asrwt>
<pdfrwt beam="1">  1        2 0.35404595E+00 0.20854855E+04</pdfrwt>
<pdfrwt beam="2">  1       -1 0.72688888E-01 0.20854855E+04</pdfrwt>
<totfact> 0.90720050E+00</totfact>
</mgrwt>
</event>
<event>
12    6  0.1521603E-007  0.1235526E+04  0.7818608E-02  0.9082316E-01
         -1   -1    0    0    0  501 -0.00000000000E+00  0.00000000000E+00  0.34314152061E+03  0.34314152061E+03  0.00000000000E+00 0.  1.
          2   -1    0    0  501    0  0.00000000000E+00 -0.00000000000E+00 -0.11121687613E+04  0.11121687613E+04  0.00000000000E+00 0. -1.
         24    2    1    2    0    0  0.45914332455E+02 -0.22023624583E+03  0.13508804660E+02  0.23939539216E+03  0.80718870659E+02 0.  0.
        254    2    1    2    0    0 -0.45914332455E+02  0.22023624583E+03 -0.78253604535E+03  0.12159148898E+04  0.90303611609E+03 0.  0.
         23    2    4    4    0    0 -0.15767645034E+03 -0.27624510060E+03 -0.74387610707E+02  0.33937251569E+03  0.92016135463E+02 0.  0.
         23    2    4    4    0    0  0.11176211788E+03  0.49648134643E+03 -0.70814843465E+03  0.87654237407E+03  0.88700787479E+02 0.  0.
          4    1    3    3  502    0  0.16479437744E+02 -0.98127305433E+02 -0.33932360307E+02  0.10512823130E+03  0.00000000000E+00 0. -1.
         -3    1    3    3    0  502  0.29434894711E+02 -0.12210894040E+03  0.47441164967E+02  0.13426716086E+03  0.00000000000E+00 0.  1.
         11    1    5    5    0    0 -0.30833749559E+02 -0.12654849629E+02 -0.27304517931E+02  0.43085984153E+02  0.00000000000E+00 0. -1.
        -11    1    5    5    0    0 -0.12684270078E+03 -0.26359025097E+03 -0.47083092776E+02  0.29628653154E+03  0.00000000000E+00 0.  1.
          2    1    6    6  503    0  0.74220056086E+02  0.17674109615E+03 -0.22006417233E+03  0.29184631527E+03  0.00000000000E+00 0. -1.
         -2    1    6    6    0  503  0.37542061797E+02  0.31974025028E+03 -0.48808426232E+03  0.58469605880E+03  0.00000000000E+00 0.  1.
<mgrwt>
<rscale>  0 0.12355263E+04</rscale>
<asrwt>0</asrwt>
<pdfrwt beam="1">  1        2 0.17110289E+00 0.12355263E+04</pdfrwt>
<pdfrwt beam="2">  1       -1 0.52791003E-01 0.12355263E+04</pdfrwt>
<totfact> 0.86926642E+01</totfact>
</mgrwt>
</event>
<event>
12    6  0.1521603E-007  0.1591399E+04  0.7818608E-02  0.8825849E-01
         -1   -1    0    0    0  501 -0.00000000000E+00  0.00000000000E+00  0.44686267103E+03  0.44686267103E+03  0.00000000000E+00 0.  1.
          2   -1    0    0  501    0  0.00000000000E+00 -0.00000000000E+00 -0.14168506761E+04  0.14168506761E+04  0.00000000000E+00 0. -1.
         24    2    1    2    0    0 -0.53080778737E+03 -0.16274075807E+02 -0.43731754866E+03  0.69228710507E+03  0.77414758281E+02 0.  0.
        254    2    1    2    0    0  0.53080778737E+03  0.16274075807E+02 -0.53267045640E+03  0.11714262421E+04  0.89804224443E+03 0.  0.
         23    2    4    4    0    0 -0.96659779007E+02 -0.36738080636E+02  0.17428158012E+03  0.22106632095E+03  0.88337136265E+02 0.  0.
         23    2    4    4    0    0  0.62746756637E+03  0.53012156442E+02 -0.70695203652E+03  0.95035992110E+03  0.82927450887E+02 0.  0.
          4    1    3    3  502    0 -0.42800887371E+03 -0.33895127766E+02 -0.32115728159E+03  0.53617392251E+03  0.00000000000E+00 0. -1.
         -3    1    3    3    0  502 -0.10279891365E+03  0.17621051960E+02 -0.11616026708E+03  0.15611318256E+03  0.00000000000E+00 0.  1.
         11    1    5    5    0    0 -0.81622798321E+02 -0.17710836551E+01  0.62020291282E+02  0.10252772539E+03  0.00000000000E+00 0.  1.
        -11    1    5    5    0    0 -0.15036980686E+02 -0.34966996980E+02  0.11226128884E+03  0.11853859556E+03  0.00000000000E+00 0. -1.
          4    1    6    6  503    0  0.38054758655E+03  0.42721600349E+02 -0.48697267635E+03  0.61950301717E+03  0.00000000000E+00 0. -1.
         -4    1    6    6    0  503  0.24691997982E+03  0.10290556094E+02 -0.21997936018E+03  0.33085690394E+03  0.00000000000E+00 0.  1.
<mgrwt>
<rscale>  0 0.15913990E+04</rscale>
<asrwt>0</asrwt>
<pdfrwt beam="1">  1        2 0.21797702E+00 0.15913990E+04</pdfrwt>
<pdfrwt beam="2">  1       -1 0.68748105E-01 0.15913990E+04</pdfrwt>
<totfact> 0.33138852E+01</totfact>
</mgrwt>
</event>
<event>
12    6  0.1521603E-007  0.1779101E+04  0.7818608E-02  0.8717493E-01
          2   -1    0    0  501    0  0.00000000000E+00  0.00000000000E+00  0.21850606365E+04  0.21850606365E+04  0.00000000000E+00 0. -1.
         -1   -1    0    0    0  501 -0.00000000000E+00 -0.00000000000E+00 -0.36214088416E+03  0.36214088416E+03  0.00000000000E+00 0.  1.
         24    2    1    2    0    0  0.35945432973E+02  0.45198807414E+02 -0.25670332994E+03  0.27503803391E+03  0.80089413487E+02 0.  0.
        254    2    1    2    0    0 -0.35945432973E+02 -0.45198807414E+02  0.20796230823E+04  0.22721634868E+04  0.91354241271E+03 0.  0.
         23    2    4    4    0    0  0.33074731626E+03 -0.30230495390E+03  0.10777060946E+04  0.11706127011E+04  0.90008872669E+02 0.  0.
         23    2    4    4    0    0 -0.36669274923E+03  0.25710614649E+03  0.10019169877E+04  0.11015507857E+04  0.94917545087E+02 0.  0.
          4    1    3    3  502    0 -0.12573282760E+02  0.48180992318E+02 -0.11858786920E+03  0.12861795435E+03  0.00000000000E+00 0. -1.
         -3    1    3    3    0  502  0.48518715733E+02 -0.29821849035E+01 -0.13811546074E+03  0.14642007956E+03  0.00000000000E+00 0.  1.
         11    1    5    5    0    0  0.13944911220E+03 -0.18836794436E+03  0.55679470247E+03  0.60410998837E+03  0.00000000000E+00 0. -1.
        -11    1    5    5    0    0  0.19129820406E+03 -0.11393700954E+03  0.52091139216E+03  0.56650271270E+03  0.00000000000E+00 0.  1.
          3    1    6    6  503    0 -0.35390385846E+03  0.26310693726E+03  0.98683025108E+03  0.10808825773E+04  0.00000000000E+00 0. -1.
         -3    1    6    6    0  503 -0.12788890770E+02 -0.60007907762E+01  0.15086736616E+02  0.20668208408E+02  0.00000000000E+00 0.  1.
<mgrwt>
<rscale>  0 0.17791007E+04</rscale>
<asrwt>0</asrwt>
<pdfrwt beam="1">  1        2 0.33616317E+00 0.17791007E+04</pdfrwt>
<pdfrwt beam="2">  1       -1 0.55713983E-01 0.17791007E+04</pdfrwt>
<totfact> 0.18477901E+01</totfact>
</mgrwt>
</event>
<event>
12    6  0.1521603E-007  0.2690858E+04  0.7818608E-02  0.8337977E-01
         -1   -1    0    0    0  501 -0.00000000000E+00  0.00000000000E+00  0.13412984500E+04  0.13412984500E+04  0.00000000000E+00 0.  1.
          2   -1    0    0  501    0  0.00000000000E+00 -0.00000000000E+00 -0.13495723649E+04  0.13495723649E+04  0.00000000000E+00 0. -1.
         24    2    1    2    0    0 -0.33368413737E+03  0.35746592432E+02  0.11423457639E+04  0.11929788217E+04  0.74978011881E+02 0.  0.
        254    2    1    2    0    0  0.33368413737E+03 -0.35746592432E+02 -0.11506196789E+04  0.14978919932E+04  0.89840517329E+03 0.  0.
         23    2    4    4    0    0  0.10455988151E+03 -0.43145008442E+03 -0.78195401959E+03  0.90355302714E+03  0.88735787201E+02 0.  0.
         23    2    4    4    0    0  0.22912425586E+03  0.39570349199E+03 -0.36866565930E+03  0.59433896604E+03  0.90803414133E+02 0.  0.
          2    1    3    3  502    0 -0.54024036214E+02  0.74644588654E+01  0.10622336274E+03  0.11940568423E+03  0.00000000000E+00 0. -1.
         -1    1    3    3    0  502 -0.27966010116E+03  0.28282133567E+02  0.10361224012E+04  0.10735731375E+04  0.00000000000E+00 0.  1.
         11    1    5    5    0    0  0.81907704418E+02 -0.35975147269E+03 -0.70644652632E+03  0.79699227643E+03  0.00000000000E+00 0. -1.
        -11    1    5    5    0    0  0.22652177094E+02 -0.71698611728E+02 -0.75507493277E+02  0.10656075071E+03  0.00000000000E+00 0.  1.
          4    1    6    6  503    0  0.12066763090E+03  0.27780324330E+03 -0.27297038556E+03  0.40773539278E+03  0.00000000000E+00 0.  1.
         -4    1    6    6    0  503  0.10845662496E+03  0.11790024869E+03 -0.95695273735E+02  0.18660357326E+03  0.00000000000E+00 0. -1.
<mgrwt>
<rscale>  0 0.26908581E+04</rscale>
<asrwt>0</asrwt>
<pdfrwt beam="1">  1        2 0.20762652E+00 0.26908581E+04</pdfrwt>
<pdfrwt beam="2">  1       -1 0.20635361E+00 0.26908581E+04</pdfrwt>
<totfact> 0.21062602E+00</totfact>
</mgrwt>
</event>
<event>
12    6  0.1521603E-007  0.1488270E+04  0.7818608E-02  0.8892291E-01
          2   -1    0    0  501    0  0.00000000000E+00  0.00000000000E+00  0.11856209992E+04  0.11856209992E+04  0.00000000000E+00 0. -1.
         -1   -1    0    0    0  501 -0.00000000000E+00 -0.00000000000E+00 -0.46704386598E+03  0.46704386598E+03  0.00000000000E+00 0.  1.
         24    2    1    2    0    0  0.45923807622E+03 -0.80411403679E+01  0.13823853959E+03  0.48678787937E+03  0.82995632944E+02 0.  0.
        254    2    1    2    0    0 -0.45923807622E+03  0.80411403679E+01  0.58033859367E+03  0.11658769859E+04  0.90083960406E+03 0.  0.
         23    2    4    4    0    0 -0.15732397724E+03  0.43880222073E+03  0.31300935476E+03  0.56886463565E+03  0.91290168146E+02 0.  0.
         23    2    4    4    0    0 -0.30191409899E+03 -0.43076108036E+03  0.26732923891E+03  0.59701235020E+03  0.90838278230E+02 0.  0.
          4    1    3    3  502    0  0.25184761202E+03 -0.17939613908E+02  0.11637064398E+03  0.27801290655E+03  0.00000000000E+00 0. -1.
         -3    1    3    3    0  502  0.20739046420E+03  0.98984735405E+01  0.21867895611E+02  0.20877497282E+03  0.00000000000E+00 0.  1.
         11    1    5    5    0    0 -0.10105442227E+03  0.37150528688E+03  0.23226583382E+03  0.44963940218E+03  0.00000000000E+00 0.  1.
        -11    1    5    5    0    0 -0.56269554962E+02  0.67296933854E+02  0.80743520941E+02  0.11922523347E+03  0.00000000000E+00 0. -1.
          1    1    6    6  503    0 -0.18093026567E+02 -0.46242002859E+02  0.52015470989E+00  0.49658342699E+02  0.00000000000E+00 0. -1.
         -1    1    6    6    0  503 -0.28382107242E+03 -0.38451907750E+03  0.26680908420E+03  0.54735400750E+03  0.00000000000E+00 0.  1.
<mgrwt>
<rscale>  0 0.14882702E+04</rscale>
<asrwt>0</asrwt>
<pdfrwt beam="1">  1        2 0.18240323E+00 0.14882702E+04</pdfrwt>
<pdfrwt beam="2">  1       -1 0.71852903E-01 0.14882702E+04</pdfrwt>
<totfact> 0.41653174E+01</totfact>
</mgrwt>
</event>
<event>
12    6  0.1521603E-007  0.1791820E+04  0.7818608E-02  0.8710662E-01
         -1   -1    0    0    0  501 -0.00000000000E+00  0.00000000000E+00  0.28566766909E+03  0.28566766909E+03  0.00000000000E+00 0.  1.
          2   -1    0    0  501    0  0.00000000000E+00 -0.00000000000E+00 -0.28097497519E+04  0.28097497519E+04  0.00000000000E+00 0. -1.
         24    2    1    2    0    0  0.73475026336E+01  0.25496712428E+03  0.11558798249E+03  0.29142824749E+03  0.80669830049E+02 0.  0.
        254    2    1    2    0    0 -0.73475026336E+01 -0.25496712428E+03 -0.26396700653E+04  0.28039891735E+04  0.91073322722E+03 0.  0.
         23    2    4    4    0    0 -0.11404210938E+02  0.29741222938E+02 -0.24459645767E+04  0.24478679121E+04  0.91104381754E+02 0.  0.
         23    2    4    4    0    0  0.40567083040E+01 -0.28470834722E+03 -0.19370548859E+03  0.35612126135E+03  0.90693090260E+02 0.  0.
          4    1    3    3  502    0 -0.95336747449E+01 -0.20670036093E+01  0.63163246830E+01  0.11621506596E+02  0.00000000000E+00 0. -1.
         -3    1    3    3    0  502  0.16881177379E+02  0.25703412789E+03  0.10927165781E+03  0.27980674090E+03  0.00000000000E+00 0.  1.
         11    1    5    5    0    0  0.12403681598E+02 -0.17734476532E+01 -0.48957867203E+02  0.50535820908E+02  0.00000000000E+00 0.  1.
        -11    1    5    5    0    0 -0.23807892536E+02  0.31514670591E+02 -0.23970067095E+04  0.23973320912E+04  0.00000000000E+00 0. -1.
          2    1    6    6  503    0  0.63151666808E+00 -0.26399271600E+03 -0.14078419432E+03  0.29918680165E+03  0.00000000000E+00 0. -1.
         -2    1    6    6    0  503  0.34251916359E+01 -0.20715631225E+02 -0.52921294267E+02  0.56934459703E+02  0.00000000000E+00 0.  1.
<mgrwt>
<rscale>  0 0.17918199E+04</rscale>
<asrwt>0</asrwt>
<pdfrwt beam="1">  1        2 0.43226918E+00 0.17918199E+04</pdfrwt>
<pdfrwt beam="2">  1       -1 0.43948874E-01 0.17918199E+04</pdfrwt>
<totfact> 0.12591939E+01</totfact>
</mgrwt>
</event>
<event>
12    6  0.1521603E-007  0.2280236E+04  0.7818608E-02  0.8485755E-01
          2   -1    0    0  501    0  0.00000000000E+00  0.00000000000E+00  0.65276745322E+03  0.65276745322E+03  0.00000000000E+00 0. -1.
         -1   -1    0    0    0  501 -0.00000000000E+00 -0.00000000000E+00 -0.19913210946E+04  0.19913210946E+04  0.00000000000E+00 0.  1.
         24    2    1    2    0    0  0.96514210694E+03  0.99222166663E+01 -0.54038653173E+03  0.11091937785E+04  0.81826020680E+02 0.  0.
        254    2    1    2    0    0 -0.96514210694E+03 -0.99222166663E+01 -0.79816710967E+03  0.15348947693E+04  0.88726178828E+03 0.  0.
         23    2    4    4    0    0 -0.73088720622E+03 -0.40157137451E+03 -0.43663415068E+03  0.94577895306E+03  0.91612059655E+02 0.  0.
         23    2    4    4    0    0 -0.23425490072E+03  0.39164915784E+03 -0.36153295899E+03  0.58911581626E+03  0.89927432818E+02 0.  0.
          2    1    3    3  502    0  0.43283691644E+03 -0.77134957500E+01 -0.19800605298E+03  0.47603959002E+03  0.00000000000E+00 0. -1.
         -1    1    3    3    0  502  0.53230519050E+03  0.17635712416E+02 -0.34238047875E+03  0.63315418850E+03  0.00000000000E+00 0.  1.
         11    1    5    5    0    0 -0.60612831557E+03 -0.29389963229E+03 -0.33719701601E+03  0.75330628327E+03  0.00000000000E+00 0.  1.
        -11    1    5    5    0    0 -0.12475889064E+03 -0.10767174222E+03 -0.99437134664E+02  0.19247266979E+03  0.00000000000E+00 0. -1.
          3    1    6    6  503    0 -0.73362836753E+01  0.19594024546E+02 -0.47677339479E+02  0.52066069142E+02  0.00000000000E+00 0. -1.
         -3    1    6    6    0  503 -0.22691861705E+03  0.37205513330E+03 -0.31385561951E+03  0.53704974711E+03  0.00000000000E+00 0.  1.
<mgrwt>
<rscale>  0 0.22802365E+04</rscale>
<asrwt>0</asrwt>
<pdfrwt beam="1">  1        2 0.10042576E+00 0.22802365E+04</pdfrwt>
<pdfrwt beam="2">  1       -1 0.30635710E+00 0.22802365E+04</pdfrwt>
<totfact> 0.13924578E+00</totfact>
</mgrwt>
</event>
<event>
12    6  0.1521603E-007  0.3584088E+04  0.7818608E-02  0.8094146E-01
         -1   -1    0    0    0  501 -0.00000000000E+00  0.00000000000E+00  0.10520541188E+04  0.10520541188E+04  0.00000000000E+00 0.  1.
          2   -1    0    0  501    0  0.00000000000E+00 -0.00000000000E+00 -0.30525253391E+04  0.30525253391E+04  0.00000000000E+00 0. -1.
         24    2    1    2    0    0  0.26645763571E+03 -0.15188953825E+04 -0.17304689413E+03  0.15538044286E+04  0.79499183537E+02 0.  0.
        254    2    1    2    0    0 -0.26645763571E+03  0.15188953825E+04 -0.18274243262E+04  0.25507750292E+04  0.88821772509E+03 0.  0.
         23    2    4    4    0    0 -0.57902347117E+02  0.14068769423E+04 -0.11275725734E+04  0.18062273835E+04  0.91553481953E+02 0.  0.
         23    2    4    4    0    0 -0.20855528859E+03  0.11201844019E+03 -0.69985175282E+03  0.74454764574E+03  0.92278282956E+02 0.  0.
          4    1    3    3  502    0  0.11890655278E+03 -0.56733647685E+03 -0.31419198402E+02  0.58051409310E+03  0.00000000000E+00 0. -1.
         -3    1    3    3    0  502  0.14755108293E+03 -0.95155890564E+03 -0.14162769573E+03  0.97329033550E+03  0.00000000000E+00 0.  1.
         11    1    5    5    0    0 -0.25674119610E+02  0.10866692274E+04 -0.91178821506E+03  0.14187554121E+04  0.00000000000E+00 0. -1.
        -11    1    5    5    0    0 -0.32228227508E+02  0.32020771492E+03 -0.21578435832E+03  0.38747197143E+03  0.00000000000E+00 0.  1.
          4    1    6    6  503    0 -0.17835487908E+03  0.66659992922E+02 -0.44652407175E+03  0.48542534359E+03  0.00000000000E+00 0. -1.
         -4    1    6    6    0  503 -0.30200409510E+02  0.45358447272E+02 -0.25332768106E+03  0.25912230214E+03  0.00000000000E+00 0.  1.
<mgrwt>
<rscale>  0 0.35840881E+04</rscale>
<asrwt>0</asrwt>
<pdfrwt beam="1">  1        2 0.46961928E+00 0.35840881E+04</pdfrwt>
<pdfrwt beam="2">  1       -1 0.16185448E+00 0.35840881E+04</pdfrwt>
<totfact> 0.42270025E-01</totfact>
</mgrwt>
</event>
<event>
12    6  0.1521603E-007  0.1626592E+04  0.7818608E-02  0.8804376E-01
          2   -1    0    0  501    0  0.00000000000E+00  0.00000000000E+00  0.13556464039E+04  0.13556464039E+04  0.00000000000E+00 0. -1.
         -1   -1    0    0    0  501 -0.00000000000E+00 -0.00000000000E+00 -0.48792249694E+03  0.48792249694E+03  0.00000000000E+00 0.  1.
         24    2    1    2    0    0  0.42386861069E+03 -0.13648881166E+03  0.69943641054E+03  0.83328685714E+03  0.82836580479E+02 0.  0.
        254    2    1    2    0    0 -0.42386861069E+03  0.13648881166E+03  0.16828749641E+03  0.10102820437E+04  0.89109782374E+03 0.  0.
         23    2    4    4    0    0  0.79807868797E+02  0.27385317505E+03  0.33966808721E+03  0.45271603473E+03  0.90623072248E+02 0.  0.
         23    2    4    4    0    0 -0.50367647949E+03 -0.13736436339E+03 -0.17138059081E+03  0.55756600894E+03  0.94602236245E+02 0.  0.
          4    1    3    3  502    0  0.41162173476E+02 -0.12832046963E+01  0.32124157675E+02  0.52229614644E+02  0.00000000000E+00 0. -1.
         -3    1    3    3    0  502  0.38270643721E+03 -0.13520560696E+03  0.66731225286E+03  0.78105724250E+03  0.00000000000E+00 0.  1.
         11    1    5    5    0    0  0.23465399823E+02  0.56819721590E+02  0.13827319990E+03  0.15132277939E+03  0.00000000000E+00 0. -1.
        -11    1    5    5    0    0  0.56342468974E+02  0.21703345346E+03  0.20139488731E+03  0.30139325534E+03  0.00000000000E+00 0.  1.
          2    1    6    6  503    0 -0.31094989104E+02  0.49609901229E+01 -0.31589440624E+02  0.44602718855E+02  0.00000000000E+00 0. -1.
         -2    1    6    6    0  503 -0.47258149038E+03 -0.14232535351E+03 -0.13979115018E+03  0.51296329009E+03  0.00000000000E+00 0.  1.
<mgrwt>
<rscale>  0 0.16265920E+04</rscale>
<asrwt>0</asrwt>
<pdfrwt beam="1">  1        2 0.20856098E+00 0.16265920E+04</pdfrwt>
<pdfrwt beam="2">  1       -1 0.75065000E-01 0.16265920E+04</pdfrwt>
<totfact> 0.29875789E+01</totfact>
</mgrwt>
</event>
<event>
12    6  0.1521603E-007  0.2538100E+04  0.7818608E-02  0.8389536E-01
          2   -1    0    0  501    0  0.00000000000E+00  0.00000000000E+00  0.12274813200E+04  0.12274813200E+04  0.00000000000E+00 0. -1.
         -1   -1    0    0    0  501 -0.00000000000E+00 -0.00000000000E+00 -0.13120267759E+04  0.13120267759E+04  0.00000000000E+00 0.  1.
         24    2    1    2    0    0 -0.67292879076E+03  0.73522659801E+03  0.43988277980E+03  0.10923319660E+04  0.79378562018E+02 0.  0.
        254    2    1    2    0    0  0.67292879076E+03 -0.73522659801E+03 -0.52442823567E+03  0.14471761299E+04  0.90879176305E+03 0.  0.
         23    2    4    4    0    0  0.67661888026E+03 -0.30394823104E+03 -0.64797877559E+03  0.98921394795E+03  0.92033172870E+02 0.  0.
         23    2    4    4    0    0 -0.36900895020E+01 -0.43127836697E+03  0.12355053992E+03  0.45796218191E+03  0.91923759509E+02 0.  0.
          2    1    3    3  502    0 -0.63048262981E+03  0.68994812709E+03  0.39012494970E+03  0.10127853874E+04  0.00000000000E+00 0. -1.
         -1    1    3    3    0  502 -0.42446160956E+02  0.45278470928E+02  0.49757830106E+02  0.79546578596E+02  0.00000000000E+00 0.  1.
         11    1    5    5    0    0  0.54443034351E+03 -0.28243052328E+03 -0.54016621919E+03  0.81728265843E+03  0.00000000000E+00 0. -1.
        -11    1    5    5    0    0  0.13218853676E+03 -0.21517707759E+02 -0.10781255640E+03  0.17193128952E+03  0.00000000000E+00 0.  1.
          4    1    6    6  503    0  0.69896298534E+00 -0.42296191700E+03  0.10294178006E+03  0.43530940934E+03  0.00000000000E+00 0. -1.
         -4    1    6    6    0  503 -0.43890524873E+01 -0.83164499754E+01  0.20608759859E+02  0.22652772564E+02  0.00000000000E+00 0.  1.
<mgrwt>
<rscale>  0 0.25381004E+04</rscale>
<asrwt>0</asrwt>
<pdfrwt beam="1">  1        2 0.18884328E+00 0.25381004E+04</pdfrwt>
<pdfrwt beam="2">  1       -1 0.20185027E+00 0.25381004E+04</pdfrwt>
<totfact> 0.27008635E+00</totfact>
</mgrwt>
</event>
<event>
12    6  0.1521603E-007  0.1403564E+04  0.7818608E-02  0.8951242E-01
         -3   -1    0    0    0  501 -0.00000000000E+00  0.00000000000E+00  0.58206694020E+03  0.58206694020E+03  0.00000000000E+00 0.  1.
          2   -1    0    0  501    0  0.00000000000E+00 -0.00000000000E+00 -0.84611963887E+03  0.84611963887E+03  0.00000000000E+00 0. -1.
         24    2    1    2    0    0 -0.49286520341E+02 -0.19329915282E+03  0.28567720551E+03  0.35659072168E+03  0.75840315618E+02 0.  0.
        254    2    1    2    0    0  0.49286520341E+02  0.19329915282E+03 -0.54972990419E+03  0.10715958574E+04  0.89795377969E+03 0.  0.
         23    2    4    4    0    0 -0.10357836998E+03 -0.32663824831E+03 -0.12063337548E+03  0.37429284614E+03  0.90120471600E+02 0.  0.
         23    2    4    4    0    0  0.15286489032E+03  0.51993740113E+03 -0.42909652870E+03  0.69730301125E+03  0.91679238451E+02 0.  0.
          2    1    3    3  502    0  0.14138753119E+02 -0.15890016743E+02  0.12272658266E+02  0.24556366033E+02  0.00000000000E+00 0. -1.
         -1    1    3    3    0  502 -0.63425273459E+02 -0.17740913608E+03  0.27340454725E+03  0.33203435565E+03  0.00000000000E+00 0.  1.
         11    1    5    5    0    0 -0.69861159055E+02 -0.23119299146E+03 -0.12698846451E+03  0.27286782691E+03  0.00000000000E+00 0. -1.
        -11    1    5    5    0    0 -0.33717210927E+02 -0.95445256854E+02  0.63550890309E+01  0.10142501923E+03  0.00000000000E+00 0.  1.
          3    1    6    6  503    0  0.16321570396E+03  0.50908304633E+03 -0.41868531412E+03  0.67904514308E+03  0.00000000000E+00 0. -1.
         -3    1    6    6    0  503 -0.10350813634E+02  0.10854354803E+02 -0.10411214588E+02  0.18257868175E+02  0.00000000000E+00 0.  1.
<mgrwt>
<rscale>  0 0.14035644E+04</rscale>
<asrwt>0</asrwt>
<pdfrwt beam="1">  1        2 0.13017225E+00 0.14035644E+04</pdfrwt>
<pdfrwt beam="2">  1       -3 0.89548760E-01 0.14035644E+04</pdfrwt>
<totfact> 0.22199688E+01</totfact>
</mgrwt>
</event>
<event>
12    6  0.1521603E-007  0.2427479E+04  0.7818608E-02  0.8429287E-01
          2   -1    0    0  501    0  0.00000000000E+00  0.00000000000E+00  0.11765488581E+04  0.11765488581E+04  0.00000000000E+00 0. -1.
         -1   -1    0    0    0  501 -0.00000000000E+00 -0.00000000000E+00 -0.12521057060E+04  0.12521057060E+04  0.00000000000E+00 0.  1.
         24    2    1    2    0    0  0.14420038058E+03  0.81118456638E+03 -0.67458358926E+03  0.10679158441E+04  0.81037526148E+02 0.  0.
        254    2    1    2    0    0 -0.14420038058E+03 -0.81118456638E+03  0.59902674129E+03  0.13607387200E+04  0.90219880120E+03 0.  0.
         23    2    4    4    0    0  0.14708212042E+03 -0.25113245425E+03  0.65254477812E+03  0.72034666157E+03  0.91563997645E+02 0.  0.
         23    2    4    4    0    0 -0.29128250100E+03 -0.56005211213E+03 -0.53518036827E+02  0.64039205844E+03  0.93455575380E+02 0.  0.
          2    1    3    3  502    0  0.25916071647E+02  0.23047564338E+03 -0.14794797977E+03  0.27509865445E+03  0.00000000000E+00 0. -1.
         -1    1    3    3    0  502  0.11828430893E+03  0.58070892299E+03 -0.52663560949E+03  0.79281718963E+03  0.00000000000E+00 0.  1.
         11    1    5    5    0    0  0.15714853463E+03 -0.21531215247E+03  0.59261659597E+03  0.64980721353E+03  0.00000000000E+00 0.  1.
        -11    1    5    5    0    0 -0.10066414209E+02 -0.35820301775E+02  0.59928182147E+02  0.70539448040E+02  0.00000000000E+00 0. -1.
          2    1    6    6  503    0 -0.25432905354E+03 -0.51131751578E+03 -0.21792351230E+02  0.57149258612E+03  0.00000000000E+00 0.  1.
         -2    1    6    6    0  503 -0.36953447462E+02 -0.48734596345E+02 -0.31725685597E+02  0.68899472326E+02  0.00000000000E+00 0. -1.
<mgrwt>
<rscale>  0 0.24274790E+04</rscale>
<asrwt>0</asrwt>
<pdfrwt beam="1">  1        2 0.18100752E+00 0.24274790E+04</pdfrwt>
<pdfrwt beam="2">  1       -1 0.19263165E+00 0.24274790E+04</pdfrwt>
<totfact> 0.33884186E+00</totfact>
</mgrwt>
</event>
<event>
12    6  0.1521603E-007  0.1909720E+04  0.7818608E-02  0.8650033E-01
          2   -1    0    0  501    0  0.00000000000E+00  0.00000000000E+00  0.17051356940E+04  0.17051356940E+04  0.00000000000E+00 0. -1.
         -1   -1    0    0    0  501 -0.00000000000E+00 -0.00000000000E+00 -0.53471273266E+03  0.53471273266E+03  0.00000000000E+00 0.  1.
         24    2    1    2    0    0  0.38516809407E+03  0.47166196282E+02  0.12028752849E+04  0.12664894504E+04  0.80668867806E+02 0.  0.
        254    2    1    2    0    0 -0.38516809407E+03 -0.47166196282E+02 -0.32452323507E+02  0.97335897630E+03  0.89207366999E+03 0.  0.
         23    2    4    4    0    0 -0.11314520332E+03  0.15657910148E+03 -0.40754889976E+03  0.45959880923E+03  0.88408753476E+02 0.  0.
         23    2    4    4    0    0 -0.27202289074E+03 -0.20374529776E+03  0.37509657625E+03  0.51376016708E+03  0.87996978983E+02 0.  0.
          4    1    3    3  502    0  0.38042964374E+03  0.53361098966E+02  0.11956870992E+04  0.12558828607E+04  0.00000000000E+00 0. -1.
         -3    1    3    3    0  502  0.47384503249E+01 -0.61949026840E+01  0.71881856927E+01  0.10606589664E+02  0.00000000000E+00 0.  1.
         11    1    5    5    0    0 -0.77367267555E+02  0.33739633290E+02 -0.16900351173E+03  0.18890803033E+03  0.00000000000E+00 0. -1.
        -11    1    5    5    0    0 -0.35777935770E+02  0.12283946819E+03 -0.23854538803E+03  0.27069077890E+03  0.00000000000E+00 0.  1.
          2    1    6    6  503    0  0.44697002234E+01 -0.16001081667E+01  0.19381559028E+02  0.19954533234E+02  0.00000000000E+00 0. -1.
         -2    1    6    6    0  503 -0.27649259097E+03 -0.20214518959E+03  0.35571501723E+03  0.49380563384E+03  0.00000000000E+00 0.  1.
<mgrwt>
<rscale>  0 0.19097202E+04</rscale>
<asrwt>0</asrwt>
<pdfrwt beam="1">  1        2 0.26232856E+00 0.19097202E+04</pdfrwt>
<pdfrwt beam="2">  1       -1 0.82263498E-01 0.19097202E+04</pdfrwt>
<totfact> 0.15259103E+01</totfact>
</mgrwt>
</event>
<event>
12    6  0.1521603E-007  0.3053039E+04  0.7818608E-02  0.8228745E-01
          2   -1    0    0  501    0  0.00000000000E+00  0.00000000000E+00  0.85118612848E+03  0.85118612848E+03  0.00000000000E+00 0. -1.
         -1   -1    0    0    0  501 -0.00000000000E+00 -0.00000000000E+00 -0.27376640496E+04  0.27376640496E+04  0.00000000000E+00 0.  1.
         24    2    1    2    0    0  0.84482985276E+03  0.72058728238E+03 -0.18449369345E+04  0.21548040738E+04  0.80029947353E+02 0.  0.
        254    2    1    2    0    0 -0.84482985276E+03 -0.72058728238E+03 -0.41540986642E+02  0.14340461043E+04  0.90652030540E+03 0.  0.
         23    2    4    4    0    0 -0.88845091949E+03 -0.35889217007E+03 -0.26410627851E+03  0.99777010587E+03  0.87432440950E+02 0.  0.
         23    2    4    4    0    0  0.43621066734E+02 -0.36169511230E+03  0.22256529187E+03  0.43627599845E+03  0.89862594830E+02 0.  0.
          4    1    3    3  502    0  0.33673065149E+02  0.14072692314E+02 -0.79220100114E+02  0.87222360938E+02  0.00000000000E+00 0. -1.
         -3    1    3    3    0  502  0.81115678761E+03  0.70651459006E+03 -0.17657168344E+04  0.20675817128E+04  0.00000000000E+00 0.  1.
         11    1    5    5    0    0 -0.64400832492E+03 -0.29904828586E+03 -0.18128366249E+03  0.73283038019E+03  0.00000000000E+00 0. -1.
        -11    1    5    5    0    0 -0.24444259457E+03 -0.59843884212E+02 -0.82822616021E+02  0.26493972568E+03  0.00000000000E+00 0.  1.
          4    1    6    6  503    0  0.28083017559E+02 -0.28326270450E+02  0.11934283560E+02  0.41634848347E+02  0.00000000000E+00 0. -1.
         -4    1    6    6    0  503  0.15538049174E+02 -0.33336884185E+03  0.21063100831E+03  0.39464115010E+03  0.00000000000E+00 0.  1.
<mgrwt>
<rscale>  0 0.30530389E+04</rscale>
<asrwt>0</asrwt>
<pdfrwt beam="1">  1        2 0.13095171E+00 0.30530389E+04</pdfrwt>
<pdfrwt beam="2">  1       -1 0.42117909E+00 0.30530389E+04</pdfrwt>
<totfact> 0.15733840E-01</totfact>
</mgrwt>
</event>
<event>
12    6  0.1521603E-007  0.1470818E+04  0.7818608E-02  0.8904094E-01
         -1   -1    0    0    0  501 -0.00000000000E+00  0.00000000000E+00  0.84591230651E+03  0.84591230651E+03  0.00000000000E+00 0.  1.
          2   -1    0    0  501    0  0.00000000000E+00 -0.00000000000E+00 -0.63934128217E+03  0.63934128217E+03  0.00000000000E+00 0. -1.
         24    2    1    2    0    0 -0.41027626111E+02 -0.44272209951E+03  0.39656753904E+01  0.45191465573E+03  0.80777509134E+02 0.  0.
        254    2    1    2    0    0  0.41027626111E+02  0.44272209951E+03  0.20260534894E+03  0.10333389329E+04  0.91052418937E+03 0.  0.
         23    2    4    4    0    0  0.35430423135E+03  0.55619704361E+03  0.90857895372E+02  0.67193055620E+03  0.91372181425E+02 0.  0.
         23    2    4    4    0    0 -0.31327660523E+03 -0.11347494410E+03  0.11174745357E+03  0.36140837675E+03  0.84319197572E+02 0.  0.
          4    1    3    3  502    0 -0.39472539996E+02 -0.37194211925E+03 -0.26225103700E+02  0.37494903327E+03  0.00000000000E+00 0. -1.
         -3    1    3    3    0  502 -0.15550861157E+01 -0.70779980264E+02  0.30190779090E+02  0.76965622463E+02  0.00000000000E+00 0.  1.
         11    1    5    5    0    0  0.33411763598E+03  0.55178288522E+03  0.86779831656E+02  0.65086840934E+03  0.00000000000E+00 0.  1.
        -11    1    5    5    0    0  0.20186595363E+02  0.44141583854E+01  0.40780637162E+01  0.21062146858E+02  0.00000000000E+00 0. -1.
          4    1    6    6  503    0 -0.60407273687E+02 -0.19608864097E+02  0.58761449846E+02  0.86524298631E+02  0.00000000000E+00 0. -1.
         -4    1    6    6    0  503 -0.25286933155E+03 -0.93866080000E+02  0.52986003722E+02  0.27488407812E+03  0.00000000000E+00 0.  1.
<mgrwt>
<rscale>  0 0.14708184E+04</rscale>
<asrwt>0</asrwt>
<pdfrwt beam="1">  1        2 0.98360197E-01 0.14708184E+04</pdfrwt>
<pdfrwt beam="2">  1       -1 0.13014036E+00 0.14708184E+04</pdfrwt>
<totfact> 0.25682785E+01</totfact>
</mgrwt>
</event>
<event>
12    6  0.1521603E-007  0.1308731E+04  0.7818608E-02  0.9022670E-01
          2   -1    0    0  501    0  0.00000000000E+00  0.00000000000E+00  0.13565097791E+04  0.13565097791E+04  0.00000000000E+00 0. -1.
         -1   -1    0    0    0  501 -0.00000000000E+00 -0.00000000000E+00 -0.31565870878E+03  0.31565870878E+03  0.00000000000E+00 0.  1.
         24    2    1    2    0    0  0.13553164539E+03  0.13197394363E+03 -0.83173014397E+02  0.22123327404E+03  0.78996598148E+02 0.  0.
        254    2    1    2    0    0 -0.13553164539E+03 -0.13197394363E+03  0.11240240848E+04  0.14509352139E+04  0.89777330270E+03 0.  0.
         23    2    4    4    0    0 -0.11759529455E+03  0.35848728634E+03  0.31511485625E+03  0.50035123737E+03  0.93339168339E+02 0.  0.
         23    2    4    4    0    0 -0.17936350843E+02 -0.49046122997E+03  0.80890922850E+03  0.95058397650E+03  0.91661472991E+02 0.  0.
          2    1    3    3  502    0  0.53677932839E+02  0.88930105797E+02 -0.12060326419E+02  0.10457215530E+03  0.00000000000E+00 0. -1.
         -3    1    3    3    0  502  0.81853712553E+02  0.43043837830E+02 -0.71112687977E+02  0.11666111874E+03  0.00000000000E+00 0.  1.
         11    1    5    5    0    0 -0.76868762357E+02  0.32891987735E+03  0.26500063775E+03  0.42932788210E+03  0.00000000000E+00 0. -1.
        -11    1    5    5    0    0 -0.40726532191E+02  0.29567408994E+02  0.50114218494E+02  0.71023355273E+02  0.00000000000E+00 0.  1.
          2    1    6    6  503    0 -0.21692804704E+02 -0.14332285022E+03  0.31634164124E+03  0.34797133668E+03  0.00000000000E+00 0. -1.
         -2    1    6    6    0  503  0.37564538603E+01 -0.34713837975E+03  0.49256758727E+03  0.60261263981E+03  0.00000000000E+00 0.  1.
<mgrwt>
<rscale>  0 0.13087309E+04</rscale>
<asrwt>0</asrwt>
<pdfrwt beam="1">  1        2 0.20869381E+00 0.13087309E+04</pdfrwt>
<pdfrwt beam="2">  1       -1 0.48562879E-01 0.13087309E+04</pdfrwt>
<totfact> 0.72591400E+01</totfact>
</mgrwt>
</event>
<event>
12    6  0.1521603E-007  0.1575627E+04  0.7818608E-02  0.8835663E-01
          2   -1    0    0  501    0  0.00000000000E+00  0.00000000000E+00  0.18782637484E+04  0.18782637484E+04  0.00000000000E+00 0. -1.
         -1   -1    0    0    0  501 -0.00000000000E+00 -0.00000000000E+00 -0.33043817878E+03  0.33043817878E+03  0.00000000000E+00 0.  1.
         24    2    1    2    0    0  0.82246387241E+02 -0.32980178750E+03 -0.33458986759E+02  0.35083262368E+03  0.80189393249E+02 0.  0.
        254    2    1    2    0    0 -0.82246387241E+02  0.32980178750E+03  0.15812845564E+04  0.18578693035E+04  0.91415743362E+03 0.  0.
         23    2    4    4    0    0  0.26898702159E+03  0.31275307669E+03  0.28038867989E+03  0.50722835791E+03  0.92164475260E+02 0.  0.
         23    2    4    4    0    0 -0.35123340883E+03  0.17048710807E+02  0.13008958765E+04  0.13506409456E+04  0.90803724783E+02 0.  0.
          2    1    3    3  502    0  0.68878513704E+02 -0.17932689937E+03 -0.50988061056E+02  0.19875152542E+03  0.00000000000E+00 0. -1.
         -1    1    3    3    0  502  0.13367873536E+02 -0.15047488813E+03  0.17529074297E+02  0.15208109826E+03  0.00000000000E+00 0.  1.
         11    1    5    5    0    0  0.11521096679E+03  0.16450903076E+03  0.86209645935E+02  0.21856095516E+03  0.00000000000E+00 0. -1.
        -11    1    5    5    0    0  0.15377605480E+03  0.14824404593E+03  0.19417903395E+03  0.28866740275E+03  0.00000000000E+00 0.  1.
          3    1    6    6  503    0 -0.24658474339E+03  0.50583051164E+02  0.96113782383E+03  0.99355352001E+03  0.00000000000E+00 0. -1.
         -3    1    6    6    0  503 -0.10464866544E+03 -0.33534340357E+02  0.33975805270E+03  0.35708742562E+03  0.00000000000E+00 0.  1.
<mgrwt>
<rscale>  0 0.15756269E+04</rscale>
<asrwt>0</asrwt>
<pdfrwt beam="1">  1        2 0.28896365E+00 0.15756269E+04</pdfrwt>
<pdfrwt beam="2">  1       -1 0.50836644E-01 0.15756269E+04</pdfrwt>
<totfact> 0.33227202E+01</totfact>
</mgrwt>
</event>
<event>
12    6  0.1588697E-007  0.2772013E+04  0.7818608E-02  0.8312010E-01
          2   -1    0    0  501    0  0.00000000000E+00  0.00000000000E+00  0.24363906929E+04  0.24363906929E+04  0.00000000000E+00 0. -1.
         -1   -1    0    0    0  501 -0.00000000000E+00 -0.00000000000E+00 -0.78846720191E+03  0.78846720191E+03  0.00000000000E+00 0.  1.
         24    2    1    2    0    0 -0.96348295126E+02  0.48025553836E+03  0.20649654615E+04  0.21238365796E+04  0.81676703342E+02 0.  0.
        254    2    1    2    0    0  0.96348295126E+02 -0.48025553836E+03 -0.41704197045E+03  0.11010213152E+04  0.89352982899E+03 0.  0.
         23    2    4    4    0    0  0.16239443174E+03 -0.51266305267E+03 -0.64457603963E+03  0.84399712991E+03  0.87507299021E+02 0.  0.
         23    2    4    4    0    0 -0.66046136618E+02  0.32407514310E+02  0.22753406918E+03  0.25702418529E+03  0.94219637225E+02 0.  0.
          4    1    3    3  502    0 -0.79247372210E+02  0.45952760490E+03  0.19977008866E+04  0.20514030803E+04  0.00000000000E+00 0. -1.
         -3    1    3    3    0  502 -0.17100922916E+02  0.20727933462E+02  0.67264574845E+02  0.72433499289E+02  0.00000000000E+00 0.  1.
         11    1    5    5    0    0  0.15753908021E+03 -0.51087249944E+03 -0.64609973044E+03  0.83860248876E+03  0.00000000000E+00 0.  1.
        -11    1    5    5    0    0  0.48553515337E+01 -0.17905532308E+01  0.15236908090E+01  0.53946411437E+01  0.00000000000E+00 0. -1.
          4    1    6    6  503    0  0.19246386616E+02  0.11529748463E+02  0.14794014185E+02  0.26874176324E+02  0.00000000000E+00 0. -1.
         -4    1    6    6    0  503 -0.85292523233E+02  0.20877765847E+02  0.21274005500E+03  0.23015000896E+03  0.00000000000E+00 0.  1.
<mgrwt>
<rscale>  0 0.27720131E+04</rscale>
<asrwt>0</asrwt>
<pdfrwt beam="1">  1        2 0.37482933E+00 0.27720131E+04</pdfrwt>
<pdfrwt beam="2">  1       -1 0.12130265E+00 0.27720131E+04</pdfrwt>
<totfact> 0.22643365E+00</totfact>
</mgrwt>
</event>
<event>
12    6  0.1521603E-007  0.2386843E+04  0.7818608E-02  0.8444446E-01
          2   -1    0    0  501    0  0.00000000000E+00  0.00000000000E+00  0.20356279956E+04  0.20356279956E+04  0.00000000000E+00 0. -1.
         -1   -1    0    0    0  501 -0.00000000000E+00 -0.00000000000E+00 -0.69966357989E+03  0.69966357989E+03  0.00000000000E+00 0.  1.
         24    2    1    2    0    0  0.83643441456E+03  0.56485619727E+03  0.39467630894E+03  0.10862315144E+04  0.73786588352E+02 0.  0.
        254    2    1    2    0    0 -0.83643441456E+03 -0.56485619727E+03  0.94128810673E+03  0.16490600610E+04  0.90260220007E+03 0.  0.
         23    2    4    4    0    0 -0.77448820725E+03 -0.16911416460E+03  0.94752595561E+03  0.12387056897E+04  0.90303738671E+02 0.  0.
         23    2    4    4    0    0 -0.61946207305E+02 -0.39574203267E+03 -0.62378488819E+01  0.41035437137E+03  0.88897189614E+02 0.  0.
          4    1    3    3  502    0  0.37708083052E+03  0.21630854789E+03  0.18902687821E+03  0.47403639240E+03  0.00000000000E+00 0. -1.
         -3    1    3    3    0  502  0.45935358404E+03  0.34854764939E+03  0.20564943073E+03  0.61219512202E+03  0.00000000000E+00 0.  1.
         11    1    5    5    0    0 -0.14709114549E+03 -0.68505468539E+02  0.18200990651E+03  0.24383685196E+03  0.00000000000E+00 0. -1.
        -11    1    5    5    0    0 -0.62739706176E+03 -0.10060869606E+03  0.76551604910E+03  0.99486883771E+03  0.00000000000E+00 0.  1.
          2    1    6    6  503    0  0.10279064362E+02 -0.86824913997E+02 -0.29451042404E+02  0.92258272005E+02  0.00000000000E+00 0. -1.
         -2    1    6    6    0  503 -0.72225271667E+02 -0.30891711867E+03  0.23213193522E+02  0.31809609936E+03  0.00000000000E+00 0.  1.
<mgrwt>
<rscale>  0 0.23868429E+04</rscale>
<asrwt>0</asrwt>
<pdfrwt beam="1">  1        2 0.31317354E+00 0.23868429E+04</pdfrwt>
<pdfrwt beam="2">  1       -1 0.10764055E+00 0.23868429E+04</pdfrwt>
<totfact> 0.52515727E+00</totfact>
</mgrwt>
</event>
<event>
12    6  0.1521603E-007  0.3187457E+04  0.7818608E-02  0.8192138E-01
         -1   -1    0    0    0  501 -0.00000000000E+00  0.00000000000E+00  0.12667834518E+04  0.12667834518E+04  0.00000000000E+00 0.  1.
          2   -1    0    0  501    0  0.00000000000E+00 -0.00000000000E+00 -0.20050546267E+04  0.20050546267E+04  0.00000000000E+00 0. -1.
         24    2    1    2    0    0 -0.88280317821E+02 -0.65731091987E+02  0.11609745943E+04  0.11687650992E+04  0.77690780980E+02 0.  0.
        254    2    1    2    0    0  0.88280317821E+02  0.65731091987E+02 -0.18992457692E+04  0.21030729793E+04  0.89647502682E+03 0.  0.
         23    2    4    4    0    0 -0.37299853370E+03 -0.94194905035E+02 -0.66752290032E+03  0.77513271939E+03  0.85107719598E+02 0.  0.
         23    2    4    4    0    0  0.46127885152E+03  0.15992599702E+03 -0.12317228689E+04  0.13279402599E+04  0.89048329248E+02 0.  0.
          4    1    3    3  502    0 -0.16083466431E+01 -0.41244451452E+02  0.25427369963E+03  0.25760203003E+03  0.00000000000E+00 0. -1.
         -3    1    3    3    0  502 -0.86671971178E+02 -0.24486640535E+02  0.90670089469E+03  0.91116306915E+03  0.00000000000E+00 0.  1.
         11    1    5    5    0    0 -0.32386347814E+03 -0.91027032843E+02 -0.62623601343E+03  0.71087623233E+03  0.00000000000E+00 0.  1.
        -11    1    5    5    0    0 -0.49135055564E+02 -0.31678721922E+01 -0.41286886890E+02  0.64256487055E+02  0.00000000000E+00 0. -1.
          2    1    6    6  503    0  0.43225186952E+02  0.18125528979E+02 -0.62250595170E+02  0.77923604811E+02  0.00000000000E+00 0. -1.
         -2    1    6    6    0  503  0.41805366457E+03  0.14180046804E+03 -0.11694722737E+04  0.12500166551E+04  0.00000000000E+00 0.  1.
<mgrwt>
<rscale>  0 0.31874567E+04</rscale>
<asrwt>0</asrwt>
<pdfrwt beam="1">  1        2 0.30846994E+00 0.31874567E+04</pdfrwt>
<pdfrwt beam="2">  1       -1 0.19488976E+00 0.31874567E+04</pdfrwt>
<totfact> 0.10393887E+00</totfact>
</mgrwt>
</event>
<event>
12    6  0.1521603E-007  0.1166340E+04  0.7818608E-02  0.9142840E-01
         -3   -1    0    0    0  501 -0.00000000000E+00  0.00000000000E+00  0.17081977171E+04  0.17081977171E+04  0.00000000000E+00 0.  1.
          4   -1    0    0  501    0  0.00000000000E+00 -0.00000000000E+00 -0.19909121340E+03  0.19909121340E+03  0.00000000000E+00 0. -1.
         24    2    1    2    0    0 -0.15368454364E+03 -0.55878731375E+01  0.34639314841E+03  0.38732880680E+03  0.79907621876E+02 0.  0.
        254    2    1    2    0    0  0.15368454364E+03  0.55878731375E+01  0.11627133553E+04  0.15199601237E+04  0.96681242639E+03 0.  0.
         23    2    4    4    0    0  0.53526536455E+03  0.13094507502E+03  0.76886418710E+03  0.95036145725E+03  0.91537631995E+02 0.  0.
         23    2    4    4    0    0 -0.38158082091E+03 -0.12535720188E+03  0.39384916823E+03  0.56959866649E+03  0.89482526791E+02 0.  0.
          2    1    3    3  502    0 -0.20159159930E+02 -0.24897773022E+02  0.32331163588E+02  0.45514777485E+02  0.00000000000E+00 0. -1.
         -1    1    3    3    0  502 -0.13352538371E+03  0.19309899884E+02  0.31406198482E+03  0.34181402932E+03  0.00000000000E+00 0.  1.
         11    1    5    5    0    0  0.12212595103E+03  0.66304222249E+02  0.16294194609E+03  0.21415199181E+03  0.00000000000E+00 0.  1.
        -11    1    5    5    0    0  0.41313941352E+03  0.64640852766E+02  0.60592224101E+03  0.73620946544E+03  0.00000000000E+00 0. -1.
          2    1    6    6  503    0 -0.24749666424E+03 -0.12077504367E+03  0.23827285882E+03  0.36416365172E+03  0.00000000000E+00 0. -1.
         -2    1    6    6    0  503 -0.13408415668E+03 -0.45821582081E+01  0.15557630941E+03  0.20543501477E+03  0.00000000000E+00 0.  1.
<mgrwt>
<rscale>  0 0.11663398E+04</rscale>
<asrwt>0</asrwt>
<pdfrwt beam="1">  1        4 0.30629419E-01 0.11663398E+04</pdfrwt>
<pdfrwt beam="2">  1       -3 0.26279964E+00 0.11663398E+04</pdfrwt>
<totfact> 0.14532034E+00</totfact>
</mgrwt>
</event>
<event>
12    6  0.1521603E-007  0.1296733E+04  0.7818608E-02  0.9032160E-01
         -1   -1    0    0    0  501 -0.00000000000E+00  0.00000000000E+00  0.18566430220E+03  0.18566430220E+03  0.00000000000E+00 0.  1.
          2   -1    0    0  501    0  0.00000000000E+00 -0.00000000000E+00 -0.22641876058E+04  0.22641876058E+04  0.00000000000E+00 0. -1.
         24    2    1    2    0    0  0.85722422805E+02 -0.22410674607E+03 -0.93341614582E+03  0.96714877104E+03  0.80863320824E+02 0.  0.
        254    2    1    2    0    0 -0.85722422805E+02  0.22410674607E+03 -0.11451071578E+04  0.14827031370E+04  0.91080515049E+03 0.  0.
         23    2    4    4    0    0 -0.20714151902E+03  0.54215541024E+03 -0.66978692225E+03  0.89087767237E+03  0.90600265735E+02 0.  0.
         23    2    4    4    0    0  0.12141909622E+03 -0.31804866417E+03 -0.47532023556E+03  0.59182546461E+03  0.91817778925E+02 0.  0.
          4    1    3    3  502    0  0.79584110428E+02 -0.21995051326E+03 -0.79914534069E+03  0.83267348611E+03  0.00000000000E+00 0. -1.
         -3    1    3    3    0  502  0.61383123768E+01 -0.41562328094E+01 -0.13427080512E+03  0.13447528494E+03  0.00000000000E+00 0.  1.
         11    1    5    5    0    0 -0.13039382753E+03  0.38917415374E+03 -0.52707353411E+03  0.66803112394E+03  0.00000000000E+00 0.  1.
        -11    1    5    5    0    0 -0.76747691497E+02  0.15298125650E+03 -0.14271338813E+03  0.22284654842E+03  0.00000000000E+00 0. -1.
          3    1    6    6  503    0  0.16536056910E+02 -0.64296678774E+01 -0.57342481293E+02  0.60024511393E+02  0.00000000000E+00 0. -1.
         -3    1    6    6    0  503  0.10488303931E+03 -0.31161899630E+03 -0.41797775426E+03  0.53180095322E+03  0.00000000000E+00 0.  1.
<mgrwt>
<rscale>  0 0.12967325E+04</rscale>
<asrwt>0</asrwt>
<pdfrwt beam="1">  1        2 0.34833656E+00 0.12967325E+04</pdfrwt>
<pdfrwt beam="2">  1       -1 0.28563738E-01 0.12967325E+04</pdfrwt>
<totfact> 0.59145104E+01</totfact>
</mgrwt>
</event>
<event>
12    6  0.1521603E-007  0.1160269E+04  0.7818608E-02  0.9148362E-01
         -1   -1    0    0    0  501 -0.00000000000E+00  0.00000000000E+00  0.25171579251E+03  0.25171579251E+03  0.00000000000E+00 0.  1.
          2   -1    0    0  501    0  0.00000000000E+00 -0.00000000000E+00 -0.13370479838E+04  0.13370479838E+04  0.00000000000E+00 0. -1.
         24    2    1    2    0    0  0.33287110850E+02  0.15931698122E+02  0.79360719117E+02  0.11869368503E+03  0.80176158379E+02 0.  0.
        254    2    1    2    0    0 -0.33287110850E+02 -0.15931698122E+02 -0.11646929104E+04  0.14700700913E+04  0.89623358952E+03 0.  0.
         23    2    4    4    0    0  0.29863273779E+03 -0.22841230151E+03 -0.91787196824E+03  0.99630773457E+03  0.93736120649E+02 0.  0.
         23    2    4    4    0    0 -0.33191984864E+03  0.21248060339E+03 -0.24682094219E+03  0.47376235674E+03  0.90616777797E+02 0.  0.
          4    1    3    3  502    0  0.41425843430E+02  0.39215470158E+02  0.32280628092E+02  0.65543821628E+02  0.00000000000E+00 0. -1.
         -3    1    3    3    0  502 -0.81387325806E+01 -0.23283772036E+02  0.47080091025E+02  0.53149863397E+02  0.00000000000E+00 0.  1.
         11    1    5    5    0    0  0.20517922995E+03 -0.10447693137E+03 -0.59706190671E+03  0.63991942152E+03  0.00000000000E+00 0. -1.
        -11    1    5    5    0    0  0.93453507845E+02 -0.12393537014E+03 -0.32081006154E+03  0.35638831305E+03  0.00000000000E+00 0.  1.
          1    1    6    6  503    0 -0.29804217547E+03  0.16898080468E+03 -0.17963502429E+03  0.38684931519E+03  0.00000000000E+00 0. -1.
         -1    1    6    6    0  503 -0.33877673172E+02  0.43499798708E+02 -0.67185917901E+02  0.86913041550E+02  0.00000000000E+00 0.  1.
<mgrwt>
<rscale>  0 0.11602691E+04</rscale>
<asrwt>0</asrwt>
<pdfrwt beam="1">  1        2 0.20569969E+00 0.11602691E+04</pdfrwt>
<pdfrwt beam="2">  1       -1 0.38725506E-01 0.11602691E+04</pdfrwt>
<totfact> 0.11453221E+02</totfact>
</mgrwt>
</event>
<event>
12    6  0.1521603E-007  0.2536067E+04  0.7818608E-02  0.8390248E-01
          2   -1    0    0  501    0  0.00000000000E+00  0.00000000000E+00  0.15721312018E+04  0.15721312018E+04  0.00000000000E+00 0. -1.
         -1   -1    0    0    0  501 -0.00000000000E+00 -0.00000000000E+00 -0.10227575741E+04  0.10227575741E+04  0.00000000000E+00 0.  1.
         24    2    1    2    0    0 -0.94056434637E+03  0.27062534185E+03  0.72119565569E+03  0.12184537657E+04  0.81283700681E+02 0.  0.
        254    2    1    2    0    0  0.94056434637E+03 -0.27062534185E+03 -0.17182202805E+03  0.13764350102E+04  0.95244483451E+03 0.  0.
         23    2    4    4    0    0  0.16288359019E+03  0.13071741369E+03 -0.40583962230E+03  0.46532377468E+03  0.90566605614E+02 0.  0.
         23    2    4    4    0    0  0.77768075618E+03 -0.40134275555E+03  0.23401759425E+03  0.91111123557E+03  0.97447848638E+02 0.  0.
          4    1    3    3  502    0 -0.66457985789E+03  0.22059743099E+03  0.54364244774E+03  0.88649688384E+03  0.00000000000E+00 0. -1.
         -3    1    3    3    0  502 -0.27598448848E+03  0.50027910861E+02  0.17755320795E+03  0.33195688184E+03  0.00000000000E+00 0.  1.
         11    1    5    5    0    0  0.10483659911E+03  0.11556260975E+03 -0.35068750330E+03  0.38383219544E+03  0.00000000000E+00 0.  1.
        -11    1    5    5    0    0  0.58046991079E+02  0.15154803946E+02 -0.55152118998E+02  0.81491579233E+02  0.00000000000E+00 0. -1.
          4    1    6    6  503    0  0.12151473164E+03 -0.10247457331E+03  0.54929301519E+02  0.16817876307E+03  0.00000000000E+00 0. -1.
         -4    1    6    6    0  503  0.65616602453E+03 -0.29886818224E+03  0.17908829273E+03  0.74293247250E+03  0.00000000000E+00 0.  1.
<mgrwt>
<rscale>  0 0.25360671E+04</rscale>
<asrwt>0</asrwt>
<pdfrwt beam="1">  1        2 0.24186634E+00 0.25360671E+04</pdfrwt>
<pdfrwt beam="2">  1       -1 0.15734732E+00 0.25360671E+04</pdfrwt>
<totfact> 0.35842209E+00</totfact>
</mgrwt>
</event>
<event>
12    6  0.1521603E-007  0.2142171E+04  0.7818608E-02  0.8542891E-01
          2   -1    0    0  501    0  0.00000000000E+00  0.00000000000E+00  0.24410535340E+04  0.24410535340E+04  0.00000000000E+00 0. -1.
         -1   -1    0    0    0  501 -0.00000000000E+00 -0.00000000000E+00 -0.46997098631E+03  0.46997098631E+03  0.00000000000E+00 0.  1.
         24    2    1    2    0    0  0.10043160312E+03  0.27441825921E+03 -0.28395318706E+03  0.41523664089E+03  0.80001047536E+02 0.  0.
        254    2    1    2    0    0 -0.10043160312E+03 -0.27441825921E+03  0.22550357348E+04  0.24957878794E+04  0.10287755276E+04 0.  0.
         23    2    4    4    0    0  0.44857527259E+03 -0.17341761774E+03  0.12516793769E+04  0.13439312028E+04  0.90312623470E+02 0.  0.
         23    2    4    4    0    0 -0.54900687571E+03 -0.10100064147E+03  0.10033563579E+04  0.11518566767E+04  0.91870253666E+02 0.  0.
          2    1    3    3  502    0 -0.11884077713E+02  0.57279101607E+02 -0.53811570536E+02  0.79484664606E+02  0.00000000000E+00 0. -1.
         -1    1    3    3    0  502  0.11231568083E+03  0.21713915761E+03 -0.23014161652E+03  0.33575197629E+03  0.00000000000E+00 0.  1.
         11    1    5    5    0    0  0.37052075702E+03 -0.14443695147E+03  0.11160440624E+04  0.11847793101E+04  0.00000000000E+00 0.  1.
        -11    1    5    5    0    0  0.78054515565E+02 -0.28980666268E+02  0.13563531443E+03  0.15915189266E+03  0.00000000000E+00 0. -1.
          3    1    6    6  503    0 -0.31915262040E+03 -0.10407119991E+03  0.60905004990E+03  0.69543595898E+03  0.00000000000E+00 0. -1.
         -3    1    6    6    0  503 -0.22985425531E+03  0.30705584381E+01  0.39430630801E+03  0.45642071770E+03  0.00000000000E+00 0.  1.
<mgrwt>
<rscale>  0 0.21421712E+04</rscale>
<asrwt>0</asrwt>
<pdfrwt beam="1">  1        2 0.37554669E+00 0.21421712E+04</pdfrwt>
<pdfrwt beam="2">  1       -1 0.72303230E-01 0.21421712E+04</pdfrwt>
<totfact> 0.75954705E+00</totfact>
</mgrwt>
</event>
<event>
12    6  0.1521603E-007  0.1895478E+04  0.7818608E-02  0.8657111E-01
         -1   -1    0    0    0  501 -0.00000000000E+00  0.00000000000E+00  0.42693493619E+03  0.42693493619E+03  0.00000000000E+00 0.  1.
          2   -1    0    0  501    0  0.00000000000E+00 -0.00000000000E+00 -0.21038539314E+04  0.21038539314E+04  0.00000000000E+00 0. -1.
         24    2    1    2    0    0 -0.37773735938E+03 -0.33592691671E+03 -0.13540580024E+04  0.14475379587E+04  0.79753757335E+02 0.  0.
        254    2    1    2    0    0  0.37773735938E+03  0.33592691671E+03 -0.32286099284E+03  0.10832509090E+04  0.90203154327E+03 0.  0.
         23    2    4    4    0    0  0.49744264880E+03  0.38946171321E+03  0.85766875421E+02  0.64403926183E+03  0.91109818123E+02 0.  0.
         23    2    4    4    0    0 -0.11970528942E+03 -0.53534796502E+02 -0.40862786826E+03  0.43921164715E+03  0.93460181459E+02 0.  0.
          2    1    3    3  502    0 -0.17621193177E+03 -0.16497238768E+03 -0.75843492508E+03  0.79592089379E+03  0.00000000000E+00 0. -1.
         -1    1    3    3    0  502 -0.20152542761E+03 -0.17095452902E+03 -0.59562307733E+03  0.65161706486E+03  0.00000000000E+00 0.  1.
         11    1    5    5    0    0  0.14179905100E+03  0.93349353799E+02  0.61707698065E+02  0.18063474948E+03  0.00000000000E+00 0. -1.
        -11    1    5    5    0    0  0.35564359780E+03  0.29611235941E+03  0.24059177356E+02  0.46340451235E+03  0.00000000000E+00 0.  1.
          2    1    6    6  503    0 -0.10978832713E+03 -0.58632673873E+02 -0.40952891295E+03  0.42802476302E+03  0.00000000000E+00 0. -1.
         -2    1    6    6    0  503 -0.99169622939E+01  0.50978773711E+01  0.90104469097E+00  0.11186884122E+02  0.00000000000E+00 0.  1.
<mgrwt>
<rscale>  0 0.18954775E+04</rscale>
<asrwt>0</asrwt>
<pdfrwt beam="1">  1        2 0.32366984E+00 0.18954775E+04</pdfrwt>
<pdfrwt beam="2">  1       -1 0.65682297E-01 0.18954775E+04</pdfrwt>
<totfact> 0.14655476E+01</totfact>
</mgrwt>
</event>
<event>
12    6  0.1521603E-007  0.2396392E+04  0.7818608E-02  0.8440856E-01
          2   -1    0    0  501    0  0.00000000000E+00  0.00000000000E+00  0.24000189631E+04  0.24000189631E+04  0.00000000000E+00 0. -1.
         -1   -1    0    0    0  501 -0.00000000000E+00 -0.00000000000E+00 -0.59819247972E+03  0.59819247972E+03  0.00000000000E+00 0.  1.
         24    2    1    2    0    0 -0.68874880796E+03  0.57571277135E+03  0.14809270924E+03  0.91335315248E+03  0.80389147625E+02 0.  0.
        254    2    1    2    0    0  0.68874880796E+03 -0.57571277135E+03  0.16537337741E+04  0.20848582903E+04  0.89776309763E+03 0.  0.
         23    2    4    4    0    0  0.84166324035E+03 -0.33813052903E+03  0.92756438618E+03  0.13004811988E+04  0.90257371387E+02 0.  0.
         23    2    4    4    0    0 -0.15291443239E+03 -0.23758224232E+03  0.72616938792E+03  0.78437709151E+03  0.89984977792E+02 0.  0.
          2    1    3    3  502    0 -0.43356773795E+01  0.10520165361E+02  0.98210265247E+01  0.15030786392E+02  0.00000000000E+00 0. -1.
         -1    1    3    3    0  502 -0.68441313058E+03  0.56519260599E+03  0.13827168272E+03  0.89832236609E+03  0.00000000000E+00 0.  1.
         11    1    5    5    0    0  0.10603042977E+03 -0.26412837298E+02  0.15029785478E+03  0.18582124519E+03  0.00000000000E+00 0. -1.
        -11    1    5    5    0    0  0.73563281058E+03 -0.31171769173E+03  0.77726653140E+03  0.11146599536E+04  0.00000000000E+00 0.  1.
          4    1    6    6  503    0 -0.65174121628E+02 -0.48668095701E+02  0.13530041421E+03  0.15786846346E+03  0.00000000000E+00 0. -1.
         -4    1    6    6    0  503 -0.87740310761E+02 -0.18891414662E+03  0.59086897371E+03  0.62650862805E+03  0.00000000000E+00 0.  1.
<mgrwt>
<rscale>  0 0.23963917E+04</rscale>
<asrwt>0</asrwt>
<pdfrwt beam="1">  1        2 0.36923368E+00 0.23963917E+04</pdfrwt>
<pdfrwt beam="2">  1       -1 0.92029613E-01 0.23963917E+04</pdfrwt>
<totfact> 0.46760679E+00</totfact>
</mgrwt>
</event>
<event>
12    6  0.1521603E-007  0.3599744E+04  0.7818608E-02  0.8090550E-01
          2   -1    0    0  501    0  0.00000000000E+00  0.00000000000E+00  0.33474182911E+04  0.33474182911E+04  0.00000000000E+00 0. -1.
         -1   -1    0    0    0  501 -0.00000000000E+00 -0.00000000000E+00 -0.96777228375E+03  0.96777228375E+03  0.00000000000E+00 0.  1.
         24    2    1    2    0    0  0.62524279491E+03 -0.93117237966E+03  0.26172448766E+04  0.28485522095E+04  0.79173183417E+02 0.  0.
        254    2    1    2    0    0 -0.62524279491E+03  0.93117237966E+03 -0.23759886929E+03  0.14666383653E+04  0.91463890067E+03 0.  0.
         23    2    4    4    0    0  0.30790673342E+02  0.20374635377E+03  0.27622128095E+03  0.35670763806E+03  0.92095063721E+02 0.  0.
         23    2    4    4    0    0 -0.65603346825E+03  0.72742602590E+03 -0.51382015025E+03  0.11099307272E+04  0.91687173753E+02 0.  0.
          4    1    3    3  502    0  0.49276642276E+03 -0.75589773131E+03  0.21747690752E+04  0.23545319403E+04  0.00000000000E+00 0. -1.
         -3    1    3    3    0  502  0.13247637215E+03 -0.17527464835E+03  0.44247580144E+03  0.49402026922E+03  0.00000000000E+00 0.  1.
         11    1    5    5    0    0  0.93759879827E+01  0.21214534926E+02 -0.19842724754E+01  0.23278809679E+02  0.00000000000E+00 0. -1.
        -11    1    5    5    0    0  0.21414685359E+02  0.18253181884E+03  0.27820555343E+03  0.33342882838E+03  0.00000000000E+00 0.  1.
          1    1    6    6  503    0 -0.53504589699E+02  0.47232995275E+02 -0.13569893957E+02  0.72648736971E+02  0.00000000000E+00 0. -1.
         -1    1    6    6    0  503 -0.60252887855E+03  0.68019303062E+03 -0.50025025629E+03  0.10372819903E+04  0.00000000000E+00 0.  1.
<mgrwt>
<rscale>  0 0.35997437E+04</rscale>
<asrwt>0</asrwt>
<pdfrwt beam="1">  1        2 0.51498743E+00 0.35997437E+04</pdfrwt>
<pdfrwt beam="2">  1       -1 0.14888804E+00 0.35997437E+04</pdfrwt>
<totfact> 0.34046624E-01</totfact>
</mgrwt>
</event>
<event>
12    6  0.1521603E-007  0.1844486E+04  0.7818608E-02  0.8682994E-01
          2   -1    0    0  501    0  0.00000000000E+00  0.00000000000E+00  0.15186106319E+04  0.15186106319E+04  0.00000000000E+00 0. -1.
         -1   -1    0    0    0  501 -0.00000000000E+00 -0.00000000000E+00 -0.56007267672E+03  0.56007267672E+03  0.00000000000E+00 0.  1.
         24    2    1    2    0    0 -0.37653475281E+03 -0.55093980608E+03  0.98777660314E+02  0.67890419737E+03  0.76425081205E+02 0.  0.
        254    2    1    2    0    0  0.37653475281E+03  0.55093980608E+03  0.85976029491E+03  0.13997791113E+04  0.88027308587E+03 0.  0.
         23    2    4    4    0    0 -0.13571217064E+03  0.22393693256E+03 -0.69123211022E+02  0.28580628454E+03  0.91332748550E+02 0.  0.
         23    2    4    4    0    0  0.51224692344E+03  0.32700287352E+03  0.92888350593E+03  0.11139728267E+04  0.93718201412E+02 0.  0.
          2    1    3    3  502    0 -0.65965938836E+02 -0.12015822261E+03  0.48776596240E+02  0.14549453560E+03  0.00000000000E+00 0. -1.
         -3    1    3    3    0  502 -0.31056881397E+03 -0.43078158347E+03  0.50001064074E+02  0.53340966177E+03  0.00000000000E+00 0.  1.
         11    1    5    5    0    0  0.16693913436E+01 -0.71354473627E+01 -0.64673962971E+01  0.97738780117E+01  0.00000000000E+00 0. -1.
        -11    1    5    5    0    0 -0.13738156198E+03  0.23107237992E+03 -0.62655814725E+02  0.27603240653E+03  0.00000000000E+00 0.  1.
          4    1    6    6  503    0  0.11786324232E+03  0.31400901925E+02  0.19077553244E+03  0.22643556326E+03  0.00000000000E+00 0. -1.
         -4    1    6    6    0  503  0.39438368113E+03  0.29560197159E+03  0.73810797349E+03  0.88753726349E+03  0.00000000000E+00 0.  1.
<mgrwt>
<rscale>  0 0.18444862E+04</rscale>
<asrwt>0</asrwt>
<pdfrwt beam="1">  1        2 0.23363240E+00 0.18444862E+04</pdfrwt>
<pdfrwt beam="2">  1       -1 0.86165028E-01 0.18444862E+04</pdfrwt>
<totfact> 0.17651643E+01</totfact>
</mgrwt>
</event>
<event>
12    6  0.1521603E-007  0.1549286E+04  0.7818608E-02  0.8852324E-01
          2   -1    0    0  501    0  0.00000000000E+00  0.00000000000E+00  0.96410740722E+03  0.96410740722E+03  0.00000000000E+00 0. -1.
         -1   -1    0    0    0  501 -0.00000000000E+00 -0.00000000000E+00 -0.62241175706E+03  0.62241175706E+03  0.00000000000E+00 0.  1.
         24    2    1    2    0    0  0.66244710090E+02  0.35457198540E+03  0.50337808829E+03  0.62466503029E+03  0.81897776882E+02 0.  0.
        254    2    1    2    0    0 -0.66244710090E+02 -0.35457198540E+03 -0.16168243813E+03  0.96185413398E+03  0.87687656476E+03 0.  0.
         23    2    4    4    0    0 -0.14102860541E+02  0.15845524553E+03 -0.35764674327E+03  0.40218245129E+03  0.92371941859E+02 0.  0.
         23    2    4    4    0    0 -0.52141849549E+02 -0.51302723093E+03  0.19596430514E+03  0.55967168269E+03  0.94417537405E+02 0.  0.
          2    1    3    3  502    0  0.37814133819E+02  0.31005382467E+03  0.39061587601E+03  0.50014402476E+03  0.00000000000E+00 0. -1.
         -1    1    3    3    0  502  0.28430576271E+02  0.44518160725E+02  0.11276221228E+03  0.12452100553E+03  0.00000000000E+00 0.  1.
         11    1    5    5    0    0 -0.30579056946E+01  0.16394889009E+03 -0.28764018034E+03  0.33109736135E+03  0.00000000000E+00 0. -1.
        -11    1    5    5    0    0 -0.11044954847E+02 -0.54936445592E+01 -0.70006562932E+02  0.71085089939E+02  0.00000000000E+00 0.  1.
          2    1    6    6  503    0  0.17632630880E+00 -0.38574743808E+03  0.12998631624E+03  0.40705965101E+03  0.00000000000E+00 0. -1.
         -2    1    6    6    0  503 -0.52318175858E+02 -0.12727979285E+03  0.65977988907E+02  0.15261203168E+03  0.00000000000E+00 0.  1.
<mgrwt>
<rscale>  0 0.15492860E+04</rscale>
<asrwt>0</asrwt>
<pdfrwt beam="1">  1        2 0.14832422E+00 0.15492860E+04</pdfrwt>
<pdfrwt beam="2">  1       -1 0.95755655E-01 0.15492860E+04</pdfrwt>
<totfact> 0.30712685E+01</totfact>
</mgrwt>
</event>
<event>
12    6  0.1521603E-007  0.1574566E+04  0.7818608E-02  0.8836327E-01
         -1   -1    0    0    0  501 -0.00000000000E+00  0.00000000000E+00  0.62757152665E+03  0.62757152665E+03  0.00000000000E+00 0.  1.
          2   -1    0    0  501    0  0.00000000000E+00 -0.00000000000E+00 -0.98764002894E+03  0.98764002894E+03  0.00000000000E+00 0. -1.
         24    2    1    2    0    0 -0.12742043834E+02 -0.23808665329E+03 -0.60196102202E+03  0.65239288963E+03  0.80073692662E+02 0.  0.
        254    2    1    2    0    0  0.12742043834E+02  0.23808665329E+03  0.24189251972E+03  0.96281866596E+03  0.90092184914E+03 0.  0.
         23    2    4    4    0    0 -0.20802318687E+03 -0.27936604446E+03  0.62640252064E+02  0.36533765483E+03  0.90712555847E+02 0.  0.
         23    2    4    4    0    0  0.22076523070E+03  0.51745269775E+03  0.17925226766E+03  0.59748101112E+03  0.91419919578E+02 0.  0.
          4    1    3    3  502    0  0.22875387547E+02 -0.13405494106E+03 -0.26359298132E+03  0.29660625479E+03  0.00000000000E+00 0. -1.
         -3    1    3    3    0  502 -0.35617431381E+02 -0.10403171223E+03 -0.33836804070E+03  0.35578663485E+03  0.00000000000E+00 0.  1.
         11    1    5    5    0    0 -0.88475852854E+02 -0.99660603994E+02 -0.18921901774E+02  0.13460405229E+03  0.00000000000E+00 0. -1.
        -11    1    5    5    0    0 -0.11954733402E+03 -0.17970544046E+03  0.81562153838E+02  0.23073360254E+03  0.00000000000E+00 0.  1.
          3    1    6    6  503    0  0.94834960199E+02  0.14962242449E+03  0.23682639547E+02  0.17872159076E+03  0.00000000000E+00 0. -1.
         -3    1    6    6    0  503  0.12593027050E+03  0.36783027326E+03  0.15556962811E+03  0.41875942037E+03  0.00000000000E+00 0.  1.
<mgrwt>
<rscale>  0 0.15745663E+04</rscale>
<asrwt>0</asrwt>
<pdfrwt beam="1">  1        2 0.15194462E+00 0.15745663E+04</pdfrwt>
<pdfrwt beam="2">  1       -1 0.96549466E-01 0.15745663E+04</pdfrwt>
<totfact> 0.29042277E+01</totfact>
</mgrwt>
</event>
<event>
12    6  0.1521603E-007  0.2046062E+04  0.7818608E-02  0.8585383E-01
         -1   -1    0    0    0  501 -0.00000000000E+00  0.00000000000E+00  0.10714430762E+04  0.10714430762E+04  0.00000000000E+00 0.  1.
          2   -1    0    0  501    0  0.00000000000E+00 -0.00000000000E+00 -0.97680656825E+03  0.97680656825E+03  0.00000000000E+00 0. -1.
         24    2    1    2    0    0  0.18169713026E+03  0.74430658707E+03  0.32824907527E+03  0.83736958466E+03  0.80213609711E+02 0.  0.
        254    2    1    2    0    0 -0.18169713026E+03 -0.74430658707E+03 -0.23361256734E+03  0.12108800598E+04  0.90810216652E+03 0.  0.
         23    2    4    4    0    0  0.41048657912E+02 -0.23333649748E+03 -0.51913215145E+03  0.57800622566E+03  0.91989634518E+02 0.  0.
         23    2    4    4    0    0 -0.22274578817E+03 -0.51097008959E+03  0.28551958411E+03  0.63287383412E+03  0.91113876007E+02 0.  0.
          2    1    3    3  502    0  0.71459163920E+02  0.32570164149E+03  0.10066459724E+03  0.34831211939E+03  0.00000000000E+00 0. -1.
         -1    1    3    3    0  502  0.11023796634E+03  0.41860494558E+03  0.22758447803E+03  0.48905746526E+03  0.00000000000E+00 0.  1.
         11    1    5    5    0    0 -0.14237544808E+02 -0.15079264009E+03 -0.26638401501E+03  0.30643363301E+03  0.00000000000E+00 0.  1.
        -11    1    5    5    0    0  0.55286202719E+02 -0.82543857394E+02 -0.25274813643E+03  0.27157259264E+03  0.00000000000E+00 0. -1.
          3    1    6    6  503    0 -0.18480940306E+03 -0.31916739892E+03  0.17414458381E+03  0.40785865206E+03  0.00000000000E+00 0. -1.
         -3    1    6    6    0  503 -0.37936385104E+02 -0.19180269067E+03  0.11137500030E+03  0.22501518206E+03  0.00000000000E+00 0.  1.
<mgrwt>
<rscale>  0 0.20460622E+04</rscale>
<asrwt>0</asrwt>
<pdfrwt beam="1">  1        2 0.15027793E+00 0.20460622E+04</pdfrwt>
<pdfrwt beam="2">  1       -1 0.16483740E+00 0.20460622E+04</pdfrwt>
<totfact> 0.73985431E+00</totfact>
</mgrwt>
</event>
<event>
12    6  0.1521603E-007  0.1043769E+04  0.7818608E-02  0.9261801E-01
         -1   -1    0    0    0  501 -0.00000000000E+00  0.00000000000E+00  0.11738832450E+03  0.11738832450E+03  0.00000000000E+00 0.  1.
          2   -1    0    0  501    0  0.00000000000E+00 -0.00000000000E+00 -0.23201925779E+04  0.23201925779E+04  0.00000000000E+00 0. -1.
         24    2    1    2    0    0  0.14256116621E+02 -0.91850902277E+02 -0.41478178196E+03  0.43266346478E+03  0.80708871907E+02 0.  0.
        254    2    1    2    0    0 -0.14256116621E+02  0.91850902277E+02 -0.17880224715E+04  0.20049174377E+04  0.90223597146E+03 0.  0.
         23    2    4    4    0    0 -0.15457011081E+03  0.41036418161E+03 -0.51842699083E+03  0.68516649683E+03  0.91629159389E+02 0.  0.
         23    2    4    4    0    0  0.14031399419E+03 -0.31851327934E+03 -0.12695954806E+04  0.13197509408E+04  0.93440543967E+02 0.  0.
          2    1    3    3  502    0 -0.26614745579E+00  0.85299435573E+01 -0.13141479675E+03  0.13169160784E+03  0.00000000000E+00 0. -1.
         -1    1    3    3    0  502  0.14522264077E+02 -0.10038084583E+03 -0.28336698521E+03  0.30097185694E+03  0.00000000000E+00 0.  1.
         11    1    5    5    0    0 -0.12578929370E+03  0.34450048809E+03 -0.47870331211E+03  0.60304261353E+03  0.00000000000E+00 0. -1.
        -11    1    5    5    0    0 -0.28780817110E+02  0.65863693519E+02 -0.39723678722E+02  0.82123883302E+02  0.00000000000E+00 0.  1.
          1    1    6    6  503    0  0.45546001750E+02 -0.16115528361E+03 -0.45882744417E+03  0.48843432233E+03  0.00000000000E+00 0. -1.
         -1    1    6    6    0  503  0.94767992437E+02 -0.15735799573E+03 -0.81076803647E+03  0.83131661849E+03  0.00000000000E+00 0.  1.
<mgrwt>
<rscale>  0 0.10437692E+04</rscale>
<asrwt>0</asrwt>
<pdfrwt beam="1">  1        2 0.35695271E+00 0.10437692E+04</pdfrwt>
<pdfrwt beam="2">  1       -1 0.18059742E-01 0.10437692E+04</pdfrwt>
<totfact> 0.12238522E+02</totfact>
</mgrwt>
</event>
<event>
12    6  0.1521603E-007  0.1418020E+04  0.7818608E-02  0.8940877E-01
          2   -1    0    0  501    0  0.00000000000E+00  0.00000000000E+00  0.40921132861E+04  0.40921132861E+04  0.00000000000E+00 0. -1.
         -1   -1    0    0    0  501 -0.00000000000E+00 -0.00000000000E+00 -0.12284480655E+03  0.12284480655E+03  0.00000000000E+00 0.  1.
         24    2    1    2    0    0  0.33657350281E+02  0.12152250476E+03  0.64450944124E+01  0.14949725945E+03  0.80045955224E+02 0.  0.
        254    2    1    2    0    0 -0.33657350281E+02 -0.12152250476E+03  0.39628233851E+04  0.40654608332E+04  0.89894497499E+03 0.  0.
         23    2    4    4    0    0  0.24937435108E+03  0.26304478152E+03  0.23968079819E+04  0.24257982772E+04  0.91807711183E+02 0.  0.
         23    2    4    4    0    0 -0.28303170136E+03 -0.38456728628E+03  0.15660154033E+04  0.16396625560E+04  0.89945052572E+02 0.  0.
          4    1    3    3  502    0  0.50298756532E+02  0.50570791244E+02  0.22658465935E+02  0.74838331851E+02  0.00000000000E+00 0. -1.
         -3    1    3    3    0  502 -0.16641406251E+02  0.70951713520E+02 -0.16213371523E+02  0.74658927594E+02  0.00000000000E+00 0.  1.
         11    1    5    5    0    0  0.22973479852E+03  0.24511263329E+03  0.19929887609E+04  0.20211042729E+04  0.00000000000E+00 0. -1.
        -11    1    5    5    0    0  0.19639552558E+02  0.17932148233E+02  0.40381922093E+03  0.40469400436E+03  0.00000000000E+00 0.  1.
          4    1    6    6  503    0 -0.27565818241E+03 -0.36848728731E+03  0.15455810501E+04  0.16126348306E+04  0.00000000000E+00 0. -1.
         -4    1    6    6    0  503 -0.73735189551E+01 -0.16079998978E+02  0.20434353191E+02  0.27027725381E+02  0.00000000000E+00 0.  1.
<mgrwt>
<rscale>  0 0.14180196E+04</rscale>
<asrwt>0</asrwt>
<pdfrwt beam="1">  1        2 0.62955579E+00 0.14180196E+04</pdfrwt>
<pdfrwt beam="2">  1       -1 0.18899204E-01 0.14180196E+04</pdfrwt>
<totfact> 0.73666682E+00</totfact>
</mgrwt>
</event>
<event>
12    6  0.1521603E-007  0.1213050E+04  0.7818608E-02  0.9101510E-01
          2   -1    0    0  501    0  0.00000000000E+00  0.00000000000E+00  0.15189728390E+04  0.15189728390E+04  0.00000000000E+00 0. -1.
         -1   -1    0    0    0  501 -0.00000000000E+00 -0.00000000000E+00 -0.24218506848E+03  0.24218506848E+03  0.00000000000E+00 0.  1.
         24    2    1    2    0    0  0.23409288366E+03 -0.12188002166E+03  0.28868421636E+03  0.39913783479E+03  0.79487209837E+02 0.  0.
        254    2    1    2    0    0 -0.23409288366E+03  0.12188002166E+03  0.98810355419E+03  0.13620200727E+04  0.89949754132E+03 0.  0.
         23    2    4    4    0    0  0.82047187173E+02  0.23551293412E+03 -0.47467403908E+02  0.26952982483E+03  0.90526730760E+02 0.  0.
         23    2    4    4    0    0 -0.31614007083E+03 -0.11363291246E+03  0.10355709581E+04  0.10924902479E+04  0.90943660026E+02 0.  0.
          4    1    3    3  502    0  0.63554217132E+02 -0.63049831851E+02  0.13587823096E+03  0.16271850989E+03  0.00000000000E+00 0. -1.
         -3    1    3    3    0  502  0.17053866653E+03 -0.58830189809E+02  0.15280598540E+03  0.23641932490E+03  0.00000000000E+00 0.  1.
         11    1    5    5    0    0  0.36306742758E+02  0.11337044003E+03  0.23061526996E+02  0.12125539274E+03  0.00000000000E+00 0. -1.
        -11    1    5    5    0    0  0.45740444415E+02  0.12214249409E+03 -0.70528930904E+02  0.14827443209E+03  0.00000000000E+00 0.  1.
          1    1    6    6  503    0 -0.27186751911E+03 -0.11811387022E+03  0.80906944005E+03  0.86165897727E+03  0.00000000000E+00 0. -1.
         -1    1    6    6    0  503 -0.44272551724E+02  0.44809577616E+01  0.22650151805E+03  0.23083127063E+03  0.00000000000E+00 0.  1.
<mgrwt>
<rscale>  0 0.12130499E+04</rscale>
<asrwt>0</asrwt>
<pdfrwt beam="1">  1        2 0.23368812E+00 0.12130499E+04</pdfrwt>
<pdfrwt beam="2">  1       -1 0.37259242E-01 0.12130499E+04</pdfrwt>
<totfact> 0.96395250E+01</totfact>
</mgrwt>
</event>
<event>
12    6  0.1521603E-007  0.1748320E+04  0.7818608E-02  0.8734275E-01
          2   -1    0    0  501    0  0.00000000000E+00  0.00000000000E+00  0.16014456810E+04  0.16014456810E+04  0.00000000000E+00 0. -1.
         -1   -1    0    0    0  501 -0.00000000000E+00 -0.00000000000E+00 -0.47716633055E+03  0.47716633055E+03  0.00000000000E+00 0.  1.
         24    2    1    2    0    0  0.14401638915E+02 -0.63755953107E+03  0.38886392867E+03  0.75151934544E+03  0.82925319934E+02 0.  0.
        254    2    1    2    0    0 -0.14401638915E+02  0.63755953107E+03  0.73541542180E+03  0.13270926661E+04  0.90202524300E+03 0.  0.
         23    2    4    4    0    0 -0.25205465807E+03 -0.12825718749E+03  0.18355299160E+03  0.34940706822E+03  0.91717728916E+02 0.  0.
         23    2    4    4    0    0  0.23765301916E+03  0.76581671856E+03  0.55186243020E+03  0.97768559791E+03  0.91448250651E+02 0.  0.
          4    1    3    3  502    0 -0.12511974568E+02 -0.21992012898E+03  0.17621526043E+03  0.28208727488E+03  0.00000000000E+00 0. -1.
         -3    1    3    3    0  502  0.26913613484E+02 -0.41763940209E+03  0.21264866824E+03  0.46943207056E+03  0.00000000000E+00 0.  1.
         11    1    5    5    0    0 -0.98413720643E+02 -0.62112894182E+02  0.25210776357E+02  0.11907499855E+03  0.00000000000E+00 0. -1.
        -11    1    5    5    0    0 -0.15364093743E+03 -0.66144293308E+02  0.15834221524E+03  0.23033206967E+03  0.00000000000E+00 0.  1.
          4    1    6    6  503    0  0.84860041401E+01  0.69847218587E+02  0.78181487366E+02  0.10518075479E+03  0.00000000000E+00 0. -1.
         -4    1    6    6    0  503  0.22916701502E+03  0.69596949997E+03  0.47368094283E+03  0.87250484312E+03  0.00000000000E+00 0.  1.
<mgrwt>
<rscale>  0 0.17483203E+04</rscale>
<asrwt>0</asrwt>
<pdfrwt beam="1">  1        2 0.24637626E+00 0.17483203E+04</pdfrwt>
<pdfrwt beam="2">  1       -1 0.73410205E-01 0.17483203E+04</pdfrwt>
<totfact> 0.22476360E+01</totfact>
</mgrwt>
</event>
<event>
12    6  0.1521603E-007  0.2509757E+04  0.7818608E-02  0.8399518E-01
         -1   -1    0    0    0  501 -0.00000000000E+00  0.00000000000E+00  0.85820624722E+03  0.85820624722E+03  0.00000000000E+00 0.  1.
          2   -1    0    0  501    0  0.00000000000E+00 -0.00000000000E+00 -0.18348966413E+04  0.18348966413E+04  0.00000000000E+00 0. -1.
         24    2    1    2    0    0 -0.56300422032E+03  0.19522300204E+03  0.55675777946E+03  0.81941089581E+03  0.79807384000E+02 0.  0.
        254    2    1    2    0    0  0.56300422032E+03 -0.19522300204E+03 -0.15334481736E+04  0.18736919928E+04  0.89675671728E+03 0.  0.
         23    2    4    4    0    0  0.56559504143E+03 -0.15723332660E+03 -0.16288708855E+04  0.17337592933E+04  0.89893578354E+02 0.  0.
         23    2    4    4    0    0 -0.25908211088E+01 -0.37989675441E+02  0.95422711927E+02  0.13993269948E+03  0.95003887491E+02 0.  0.
          2    1    3    3  502    0 -0.72361171337E+02  0.55022630448E+02  0.86918665800E+02  0.12577155260E+03  0.00000000000E+00 0. -1.
         -1    1    3    3    0  502 -0.49064304899E+03  0.14020037159E+03  0.46983911366E+03  0.69363934321E+03  0.00000000000E+00 0.  1.
         11    1    5    5    0    0  0.27578438467E+03 -0.11663019042E+03 -0.75604024553E+03  0.81317678336E+03  0.00000000000E+00 0. -1.
        -11    1    5    5    0    0  0.28981065676E+03 -0.40603136184E+02 -0.87283064000E+03  0.92058250991E+03  0.00000000000E+00 0.  1.
          3    1    6    6  503    0  0.59845408025E+01 -0.50005847850E+01 -0.19001457711E+02  0.20539619567E+02  0.00000000000E+00 0. -1.
         -3    1    6    6    0  503 -0.85753619113E+01 -0.32989090656E+02  0.11442416964E+03  0.11939307991E+03  0.00000000000E+00 0.  1.
<mgrwt>
<rscale>  0 0.25097568E+04</rscale>
<asrwt>0</asrwt>
<pdfrwt beam="1">  1        2 0.28229179E+00 0.25097568E+04</pdfrwt>
<pdfrwt beam="2">  1       -1 0.13203173E+00 0.25097568E+04</pdfrwt>
<totfact> 0.40812618E+00</totfact>
</mgrwt>
</event>
<event>
12    6  0.1521603E-007  0.1470963E+04  0.7818608E-02  0.8903995E-01
          2   -1    0    0  501    0  0.00000000000E+00  0.00000000000E+00  0.19603519048E+04  0.19603519048E+04  0.00000000000E+00 0. -1.
         -1   -1    0    0    0  501 -0.00000000000E+00 -0.00000000000E+00 -0.27593667405E+03  0.27593667405E+03  0.00000000000E+00 0.  1.
         24    2    1    2    0    0  0.12520707002E+03 -0.93329251815E+02 -0.11563884933E+03  0.20988419585E+03  0.79321324782E+02 0.  0.
        254    2    1    2    0    0 -0.12520707002E+03  0.93329251815E+02  0.18000540801E+04  0.20264043830E+04  0.91746001144E+03 0.  0.
         23    2    4    4    0    0  0.14169269777E+02 -0.37520129889E+03  0.11086451681E+04  0.11746845845E+04  0.99060493226E+02 0.  0.
         23    2    4    4    0    0 -0.13937633980E+03  0.46853055070E+03  0.69140891197E+03  0.85171979853E+03  0.91835127371E+02 0.  0.
          2    1    3    3  502    0  0.25798287892E+02 -0.57119574072E+02 -0.16303887178E+02  0.64761208585E+02  0.00000000000E+00 0. -1.
         -1    1    3    3    0  502  0.99408782128E+02 -0.36209677743E+02 -0.99334962152E+02  0.14512298726E+03  0.00000000000E+00 0.  1.
         11    1    5    5    0    0 -0.31161510464E+01 -0.37024955062E+03  0.10523129585E+04  0.11155523308E+04  0.00000000000E+00 0.  1.
        -11    1    5    5    0    0  0.17285420824E+02 -0.49517482689E+01  0.56332209624E+02  0.59132253678E+02  0.00000000000E+00 0. -1.
          1    1    6    6  503    0 -0.10644193302E+03  0.28094219772E+03  0.48799669880E+03  0.57306123722E+03  0.00000000000E+00 0. -1.
         -1    1    6    6    0  503 -0.32934406776E+02  0.18758835298E+03  0.20341221317E+03  0.27865856131E+03  0.00000000000E+00 0.  1.
<mgrwt>
<rscale>  0 0.14709629E+04</rscale>
<asrwt>0</asrwt>
<pdfrwt beam="1">  1        2 0.30159259E+00 0.14709629E+04</pdfrwt>
<pdfrwt beam="2">  1       -1 0.42451797E-01 0.14709629E+04</pdfrwt>
<totfact> 0.42335562E+01</totfact>
</mgrwt>
</event>
<event>
12    6  0.1521603E-007  0.1506315E+04  0.7818608E-02  0.8880264E-01
         -1   -1    0    0    0  501 -0.00000000000E+00  0.00000000000E+00  0.96717291006E+03  0.96717291006E+03  0.00000000000E+00 0.  1.
          2   -1    0    0  501    0  0.00000000000E+00 -0.00000000000E+00 -0.58649917828E+03  0.58649917828E+03  0.00000000000E+00 0. -1.
         24    2    1    2    0    0  0.47968043197E+03 -0.11205682420E+03  0.55934748178E+02  0.50196618526E+03  0.78684855110E+02 0.  0.
        254    2    1    2    0    0 -0.47968043197E+03  0.11205682420E+03  0.32473898360E+03  0.10517059031E+04  0.87062038251E+03 0.  0.
         23    2    4    4    0    0 -0.15187391109E+03 -0.29531697197E+03 -0.11486214631E+03  0.36292125979E+03  0.90778462988E+02 0.  0.
         23    2    4    4    0    0 -0.32780652088E+03  0.40737379617E+03  0.43960112991E+03  0.68878464330E+03  0.88117004500E+02 0.  0.
          2    1    3    3  502    0  0.25329255398E+02  0.57153859589E+01 -0.10328751831E+02  0.27944944625E+02  0.00000000000E+00 0. -1.
         -1    1    3    3    0  502  0.45435117657E+03 -0.11777221016E+03  0.66263500009E+02  0.47402124064E+03  0.00000000000E+00 0.  1.
         11    1    5    5    0    0 -0.10639917551E+03 -0.11699057517E+03 -0.73064832703E+02  0.17420117395E+03  0.00000000000E+00 0.  1.
        -11    1    5    5    0    0 -0.45474735584E+02 -0.17832639680E+03 -0.41797313611E+02  0.18872008583E+03  0.00000000000E+00 0. -1.
          1    1    6    6  503    0 -0.20512948701E+03  0.21732815072E+03  0.20190805008E+03  0.36066118757E+03  0.00000000000E+00 0. -1.
         -1    1    6    6    0  503 -0.12267703387E+03  0.19004564546E+03  0.23769307983E+03  0.32812345573E+03  0.00000000000E+00 0.  1.
<mgrwt>
<rscale>  0 0.15063149E+04</rscale>
<asrwt>0</asrwt>
<pdfrwt beam="1">  1        2 0.90230643E-01 0.15063149E+04</pdfrwt>
<pdfrwt beam="2">  1       -1 0.14879583E+00 0.15063149E+04</pdfrwt>
<totfact> 0.20061999E+01</totfact>
</mgrwt>
</event>
<event>
12    6  0.1521603E-007  0.2104257E+04  0.7818608E-02  0.8559370E-01
          2   -1    0    0  501    0  0.00000000000E+00  0.00000000000E+00  0.74249763845E+03  0.74249763845E+03  0.00000000000E+00 0. -1.
         -1   -1    0    0    0  501 -0.00000000000E+00 -0.00000000000E+00 -0.14908796623E+04  0.14908796623E+04  0.00000000000E+00 0.  1.
         24    2    1    2    0    0  0.37826510240E+03  0.20065397412E+03  0.48251136440E+03  0.64959180594E+03  0.76195751508E+02 0.  0.
        254    2    1    2    0    0 -0.37826510240E+03 -0.20065397412E+03 -0.12308933883E+04  0.15837854948E+04  0.89996191882E+03 0.  0.
         23    2    4    4    0    0 -0.21382725254E+02  0.15032216072E+03  0.67808826846E+02  0.18894758424E+03  0.89717220473E+02 0.  0.
         23    2    4    4    0    0 -0.35688237714E+03 -0.35097613483E+03 -0.12987022151E+04  0.13948379106E+04  0.91630098448E+02 0.  0.
          4    1    3    3  502    0  0.26620397692E+03  0.12521576783E+03  0.37691297623E+03  0.47812857841E+03  0.00000000000E+00 0. -1.
         -3    1    3    3    0  502  0.11206112548E+03  0.75438206288E+02  0.10559838817E+03  0.17146322753E+03  0.00000000000E+00 0.  1.
         11    1    5    5    0    0 -0.40771470549E+02  0.91352942258E+02  0.76940985645E+02  0.12620454882E+03  0.00000000000E+00 0. -1.
        -11    1    5    5    0    0  0.19388745294E+02  0.58969218457E+02 -0.91321587983E+01  0.62743035421E+02  0.00000000000E+00 0.  1.
          4    1    6    6  503    0 -0.33458611775E+03 -0.34185782872E+03 -0.12715067794E+04  0.13585080549E+04  0.00000000000E+00 0. -1.
         -4    1    6    6    0  503 -0.22296259392E+02 -0.91183061163E+01 -0.27195435756E+02  0.36329855702E+02  0.00000000000E+00 0.  1.
<mgrwt>
<rscale>  0 0.21042572E+04</rscale>
<asrwt>0</asrwt>
<pdfrwt beam="1">  1        2 0.11423041E+00 0.21042572E+04</pdfrwt>
<pdfrwt beam="2">  1       -1 0.22936610E+00 0.21042572E+04</pdfrwt>
<totfact> 0.38067776E+00</totfact>
</mgrwt>
</event>
<event>
12    6  0.1521603E-007  0.1363452E+04  0.7818608E-02  0.8980707E-01
          2   -1    0    0  501    0  0.00000000000E+00  0.00000000000E+00  0.77769653681E+03  0.77769653681E+03  0.00000000000E+00 0. -1.
         -3   -1    0    0    0  501 -0.00000000000E+00 -0.00000000000E+00 -0.59759849244E+03  0.59759849244E+03  0.00000000000E+00 0.  1.
         24    2    1    2    0    0 -0.37596537320E+03 -0.50515724716E-01  0.84804713033E+02  0.39313764328E+03  0.77559027941E+02 0.  0.
        254    2    1    2    0    0  0.37596537320E+03  0.50515724716E-01  0.95293331339E+02  0.98215738598E+03  0.90233161722E+03 0.  0.
         23    2    4    4    0    0 -0.20355899311E+03  0.17334150083E+02 -0.22127782862E+03  0.31496266737E+03  0.92200151629E+02 0.  0.
         23    2    4    4    0    0  0.57952436631E+03 -0.17283634358E+02  0.31657115996E+03  0.66719471861E+03  0.93724479525E+02 0.  0.
          2    1    3    3  502    0 -0.33523300600E+03 -0.36586427291E+01  0.99465740092E+02  0.34969699374E+03  0.00000000000E+00 0. -1.
         -1    1    3    3    0  502 -0.40732367201E+02  0.36081270043E+01 -0.14661027059E+02  0.43440649543E+02  0.00000000000E+00 0.  1.
         11    1    5    5    0    0 -0.85996531473E+02  0.56556985413E+01 -0.16033416749E+03  0.18202866702E+03  0.00000000000E+00 0. -1.
        -11    1    5    5    0    0 -0.11756246164E+03  0.11678451541E+02 -0.60943661129E+02  0.13293400035E+03  0.00000000000E+00 0.  1.
          2    1    6    6  503    0  0.24346273122E+03 -0.41929893695E+02  0.16907287529E+03  0.29936241353E+03  0.00000000000E+00 0. -1.
         -2    1    6    6    0  503  0.33606163509E+03  0.24646259337E+02  0.14749828467E+03  0.36783230508E+03  0.00000000000E+00 0.  1.
<mgrwt>
<rscale>  0 0.13634519E+04</rscale>
<asrwt>0</asrwt>
<pdfrwt beam="1">  1        2 0.11964562E+00 0.13634519E+04</pdfrwt>
<pdfrwt beam="2">  1       -3 0.91938230E-01 0.13634519E+04</pdfrwt>
<totfact> 0.23446903E+01</totfact>
</mgrwt>
</event>
<event>
12    6  0.1521603E-007  0.1269693E+04  0.7818608E-02  0.9053950E-01
         -1   -1    0    0    0  501 -0.00000000000E+00  0.00000000000E+00  0.35957536732E+03  0.35957536732E+03  0.00000000000E+00 0.  1.
          2   -1    0    0  501    0  0.00000000000E+00 -0.00000000000E+00 -0.11208498644E+04  0.11208498644E+04  0.00000000000E+00 0. -1.
         24    2    1    2    0    0 -0.24671530877E+03 -0.68982508272E+02  0.11207974394E+02  0.26854944516E+03  0.79788193223E+02 0.  0.
        254    2    1    2    0    0  0.24671530877E+03  0.68982508272E+02 -0.77248247149E+03  0.12118757866E+04  0.89793469879E+03 0.  0.
         23    2    4    4    0    0 -0.26373812149E+03 -0.16506049549E+03 -0.46090373048E+03  0.56331904338E+03  0.89962947710E+02 0.  0.
         23    2    4    4    0    0  0.51045343026E+03  0.23404300376E+03 -0.31157874101E+03  0.64855674320E+03  0.90585347725E+02 0.  0.
          4    1    3    3  502    0 -0.10545278506E+02  0.10665083426E+02  0.12160612685E+02  0.19308739061E+02  0.00000000000E+00 0. -1.
         -3    1    3    3    0  502 -0.23617003026E+03 -0.79647591697E+02 -0.95263829106E+00  0.24924070610E+03  0.00000000000E+00 0.  1.
         11    1    5    5    0    0 -0.28047270890E+02  0.85916163958E+01 -0.61248819001E+02  0.67910846745E+02  0.00000000000E+00 0. -1.
        -11    1    5    5    0    0 -0.23569085060E+03 -0.17365211189E+03 -0.39965491148E+03  0.49540819663E+03  0.00000000000E+00 0.  1.
          4    1    6    6  503    0  0.10422935574E+03  0.96351578985E+01 -0.54065250930E+02  0.11781191036E+03  0.00000000000E+00 0. -1.
         -4    1    6    6    0  503  0.40622407452E+03  0.22440784586E+03 -0.25751349008E+03  0.53074483283E+03  0.00000000000E+00 0.  1.
<mgrwt>
<rscale>  0 0.12696929E+04</rscale>
<asrwt>0</asrwt>
<pdfrwt beam="1">  1        2 0.17243844E+00 0.12696929E+04</pdfrwt>
<pdfrwt beam="2">  1       -1 0.55319287E-01 0.12696929E+04</pdfrwt>
<totfact> 0.78256075E+01</totfact>
</mgrwt>
</event>
<event>
12    6  0.1521603E-007  0.3051435E+04  0.7818608E-02  0.8229194E-01
          2   -1    0    0  501    0  0.00000000000E+00  0.00000000000E+00  0.17303368339E+04  0.17303368339E+04  0.00000000000E+00 0. -1.
         -1   -1    0    0    0  501 -0.00000000000E+00 -0.00000000000E+00 -0.13452950116E+04  0.13452950116E+04  0.00000000000E+00 0.  1.
         24    2    1    2    0    0 -0.12249709587E+04 -0.65936603965E+03  0.21965949319E+03  0.14106012138E+04  0.78918104884E+02 0.  0.
        254    2    1    2    0    0  0.12249709587E+04  0.65936603965E+03  0.16538232919E+03  0.16650306318E+04  0.89981012769E+03 0.  0.
         23    2    4    4    0    0  0.22807680682E+03 -0.19229614295E+03 -0.92582040844E+02  0.32572445151E+03  0.92347970335E+02 0.  0.
         23    2    4    4    0    0  0.99689415193E+03  0.85166218260E+03  0.25796437004E+03  0.13393061803E+04  0.89827639592E+02 0.  0.
          2    1    3    3  502    0 -0.70900023523E+03 -0.42348940433E+03  0.14239163020E+03  0.83803340356E+03  0.00000000000E+00 0. -1.
         -1    1    3    3    0  502 -0.51597072352E+03 -0.23587663532E+03  0.77267862987E+02  0.57256781019E+03  0.00000000000E+00 0.  1.
         11    1    5    5    0    0  0.12446683593E+03 -0.56937137472E+02 -0.12656380485E+02  0.13745550130E+03  0.00000000000E+00 0.  1.
        -11    1    5    5    0    0  0.10360997089E+03 -0.13535900548E+03 -0.79925660358E+02  0.18826895021E+03  0.00000000000E+00 0. -1.
          4    1    6    6  503    0  0.58016876019E+03  0.51588545272E+03  0.19477661574E+03  0.80041959038E+03  0.00000000000E+00 0. -1.
         -4    1    6    6    0  503  0.41672539174E+03  0.33577672988E+03  0.63187754292E+02  0.53888658987E+03  0.00000000000E+00 0.  1.
<mgrwt>
<rscale>  0 0.30514348E+04</rscale>
<asrwt>0</asrwt>
<pdfrwt beam="1">  1        2 0.26620567E+00 0.30514348E+04</pdfrwt>
<pdfrwt beam="2">  1       -1 0.20696846E+00 0.30514348E+04</pdfrwt>
<totfact> 0.12337725E+00</totfact>
</mgrwt>
</event>
<event>
12    6  0.1521603E-007  0.1830786E+04  0.7818608E-02  0.8690097E-01
         -1   -1    0    0    0  501 -0.00000000000E+00  0.00000000000E+00  0.47241199028E+03  0.47241199028E+03  0.00000000000E+00 0.  1.
          2   -1    0    0  501    0  0.00000000000E+00 -0.00000000000E+00 -0.17737568740E+04  0.17737568740E+04  0.00000000000E+00 0. -1.
         24    2    1    2    0    0  0.37856616759E+03  0.28658838250E+03  0.12047893899E+03  0.49632985885E+03  0.79893114940E+02 0.  0.
        254    2    1    2    0    0 -0.37856616759E+03 -0.28658838250E+03 -0.14218238227E+04  0.17498390054E+04  0.90272272479E+03 0.  0.
         23    2    4    4    0    0 -0.49908372563E+03  0.14118366189E+03 -0.52068259080E+03  0.74071667463E+03  0.92376621252E+02 0.  0.
         23    2    4    4    0    0  0.12051755804E+03 -0.42777204439E+03 -0.90114123189E+03  0.10091223308E+04  0.93589288379E+02 0.  0.
          4    1    3    3  502    0 -0.32967503882E+01  0.31795425993E+01 -0.23972130810E+01  0.51695923261E+01  0.00000000000E+00 0. -1.
         -3    1    3    3    0  502  0.38186291798E+03  0.28340883991E+03  0.12287615208E+03  0.49116026653E+03  0.00000000000E+00 0.  1.
         11    1    5    5    0    0 -0.12359107892E+03 -0.40015753944E+01 -0.13754520645E+03  0.18495797148E+03  0.00000000000E+00 0. -1.
        -11    1    5    5    0    0 -0.37549264670E+03  0.14518523728E+03 -0.38313738434E+03  0.55575870316E+03  0.00000000000E+00 0.  1.
          3    1    6    6  503    0  0.46723524730E+02 -0.20566931267E+03 -0.52911554368E+03  0.56960180170E+03  0.00000000000E+00 0. -1.
         -3    1    6    6    0  503  0.73794033305E+02 -0.22210273172E+03 -0.37202568821E+03  0.43952052907E+03  0.00000000000E+00 0.  1.
<mgrwt>
<rscale>  0 0.18307856E+04</rscale>
<asrwt>0</asrwt>
<pdfrwt beam="1">  1        2 0.27288567E+00 0.18307856E+04</pdfrwt>
<pdfrwt beam="2">  1       -1 0.72678768E-01 0.18307856E+04</pdfrwt>
<totfact> 0.18271729E+01</totfact>
</mgrwt>
</event>
<event>
12    6  0.1521603E-007  0.2184185E+04  0.7818608E-02  0.8525040E-01
         -1   -1    0    0    0  501 -0.00000000000E+00  0.00000000000E+00  0.59717113076E+03  0.59717113076E+03  0.00000000000E+00 0.  1.
          2   -1    0    0  501    0  0.00000000000E+00 -0.00000000000E+00 -0.19971933436E+04  0.19971933436E+04  0.00000000000E+00 0. -1.
         24    2    1    2    0    0 -0.87125511503E+03 -0.58453520400E+02 -0.87256128746E+03  0.12382994291E+04  0.97570417195E+02 0.  0.
        254    2    1    2    0    0  0.87125511503E+03  0.58453520400E+02 -0.52746092537E+03  0.13560650452E+04  0.89341764564E+03 0.  0.
         23    2    4    4    0    0  0.35317023331E+03  0.23222042303E+03 -0.65754815870E+03  0.78708142102E+03  0.92043705549E+02 0.  0.
         23    2    4    4    0    0  0.51808488172E+03 -0.17376690262E+03  0.13008723333E+03  0.56898362419E+03  0.90624473554E+02 0.  0.
          2    1    3    3  502    0 -0.23684259956E+03 -0.41341622447E+02 -0.19142761798E+03  0.30732406291E+03  0.00000000000E+00 0. -1.
         -1    1    3    3    0  502 -0.63441251547E+03 -0.17111897953E+02 -0.68113366947E+03  0.93097536623E+03  0.00000000000E+00 0.  1.
         11    1    5    5    0    0  0.20349871626E+03  0.17481194150E+03 -0.35834020963E+03  0.44763673693E+03  0.00000000000E+00 0.  1.
        -11    1    5    5    0    0  0.14967151705E+03  0.57408481521E+02 -0.29920794908E+03  0.33944468409E+03  0.00000000000E+00 0. -1.
          2    1    6    6  503    0  0.28306693113E+03 -0.13855938030E+03  0.56280236603E+02  0.32014536448E+03  0.00000000000E+00 0.  1.
         -2    1    6    6    0  503  0.23501795060E+03 -0.35207522326E+02  0.73806996731E+02  0.24883825971E+03  0.00000000000E+00 0. -1.
<mgrwt>
<rscale>  0 0.21841852E+04</rscale>
<asrwt>0</asrwt>
<pdfrwt beam="1">  1        2 0.30726051E+00 0.21841852E+04</pdfrwt>
<pdfrwt beam="2">  1       -1 0.91872483E-01 0.21841852E+04</pdfrwt>
<totfact> 0.80607996E+00</totfact>
</mgrwt>
</event>
<event>
12    6  0.1521603E-007  0.2798678E+04  0.7818608E-02  0.8303679E-01
         -1   -1    0    0    0  501 -0.00000000000E+00  0.00000000000E+00  0.59790088124E+03  0.59790088124E+03  0.00000000000E+00 0.  1.
          2   -1    0    0  501    0  0.00000000000E+00 -0.00000000000E+00 -0.32750413635E+04  0.32750413635E+04  0.00000000000E+00 0. -1.
         24    2    1    2    0    0 -0.20498926818E+03  0.10040750949E+04 -0.21947766473E+04  0.24236065433E+04  0.81466244793E+02 0.  0.
        254    2    1    2    0    0  0.20498926818E+03 -0.10040750949E+04 -0.48236383495E+03  0.14493357014E+04  0.90427413416E+03 0.  0.
         23    2    4    4    0    0  0.33963751257E+03 -0.11070162211E+04 -0.34354575640E+03  0.12114691052E+04  0.93782474164E+02 0.  0.
         23    2    4    4    0    0 -0.13464824439E+03  0.10294112614E+03 -0.13881807855E+03  0.23786659618E+03  0.92644662434E+02 0.  0.
          4    1    3    3  502    0 -0.15172788135E+03  0.55103241700E+03 -0.12504002228E+04  0.13748304593E+04  0.00000000000E+00 0. -1.
         -3    1    3    3    0  502 -0.53261386837E+02  0.45304267794E+03 -0.94437642447E+03  0.10487760840E+04  0.00000000000E+00 0.  1.
         11    1    5    5    0    0  0.97633497220E+01 -0.13237065987E+03 -0.42871743225E+02  0.13948226038E+03  0.00000000000E+00 0.  1.
        -11    1    5    5    0    0  0.32987416285E+03 -0.97464556120E+03 -0.30067401318E+03  0.10719868448E+04  0.00000000000E+00 0. -1.
          2    1    6    6  503    0 -0.15469645182E+02  0.32613477795E+02 -0.79492650655E+02  0.87304240241E+02  0.00000000000E+00 0.  1.
         -2    1    6    6    0  503 -0.11917859921E+03  0.70327648344E+02 -0.59325427895E+02  0.15056235594E+03  0.00000000000E+00 0. -1.
<mgrwt>
<rscale>  0 0.27986783E+04</rscale>
<asrwt>0</asrwt>
<pdfrwt beam="1">  1        2 0.50385253E+00 0.27986783E+04</pdfrwt>
<pdfrwt beam="2">  1       -1 0.91984750E-01 0.27986783E+04</pdfrwt>
<totfact> 0.13168949E+00</totfact>
</mgrwt>
</event>
<event>
12    6  0.1521603E-007  0.1107864E+04  0.7818608E-02  0.9197561E-01
         -1   -1    0    0    0  501 -0.00000000000E+00  0.00000000000E+00  0.10873188155E+03  0.10873188155E+03  0.00000000000E+00 0.  1.
          2   -1    0    0  501    0  0.00000000000E+00 -0.00000000000E+00 -0.28219925360E+04  0.28219925360E+04  0.00000000000E+00 0. -1.
         24    2    1    2    0    0  0.52957068247E+01  0.13689877241E+02 -0.15633048315E+02  0.86224520562E+02  0.83515378805E+02 0.  0.
        254    2    1    2    0    0 -0.52957068247E+01 -0.13689877241E+02 -0.26976276061E+04  0.28444998969E+04  0.90209173888E+03 0.  0.
         23    2    4    4    0    0 -0.48445899548E+02 -0.41403339338E+03 -0.18895243533E+04  0.19371104909E+04  0.91236595064E+02 0.  0.
         23    2    4    4    0    0  0.43150192723E+02  0.40034351613E+03 -0.80810325280E+03  0.90738940605E+03  0.90486446369E+02 0.  0.
          4    1    3    3  502    0 -0.29060597148E+02  0.14340206244E+02 -0.34243254759E+02  0.47146159103E+02  0.00000000000E+00 0. -1.
         -3    1    3    3    0  502  0.34356303973E+02 -0.65032900237E+00  0.18610206443E+02  0.39078361459E+02  0.00000000000E+00 0.  1.
         11    1    5    5    0    0 -0.74177447985E+02 -0.25780496789E+03 -0.12110049186E+04  0.12403622890E+04  0.00000000000E+00 0. -1.
        -11    1    5    5    0    0  0.25731548437E+02 -0.15622842549E+03 -0.67851943471E+03  0.69674820186E+03  0.00000000000E+00 0.  1.
          1    1    6    6  503    0  0.19194720472E+02  0.10978975256E+02 -0.34195321774E+02  0.40722171147E+02  0.00000000000E+00 0. -1.
         -1    1    6    6    0  503  0.23955472252E+02  0.38936454088E+03 -0.77390793103E+03  0.86666723490E+03  0.00000000000E+00 0.  1.
<mgrwt>
<rscale>  0 0.11078638E+04</rscale>
<asrwt>0</asrwt>
<pdfrwt beam="1">  1        2 0.43415274E+00 0.11078638E+04</pdfrwt>
<pdfrwt beam="2">  1       -1 0.16727980E-01 0.11078638E+04</pdfrwt>
<totfact> 0.70783265E+01</totfact>
</mgrwt>
</event>
<event>
12    6  0.1521603E-007  0.1731481E+04  0.7818608E-02  0.8743611E-01
         -1   -1    0    0    0  501 -0.00000000000E+00  0.00000000000E+00  0.50346096688E+03  0.50346096688E+03  0.00000000000E+00 0.  1.
          2   -1    0    0  501    0  0.00000000000E+00 -0.00000000000E+00 -0.14887084404E+04  0.14887084404E+04  0.00000000000E+00 0. -1.
         24    2    1    2    0    0 -0.33483907482E+03 -0.43715832401E+02  0.25176947562E+03  0.42764600649E+03  0.73925354149E+02 0.  0.
        254    2    1    2    0    0  0.33483907482E+03  0.43715832401E+02 -0.12370169491E+04  0.15645234007E+04  0.89637841289E+03 0.  0.
         23    2    4    4    0    0 -0.25142844053E+03  0.15366047250E+03 -0.66525690235E+03  0.73313684591E+03  0.89972702461E+02 0.  0.
         23    2    4    4    0    0  0.58626751535E+03 -0.10994464010E+03 -0.57176004675E+03  0.83138655483E+03  0.92177161264E+02 0.  0.
          2    1    3    3  502    0 -0.13830405675E+03 -0.24443858070E+02  0.61167993017E+02  0.15318954821E+03  0.00000000000E+00 0. -1.
         -1    1    3    3    0  502 -0.19653501806E+03 -0.19271974332E+02  0.19060148260E+03  0.27445645828E+03  0.00000000000E+00 0.  1.
         11    1    5    5    0    0 -0.96674138427E+02  0.11110872231E+03 -0.33503306908E+03  0.36597567486E+03  0.00000000000E+00 0. -1.
        -11    1    5    5    0    0 -0.15475430211E+03  0.42551750187E+02 -0.33022383327E+03  0.36716117105E+03  0.00000000000E+00 0.  1.
          1    1    6    6  503    0  0.30094863664E+03 -0.95693495188E+01 -0.28323197920E+03  0.41337877109E+03  0.00000000000E+00 0.  1.
         -1    1    6    6    0  503  0.28531887871E+03 -0.10037529058E+03 -0.28852806755E+03  0.41800778375E+03  0.00000000000E+00 0. -1.
<mgrwt>
<rscale>  0 0.17314810E+04</rscale>
<asrwt>0</asrwt>
<pdfrwt beam="1">  1        2 0.22903206E+00 0.17314810E+04</pdfrwt>
<pdfrwt beam="2">  1       -1 0.77455535E-01 0.17314810E+04</pdfrwt>
<totfact> 0.23278800E+01</totfact>
</mgrwt>
</event>
<event>
12    6  0.1521603E-007  0.1457484E+04  0.7818608E-02  0.8913228E-01
          2   -1    0    0  501    0  0.00000000000E+00  0.00000000000E+00  0.17295013712E+04  0.17295013712E+04  0.00000000000E+00 0. -1.
         -1   -1    0    0    0  501 -0.00000000000E+00 -0.00000000000E+00 -0.30706261605E+03  0.30706261605E+03  0.00000000000E+00 0.  1.
         24    2    1    2    0    0  0.11225506969E+03 -0.17382369319E+02  0.10422002420E+04  0.10514020640E+04  0.79759691100E+02 0.  0.
        254    2    1    2    0    0 -0.11225506969E+03  0.17382369319E+02  0.38023851321E+03  0.98516192331E+03  0.90169803192E+03 0.  0.
         23    2    4    4    0    0 -0.48273895986E+03 -0.10150272451E+03  0.27507785976E+03  0.57240835969E+03  0.92972011162E+02 0.  0.
         23    2    4    4    0    0  0.37048389017E+03  0.11888509383E+03  0.10516065344E+03  0.41275356362E+03  0.88964952860E+02 0.  0.
          4    1    3    3  502    0  0.11294587037E+03 -0.36402394741E+02  0.93816073522E+03  0.94563601300E+03  0.00000000000E+00 0. -1.
         -3    1    3    3    0  502 -0.69080068545E+00  0.19020025422E+02  0.10403950674E+03  0.10576605096E+03  0.00000000000E+00 0.  1.
         11    1    5    5    0    0 -0.17399526482E+03 -0.78364177898E+02  0.83313359893E+02  0.20822202692E+03  0.00000000000E+00 0. -1.
        -11    1    5    5    0    0 -0.30874369504E+03 -0.23138546616E+02  0.19176449987E+03  0.36418633277E+03  0.00000000000E+00 0.  1.
          1    1    6    6  503    0  0.17330745948E+03  0.66718186451E+02  0.94864770549E+02  0.20853325060E+03  0.00000000000E+00 0. -1.
         -1    1    6    6    0  503  0.19717643069E+03  0.52166907381E+02  0.10295882896E+02  0.20422031302E+03  0.00000000000E+00 0.  1.
<mgrwt>
<rscale>  0 0.14574844E+04</rscale>
<asrwt>0</asrwt>
<pdfrwt beam="1">  1        2 0.26607713E+00 0.14574844E+04</pdfrwt>
<pdfrwt beam="2">  1       -1 0.47240404E-01 0.14574844E+04</pdfrwt>
<totfact> 0.46610827E+01</totfact>
</mgrwt>
</event>
<event>
12    6  0.1521603E-007  0.1441162E+04  0.7818608E-02  0.8924551E-01
          2   -1    0    0  501    0  0.00000000000E+00  0.00000000000E+00  0.36644995413E+03  0.36644995413E+03  0.00000000000E+00 0. -1.
         -1   -1    0    0    0  501 -0.00000000000E+00 -0.00000000000E+00 -0.14169373574E+04  0.14169373574E+04  0.00000000000E+00 0.  1.
         24    2    1    2    0    0 -0.42090461724E+03  0.85657387719E+02 -0.28123745362E+03  0.51988704202E+03  0.81793314212E+02 0.  0.
        254    2    1    2    0    0  0.42090461724E+03 -0.85657387719E+02 -0.76924994969E+03  0.12635002696E+04  0.90564317541E+03 0.  0.
         23    2    4    4    0    0 -0.40604350603E+00 -0.20791428295E+03 -0.78316203116E+03  0.81518343854E+03  0.89178234345E+02 0.  0.
         23    2    4    4    0    0  0.42131066075E+03  0.12225689524E+03  0.13912081470E+02  0.44831683101E+03  0.91351046339E+02 0.  0.
          4    1    3    3  502    0 -0.38678731088E+03  0.53757591059E+02 -0.25328775081E+03  0.46545567691E+03  0.00000000000E+00 0. -1.
         -3    1    3    3    0  502 -0.34117306361E+02  0.31899796660E+02 -0.27949702813E+02  0.54431365109E+02  0.00000000000E+00 0.  1.
         11    1    5    5    0    0 -0.41123069221E+02 -0.66808107052E+02 -0.30863608857E+03  0.31845041240E+03  0.00000000000E+00 0. -1.
        -11    1    5    5    0    0  0.40717025715E+02 -0.14110617590E+03 -0.47452594260E+03  0.49673302614E+03  0.00000000000E+00 0.  1.
          4    1    6    6  503    0  0.40305375334E+03  0.10759548665E+03 -0.65519687157E+01  0.41721942083E+03  0.00000000000E+00 0. -1.
         -4    1    6    6    0  503  0.18256907410E+02  0.14661408585E+02  0.20464050186E+02  0.31097410180E+02  0.00000000000E+00 0.  1.
<mgrwt>
<rscale>  0 0.14411615E+04</rscale>
<asrwt>0</asrwt>
<pdfrwt beam="1">  1        2 0.56376916E-01 0.14411615E+04</pdfrwt>
<pdfrwt beam="2">  1       -1 0.21799036E+00 0.14411615E+04</pdfrwt>
<totfact> 0.11066490E+01</totfact>
</mgrwt>
</event>
<event>
12    6  0.1521603E-007  0.1411014E+04  0.7818608E-02  0.8945884E-01
          2   -1    0    0  501    0  0.00000000000E+00  0.00000000000E+00  0.18985214726E+04  0.18985214726E+04  0.00000000000E+00 0. -1.
         -1   -1    0    0    0  501 -0.00000000000E+00 -0.00000000000E+00 -0.26217251777E+03  0.26217251777E+03  0.00000000000E+00 0.  1.
         24    2    1    2    0    0 -0.36390961932E+03 -0.15605632934E+03  0.35142459289E+03  0.53768052555E+03  0.93900554359E+02 0.  0.
        254    2    1    2    0    0  0.36390961932E+03  0.15605632934E+03  0.12849243619E+04  0.16230134648E+04  0.90904251940E+03 0.  0.
         23    2    4    4    0    0  0.10105884331E+03 -0.30485509087E+03  0.14736228229E+03  0.36352920634E+03  0.85371689559E+02 0.  0.
         23    2    4    4    0    0  0.26285077601E+03  0.46091142021E+03  0.11375620796E+04  0.12594842585E+04  0.10355310018E+03 0.  0.
          4    1    3    3  502    0 -0.23305483403E+02 -0.20311396091E+02  0.66490255654E+02  0.73325660343E+02  0.00000000000E+00 0. -1.
         -3    1    3    3    0  502 -0.34060413592E+03 -0.13574493325E+03  0.28493433723E+03  0.46435486521E+03  0.00000000000E+00 0.  1.
         11    1    5    5    0    0 -0.12873832266E+02 -0.23140563318E+02  0.23394782810E+02  0.35334644340E+02  0.00000000000E+00 0.  1.
        -11    1    5    5    0    0  0.11393267558E+03 -0.28171452755E+03  0.12396749948E+03  0.32819456200E+03  0.00000000000E+00 0. -1.
          4    1    6    6  503    0  0.25747266131E+02  0.13260932083E+03  0.30970646677E+03  0.33788496451E+03  0.00000000000E+00 0.  1.
         -4    1    6    6    0  503  0.23710350988E+03  0.32830209938E+03  0.82785561287E+03  0.92159929395E+03  0.00000000000E+00 0. -1.
<mgrwt>
<rscale>  0 0.14110140E+04</rscale>
<asrwt>0</asrwt>
<pdfrwt beam="1">  1        2 0.29208022E+00 0.14110140E+04</pdfrwt>
<pdfrwt beam="2">  1       -1 0.40334235E-01 0.14110140E+04</pdfrwt>
<totfact> 0.50573733E+01</totfact>
</mgrwt>
</event>
<event>
12    6  0.1521603E-007  0.2260908E+04  0.7818608E-02  0.8493496E-01
          2   -1    0    0  501    0  0.00000000000E+00  0.00000000000E+00  0.34501790727E+04  0.34501790727E+04  0.00000000000E+00 0. -1.
         -1   -1    0    0    0  501 -0.00000000000E+00 -0.00000000000E+00 -0.37039404962E+03  0.37039404962E+03  0.00000000000E+00 0.  1.
         24    2    1    2    0    0  0.37934363051E+03 -0.37226158240E+03  0.26185452991E+04  0.26740626630E+04  0.10654279171E+03 0.  0.
        254    2    1    2    0    0 -0.37934363051E+03  0.37226158240E+03  0.46123972398E+03  0.11465104593E+04  0.90513196531E+03 0.  0.
         23    2    4    4    0    0  0.21476688531E+01  0.44916734297E+03  0.57137006205E+03  0.73245991155E+03  0.90982744251E+02 0.  0.
         23    2    4    4    0    0 -0.38149129936E+03 -0.76905760573E+02 -0.11013033807E+03  0.41405054777E+03  0.88651323984E+02 0.  0.
          2    1    3    3  502    0  0.10563171795E+03 -0.13534065189E+03  0.10758362388E+04  0.10894488353E+04  0.00000000000E+00 0. -1.
         -1    1    3    3    0  502  0.27371191255E+03 -0.23692093051E+03  0.15427090603E+04  0.15846138278E+04  0.00000000000E+00 0.  1.
         11    1    5    5    0    0 -0.10232967182E+02  0.28999424064E+01  0.64821322172E+01  0.12455573909E+02  0.00000000000E+00 0. -1.
        -11    1    5    5    0    0  0.12380636035E+02  0.44626740056E+03  0.56488792983E+03  0.72000433765E+03  0.00000000000E+00 0.  1.
          1    1    6    6  503    0 -0.13168995649E+03 -0.67552922950E+02 -0.25831107575E+02  0.15024276408E+03  0.00000000000E+00 0. -1.
         -1    1    6    6    0  503 -0.24980134287E+03 -0.93528376231E+01 -0.84299230499E+02  0.26380778369E+03  0.00000000000E+00 0.  1.
<mgrwt>
<rscale>  0 0.22609076E+04</rscale>
<asrwt>0</asrwt>
<pdfrwt beam="1">  1        2 0.53079676E+00 0.22609076E+04</pdfrwt>
<pdfrwt beam="2">  1       -1 0.56983702E-01 0.22609076E+04</pdfrwt>
<totfact> 0.28488512E+00</totfact>
</mgrwt>
</event>
<event>
12    6  0.1521603E-007  0.1425221E+04  0.7818608E-02  0.8935762E-01
         -1   -1    0    0    0  501 -0.00000000000E+00  0.00000000000E+00  0.32885377589E+03  0.32885377589E+03  0.00000000000E+00 0.  1.
          2   -1    0    0  501    0  0.00000000000E+00 -0.00000000000E+00 -0.15441941035E+04  0.15441941035E+04  0.00000000000E+00 0. -1.
         24    2    1    2    0    0  0.52303170183E+02  0.17395186235E+03  0.13863169126E+03  0.24005665983E+03  0.73577048620E+02 0.  0.
        254    2    1    2    0    0 -0.52303170183E+02 -0.17395186235E+03 -0.13539720189E+04  0.16329912195E+04  0.89466486643E+03 0.  0.
         23    2    4    4    0    0 -0.21438125381E+03  0.28210051391E+03 -0.31620314338E+03  0.48405551647E+03  0.93729894913E+02 0.  0.
         23    2    4    4    0    0  0.16207808362E+03 -0.45605237626E+03 -0.10377688755E+04  0.11489357031E+04  0.93999658562E+02 0.  0.
          2    1    3    3  502    0 -0.92183611760E+01  0.34387385623E+02  0.56621259120E+02  0.66883760788E+02  0.00000000000E+00 0. -1.
         -1    1    3    3    0  502  0.61521531359E+02  0.13956447673E+03  0.82010432139E+02  0.17317289905E+03  0.00000000000E+00 0.  1.
         11    1    5    5    0    0 -0.71102952135E+02  0.16870408727E+03 -0.14323562578E+03  0.23245030298E+03  0.00000000000E+00 0. -1.
        -11    1    5    5    0    0 -0.14327830167E+03  0.11339642664E+03 -0.17296751761E+03  0.25160521349E+03  0.00000000000E+00 0.  1.
          4    1    6    6  503    0  0.13063615468E+03 -0.42189804946E+03 -0.88207976536E+03  0.98647274747E+03  0.00000000000E+00 0. -1.
         -4    1    6    6    0  503  0.31441928942E+02 -0.34154326804E+02 -0.15568911011E+03  0.16246295560E+03  0.00000000000E+00 0.  1.
<mgrwt>
<rscale>  0 0.14252215E+04</rscale>
<asrwt>0</asrwt>
<pdfrwt beam="1">  1        2 0.23756832E+00 0.14252215E+04</pdfrwt>
<pdfrwt beam="2">  1       -1 0.50592890E-01 0.14252215E+04</pdfrwt>
<totfact> 0.52066612E+01</totfact>
</mgrwt>
</event>
<event>
12    6  0.1521603E-007  0.1693056E+04  0.7818608E-02  0.8765335E-01
          2   -1    0    0  501    0  0.00000000000E+00  0.00000000000E+00  0.30492631061E+04  0.30492631061E+04  0.00000000000E+00 0. -1.
         -1   -1    0    0    0  501 -0.00000000000E+00 -0.00000000000E+00 -0.23501083754E+03  0.23501083754E+03  0.00000000000E+00 0.  1.
         24    2    1    2    0    0  0.15484531815E+03 -0.19042850649E+03 -0.57400046567E+02  0.26447978808E+03  0.80091849274E+02 0.  0.
        254    2    1    2    0    0 -0.15484531815E+03  0.19042850649E+03  0.28716523151E+04  0.30197941556E+04  0.90140425690E+03 0.  0.
         23    2    4    4    0    0 -0.23362459453E+03  0.36447158206E+03  0.63856497535E+03  0.77702067112E+03  0.92606210886E+02 0.  0.
         23    2    4    4    0    0  0.78779276386E+02 -0.17404307558E+03  0.22330873398E+04  0.22427734844E+04  0.82805005395E+02 0.  0.
          4    1    3    3  502    0  0.17931671145E+02 -0.36787613671E+02  0.18793763755E+02  0.45034197070E+02  0.00000000000E+00 0. -1.
         -3    1    3    3    0  502  0.13691364700E+03 -0.15364089281E+03 -0.76193810322E+02  0.21944559101E+03  0.00000000000E+00 0.  1.
         11    1    5    5    0    0 -0.13029222534E+03  0.12958407050E+03  0.30637970240E+03  0.35726267277E+03  0.00000000000E+00 0. -1.
        -11    1    5    5    0    0 -0.10333236919E+03  0.23488751156E+03  0.33218527295E+03  0.41975799834E+03  0.00000000000E+00 0.  1.
          4    1    6    6  503    0  0.47410191665E+02 -0.27712008562E+02  0.80342743362E+03  0.80530200719E+03  0.00000000000E+00 0. -1.
         -4    1    6    6    0  503  0.31369084720E+02 -0.14633106701E+03  0.14296599061E+04  0.14374714772E+04  0.00000000000E+00 0.  1.
<mgrwt>
<rscale>  0 0.16930563E+04</rscale>
<asrwt>0</asrwt>
<pdfrwt beam="1">  1        2 0.46911737E+00 0.16930563E+04</pdfrwt>
<pdfrwt beam="2">  1       -1 0.36155516E-01 0.16930563E+04</pdfrwt>
<totfact> 0.12930217E+01</totfact>
</mgrwt>
</event>
<event>
12    6  0.1521603E-007  0.2678124E+04  0.7818608E-02  0.8342138E-01
          2   -1    0    0  501    0  0.00000000000E+00  0.00000000000E+00  0.40604580863E+03  0.40604580863E+03  0.00000000000E+00 0. -1.
         -1   -1    0    0    0  501 -0.00000000000E+00 -0.00000000000E+00 -0.44159720287E+04  0.44159720287E+04  0.00000000000E+00 0.  1.
         24    2    1    2    0    0  0.48027743464E+03 -0.42410693036E+02 -0.37244489831E+04  0.37562849005E+04  0.75438350080E+02 0.  0.
        254    2    1    2    0    0 -0.48027743464E+03  0.42410693036E+02 -0.28547723694E+03  0.10657329368E+04  0.90654528773E+03 0.  0.
         23    2    4    4    0    0  0.84644232725E+02  0.18428770164E+03 -0.40667276156E+03  0.46353336756E+03  0.91399369426E+02 0.  0.
         23    2    4    4    0    0 -0.56492166736E+03 -0.14187700860E+03  0.12119552462E+03  0.60219956927E+03  0.93222262408E+02 0.  0.
          4    1    3    3  502    0  0.18354840182E+03  0.19956378838E+02 -0.13618228431E+04  0.13742815319E+04  0.00000000000E+00 0. -1.
         -1    1    3    3    0  502  0.29672903282E+03 -0.62367071874E+02 -0.23626261400E+04  0.23820033686E+04  0.00000000000E+00 0.  1.
         11    1    5    5    0    0 -0.86079737063E+00  0.28565949738E+02 -0.12532538063E+02  0.31206072596E+02  0.00000000000E+00 0.  1.
        -11    1    5    5    0    0  0.85505030096E+02  0.15572175190E+03 -0.39414022350E+03  0.43232729496E+03  0.00000000000E+00 0. -1.
          4    1    6    6  503    0 -0.46616281718E+03 -0.11686852465E+03  0.13549592104E+03  0.49932471278E+03  0.00000000000E+00 0. -1.
         -4    1    6    6    0  503 -0.98758850187E+02 -0.25008483952E+02 -0.14300396416E+02  0.10287485649E+03  0.00000000000E+00 0.  1.
<mgrwt>
<rscale>  0 0.26781239E+04</rscale>
<asrwt>0</asrwt>
<pdfrwt beam="1">  1        2 0.62468581E-01 0.26781239E+04</pdfrwt>
<pdfrwt beam="2">  1       -1 0.67938037E+00 0.26781239E+04</pdfrwt>
<totfact> 0.18192956E-02</totfact>
</mgrwt>
</event>
<event>
12    6  0.1521603E-007  0.2333473E+04  0.7818608E-02  0.8464839E-01
          2   -1    0    0  501    0  0.00000000000E+00  0.00000000000E+00  0.83905926756E+03  0.83905926756E+03  0.00000000000E+00 0. -1.
         -1   -1    0    0    0  501 -0.00000000000E+00 -0.00000000000E+00 -0.16223814354E+04  0.16223814354E+04  0.00000000000E+00 0.  1.
         24    2    1    2    0    0  0.92084747559E+03 -0.31146569375E+03 -0.12536613118E+03  0.98354553287E+03  0.81695756911E+02 0.  0.
        254    2    1    2    0    0 -0.92084747559E+03  0.31146569375E+03 -0.65795603662E+03  0.14778951700E+04  0.89794044115E+03 0.  0.
         23    2    4    4    0    0 -0.55752009505E+03  0.54837876105E+03 -0.14368555885E+03  0.80007867267E+03  0.89064138029E+02 0.  0.
         23    2    4    4    0    0 -0.36332738054E+03 -0.23691306731E+03 -0.51427047777E+03  0.67781649738E+03  0.82622593132E+02 0.  0.
          2    1    3    3  502    0  0.87153752848E+03 -0.31339597625E+03 -0.11846932414E+03  0.93371820280E+03  0.00000000000E+00 0. -1.
         -1    1    3    3    0  502  0.49309947109E+02  0.19302824993E+01 -0.68968070371E+01  0.49827330068E+02  0.00000000000E+00 0.  1.
         11    1    5    5    0    0 -0.54548984063E+03  0.50978884449E+03 -0.13482541827E+03  0.75869738737E+03  0.00000000000E+00 0.  1.
        -11    1    5    5    0    0 -0.12030254420E+02  0.38589916564E+02 -0.88601405740E+01  0.41381285297E+02  0.00000000000E+00 0. -1.
          4    1    6    6  503    0 -0.19220085858E+03 -0.14803775533E+03 -0.34155414756E+03  0.41894579931E+03  0.00000000000E+00 0. -1.
         -4    1    6    6    0  503 -0.17112652195E+03 -0.88875311974E+02 -0.17271633022E+03  0.25887069807E+03  0.00000000000E+00 0.  1.
<mgrwt>
<rscale>  0 0.23334731E+04</rscale>
<asrwt>0</asrwt>
<pdfrwt beam="1">  1        2 0.12908604E+00 0.23334731E+04</pdfrwt>
<pdfrwt beam="2">  1       -1 0.24959714E+00 0.23334731E+04</pdfrwt>
<totfact> 0.23368433E+00</totfact>
</mgrwt>
</event>
<event>
12    6  0.1521603E-007  0.1700769E+04  0.7818608E-02  0.8760926E-01
         -1   -1    0    0    0  501 -0.00000000000E+00  0.00000000000E+00  0.26468345287E+03  0.26468345287E+03  0.00000000000E+00 0.  1.
          2   -1    0    0  501    0  0.00000000000E+00 -0.00000000000E+00 -0.27321469117E+04  0.27321469117E+04  0.00000000000E+00 0. -1.
         24    2    1    2    0    0  0.50295568442E+03  0.22665730133E+03 -0.43558548100E+03  0.70750636197E+03  0.80576598515E+02 0.  0.
        254    2    1    2    0    0 -0.50295568442E+03 -0.22665730133E+03 -0.20318779778E+04  0.22893240026E+04  0.89896513802E+03 0.  0.
         23    2    4    4    0    0 -0.14355222782E+03  0.33819951883E+03 -0.76756356762E+03  0.85578301019E+03  0.90689434525E+02 0.  0.
         23    2    4    4    0    0 -0.35940345660E+03 -0.56485682016E+03 -0.12643144102E+04  0.14335409924E+04  0.91185400068E+02 0.  0.
          2    1    3    3  502    0  0.41718444635E+02  0.39310786059E+02 -0.66396072408E+02  0.87716617323E+02  0.00000000000E+00 0. -1.
         -1    1    3    3    0  502  0.46123723979E+03  0.18734651527E+03 -0.36918940859E+03  0.61978974464E+03  0.00000000000E+00 0.  1.
         11    1    5    5    0    0 -0.62051149643E+02  0.83347820708E+02 -0.14723024315E+03  0.18020529650E+03  0.00000000000E+00 0. -1.
        -11    1    5    5    0    0 -0.81501078181E+02  0.25485169812E+03 -0.62033332447E+03  0.67557771368E+03  0.00000000000E+00 0.  1.
          1    1    6    6  503    0 -0.80210548074E+01 -0.98137445424E+00 -0.44567698416E+01  0.92283917052E+01  0.00000000000E+00 0. -1.
         -1    1    6    6    0  503 -0.35138240179E+03 -0.56387544571E+03 -0.12598576404E+04  0.14243126007E+04  0.00000000000E+00 0.  1.
<mgrwt>
<rscale>  0 0.17007693E+04</rscale>
<asrwt>0</asrwt>
<pdfrwt beam="1">  1        2 0.42033028E+00 0.17007693E+04</pdfrwt>
<pdfrwt beam="2">  1       -1 0.40720533E-01 0.17007693E+04</pdfrwt>
<totfact> 0.16271832E+01</totfact>
</mgrwt>
</event>
<event>
12    6  0.1521603E-007  0.1318194E+04  0.7818608E-02  0.9015260E-01
         -1   -1    0    0    0  501 -0.00000000000E+00  0.00000000000E+00  0.58393643264E+03  0.58393643264E+03  0.00000000000E+00 0.  1.
          2   -1    0    0  501    0  0.00000000000E+00 -0.00000000000E+00 -0.74393163306E+03  0.74393163306E+03  0.00000000000E+00 0. -1.
         24    2    1    2    0    0  0.11430118128E+03 -0.28057613863E+03  0.12714663121E+03  0.33844650784E+03  0.81191398721E+02 0.  0.
        254    2    1    2    0    0 -0.11430118128E+03  0.28057613863E+03 -0.28714183164E+03  0.98942155786E+03  0.89706011955E+03 0.  0.
         23    2    4    4    0    0  0.86713597851E+01 -0.18964268008E+03 -0.42635069623E+03  0.47566284710E+03  0.91873224333E+02 0.  0.
         23    2    4    4    0    0 -0.12297254106E+03  0.47021881871E+03  0.13920886459E+03  0.51375871076E+03  0.91328645992E+02 0.  0.
          2    1    3    3  502    0  0.99151108700E+02 -0.26937956084E+03  0.97182258056E+02  0.30305227508E+03  0.00000000000E+00 0. -1.
         -1    1    3    3    0  502  0.15150072576E+02 -0.11196577798E+02  0.29964373158E+02  0.35394232754E+02  0.00000000000E+00 0.  1.
         11    1    5    5    0    0 -0.97790619143E+01 -0.16167739867E+03 -0.40434153924E+03  0.43557696409E+03  0.00000000000E+00 0. -1.
        -11    1    5    5    0    0  0.18450421699E+02 -0.27965281412E+02 -0.22009156989E+02  0.40085883010E+02  0.00000000000E+00 0.  1.
          3    1    6    6  503    0 -0.90110122805E+02  0.18133081649E+03  0.75540628759E+02  0.21611822189E+03  0.00000000000E+00 0. -1.
         -3    1    6    6    0  503 -0.32862418257E+02  0.28888800222E+03  0.63668235833E+02  0.29764048887E+03  0.00000000000E+00 0.  1.
<mgrwt>
<rscale>  0 0.13181939E+04</rscale>
<asrwt>0</asrwt>
<pdfrwt beam="1">  1        2 0.11445102E+00 0.13181939E+04</pdfrwt>
<pdfrwt beam="2">  1       -1 0.89836375E-01 0.13181939E+04</pdfrwt>
<totfact> 0.51407712E+01</totfact>
</mgrwt>
</event>
<event>
12    6  0.1521603E-007  0.1160036E+04  0.7818608E-02  0.9148574E-01
         -1   -1    0    0    0  501 -0.00000000000E+00  0.00000000000E+00  0.20347972202E+03  0.20347972202E+03  0.00000000000E+00 0.  1.
          2   -1    0    0  501    0  0.00000000000E+00 -0.00000000000E+00 -0.16533395519E+04  0.16533395519E+04  0.00000000000E+00 0. -1.
         24    2    1    2    0    0 -0.50551109533E+01 -0.67237730363E+02 -0.60216978832E+03  0.61116615099E+03  0.79806914603E+02 0.  0.
        254    2    1    2    0    0  0.50551109533E+01  0.67237730363E+02 -0.84769004158E+03  0.12456531230E+04  0.91023449154E+03 0.  0.
         23    2    4    4    0    0 -0.40842614639E+02  0.27908496855E+03 -0.94579992867E+03  0.99120054523E+03  0.91566789517E+02 0.  0.
         23    2    4    4    0    0  0.45897725592E+02 -0.21184723818E+03  0.98109887092E+02  0.25445257772E+03  0.90192631768E+02 0.  0.
          4    1    3    3  502    0  0.12074463749E+02 -0.52337134617E+02 -0.56544430104E+03  0.56798963539E+03  0.00000000000E+00 0. -1.
         -3    1    3    3    0  502 -0.17129574702E+02 -0.14900595746E+02 -0.36725487276E+02  0.43176515593E+02  0.00000000000E+00 0.  1.
         11    1    5    5    0    0 -0.64426590858E+02  0.23007405085E+03 -0.82110385418E+03  0.85515869512E+03  0.00000000000E+00 0. -1.
        -11    1    5    5    0    0  0.23583976219E+02  0.49010917694E+02 -0.12469607449E+03  0.13604185011E+03  0.00000000000E+00 0.  1.
          3    1    6    6  503    0  0.26188605683E+02 -0.21154617726E+03  0.98312235994E+02  0.23474011998E+03  0.00000000000E+00 0. -1.
         -3    1    6    6    0  503  0.19709119909E+02 -0.30106092083E+00 -0.20234890221E+00  0.19712457745E+02  0.00000000000E+00 0.  1.
<mgrwt>
<rscale>  0 0.11600363E+04</rscale>
<asrwt>0</asrwt>
<pdfrwt beam="1">  1        2 0.25435993E+00 0.11600363E+04</pdfrwt>
<pdfrwt beam="2">  1       -1 0.31304573E-01 0.11600363E+04</pdfrwt>
<totfact> 0.11105771E+02</totfact>
</mgrwt>
</event>
<event>
12    6  0.1521603E-007  0.2852377E+04  0.7818608E-02  0.8287189E-01
          2   -1    0    0  501    0  0.00000000000E+00  0.00000000000E+00  0.24448399742E+04  0.24448399742E+04  0.00000000000E+00 0. -1.
         -1   -1    0    0    0  501 -0.00000000000E+00 -0.00000000000E+00 -0.83196203124E+03  0.83196203124E+03  0.00000000000E+00 0.  1.
         24    2    1    2    0    0  0.40344743144E+03 -0.10930428654E+04  0.11032028193E+03  0.11730622847E+04  0.79950133124E+02 0.  0.
        254    2    1    2    0    0 -0.40344743144E+03  0.10930428654E+04  0.15025576610E+04  0.21037397207E+04  0.90029370328E+03 0.  0.
         23    2    4    4    0    0 -0.41094007275E+03  0.93036904610E+03  0.15945679746E+04  0.18934501898E+04  0.89712264157E+02 0.  0.
         23    2    4    4    0    0  0.74926413165E+01  0.16267381928E+03 -0.92010313563E+02  0.21028953088E+03  0.96108677245E+02 0.  0.
          4    1    3    3  502    0  0.35338332648E+03 -0.90759550111E+03  0.11628740757E+03  0.98088334180E+03  0.00000000000E+00 0. -1.
         -3    1    3    3    0  502  0.50064104954E+02 -0.18544736428E+03 -0.59671256429E+01  0.19217894294E+03  0.00000000000E+00 0.  1.
         11    1    5    5    0    0 -0.20224705811E+03  0.54419147896E+03  0.95872063322E+03  0.11208003796E+04  0.00000000000E+00 0. -1.
        -11    1    5    5    0    0 -0.20869301464E+03  0.38617756714E+03  0.63584734137E+03  0.77264981023E+03  0.00000000000E+00 0.  1.
          4    1    6    6  503    0  0.12065268713E+02  0.16280636991E+03 -0.53922020520E+02  0.17192751115E+03  0.00000000000E+00 0. -1.
         -4    1    6    6    0  503 -0.45726273964E+01 -0.13255062744E+00 -0.38088293043E+02  0.38362019732E+02  0.00000000000E+00 0.  1.
<mgrwt>
<rscale>  0 0.28523773E+04</rscale>
<asrwt>0</asrwt>
<pdfrwt beam="1">  1        2 0.37612922E+00 0.28523773E+04</pdfrwt>
<pdfrwt beam="2">  1       -1 0.12799416E+00 0.28523773E+04</pdfrwt>
<totfact> 0.19459133E+00</totfact>
</mgrwt>
</event>
<event>
12    6  0.1521603E-007  0.1396775E+04  0.7818608E-02  0.8956156E-01
         -1   -1    0    0    0  501 -0.00000000000E+00  0.00000000000E+00  0.16493082176E+03  0.16493082176E+03  0.00000000000E+00 0.  1.
          2   -1    0    0  501    0  0.00000000000E+00 -0.00000000000E+00 -0.29572701949E+04  0.29572701949E+04  0.00000000000E+00 0. -1.
         24    2    1    2    0    0  0.60152742946E+02 -0.35912761479E+03 -0.44095851915E+03  0.57778606089E+03  0.82470118003E+02 0.  0.
        254    2    1    2    0    0 -0.60152742946E+02  0.35912761479E+03 -0.23513808540E+04  0.25444149558E+04  0.90136815476E+03 0.  0.
         23    2    4    4    0    0  0.88310420645E+02  0.78856911147E+02 -0.21555132388E+04  0.21607396254E+04  0.92418954109E+02 0.  0.
         23    2    4    4    0    0 -0.14846316359E+03  0.28027070364E+03 -0.19586761516E+03  0.38367533039E+03  0.90827629136E+02 0.  0.
          4    1    3    3  502    0  0.44458705200E+02 -0.33642337142E+03 -0.43073728261E+03  0.54835377990E+03  0.00000000000E+00 0. -1.
         -3    1    3    3    0  502  0.15694037745E+02 -0.22704243374E+02 -0.10221236540E+02  0.29432280991E+02  0.00000000000E+00 0.  1.
         11    1    5    5    0    0  0.97266348573E+02  0.70198587182E+02 -0.14016196619E+04  0.14067431396E+04  0.00000000000E+00 0.  1.
        -11    1    5    5    0    0 -0.89559279279E+01  0.86583239653E+01 -0.75389357695E+03  0.75399648579E+03  0.00000000000E+00 0. -1.
          4    1    6    6  503    0 -0.15625114061E+03  0.28117049510E+03 -0.19390573455E+03  0.37559379673E+03  0.00000000000E+00 0. -1.
         -4    1    6    6    0  503  0.77879770148E+01 -0.89979145375E+00 -0.19618806094E+01  0.80815336521E+01  0.00000000000E+00 0.  1.
<mgrwt>
<rscale>  0 0.13967749E+04</rscale>
<asrwt>0</asrwt>
<pdfrwt beam="1">  1        2 0.45496466E+00 0.13967749E+04</pdfrwt>
<pdfrwt beam="2">  1       -1 0.25373972E-01 0.13967749E+04</pdfrwt>
<totfact> 0.28272784E+01</totfact>
</mgrwt>
</event>
<event>
12    6  0.1521603E-007  0.1500420E+04  0.7818608E-02  0.8884174E-01
         -1   -1    0    0    0  501 -0.00000000000E+00  0.00000000000E+00  0.11609189174E+04  0.11609189174E+04  0.00000000000E+00 0.  1.
          2   -1    0    0  501    0  0.00000000000E+00 -0.00000000000E+00 -0.48480146320E+03  0.48480146320E+03  0.00000000000E+00 0. -1.
         24    2    1    2    0    0  0.46753134019E+03 -0.10720998089E+03  0.20357011098E+03  0.52615751025E+03  0.72947936501E+02 0.  0.
        254    2    1    2    0    0 -0.46753134019E+03  0.10720998089E+03  0.47254734324E+03  0.11195628704E+04  0.89444982816E+03 0.  0.
         23    2    4    4    0    0  0.13892119402E+03  0.30986817665E+03  0.71185304837E+02  0.35887318778E+03  0.91680053648E+02 0.  0.
         23    2    4    4    0    0 -0.60645253421E+03 -0.20265819576E+03  0.40136203841E+03  0.76068968261E+03  0.93286048210E+02 0.  0.
          4    1    3    3  502    0  0.29115541536E+03 -0.49965789939E+02  0.90468458585E+02  0.30895403874E+03  0.00000000000E+00 0. -1.
         -3    1    3    3    0  502  0.17637592483E+03 -0.57244190947E+02  0.11310165240E+03  0.21720347150E+03  0.00000000000E+00 0.  1.
         11    1    5    5    0    0  0.46382293224E+02  0.20714725376E+03  0.57586533217E+02  0.21994888196E+03  0.00000000000E+00 0.  1.
        -11    1    5    5    0    0  0.92538900799E+02  0.10272092288E+03  0.13598771619E+02  0.13892430582E+03  0.00000000000E+00 0. -1.
          3    1    6    6  503    0 -0.42666357231E+03 -0.96928976120E+02  0.27732182532E+03  0.51801971502E+03  0.00000000000E+00 0. -1.
         -3    1    6    6    0  503 -0.17978896190E+03 -0.10572921964E+03  0.12404021308E+03  0.24266996759E+03  0.00000000000E+00 0.  1.
<mgrwt>
<rscale>  0 0.15004202E+04</rscale>
<asrwt>0</asrwt>
<pdfrwt beam="1">  1        2 0.74584841E-01 0.15004202E+04</pdfrwt>
<pdfrwt beam="2">  1       -1 0.17860291E+00 0.15004202E+04</pdfrwt>
<totfact> 0.15016041E+01</totfact>
</mgrwt>
</event>
<event>
12    6  0.1521603E-007  0.1289217E+04  0.7818608E-02  0.9038160E-01
          2   -1    0    0  501    0  0.00000000000E+00  0.00000000000E+00  0.41843858449E+04  0.41843858449E+04  0.00000000000E+00 0. -1.
         -1   -1    0    0    0  501 -0.00000000000E+00 -0.00000000000E+00 -0.99302497367E+02  0.99302497367E+02  0.00000000000E+00 0.  1.
         24    2    1    2    0    0 -0.11931482770E+00 -0.14469137415E+02  0.20996213954E+04  0.21012494923E+04  0.81425147350E+02 0.  0.
        254    2    1    2    0    0  0.11931482770E+00  0.14469137415E+02  0.19854619521E+04  0.21824388499E+04  0.90596401714E+03 0.  0.
         23    2    4    4    0    0 -0.20401906263E+03  0.20310380267E+03  0.17999421579E+03  0.35352535933E+03  0.98525780363E+02 0.  0.
         23    2    4    4    0    0  0.20413837746E+03 -0.18863466525E+03  0.18054677363E+04  0.18289134906E+04  0.89192461771E+02 0.  0.
          2    1    3    3  502    0 -0.39431424100E+01 -0.42204121989E+02  0.17484778629E+04  0.17489915875E+04  0.00000000000E+00 0. -1.
         -1    1    3    3    0  502  0.38238275823E+01  0.27734984574E+02  0.35114353258E+03  0.35225790481E+03  0.00000000000E+00 0.  1.
         11    1    5    5    0    0 -0.12699800616E+02  0.45724445326E+02  0.64804741898E+02  0.80322253507E+02  0.00000000000E+00 0. -1.
        -11    1    5    5    0    0 -0.19131926201E+03  0.15737935734E+03  0.11518947389E+03  0.27320310582E+03  0.00000000000E+00 0.  1.
          4    1    6    6  503    0  0.12375738969E+02 -0.57697100019E+02  0.31754231256E+03  0.32297869052E+03  0.00000000000E+00 0. -1.
         -4    1    6    6    0  503  0.19176263849E+03 -0.13093756523E+03  0.14879254237E+04  0.15059348001E+04  0.00000000000E+00 0.  1.
<mgrwt>
<rscale>  0 0.12892168E+04</rscale>
<asrwt>0</asrwt>
<pdfrwt beam="1">  1        2 0.64375153E+00 0.12892168E+04</pdfrwt>
<pdfrwt beam="2">  1       -1 0.15277310E-01 0.12892168E+04</pdfrwt>
<totfact> 0.89035839E+00</totfact>
</mgrwt>
</event>
<event>
12    6  0.1521603E-007  0.1969156E+04  0.7818608E-02  0.8621179E-01
         -1   -1    0    0    0  501 -0.00000000000E+00  0.00000000000E+00  0.34666553585E+03  0.34666553585E+03  0.00000000000E+00 0.  1.
          2   -1    0    0  501    0  0.00000000000E+00 -0.00000000000E+00 -0.27963366157E+04  0.27963366157E+04  0.00000000000E+00 0. -1.
         24    2    1    2    0    0 -0.44769939780E+03  0.45237567381E+03 -0.16882305552E+04  0.18059431214E+04  0.78928126249E+02 0.  0.
        254    2    1    2    0    0  0.44769939780E+03 -0.45237567381E+03 -0.76144052465E+03  0.13370590302E+04  0.89602269865E+03 0.  0.
         23    2    4    4    0    0  0.57569970911E+03  0.36992018195E+02 -0.36401921064E+03  0.68753528356E+03  0.86001255523E+02 0.  0.
         23    2    4    4    0    0 -0.12800031131E+03 -0.48936769201E+03 -0.39742131401E+03  0.64952374660E+03  0.89847531346E+02 0.  0.
          4    1    3    3  502    0 -0.40291013631E+03  0.41271852503E+03 -0.15843042555E+04  0.16860288055E+04  0.00000000000E+00 0. -1.
         -3    1    3    3    0  502 -0.44789261491E+02  0.39657148781E+02 -0.10392629971E+03  0.11991431594E+03  0.00000000000E+00 0.  1.
         11    1    5    5    0    0  0.55692446061E+03  0.37705189555E+02 -0.36765407451E+03  0.66839812586E+03  0.00000000000E+00 0. -1.
        -11    1    5    5    0    0  0.18775248499E+02 -0.71317135929E+00  0.36348638754E+01  0.19137157704E+02  0.00000000000E+00 0.  1.
          1    1    6    6  503    0 -0.13121541360E+03 -0.43755697805E+03 -0.32588246501E+03  0.56113543358E+03  0.00000000000E+00 0. -1.
         -1    1    6    6    0  503  0.32151022994E+01 -0.51810713957E+02 -0.71538848994E+02  0.88388313023E+02  0.00000000000E+00 0.  1.
<mgrwt>
<rscale>  0 0.19691557E+04</rscale>
<asrwt>0</asrwt>
<pdfrwt beam="1">  1        2 0.43020563E+00 0.19691557E+04</pdfrwt>
<pdfrwt beam="2">  1       -1 0.53333159E-01 0.19691557E+04</pdfrwt>
<totfact> 0.87529836E+00</totfact>
</mgrwt>
</event>
<event>
12    6  0.1521603E-007  0.1665429E+04  0.7818608E-02  0.8781331E-01
          2   -1    0    0  501    0  0.00000000000E+00  0.00000000000E+00  0.25988056321E+04  0.25988056321E+04  0.00000000000E+00 0. -1.
         -1   -1    0    0    0  501 -0.00000000000E+00 -0.00000000000E+00 -0.26681992183E+03  0.26681992183E+03  0.00000000000E+00 0.  1.
         24    2    1    2    0    0 -0.41738058572E+03  0.37507155492E+03  0.11753802651E+04  0.13049213479E+04  0.80098264185E+02 0.  0.
        254    2    1    2    0    0  0.41738058572E+03 -0.37507155492E+03  0.11566054451E+04  0.15607042060E+04  0.88497245062E+03 0.  0.
         23    2    4    4    0    0  0.35283760849E+03 -0.57989675492E+03  0.45730679491E+03  0.82347617936E+03  0.90602919146E+02 0.  0.
         23    2    4    4    0    0  0.64542977229E+02  0.20482520001E+03  0.69929865023E+03  0.73722802668E+03  0.91473507825E+02 0.  0.
          4    1    3    3  502    0 -0.52816701259E+01  0.22777825111E+01  0.11892964612E+01  0.58735643828E+01  0.00000000000E+00 0. -1.
         -3    1    3    3    0  502 -0.41209891559E+03  0.37279377241E+03  0.11741909687E+04  0.12990477835E+04  0.00000000000E+00 0.  1.
         11    1    5    5    0    0  0.14512781093E+03 -0.20735623120E+03  0.22014580425E+03  0.33544427741E+03  0.00000000000E+00 0. -1.
        -11    1    5    5    0    0  0.20770979756E+03 -0.37254052373E+03  0.23716099066E+03  0.48803190194E+03  0.00000000000E+00 0.  1.
          4    1    6    6  503    0 -0.38627131889E+01  0.10814416647E+03  0.42287483810E+03  0.43650109964E+03  0.00000000000E+00 0. -1.
         -4    1    6    6    0  503  0.68405690418E+02  0.96681033539E+02  0.27642381214E+03  0.30072692703E+03  0.00000000000E+00 0.  1.
<mgrwt>
<rscale>  0 0.16654286E+04</rscale>
<asrwt>0</asrwt>
<pdfrwt beam="1">  1        2 0.39981624E+00 0.16654286E+04</pdfrwt>
<pdfrwt beam="2">  1       -1 0.41049220E-01 0.16654286E+04</pdfrwt>
<totfact> 0.19279162E+01</totfact>
</mgrwt>
</event>
<event>
12    6  0.1521603E-007  0.2439069E+04  0.7818608E-02  0.8425020E-01
         -1   -1    0    0    0  501 -0.00000000000E+00  0.00000000000E+00  0.14784058477E+04  0.14784058477E+04  0.00000000000E+00 0.  1.
          2   -1    0    0  501    0  0.00000000000E+00 -0.00000000000E+00 -0.10059918440E+04  0.10059918440E+04  0.00000000000E+00 0. -1.
         24    2    1    2    0    0  0.10313640407E+04  0.17122654118E+03  0.36650647341E+03  0.11114367864E+04  0.89075374097E+02 0.  0.
        254    2    1    2    0    0 -0.10313640407E+04 -0.17122654118E+03  0.10590753027E+03  0.13729609052E+04  0.88361469512E+03 0.  0.
         23    2    4    4    0    0 -0.37668357440E+03 -0.48743927663E+03  0.14461819003E+03  0.63932385093E+03  0.91285277303E+02 0.  0.
         23    2    4    4    0    0 -0.65468046634E+03  0.31621273545E+03 -0.38710659759E+02  0.73363705432E+03  0.90154341094E+02 0.  0.
          2    1    3    3  502    0  0.64508111599E+03  0.13059241106E+03  0.19183371627E+03  0.68555393569E+03  0.00000000000E+00 0. -1.
         -1    1    3    3    0  502  0.38628292474E+03  0.40634130121E+02  0.17467275714E+03  0.42588285075E+03  0.00000000000E+00 0.  1.
         11    1    5    5    0    0 -0.36195924553E+03 -0.43875247705E+03  0.14983866649E+03  0.58819202435E+03  0.00000000000E+00 0.  1.
        -11    1    5    5    0    0 -0.14724328870E+02 -0.48686799584E+02 -0.52204764543E+01  0.51131826575E+02  0.00000000000E+00 0. -1.
          2    1    6    6  503    0 -0.21331163730E+03  0.57549115203E+02 -0.17170067433E+02  0.22160452722E+03  0.00000000000E+00 0. -1.
         -2    1    6    6    0  503 -0.44136882904E+03  0.25866362025E+03 -0.21540592326E+02  0.51203252710E+03  0.00000000000E+00 0.  1.
<mgrwt>
<rscale>  0 0.24390689E+04</rscale>
<asrwt>0</asrwt>
<pdfrwt beam="1">  1        2 0.15476798E+00 0.24390689E+04</pdfrwt>
<pdfrwt beam="2">  1       -1 0.22744705E+00 0.24390689E+04</pdfrwt>
<totfact> 0.25042038E+00</totfact>
</mgrwt>
</event>
<event>
12    6  0.1521603E-007  0.1436388E+04  0.7818608E-02  0.8927892E-01
          2   -1    0    0  501    0  0.00000000000E+00  0.00000000000E+00  0.88367001955E+03  0.88367001955E+03  0.00000000000E+00 0. -1.
         -1   -1    0    0    0  501 -0.00000000000E+00 -0.00000000000E+00 -0.58370514240E+03  0.58370514240E+03  0.00000000000E+00 0.  1.
         24    2    1    2    0    0 -0.20672520336E+03 -0.37283424841E+03  0.17275929841E+03  0.46677777614E+03  0.79341228945E+02 0.  0.
        254    2    1    2    0    0  0.20672520336E+03  0.37283424841E+03  0.12720557873E+03  0.10005973858E+04  0.89625508798E+03 0.  0.
         23    2    4    4    0    0  0.12105317376E+03 -0.15962560853E+03  0.34708247110E+03  0.41116703462E+03  0.91966748522E+02 0.  0.
         23    2    4    4    0    0  0.85672029600E+02  0.53245985695E+03 -0.21987689237E+03  0.58943035119E+03  0.90714360441E+02 0.  0.
          4    1    3    3  502    0 -0.12436071998E+03 -0.15919169222E+03  0.10676671243E+03  0.22848788683E+03  0.00000000000E+00 0. -1.
         -3    1    3    3    0  502 -0.82364483386E+02 -0.21364255619E+03  0.65992585980E+02  0.23828988930E+03  0.00000000000E+00 0.  1.
         11    1    5    5    0    0  0.29627485727E+02  0.15347629429E+01  0.86343516006E+02  0.91298116979E+02  0.00000000000E+00 0.  1.
        -11    1    5    5    0    0  0.91425688037E+02 -0.16116037148E+03  0.26073895510E+03  0.31986891764E+03  0.00000000000E+00 0. -1.
          2    1    6    6  503    0  0.54463714960E+02  0.34936434721E+03 -0.18970284343E+03  0.40125915835E+03  0.00000000000E+00 0. -1.
         -2    1    6    6    0  503  0.31208314641E+02  0.18309550973E+03 -0.30174048941E+02  0.18817119285E+03  0.00000000000E+00 0.  1.
<mgrwt>
<rscale>  0 0.14363882E+04</rscale>
<asrwt>0</asrwt>
<pdfrwt beam="1">  1        2 0.13594923E+00 0.14363882E+04</pdfrwt>
<pdfrwt beam="2">  1       -1 0.89800791E-01 0.14363882E+04</pdfrwt>
<totfact> 0.40472324E+01</totfact>
</mgrwt>
</event>
<event>
12    6  0.1521603E-007  0.1260546E+04  0.7818608E-02  0.9061452E-01
          2   -1    0    0  501    0  0.00000000000E+00  0.00000000000E+00  0.16413145290E+04  0.16413145290E+04  0.00000000000E+00 0. -1.
         -1   -1    0    0    0  501 -0.00000000000E+00 -0.00000000000E+00 -0.24202781461E+03  0.24202781461E+03  0.00000000000E+00 0.  1.
         24    2    1    2    0    0 -0.10285230112E+03 -0.26699661604E+03  0.23619899912E+03  0.38443697742E+03  0.10067787046E+03 0.  0.
        254    2    1    2    0    0  0.10285230112E+03  0.26699661604E+03  0.11630877153E+04  0.14989053662E+04  0.90115396829E+03 0.  0.
         23    2    4    4    0    0  0.19354773794E+03  0.30002415611E+03  0.44096593313E+02  0.37101842819E+03  0.90746588945E+02 0.  0.
         23    2    4    4    0    0 -0.90695436817E+02 -0.33027540071E+02  0.11189911220E+04  0.11278869380E+04  0.10330214524E+03 0.  0.
          2    1    3    3  502    0  0.16778774364E+02 -0.53110613806E+02  0.64419588607E+02  0.85159544176E+02  0.00000000000E+00 0. -1.
         -1    1    3    3    0  502 -0.11963107548E+03 -0.21388600223E+03  0.17177941051E+03  0.29927743324E+03  0.00000000000E+00 0.  1.
         11    1    5    5    0    0  0.48453525280E+01  0.62465603936E+01 -0.14938358277E+02  0.16901227940E+02  0.00000000000E+00 0. -1.
        -11    1    5    5    0    0  0.18870238541E+03  0.29377759572E+03  0.59034951590E+02  0.35411720025E+03  0.00000000000E+00 0.  1.
          3    1    6    6  503    0 -0.56717770591E+02 -0.18519291162E+02  0.10273163533E+04  0.10290475010E+04  0.00000000000E+00 0. -1.
         -3    1    6    6    0  503 -0.33977666226E+02 -0.14508248909E+02  0.91674768699E+02  0.98839436990E+02  0.00000000000E+00 0.  1.
<mgrwt>
<rscale>  0 0.12605455E+04</rscale>
<asrwt>0</asrwt>
<pdfrwt beam="1">  1        2 0.25250992E+00 0.12605455E+04</pdfrwt>
<pdfrwt beam="2">  1       -1 0.37235049E-01 0.12605455E+04</pdfrwt>
<totfact> 0.82153250E+01</totfact>
</mgrwt>
</event>
<event>
12    6  0.1521603E-007  0.1216940E+04  0.7818608E-02  0.9098157E-01
          2   -1    0    0  501    0  0.00000000000E+00  0.00000000000E+00  0.37104973457E+04  0.37104973457E+04  0.00000000000E+00 0. -1.
         -1   -1    0    0    0  501 -0.00000000000E+00 -0.00000000000E+00 -0.99780638528E+02  0.99780638528E+02  0.00000000000E+00 0.  1.
         24    2    1    2    0    0  0.16646145406E+03  0.11450282668E+03  0.68196934835E+03  0.71560217343E+03  0.78638193765E+02 0.  0.
        254    2    1    2    0    0 -0.16646145406E+03 -0.11450282668E+03  0.29287473588E+04  0.30946758108E+04  0.97910008127E+03 0.  0.
         23    2    4    4    0    0 -0.47038340943E+03 -0.89107173024E+02  0.25667852032E+04  0.26126928866E+04  0.92613173890E+02 0.  0.
         23    2    4    4    0    0  0.30392195537E+03 -0.25395653660E+02  0.36196215561E+03  0.48198292423E+03  0.90980453778E+02 0.  0.
          4    1    3    3  502    0  0.11901534570E+03  0.11344417695E+03  0.58461607722E+03  0.60729744898E+03  0.00000000000E+00 0. -1.
         -3    1    3    3    0  502  0.47446108358E+02  0.10586497372E+01  0.97353271133E+02  0.10830472445E+03  0.00000000000E+00 0.  1.
         11    1    5    5    0    0 -0.34251620732E+03 -0.96073026990E+02  0.20224723327E+04  0.20535193486E+04  0.00000000000E+00 0. -1.
        -11    1    5    5    0    0 -0.12786720212E+03  0.69658539662E+01  0.54431287057E+03  0.55917353797E+03  0.00000000000E+00 0.  1.
          3    1    6    6  503    0  0.17662682570E+03  0.24745712347E+02  0.17112593103E+03  0.24717093297E+03  0.00000000000E+00 0. -1.
         -3    1    6    6    0  503  0.12729512967E+03 -0.50141366007E+02  0.19083622458E+03  0.23481199125E+03  0.00000000000E+00 0.  1.
<mgrwt>
<rscale>  0 0.12169401E+04</rscale>
<asrwt>0</asrwt>
<pdfrwt beam="1">  1        2 0.57084564E+00 0.12169401E+04</pdfrwt>
<pdfrwt beam="2">  1       -1 0.15350870E-01 0.12169401E+04</pdfrwt>
<totfact> 0.21022639E+01</totfact>
</mgrwt>
</event>
<event>
12    6  0.1521603E-007  0.2032751E+04  0.7818608E-02  0.8591460E-01
          2   -1    0    0  501    0  0.00000000000E+00  0.00000000000E+00  0.12971821472E+04  0.12971821472E+04  0.00000000000E+00 0. -1.
         -1   -1    0    0    0  501 -0.00000000000E+00 -0.00000000000E+00 -0.79635611153E+03  0.79635611153E+03  0.00000000000E+00 0.  1.
         24    2    1    2    0    0  0.30354611869E+03 -0.39315168214E+03  0.86312097896E+03  0.99909725371E+03  0.80678415439E+02 0.  0.
        254    2    1    2    0    0 -0.30354611869E+03  0.39315168214E+03 -0.36229494329E+03  0.10944410050E+04  0.90544740111E+03 0.  0.
         23    2    4    4    0    0  0.15214189074E+03 -0.19445301337E+01  0.19812957752E+03  0.26615005952E+03  0.91812790941E+02 0.  0.
         23    2    4    4    0    0 -0.45568800942E+03  0.39509621227E+03 -0.56042452081E+03  0.82829094549E+03  0.90761599594E+02 0.  0.
          4    1    3    3  502    0  0.28206119624E+03 -0.32134621157E+03  0.75208637096E+03  0.86513340908E+03  0.00000000000E+00 0. -1.
         -3    1    3    3    0  502  0.21484922447E+02 -0.71805470574E+02  0.11103460800E+03  0.13396384464E+03  0.00000000000E+00 0.  1.
         11    1    5    5    0    0  0.74447594503E+01 -0.22534255982E+02  0.55198963809E+01  0.24365680618E+02  0.00000000000E+00 0.  1.
        -11    1    5    5    0    0  0.14469713128E+03  0.20589725848E+02  0.19260968114E+03  0.24178437891E+03  0.00000000000E+00 0. -1.
          2    1    6    6  503    0 -0.35840295263E+03  0.26569622853E+03 -0.43909323368E+03  0.62597925698E+03  0.00000000000E+00 0. -1.
         -2    1    6    6    0  503 -0.97285056797E+02  0.12939998374E+03 -0.12133128713E+03  0.20231168851E+03  0.00000000000E+00 0.  1.
<mgrwt>
<rscale>  0 0.20327508E+04</rscale>
<asrwt>0</asrwt>
<pdfrwt beam="1">  1        2 0.19956648E+00 0.20327508E+04</pdfrwt>
<pdfrwt beam="2">  1       -1 0.12251632E+00 0.20327508E+04</pdfrwt>
<totfact> 0.10310469E+01</totfact>
</mgrwt>
</event>
<event>
12    6  0.1521603E-007  0.2720593E+04  0.7818608E-02  0.8328354E-01
          2   -1    0    0  501    0  0.00000000000E+00  0.00000000000E+00  0.24839967909E+04  0.24839967909E+04  0.00000000000E+00 0. -1.
         -1   -1    0    0    0  501 -0.00000000000E+00 -0.00000000000E+00 -0.74493136766E+03  0.74493136766E+03  0.00000000000E+00 0.  1.
         24    2    1    2    0    0  0.61266918913E+01 -0.33792079020E+03  0.21938218044E+04  0.22211168293E+04  0.79232969300E+02 0.  0.
        254    2    1    2    0    0 -0.61266918913E+01  0.33792079020E+03 -0.45475638109E+03  0.10078113293E+04  0.83345804480E+03 0.  0.
         23    2    4    4    0    0 -0.33465035311E+03  0.32087247031E+03 -0.45546976551E+02  0.47474726088E+03  0.91435406710E+02 0.  0.
         23    2    4    4    0    0  0.32852366122E+03  0.17048319892E+02 -0.40920940454E+03  0.53306406839E+03  0.92122326524E+02 0.  0.
          2    1    3    3  502    0  0.20247822949E+02 -0.20253004803E+03  0.15301996096E+04  0.15436771812E+04  0.00000000000E+00 0. -1.
         -1    1    3    3    0  502 -0.14121131058E+02 -0.13539074217E+03  0.66362219479E+03  0.67743964811E+03  0.00000000000E+00 0.  1.
         11    1    5    5    0    0 -0.15618467007E+03  0.90458176267E+02 -0.55964129023E+01  0.18057589168E+03  0.00000000000E+00 0. -1.
        -11    1    5    5    0    0 -0.17846568305E+03  0.23041429404E+03 -0.39950563649E+02  0.29417136920E+03  0.00000000000E+00 0.  1.
          2    1    6    6  503    0  0.13071216065E+03 -0.30559251725E+01 -0.96528669183E+02  0.16252012674E+03  0.00000000000E+00 0. -1.
         -2    1    6    6    0  503  0.19781150057E+03  0.20104245065E+02 -0.31268073536E+03  0.37054394165E+03  0.00000000000E+00 0.  1.
<mgrwt>
<rscale>  0 0.27205934E+04</rscale>
<asrwt>0</asrwt>
<pdfrwt beam="1">  1        2 0.38215335E+00 0.27205934E+04</pdfrwt>
<pdfrwt beam="2">  1       -1 0.11460483E+00 0.27205934E+04</pdfrwt>
<totfact> 0.24503561E+00</totfact>
</mgrwt>
</event>
<event>
12    6  0.1521603E-007  0.1783433E+04  0.7818608E-02  0.8715159E-01
          2   -1    0    0  501    0  0.00000000000E+00  0.00000000000E+00  0.81920623462E+03  0.81920623462E+03  0.00000000000E+00 0. -1.
         -1   -1    0    0    0  501 -0.00000000000E+00 -0.00000000000E+00 -0.97064499930E+03  0.97064499930E+03  0.00000000000E+00 0.  1.
         24    2    1    2    0    0  0.18953215376E+03  0.60723260109E+03  0.10987576708E+03  0.65043555348E+03  0.79623212070E+02 0.  0.
        254    2    1    2    0    0 -0.18953215376E+03 -0.60723260109E+03 -0.26131453177E+03  0.11394156804E+04  0.90847616324E+03 0.  0.
         23    2    4    4    0    0 -0.39960018531E+03 -0.19803642250E+03  0.18529325032E+03  0.49167889709E+03  0.92281181635E+02 0.  0.
         23    2    4    4    0    0  0.21006803155E+03 -0.40919617859E+03 -0.44660778209E+03  0.64773678335E+03  0.92381486429E+02 0.  0.
          4    1    3    3  502    0  0.19107067254E+03  0.53110822499E+03  0.88298426605E+02  0.57129726124E+03  0.00000000000E+00 0. -1.
         -3    1    3    3    0  502 -0.15385187785E+01  0.76124376100E+02  0.21577340477E+02  0.79138292241E+02  0.00000000000E+00 0.  1.
         11    1    5    5    0    0 -0.23183857638E+03 -0.65156272092E+02  0.85546360950E+02  0.25556338776E+03  0.00000000000E+00 0.  1.
        -11    1    5    5    0    0 -0.16776160893E+03 -0.13288015041E+03  0.99746889374E+02  0.23611550933E+03  0.00000000000E+00 0. -1.
          1    1    6    6  503    0 -0.64531828221E+01 -0.41050474197E+02 -0.31471495786E+02  0.52127152688E+02  0.00000000000E+00 0. -1.
         -1    1    6    6    0  503  0.21652121437E+03 -0.36814570439E+03 -0.41513628630E+03  0.59560963067E+03  0.00000000000E+00 0.  1.
<mgrwt>
<rscale>  0 0.17834331E+04</rscale>
<asrwt>0</asrwt>
<pdfrwt beam="1">  1        2 0.12603173E+00 0.17834331E+04</pdfrwt>
<pdfrwt beam="2">  1       -1 0.14933000E+00 0.17834331E+04</pdfrwt>
<totfact> 0.12715811E+01</totfact>
</mgrwt>
</event>
<event>
12    6  0.1521603E-007  0.1863436E+04  0.7818608E-02  0.8673274E-01
         -1   -1    0    0    0  501 -0.00000000000E+00  0.00000000000E+00  0.48440287028E+03  0.48440287028E+03  0.00000000000E+00 0.  1.
          2   -1    0    0  501    0  0.00000000000E+00 -0.00000000000E+00 -0.17921005724E+04  0.17921005724E+04  0.00000000000E+00 0. -1.
         24    2    1    2    0    0  0.31192632297E+02  0.28489317063E+03 -0.12999333789E+04  0.13335059813E+04  0.79210566348E+02 0.  0.
        254    2    1    2    0    0 -0.31192632297E+02 -0.28489317063E+03 -0.77643232429E+01  0.94299746132E+03  0.89835785095E+03 0.  0.
         23    2    4    4    0    0 -0.15597566936E+03 -0.72540910146E+02 -0.41552094885E+03  0.45861148549E+03  0.89867917584E+02 0.  0.
         23    2    4    4    0    0  0.12478303706E+03 -0.21235226048E+03  0.40775662561E+03  0.48438597583E+03  0.87749752011E+02 0.  0.
          4    1    3    3  502    0  0.50385597591E+02  0.25444773653E+03 -0.11855420160E+04  0.12135865156E+04  0.00000000000E+00 0. -1.
         -3    1    3    3    0  502 -0.19192965293E+02  0.30445434100E+02 -0.11439136283E+03  0.11991946574E+03  0.00000000000E+00 0.  1.
         11    1    5    5    0    0 -0.11871114222E+03 -0.48555530149E+02 -0.38225644312E+03  0.40319965663E+03  0.00000000000E+00 0.  1.
        -11    1    5    5    0    0 -0.37264527141E+02 -0.23985379997E+02 -0.33264505733E+02  0.55411828866E+02  0.00000000000E+00 0. -1.
          2    1    6    6  503    0  0.94661217993E+02 -0.77891291273E+02  0.21406617177E+03  0.24668223557E+03  0.00000000000E+00 0. -1.
         -2    1    6    6    0  503  0.30121819071E+02 -0.13446096921E+03  0.19369045384E+03  0.23770374026E+03  0.00000000000E+00 0.  1.
<mgrwt>
<rscale>  0 0.18634362E+04</rscale>
<asrwt>0</asrwt>
<pdfrwt beam="1">  1        2 0.27570778E+00 0.18634362E+04</pdfrwt>
<pdfrwt beam="2">  1       -1 0.74523518E-01 0.18634362E+04</pdfrwt>
<totfact> 0.16894710E+01</totfact>
</mgrwt>
</event>
<event>
12    6  0.1521603E-007  0.1331837E+04  0.7818608E-02  0.9004692E-01
          2   -1    0    0  501    0  0.00000000000E+00  0.00000000000E+00  0.10546690396E+04  0.10546690396E+04  0.00000000000E+00 0. -1.
         -1   -1    0    0    0  501 -0.00000000000E+00 -0.00000000000E+00 -0.42046151964E+03  0.42046151964E+03  0.00000000000E+00 0.  1.
         24    2    1    2    0    0 -0.23554271238E+03  0.11572395756E+03  0.43474219139E+03  0.51407966800E+03  0.80029546808E+02 0.  0.
        254    2    1    2    0    0  0.23554271238E+03 -0.11572395756E+03  0.19946532861E+03  0.96105089129E+03  0.90275134706E+03 0.  0.
         23    2    4    4    0    0  0.40707055257E+03 -0.37541263837E+03  0.27921588486E+03  0.62705400117E+03  0.92704510171E+02 0.  0.
         23    2    4    4    0    0 -0.17152784019E+03  0.25968868081E+03 -0.79750556253E+02  0.33399689011E+03  0.91289432478E+02 0.  0.
          2    1    3    3  502    0 -0.21585182249E+03  0.94928654725E+02  0.33064746212E+03  0.40611722811E+03  0.00000000000E+00 0. -1.
         -1    1    3    3    0  502 -0.19690889893E+02  0.20795302840E+02  0.10409472927E+03  0.10796243989E+03  0.00000000000E+00 0.  1.
         11    1    5    5    0    0  0.23610393337E+03 -0.21466891234E+03  0.10919976295E+03  0.33727199336E+03  0.00000000000E+00 0. -1.
        -11    1    5    5    0    0  0.17096661920E+03 -0.16074372603E+03  0.17001612191E+03  0.28978200781E+03  0.00000000000E+00 0.  1.
          2    1    6    6  503    0 -0.13314442190E+03  0.13062108435E+03 -0.23223667188E+02  0.18795915375E+03  0.00000000000E+00 0. -1.
         -2    1    6    6    0  503 -0.38383418290E+02  0.12906759646E+03 -0.56526889065E+02  0.14603773637E+03  0.00000000000E+00 0.  1.
<mgrwt>
<rscale>  0 0.13318374E+04</rscale>
<asrwt>0</asrwt>
<pdfrwt beam="1">  1        2 0.16225677E+00 0.13318374E+04</pdfrwt>
<pdfrwt beam="2">  1       -1 0.64686388E-01 0.13318374E+04</pdfrwt>
<totfact> 0.62857613E+01</totfact>
</mgrwt>
</event>
<event>
12    6  0.1521603E-007  0.1817373E+04  0.7818608E-02  0.8697115E-01
          2   -1    0    0  501    0  0.00000000000E+00  0.00000000000E+00  0.14252350305E+04  0.14252350305E+04  0.00000000000E+00 0. -1.
         -1   -1    0    0    0  501 -0.00000000000E+00 -0.00000000000E+00 -0.57935060103E+03  0.57935060103E+03  0.00000000000E+00 0.  1.
         24    2    1    2    0    0 -0.46071900382E+03  0.17017222012E+03 -0.17114306276E+03  0.52509940829E+03  0.72241647751E+02 0.  0.
        254    2    1    2    0    0  0.46071900382E+03 -0.17017222012E+03  0.10170274923E+04  0.14794862233E+04  0.95567462029E+03 0.  0.
         23    2    4    4    0    0  0.68560121224E+03  0.27507432399E+02  0.43138971709E+03  0.81531779581E+03  0.88545689287E+02 0.  0.
         23    2    4    4    0    0 -0.22488220842E+03 -0.19767965252E+03  0.58563777518E+03  0.66416842748E+03  0.92189173198E+02 0.  0.
          4    1    3    3  502    0 -0.33632595605E+03  0.10686534681E+03 -0.92182611213E+02  0.36473687073E+03  0.00000000000E+00 0. -1.
         -3    1    3    3    0  502 -0.12439304777E+03  0.63306873311E+02 -0.78960451549E+02  0.16036253755E+03  0.00000000000E+00 0.  1.
         11    1    5    5    0    0  0.43601357175E+03 -0.18817327168E+02  0.29898304327E+03  0.52901114044E+03  0.00000000000E+00 0. -1.
        -11    1    5    5    0    0  0.24958764049E+03  0.46324759568E+02  0.13240667383E+03  0.28630665537E+03  0.00000000000E+00 0.  1.
          4    1    6    6  503    0 -0.22996845972E+03 -0.19463773713E+03  0.58523047852E+03  0.65822796520E+03  0.00000000000E+00 0. -1.
         -4    1    6    6    0  503  0.50862512998E+01 -0.30419153947E+01  0.40729666294E+00  0.59404622821E+01  0.00000000000E+00 0.  1.
<mgrwt>
<rscale>  0 0.18173726E+04</rscale>
<asrwt>0</asrwt>
<pdfrwt beam="1">  1        2 0.21926693E+00 0.18173726E+04</pdfrwt>
<pdfrwt beam="2">  1       -1 0.89130862E-01 0.18173726E+04</pdfrwt>
<totfact> 0.18560138E+01</totfact>
</mgrwt>
</event>
<event>
12    6  0.1521603E-007  0.1143029E+04  0.7818608E-02  0.9164239E-01
          2   -1    0    0  501    0  0.00000000000E+00  0.00000000000E+00  0.20891153013E+04  0.20891153013E+04  0.00000000000E+00 0. -1.
         -1   -1    0    0    0  501 -0.00000000000E+00 -0.00000000000E+00 -0.15634783752E+03  0.15634783752E+03  0.00000000000E+00 0.  1.
         24    2    1    2    0    0  0.27107359071E+01  0.42146242157E+02  0.81518884851E+03  0.82010102936E+03  0.79051791944E+02 0.  0.
        254    2    1    2    0    0 -0.27107359071E+01 -0.42146242157E+02  0.11175786153E+04  0.14253621095E+04  0.88368067080E+03 0.  0.
         23    2    4    4    0    0 -0.15186341010E+03  0.34251909872E+03  0.24770831005E+03  0.45804535357E+03  0.89801507474E+02 0.  0.
         23    2    4    4    0    0  0.14915267419E+03 -0.38466534088E+03  0.86987030522E+03  0.96731675589E+03  0.93879782804E+02 0.  0.
          4    1    3    3  502    0  0.12737222847E+02  0.14433527525E+02  0.72425567131E+03  0.72451144986E+03  0.00000000000E+00 0. -1.
         -3    1    3    3    0  502 -0.10026486940E+02  0.27712714631E+02  0.90933177198E+02  0.95589579495E+02  0.00000000000E+00 0.  1.
         11    1    5    5    0    0 -0.90356650943E+02  0.24595855229E+03  0.21508876226E+03  0.33900311129E+03  0.00000000000E+00 0. -1.
        -11    1    5    5    0    0 -0.61506759155E+02  0.96560546436E+02  0.32619547787E+02  0.11904224228E+03  0.00000000000E+00 0.  1.
          3    1    6    6  503    0  0.11174215243E+03 -0.34334754665E+03  0.80170972778E+03  0.87926806722E+03  0.00000000000E+00 0. -1.
         -3    1    6    6    0  503  0.37410521759E+02 -0.41317794226E+02  0.68160577445E+02  0.88048688664E+02  0.00000000000E+00 0.  1.
<mgrwt>
<rscale>  0 0.11430287E+04</rscale>
<asrwt>0</asrwt>
<pdfrwt beam="1">  1        2 0.32140233E+00 0.11430287E+04</pdfrwt>
<pdfrwt beam="2">  1       -1 0.24053515E-01 0.11430287E+04</pdfrwt>
<totfact> 0.10085446E+02</totfact>
</mgrwt>
</event>
<event>
12    6  0.1521603E-007  0.1682041E+04  0.7818608E-02  0.8771674E-01
          2   -1    0    0  501    0  0.00000000000E+00  0.00000000000E+00  0.10346605185E+04  0.10346605185E+04  0.00000000000E+00 0. -1.
         -1   -1    0    0    0  501 -0.00000000000E+00 -0.00000000000E+00 -0.68362067133E+03  0.68362067133E+03  0.00000000000E+00 0.  1.
         24    2    1    2    0    0 -0.11010485583E+03 -0.58345609082E+03  0.25625835575E+03  0.65159213110E+03  0.79748800776E+02 0.  0.
        254    2    1    2    0    0  0.11010485583E+03  0.58345609082E+03  0.94781491430E+02  0.10666890587E+04  0.88107770809E+03 0.  0.
         23    2    4    4    0    0  0.27503119643E+03  0.74589322027E+03  0.10253410240E+01  0.80045450611E+03  0.93421143103E+02 0.  0.
         23    2    4    4    0    0 -0.16492634059E+03 -0.16243712945E+03  0.93756150406E+02  0.26623455262E+03  0.92217690402E+02 0.  0.
          2    1    3    3  502    0  0.27507939986E+01 -0.15664480289E+03  0.51283385888E+02  0.16484886050E+03  0.00000000000E+00 0. -1.
         -1    1    3    3    0  502 -0.11285564983E+03 -0.42681128794E+03  0.20497496986E+03  0.48674327061E+03  0.00000000000E+00 0.  1.
         11    1    5    5    0    0  0.16268754915E+03  0.34562493549E+03 -0.32438622802E+02  0.38337461957E+03  0.00000000000E+00 0. -1.
        -11    1    5    5    0    0  0.11234364728E+03  0.40026828478E+03  0.33463963826E+02  0.41707988655E+03  0.00000000000E+00 0.  1.
          3    1    6    6  503    0 -0.13406450743E+03 -0.72962893159E+02  0.73658919710E+02  0.16947717364E+03  0.00000000000E+00 0. -1.
         -3    1    6    6    0  503 -0.30861833163E+02 -0.89474236287E+02  0.20097230696E+02  0.96757378979E+02  0.00000000000E+00 0.  1.
<mgrwt>
<rscale>  0 0.16820408E+04</rscale>
<asrwt>0</asrwt>
<pdfrwt beam="1">  1        2 0.15917854E+00 0.16820408E+04</pdfrwt>
<pdfrwt beam="2">  1       -1 0.10517241E+00 0.16820408E+04</pdfrwt>
<totfact> 0.22072108E+01</totfact>
</mgrwt>
</event>
<event>
12    6  0.1521603E-007  0.3089636E+04  0.7818608E-02  0.8218588E-01
         -1   -1    0    0    0  501 -0.00000000000E+00  0.00000000000E+00  0.12081439440E+04  0.12081439440E+04  0.00000000000E+00 0.  1.
          2   -1    0    0  501    0  0.00000000000E+00 -0.00000000000E+00 -0.19753137747E+04  0.19753137747E+04  0.00000000000E+00 0. -1.
         24    2    1    2    0    0  0.27159271430E+03 -0.98279902207E+03  0.65581198869E+03  0.12150332319E+04  0.80993022915E+02 0.  0.
        254    2    1    2    0    0 -0.27159271430E+03  0.98279902207E+03 -0.14229818194E+04  0.19684244869E+04  0.90008954118E+03 0.  0.
         23    2    4    4    0    0 -0.39696798329E+03  0.82174833285E+03 -0.14762479776E+04  0.17379073218E+04  0.90331975496E+02 0.  0.
         23    2    4    4    0    0  0.12537526898E+03  0.16105068922E+03  0.53266158188E+02  0.23051716506E+03  0.92976326056E+02 0.  0.
          4    1    3    3  502    0  0.39158202166E+02 -0.24038824238E+03  0.18336968885E+03  0.30486770026E+03  0.00000000000E+00 0. -1.
         -3    1    3    3    0  502  0.23243451214E+03 -0.74241077969E+03  0.47244229984E+03  0.91016553160E+03  0.00000000000E+00 0.  1.
         11    1    5    5    0    0 -0.39590820756E+03  0.78067687986E+03 -0.13954728535E+04  0.16472838810E+04  0.00000000000E+00 0. -1.
        -11    1    5    5    0    0 -0.10597757290E+01  0.41071452985E+02 -0.80775124031E+02  0.90623440881E+02  0.00000000000E+00 0.  1.
          4    1    6    6  503    0  0.10294276811E+03  0.16284098725E+03  0.67216239876E+02  0.20404024980E+03  0.00000000000E+00 0. -1.
         -4    1    6    6    0  503  0.22432500871E+02 -0.17902980306E+01 -0.13950081688E+02  0.26476915256E+02  0.00000000000E+00 0.  1.
<mgrwt>
<rscale>  0 0.30896365E+04</rscale>
<asrwt>0</asrwt>
<pdfrwt beam="1">  1        2 0.30389442E+00 0.30896365E+04</pdfrwt>
<pdfrwt beam="2">  1       -1 0.18586830E+00 0.30896365E+04</pdfrwt>
<totfact> 0.12596473E+00</totfact>
</mgrwt>
</event>
<event>
12    6  0.1521603E-007  0.1476347E+04  0.7818608E-02  0.8900336E-01
         -1   -1    0    0    0  501 -0.00000000000E+00  0.00000000000E+00  0.15892504731E+03  0.15892504731E+03  0.00000000000E+00 0.  1.
          2   -1    0    0  501    0  0.00000000000E+00 -0.00000000000E+00 -0.34286631246E+04  0.34286631246E+04  0.00000000000E+00 0. -1.
         24    2    1    2    0    0  0.54392595458E+02  0.23872443397E+03 -0.19894973316E+04  0.20059537173E+04  0.76175940308E+02 0.  0.
        254    2    1    2    0    0 -0.54392595458E+02 -0.23872443397E+03 -0.12802407458E+04  0.15816344546E+04  0.89588128183E+03 0.  0.
         23    2    4    4    0    0 -0.23796341636E+03 -0.51907552236E+03 -0.74165247893E+03  0.94069558063E+03  0.93775212482E+02 0.  0.
         23    2    4    4    0    0  0.18357082090E+03  0.28035108839E+03 -0.53858826682E+03  0.64093887399E+03  0.91816882865E+02 0.  0.
          4    1    3    3  502    0  0.62512148332E+02  0.17662384271E+03 -0.12714815564E+04  0.12852116942E+04  0.00000000000E+00 0. -1.
         -3    1    3    3    0  502 -0.81195528739E+01  0.62100591259E+02 -0.71801577515E+03  0.72074202315E+03  0.00000000000E+00 0.  1.
         11    1    5    5    0    0 -0.12647991778E+03 -0.28638366224E+03 -0.33009979980E+03  0.45494906245E+03  0.00000000000E+00 0.  1.
        -11    1    5    5    0    0 -0.11148349858E+03 -0.23269186012E+03 -0.41155267913E+03  0.48574651818E+03  0.00000000000E+00 0. -1.
          3    1    6    6  503    0  0.98155304177E+02  0.10537812072E+03 -0.16034017837E+03  0.21551794557E+03  0.00000000000E+00 0. -1.
         -3    1    6    6    0  503  0.85415516723E+02  0.17497296767E+03 -0.37824808846E+03  0.42542092842E+03  0.00000000000E+00 0.  1.
<mgrwt>
<rscale>  0 0.14763475E+04</rscale>
<asrwt>0</asrwt>
<pdfrwt beam="1">  1        2 0.52748665E+00 0.14763475E+04</pdfrwt>
<pdfrwt beam="2">  1       -1 0.24450006E-01 0.14763475E+04</pdfrwt>
<totfact> 0.14816652E+01</totfact>
</mgrwt>
</event>
<event>
12    6  0.1521603E-007  0.2287707E+04  0.7818608E-02  0.8482784E-01
          2   -1    0    0  501    0  0.00000000000E+00  0.00000000000E+00  0.19879883356E+04  0.19879883356E+04  0.00000000000E+00 0. -1.
         -1   -1    0    0    0  501 -0.00000000000E+00 -0.00000000000E+00 -0.65815298922E+03  0.65815298922E+03  0.00000000000E+00 0.  1.
         24    2    1    2    0    0  0.68409603003E+03  0.65643670814E+03  0.37961579101E+03  0.10243672988E+04  0.79521594848E+02 0.  0.
        254    2    1    2    0    0 -0.68409603003E+03 -0.65643670814E+03  0.95021955535E+03  0.16217740260E+04  0.91013035210E+03 0.  0.
         23    2    4    4    0    0 -0.88198156947E+03 -0.51856753835E+03  0.61067714439E+03  0.11955851473E+04  0.98455518389E+02 0.  0.
         23    2    4    4    0    0  0.19788553943E+03 -0.13786916979E+03  0.33954241095E+03  0.42618887864E+03  0.90450631518E+02 0.  0.
          2    1    3    3  502    0  0.49489579395E+03  0.47156309383E+03  0.23477244835E+03  0.72278053435E+03  0.00000000000E+00 0. -1.
         -1    1    3    3    0  502  0.18920023608E+03  0.18487361431E+03  0.14484334266E+03  0.30158676449E+03  0.00000000000E+00 0.  1.
         11    1    5    5    0    0 -0.68132718589E+03 -0.44354355200E+03  0.46570363781E+03  0.93691915074E+03  0.00000000000E+00 0. -1.
        -11    1    5    5    0    0 -0.20065438358E+03 -0.75023986352E+02  0.14497350658E+03  0.25866599659E+03  0.00000000000E+00 0.  1.
          2    1    6    6  503    0  0.47796206752E+02 -0.32123196894E+02  0.15724513577E+03  0.16745868112E+03  0.00000000000E+00 0. -1.
         -2    1    6    6    0  503  0.15008933268E+03 -0.10574597289E+03  0.18229727518E+03  0.25873019751E+03  0.00000000000E+00 0.  1.
<mgrwt>
<rscale>  0 0.22877067E+04</rscale>
<asrwt>0</asrwt>
<pdfrwt beam="1">  1        2 0.30584436E+00 0.22877067E+04</pdfrwt>
<pdfrwt beam="2">  1       -1 0.10125431E+00 0.22877067E+04</pdfrwt>
<totfact> 0.64903006E+00</totfact>
</mgrwt>
</event>
<event>
12    6  0.1521603E-007  0.1580693E+04  0.7818608E-02  0.8832498E-01
         -3   -1    0    0    0  501 -0.00000000000E+00  0.00000000000E+00  0.29679705837E+03  0.29679705837E+03  0.00000000000E+00 0.  1.
          2   -1    0    0  501    0  0.00000000000E+00 -0.00000000000E+00 -0.21046282588E+04  0.21046282588E+04  0.00000000000E+00 0. -1.
         24    2    1    2    0    0 -0.17213836820E+03 -0.17784582414E+03  0.97363802599E+02  0.27564898090E+03  0.72400936785E+02 0.  0.
        254    2    1    2    0    0  0.17213836820E+03  0.17784582414E+03 -0.19051950030E+04  0.21257763363E+04  0.90988805756E+03 0.  0.
         23    2    4    4    0    0 -0.24295299664E+03  0.26385784205E+03 -0.14518260125E+04  0.14984930072E+04  0.95054734364E+02 0.  0.
         23    2    4    4    0    0  0.41509136484E+03 -0.86012017912E+02 -0.45336899053E+03  0.62728332912E+03  0.90785599199E+02 0.  0.
          2    1    3    3  502    0  0.10803489403E+01 -0.98133134940E+01 -0.76223664047E+01  0.12472720039E+02  0.00000000000E+00 0. -1.
         -1    1    3    3    0  502 -0.17321871714E+03 -0.16803251064E+03  0.10498616900E+03  0.26317626087E+03  0.00000000000E+00 0.  1.
         11    1    5    5    0    0 -0.18914155999E+03  0.24621419668E+03 -0.11377254954E+04  0.11793283102E+04  0.00000000000E+00 0. -1.
        -11    1    5    5    0    0 -0.53811436654E+02  0.17643645368E+02 -0.31410051710E+03  0.31916469695E+03  0.00000000000E+00 0.  1.
          4    1    6    6  503    0  0.24534454015E+03 -0.74809123099E+02 -0.21647811786E+03  0.33563838247E+03  0.00000000000E+00 0. -1.
         -4    1    6    6    0  503  0.16974682469E+03 -0.11202894813E+02 -0.23689087268E+03  0.29164494664E+03  0.00000000000E+00 0.  1.
<mgrwt>
<rscale>  0 0.15806929E+04</rscale>
<asrwt>0</asrwt>
<pdfrwt beam="1">  1        2 0.32378897E+00 0.15806929E+04</pdfrwt>
<pdfrwt beam="2">  1       -3 0.45661085E-01 0.15806929E+04</pdfrwt>
<totfact> 0.17234964E+01</totfact>
</mgrwt>
</event>
<event>
12    6  0.1521603E-007  0.1540473E+04  0.7818608E-02  0.8857976E-01
          2   -1    0    0  501    0  0.00000000000E+00  0.00000000000E+00  0.72616431712E+03  0.72616431712E+03  0.00000000000E+00 0. -1.
         -1   -1    0    0    0  501 -0.00000000000E+00 -0.00000000000E+00 -0.81698380669E+03  0.81698380669E+03  0.00000000000E+00 0.  1.
         24    2    1    2    0    0  0.20438521913E+02 -0.36028361458E+03  0.32476656873E+03  0.48996045965E+03  0.66075046286E+02 0.  0.
        254    2    1    2    0    0 -0.20438521913E+02  0.36028361458E+03 -0.41558605830E+03  0.10531876642E+04  0.89792564725E+03 0.  0.
         23    2    4    4    0    0 -0.21310216396E+03 -0.22760903079E+03 -0.49360858646E+02  0.32872671847E+03  0.91686192454E+02 0.  0.
         23    2    4    4    0    0  0.19266364205E+03  0.58789264537E+03 -0.36622519966E+03  0.72446094570E+03  0.89362875582E+02 0.  0.
          4    1    3    3  502    0  0.27690485142E+02 -0.11560187876E+03  0.13746540505E+03  0.18173413253E+03  0.00000000000E+00 0. -1.
         -3    1    3    3    0  502 -0.72519632294E+01 -0.24468173581E+03  0.18730116368E+03  0.30822632712E+03  0.00000000000E+00 0.  1.
         11    1    5    5    0    0 -0.14179993751E+03 -0.85882944937E+02 -0.34930629664E+02  0.16942033938E+03  0.00000000000E+00 0.  1.
        -11    1    5    5    0    0 -0.71302226455E+02 -0.14172608586E+03 -0.14430228982E+02  0.15930637909E+03  0.00000000000E+00 0. -1.
          2    1    6    6  503    0  0.17377816617E+02  0.18237145614E+03 -0.11319165230E+03  0.21534550536E+03  0.00000000000E+00 0. -1.
         -2    1    6    6    0  503  0.17528582543E+03  0.40552118923E+03 -0.25303354736E+03  0.50911544034E+03  0.00000000000E+00 0.  1.
<mgrwt>
<rscale>  0 0.15404733E+04</rscale>
<asrwt>0</asrwt>
<pdfrwt beam="1">  1        2 0.11171759E+00 0.15404733E+04</pdfrwt>
<pdfrwt beam="2">  1       -1 0.12568982E+00 0.15404733E+04</pdfrwt>
<totfact> 0.23747493E+01</totfact>
</mgrwt>
</event>
<event>
12    6  0.1521603E-007  0.1528392E+04  0.7818608E-02  0.8865789E-01
          2   -1    0    0  501    0  0.00000000000E+00  0.00000000000E+00  0.59788359123E+03  0.59788359123E+03  0.00000000000E+00 0. -1.
         -1   -1    0    0    0  501 -0.00000000000E+00 -0.00000000000E+00 -0.97677143991E+03  0.97677143991E+03  0.00000000000E+00 0.  1.
         24    2    1    2    0    0  0.43579237776E+03  0.23514244365E+03 -0.20392020282E+03  0.54153439073E+03  0.80430603033E+02 0.  0.
        254    2    1    2    0    0 -0.43579237776E+03 -0.23514244365E+03 -0.17496764586E+03  0.10331206404E+04  0.88967275738E+03 0.  0.
         23    2    4    4    0    0  0.23779032594E+03  0.36830446865E+02 -0.15416068785E+03  0.30044850919E+03  0.92752725406E+02 0.  0.
         23    2    4    4    0    0 -0.67358270370E+03 -0.27197289051E+03 -0.20806958013E+02  0.73267213122E+03  0.93234170052E+02 0.  0.
          2    1    3    3  502    0  0.21525934062E+02 -0.59805102295E+01 -0.87458586894E+01  0.23992131712E+02  0.00000000000E+00 0. -1.
         -1    1    3    3    0  502  0.41426644370E+03  0.24112295388E+03 -0.19517434413E+03  0.51754225901E+03  0.00000000000E+00 0.  1.
         11    1    5    5    0    0  0.89059167189E+02  0.28992541223E+01 -0.11014059235E+03  0.14167177213E+03  0.00000000000E+00 0. -1.
        -11    1    5    5    0    0  0.14873115875E+03  0.33931192743E+02 -0.44020095497E+02  0.15877673706E+03  0.00000000000E+00 0.  1.
          1    1    6    6  503    0 -0.49500117338E+03 -0.23831979306E+03  0.30195283234E+01  0.54939203031E+03  0.00000000000E+00 0. -1.
         -1    1    6    6    0  503 -0.17858153032E+03 -0.33653097451E+02 -0.23826486336E+02  0.18328010091E+03  0.00000000000E+00 0.  1.
<mgrwt>
<rscale>  0 0.15283921E+04</rscale>
<asrwt>0</asrwt>
<pdfrwt beam="1">  1        2 0.91982092E-01 0.15283921E+04</pdfrwt>
<pdfrwt beam="2">  1       -1 0.15027253E+00 0.15283921E+04</pdfrwt>
<totfact> 0.19052985E+01</totfact>
</mgrwt>
</event>
<event>
12    6  0.1521603E-007  0.1547580E+04  0.7818608E-02  0.8853415E-01
          2   -1    0    0  501    0  0.00000000000E+00  0.00000000000E+00  0.22391745131E+03  0.22391745131E+03  0.00000000000E+00 0. -1.
         -1   -1    0    0    0  501 -0.00000000000E+00 -0.00000000000E+00 -0.26739793906E+04  0.26739793906E+04  0.00000000000E+00 0.  1.
         24    2    1    2    0    0  0.34239731005E+03 -0.14693800915E+03 -0.15257609632E+04  0.15729424877E+04  0.85876984301E+02 0.  0.
        254    2    1    2    0    0 -0.34239731005E+03  0.14693800915E+03 -0.92430097608E+03  0.13249543542E+04  0.87312373108E+03 0.  0.
         23    2    4    4    0    0 -0.52143950301E+03  0.11403169891E+03 -0.97463082190E+03  0.11153000154E+04  0.95323143865E+02 0.  0.
         23    2    4    4    0    0  0.17904219296E+03  0.32906310234E+02  0.50329845826E+02  0.20965433873E+03  0.91010528270E+02 0.  0.
          2    1    3    3  502    0 -0.19213596890E+01 -0.10634515255E+02 -0.26368947219E+02  0.28497472084E+02  0.00000000000E+00 0. -1.
         -1    1    3    3    0  502  0.34431866974E+03 -0.13630349389E+03 -0.14993920160E+04  0.15444450156E+04  0.00000000000E+00 0.  1.
         11    1    5    5    0    0 -0.23983685302E+03  0.12841288759E+02 -0.49073300717E+03  0.54635656772E+03  0.00000000000E+00 0. -1.
        -11    1    5    5    0    0 -0.28160264999E+03  0.10119041016E+03 -0.48389781473E+03  0.56894344770E+03  0.00000000000E+00 0.  1.
          2    1    6    6  503    0  0.17946532810E+03  0.30209939855E+02  0.24443408669E+02  0.18362441201E+03  0.00000000000E+00 0. -1.
         -2    1    6    6    0  503 -0.42313514714E+00  0.26963703792E+01  0.25886437157E+02  0.26029926724E+02  0.00000000000E+00 0.  1.
<mgrwt>
<rscale>  0 0.15475796E+04</rscale>
<asrwt>0</asrwt>
<pdfrwt beam="1">  1        2 0.34448838E-01 0.15475796E+04</pdfrwt>
<pdfrwt beam="2">  1       -1 0.41138145E+00 0.15475796E+04</pdfrwt>
<totfact> 0.10105777E+00</totfact>
</mgrwt>
</event>
<event>
12    6  0.1521603E-007  0.1320724E+04  0.7818608E-02  0.9013290E-01
          2   -1    0    0  501    0  0.00000000000E+00  0.00000000000E+00  0.27709688116E+03  0.27709688116E+03  0.00000000000E+00 0. -1.
         -1   -1    0    0    0  501 -0.00000000000E+00 -0.00000000000E+00 -0.15737381747E+04  0.15737381747E+04  0.00000000000E+00 0.  1.
         24    2    1    2    0    0  0.10006618291E+03  0.61962777655E+02 -0.79315187159E+03  0.80574952199E+03  0.79308095481E+02 0.  0.
        254    2    1    2    0    0 -0.10006618291E+03 -0.61962777655E+02 -0.50348942192E+03  0.10450855338E+04  0.90821228150E+03 0.  0.
         23    2    4    4    0    0 -0.45535575919E+03 -0.10837956208E+03 -0.81468416424E+02  0.48410605900E+03  0.92879365751E+02 0.  0.
         23    2    4    4    0    0  0.35528957628E+03  0.46416784424E+02 -0.42202100550E+03  0.56097947484E+03  0.90614795804E+02 0.  0.
          4    1    3    3  502    0  0.20589654549E+02  0.57078774031E+02 -0.28410546195E+03  0.29051305277E+03  0.00000000000E+00 0. -1.
         -3    1    3    3    0  502  0.79476528356E+02  0.48840036243E+01 -0.50904640963E+03  0.51523646922E+03  0.00000000000E+00 0.  1.
         11    1    5    5    0    0 -0.42407765930E+03 -0.88566909109E+02 -0.97002359413E+02  0.44395429521E+03  0.00000000000E+00 0. -1.
        -11    1    5    5    0    0 -0.31278099889E+02 -0.19812652970E+02  0.15533942989E+02  0.40151763787E+02  0.00000000000E+00 0.  1.
          3    1    6    6  503    0  0.35778753164E+02  0.31695779316E+01 -0.90350363770E+01  0.37037781852E+02  0.00000000000E+00 0. -1.
         -3    1    6    6    0  503  0.31951082312E+03  0.43247206493E+02 -0.41298596912E+03  0.52394169299E+03  0.00000000000E+00 0.  1.
<mgrwt>
<rscale>  0 0.13207240E+04</rscale>
<asrwt>0</asrwt>
<pdfrwt beam="1">  1        2 0.42630290E-01 0.13207240E+04</pdfrwt>
<pdfrwt beam="2">  1       -1 0.24211356E+00 0.13207240E+04</pdfrwt>
<totfact> 0.10576539E+01</totfact>
</mgrwt>
</event>
<event>
12    6  0.1521603E-007  0.1351471E+04  0.7818608E-02  0.8989715E-01
          2   -1    0    0  501    0  0.00000000000E+00  0.00000000000E+00  0.49203685435E+03  0.49203685435E+03  0.00000000000E+00 0. -1.
         -1   -1    0    0    0  501 -0.00000000000E+00 -0.00000000000E+00 -0.92801686067E+03  0.92801686067E+03  0.00000000000E+00 0.  1.
         24    2    1    2    0    0 -0.34857949867E+03  0.86669865435E+02 -0.30601991878E+02  0.36924920668E+03  0.79932235425E+02 0.  0.
        254    2    1    2    0    0  0.34857949867E+03 -0.86669865435E+02 -0.40537801444E+03  0.10508045083E+04  0.90046623905E+03 0.  0.
         23    2    4    4    0    0  0.14582399639E+03 -0.46854330860E+03 -0.34078173137E+03  0.60414057215E+03  0.89756183766E+02 0.  0.
         23    2    4    4    0    0  0.20275550228E+03  0.38187344317E+03 -0.64596283070E+02  0.44666393618E+03  0.91645358853E+02 0.  0.
          4    1    3    3  502    0 -0.31836087577E+03  0.93732410995E+02 -0.10043995192E+02  0.33202453815E+03  0.00000000000E+00 0. -1.
         -3    1    3    3    0  502 -0.30218622900E+02 -0.70625455597E+01 -0.20557996686E+02  0.37224668534E+02  0.00000000000E+00 0.  1.
         11    1    5    5    0    0 -0.17639339742E+01 -0.12322890262E+03 -0.79597289778E+02  0.14671128942E+03  0.00000000000E+00 0. -1.
        -11    1    5    5    0    0  0.14758793036E+03 -0.34531440598E+03 -0.26118444159E+03  0.45742928273E+03  0.00000000000E+00 0.  1.
          2    1    6    6  503    0  0.61902446740E+02  0.18503403489E+03 -0.61579933899E+02  0.20460106363E+03  0.00000000000E+00 0. -1.
         -2    1    6    6    0  503  0.14085305554E+03  0.19683940828E+03 -0.30163491707E+01  0.24206287256E+03  0.00000000000E+00 0.  1.
<mgrwt>
<rscale>  0 0.13514710E+04</rscale>
<asrwt>0</asrwt>
<pdfrwt beam="1">  1        2 0.75697978E-01 0.13514710E+04</pdfrwt>
<pdfrwt beam="2">  1       -1 0.14277182E+00 0.13514710E+04</pdfrwt>
<totfact> 0.27899695E+01</totfact>
</mgrwt>
</event>
<event>
12    6  0.1521603E-007  0.2161157E+04  0.7818608E-02  0.8534772E-01
          2   -1    0    0  501    0  0.00000000000E+00  0.00000000000E+00  0.24461655861E+04  0.24461655861E+04  0.00000000000E+00 0. -1.
         -1   -1    0    0    0  501 -0.00000000000E+00 -0.00000000000E+00 -0.47733867882E+03  0.47733867882E+03  0.00000000000E+00 0.  1.
         24    2    1    2    0    0  0.34630498872E+02  0.40222090183E+03 -0.26109790541E+03  0.48710245305E+03  0.78203313446E+02 0.  0.
        254    2    1    2    0    0 -0.34630498872E+02 -0.40222090183E+03  0.22299248127E+04  0.24364018119E+04  0.89471123463E+03 0.  0.
         23    2    4    4    0    0  0.80840209059E+02 -0.11689423347E+03  0.20726476911E+04  0.20795270719E+04  0.91460320889E+02 0.  0.
         23    2    4    4    0    0 -0.11547070793E+03 -0.28532666836E+03  0.15727712164E+03  0.35687473999E+03  0.88762013173E+02 0.  0.
          4    1    3    3  502    0  0.45515635646E+02  0.11507161869E+03 -0.73410880904E+02  0.14388296616E+03  0.00000000000E+00 0. -1.
         -3    1    3    3    0  502 -0.10885136774E+02  0.28714928314E+03 -0.18768702450E+03  0.34321948689E+03  0.00000000000E+00 0.  1.
         11    1    5    5    0    0 -0.13819079906E+02 -0.53047288585E+02  0.68464969116E+03  0.68684072492E+03  0.00000000000E+00 0.  1.
        -11    1    5    5    0    0  0.94659288964E+02 -0.63846944884E+02  0.13879979999E+04  0.13926863470E+04  0.00000000000E+00 0. -1.
          2    1    6    6  503    0 -0.50184512851E+02 -0.12607957285E+03  0.11916377156E+03  0.18059498462E+03  0.00000000000E+00 0. -1.
         -2    1    6    6    0  503 -0.65286195080E+02 -0.15924709551E+03  0.38113350085E+02  0.17627975537E+03  0.00000000000E+00 0.  1.
<mgrwt>
<rscale>  0 0.21611566E+04</rscale>
<asrwt>0</asrwt>
<pdfrwt beam="1">  1        2 0.37633316E+00 0.21611566E+04</pdfrwt>
<pdfrwt beam="2">  1       -1 0.73436721E-01 0.21611566E+04</pdfrwt>
<totfact> 0.72922853E+00</totfact>
</mgrwt>
</event>
<event>
12    6  0.1521603E-007  0.2359702E+04  0.7818608E-02  0.8454746E-01
          2   -1    0    0  501    0  0.00000000000E+00  0.00000000000E+00  0.20505930128E+04  0.20505930128E+04  0.00000000000E+00 0. -1.
         -1   -1    0    0    0  501 -0.00000000000E+00 -0.00000000000E+00 -0.67885158447E+03  0.67885158447E+03  0.00000000000E+00 0.  1.
         24    2    1    2    0    0  0.44519695131E+03 -0.90340819048E+03  0.51964190135E+03  0.11360906070E+04  0.79545443655E+02 0.  0.
        254    2    1    2    0    0 -0.44519695131E+03  0.90340819048E+03  0.85209952700E+03  0.15933539903E+04  0.89350805836E+03 0.  0.
         23    2    4    4    0    0 -0.20133489241E+03  0.45622845901E+03  0.94022953987E+03  0.10686092320E+04  0.95989360361E+02 0.  0.
         23    2    4    4    0    0 -0.24386205890E+03  0.44717973147E+03 -0.88130012874E+02  0.52474475830E+03  0.90287021171E+02 0.  0.
          4    1    3    3  502    0  0.22645245782E+03 -0.49476302904E+03  0.32149649761E+03  0.63200567128E+03  0.00000000000E+00 0. -1.
         -3    1    3    3    0  502  0.21874449348E+03 -0.40864516145E+03  0.19814540374E+03  0.50408493573E+03  0.00000000000E+00 0.  1.
         11    1    5    5    0    0 -0.18294170865E+03  0.31667985560E+03  0.71276927404E+03  0.80112036407E+03  0.00000000000E+00 0. -1.
        -11    1    5    5    0    0 -0.18393183757E+02  0.13954860341E+03  0.22746026583E+03  0.26748886791E+03  0.00000000000E+00 0.  1.
          2    1    6    6  503    0 -0.56517236938E+02  0.17136510086E+03 -0.59902859202E+02  0.19012771603E+03  0.00000000000E+00 0. -1.
         -2    1    6    6    0  503 -0.18734482196E+03  0.27581463061E+03 -0.28227153672E+02  0.33461704227E+03  0.00000000000E+00 0.  1.
<mgrwt>
<rscale>  0 0.23597019E+04</rscale>
<asrwt>0</asrwt>
<pdfrwt beam="1">  1        2 0.31547585E+00 0.23597019E+04</pdfrwt>
<pdfrwt beam="2">  1       -1 0.10443871E+00 0.23597019E+04</pdfrwt>
<totfact> 0.55411911E+00</totfact>
</mgrwt>
</event>
<event>
12    6  0.1521603E-007  0.1520714E+04  0.7818608E-02  0.8870794E-01
          2   -1    0    0  501    0  0.00000000000E+00  0.00000000000E+00  0.10189104598E+04  0.10189104598E+04  0.00000000000E+00 0. -1.
         -1   -1    0    0    0  501 -0.00000000000E+00 -0.00000000000E+00 -0.56741291898E+03  0.56741291898E+03  0.00000000000E+00 0.  1.
         24    2    1    2    0    0  0.21975902023E+03  0.88261143470E+02  0.59686206203E+03  0.64691937259E+03  0.78589421223E+02 0.  0.
        254    2    1    2    0    0 -0.21975902023E+03 -0.88261143470E+02 -0.14536452118E+03  0.93940400622E+03  0.89736558128E+03 0.  0.
         23    2    4    4    0    0 -0.28661149286E+03 -0.25371970887E+03 -0.43555772607E+03  0.58655608138E+03  0.88417562459E+02 0.  0.
         23    2    4    4    0    0  0.66852472624E+02  0.16545856540E+03  0.29019320489E+03  0.35284792484E+03  0.91889999127E+02 0.  0.
          4    1    3    3  502    0  0.18020065223E+03  0.41237148853E+02  0.48908840924E+03  0.52285777183E+03  0.00000000000E+00 0. -1.
         -3    1    3    3    0  502  0.39558368004E+02  0.47023994617E+02  0.10777365279E+03  0.12406160076E+03  0.00000000000E+00 0.  1.
         11    1    5    5    0    0 -0.89401957751E+02 -0.13203434678E+03 -0.20446116764E+03  0.25928777035E+03  0.00000000000E+00 0.  1.
        -11    1    5    5    0    0 -0.19720953511E+03 -0.12168536209E+03 -0.23109655843E+03  0.32726831103E+03  0.00000000000E+00 0. -1.
          4    1    6    6  503    0  0.38034831753E+02  0.63534120620E+01  0.46797269495E+02  0.60638261052E+02  0.00000000000E+00 0. -1.
         -4    1    6    6    0  503  0.28817640871E+02  0.15910515334E+03  0.24339593540E+03  0.29220966379E+03  0.00000000000E+00 0.  1.
<mgrwt>
<rscale>  0 0.15207143E+04</rscale>
<asrwt>0</asrwt>
<pdfrwt beam="1">  1        2 0.15675545E+00 0.15207143E+04</pdfrwt>
<pdfrwt beam="2">  1       -1 0.87294296E-01 0.15207143E+04</pdfrwt>
<totfact> 0.34834584E+01</totfact>
</mgrwt>
</event>
<event>
12    6  0.1521603E-007  0.1744904E+04  0.7818608E-02  0.8736160E-01
         -1   -1    0    0    0  501 -0.00000000000E+00  0.00000000000E+00  0.77485158474E+03  0.77485158474E+03  0.00000000000E+00 0.  1.
          2   -1    0    0  501    0  0.00000000000E+00 -0.00000000000E+00 -0.98234652297E+03  0.98234652297E+03  0.00000000000E+00 0. -1.
         24    2    1    2    0    0 -0.39572767518E+03  0.14524155809E+02 -0.61496754925E+03  0.73568670917E+03  0.78984197190E+02 0.  0.
        254    2    1    2    0    0  0.39572767518E+03 -0.14524155809E+02  0.40747261102E+03  0.10215113985E+04  0.84890533313E+03 0.  0.
         23    2    4    4    0    0  0.45973767349E+03 -0.29641981244E+03  0.44902398624E+03  0.71315064515E+03  0.87965156891E+02 0.  0.
         23    2    4    4    0    0 -0.64009998310E+02  0.28189565663E+03 -0.41551375219E+02  0.30836075339E+03  0.98981798036E+02 0.  0.
          2    1    3    3  502    0 -0.19054939838E+03  0.46349288300E+02 -0.30489163991E+03  0.36251378158E+03  0.00000000000E+00 0. -1.
         -1    1    3    3    0  502 -0.20517827680E+03 -0.31825132490E+02 -0.31007590935E+03  0.37317292759E+03  0.00000000000E+00 0.  1.
         11    1    5    5    0    0  0.15649269610E+03 -0.71736135694E+02  0.99986924109E+02  0.19908144587E+03  0.00000000000E+00 0. -1.
        -11    1    5    5    0    0  0.30324497739E+03 -0.22468367674E+03  0.34903706213E+03  0.51406919928E+03  0.00000000000E+00 0.  1.
          1    1    6    6  503    0  0.75062789831E+01  0.16074746091E+02 -0.27503990844E+02  0.32729362939E+02  0.00000000000E+00 0. -1.
         -1    1    6    6    0  503 -0.71516277293E+02  0.26582091054E+03 -0.14047384374E+02  0.27563139046E+03  0.00000000000E+00 0.  1.
<mgrwt>
<rscale>  0 0.17449043E+04</rscale>
<asrwt>0</asrwt>
<pdfrwt beam="1">  1        2 0.15113023E+00 0.17449043E+04</pdfrwt>
<pdfrwt beam="2">  1       -1 0.11920794E+00 0.17449043E+04</pdfrwt>
<totfact> 0.17605273E+01</totfact>
</mgrwt>
</event>
<event>
12    6  0.1521603E-007  0.2500822E+04  0.7818608E-02  0.8402693E-01
          2   -1    0    0  501    0  0.00000000000E+00  0.00000000000E+00  0.16361794943E+04  0.16361794943E+04  0.00000000000E+00 0. -1.
         -1   -1    0    0    0  501 -0.00000000000E+00 -0.00000000000E+00 -0.95559704116E+03  0.95559704116E+03  0.00000000000E+00 0.  1.
         24    2    1    2    0    0 -0.50856752683E+03 -0.82667176290E+03  0.80229003846E+03  0.12611123962E+04  0.68615136939E+02 0.  0.
        254    2    1    2    0    0  0.50856752683E+03  0.82667176290E+03 -0.12170758531E+03  0.13306641393E+04  0.90212370681E+03 0.  0.
         23    2    4    4    0    0  0.19466029826E+03  0.75701737851E+03  0.25309831689E+03  0.82728614028E+03  0.96827975353E+02 0.  0.
         23    2    4    4    0    0  0.31390722857E+03  0.69654384389E+02 -0.37480590220E+03  0.50337799902E+03  0.97572865922E+02 0.  0.
          2    1    3    3  502    0 -0.30838333794E+03 -0.45553349148E+03  0.48529053707E+03  0.73356523251E+03  0.00000000000E+00 0. -1.
         -1    1    3    3    0  502 -0.20018418889E+03 -0.37113827142E+03  0.31699950139E+03  0.52754716365E+03  0.00000000000E+00 0.  1.
         11    1    5    5    0    0  0.19187875009E+03  0.73155611801E+03  0.26165107252E+03  0.80028313258E+03  0.00000000000E+00 0.  1.
        -11    1    5    5    0    0  0.27815481741E+01  0.25461260498E+02 -0.85527556322E+01  0.27003007708E+02  0.00000000000E+00 0. -1.
          2    1    6    6  503    0  0.10172949644E+03 -0.36397109103E+01 -0.64941139064E+02  0.12074555679E+03  0.00000000000E+00 0. -1.
         -2    1    6    6    0  503  0.21217773213E+03  0.73294095300E+02 -0.30986476313E+03  0.38263244223E+03  0.00000000000E+00 0.  1.
<mgrwt>
<rscale>  0 0.25008225E+04</rscale>
<asrwt>0</asrwt>
<pdfrwt beam="1">  1        2 0.25171992E+00 0.25008225E+04</pdfrwt>
<pdfrwt beam="2">  1       -1 0.14701493E+00 0.25008225E+04</pdfrwt>
<totfact> 0.39807811E+00</totfact>
</mgrwt>
</event>
<event>
12    6  0.1521603E-007  0.1237009E+04  0.7818608E-02  0.9081066E-01
          2   -1    0    0  501    0  0.00000000000E+00  0.00000000000E+00  0.30640914092E+03  0.30640914092E+03  0.00000000000E+00 0. -1.
         -1   -1    0    0    0  501 -0.00000000000E+00 -0.00000000000E+00 -0.12484860542E+04  0.12484860542E+04  0.00000000000E+00 0.  1.
         24    2    1    2    0    0  0.43832223906E+02 -0.24930207520E+03 -0.37877671482E+03  0.46234424252E+03  0.78851825246E+02 0.  0.
        254    2    1    2    0    0 -0.43832223906E+02  0.24930207520E+03 -0.56330019844E+03  0.10925509526E+04  0.90127003828E+03 0.  0.
         23    2    4    4    0    0  0.59733974387E+02  0.46729840338E+03 -0.66125009487E+03  0.81687787458E+03  0.90010157856E+02 0.  0.
         23    2    4    4    0    0 -0.10356619829E+03 -0.21799632819E+03  0.97949896427E+02  0.27567307801E+03  0.90294557977E+02 0.  0.
          4    1    3    3  502    0  0.22271143807E+02 -0.15365369559E+02 -0.20644695197E+02  0.34033834164E+02  0.00000000000E+00 0. -1.
         -1    1    3    3    0  502  0.21561080098E+02 -0.23393670564E+03 -0.35813201963E+03  0.42831040835E+03  0.00000000000E+00 0.  1.
         11    1    5    5    0    0  0.82419483791E+02  0.39120415935E+03 -0.53846843829E+03  0.67065782978E+03  0.00000000000E+00 0. -1.
        -11    1    5    5    0    0 -0.22685509404E+02  0.76094244036E+02 -0.12278165657E+03  0.14622004481E+03  0.00000000000E+00 0.  1.
          1    1    6    6  503    0 -0.59777162553E+02 -0.10333572580E+03  0.95553687299E+02  0.15291202878E+03  0.00000000000E+00 0. -1.
         -1    1    6    6    0  503 -0.43789035740E+02 -0.11466060239E+03  0.23962091281E+01  0.12276104923E+03  0.00000000000E+00 0.  1.
<mgrwt>
<rscale>  0 0.12370086E+04</rscale>
<asrwt>0</asrwt>
<pdfrwt beam="1">  1        2 0.47139868E-01 0.12370086E+04</pdfrwt>
<pdfrwt beam="2">  1       -1 0.19207478E+00 0.12370086E+04</pdfrwt>
<totfact> 0.20664789E+01</totfact>
</mgrwt>
</event>
<event>
12    6  0.1521603E-007  0.1864766E+04  0.7818608E-02  0.8672596E-01
         -1   -1    0    0    0  501 -0.00000000000E+00  0.00000000000E+00  0.13142221686E+04  0.13142221686E+04  0.00000000000E+00 0.  1.
          2   -1    0    0  501    0  0.00000000000E+00 -0.00000000000E+00 -0.66148472630E+03  0.66148472630E+03  0.00000000000E+00 0. -1.
         24    2    1    2    0    0  0.31480497281E+03  0.61933445979E+03  0.41351946680E+03  0.81234178947E+03  0.78889096289E+02 0.  0.
        254    2    1    2    0    0 -0.31480497281E+03 -0.61933445979E+03  0.23921797548E+03  0.11633651054E+04  0.90195109884E+03 0.  0.
         23    2    4    4    0    0 -0.29386857835E+03 -0.83908942259E+03  0.23624607362E+03  0.92441775959E+03  0.91138282376E+02 0.  0.
         23    2    4    4    0    0 -0.20936394465E+02  0.21975496280E+03  0.29719018558E+01  0.23894734581E+03  0.91413486874E+02 0.  0.
          4    1    3    3  502    0  0.60576312278E+02  0.16664755301E+03  0.74898666536E+02  0.19248560149E+03  0.00000000000E+00 0. -1.
         -3    1    3    3    0  502  0.25422866053E+03  0.45268690678E+03  0.33862080027E+03  0.61985618798E+03  0.00000000000E+00 0.  1.
         11    1    5    5    0    0 -0.27112116201E+03 -0.72920510157E+03  0.17838920501E+03  0.79816631920E+03  0.00000000000E+00 0. -1.
        -11    1    5    5    0    0 -0.22747416334E+02 -0.10988432102E+03  0.57856868611E+02  0.12625144039E+03  0.00000000000E+00 0.  1.
          4    1    6    6  503    0 -0.36739047996E+02  0.40945405741E+02  0.20229305756E+02  0.58613212762E+02  0.00000000000E+00 0.  1.
         -4    1    6    6    0  503  0.15802653531E+02  0.17880955706E+03 -0.17257403901E+02  0.18033413305E+03  0.00000000000E+00 0. -1.
<mgrwt>
<rscale>  0 0.18647658E+04</rscale>
<asrwt>0</asrwt>
<pdfrwt beam="1">  1        2 0.10176688E+00 0.18647658E+04</pdfrwt>
<pdfrwt beam="2">  1       -1 0.20218803E+00 0.18647658E+04</pdfrwt>
<totfact> 0.68578595E+00</totfact>
</mgrwt>
</event>
<event>
12    6  0.1521603E-007  0.1575475E+04  0.7818608E-02  0.8835758E-01
          2   -1    0    0  501    0  0.00000000000E+00  0.00000000000E+00  0.18519371489E+04  0.18519371489E+04  0.00000000000E+00 0. -1.
         -1   -1    0    0    0  501 -0.00000000000E+00 -0.00000000000E+00 -0.33507078077E+03  0.33507078077E+03  0.00000000000E+00 0.  1.
         24    2    1    2    0    0 -0.32344848600E+03 -0.20016216356E+03  0.10097434175E+04  0.10819360568E+04  0.79498723197E+02 0.  0.
        254    2    1    2    0    0  0.32344848600E+03  0.20016216356E+03  0.50712295061E+03  0.11050718728E+04  0.90516647215E+03 0.  0.
         23    2    4    4    0    0  0.40003045995E+03  0.14741697994E+02  0.70093749342E+03  0.81253876692E+03  0.93081639033E+02 0.  0.
         23    2    4    4    0    0 -0.76581973946E+02  0.18542046557E+03 -0.19381454281E+03  0.29253310592E+03  0.88124873171E+02 0.  0.
          2    1    3    3  502    0 -0.22724686406E+03 -0.14513339121E+03  0.60645024761E+03  0.66369175172E+03  0.00000000000E+00 0. -1.
         -1    1    3    3    0  502 -0.96201621939E+02 -0.55028772353E+02  0.40329316991E+03  0.41824430510E+03  0.00000000000E+00 0.  1.
         11    1    5    5    0    0  0.15691729997E+03  0.27759621501E+02  0.20128911442E+03  0.25673126650E+03  0.00000000000E+00 0. -1.
        -11    1    5    5    0    0  0.24311315998E+03 -0.13017923506E+02  0.49964837900E+03  0.55580750042E+03  0.00000000000E+00 0.  1.
          4    1    6    6  503    0 -0.88660188780E+02  0.11418505668E+03 -0.10860493597E+03  0.18081451369E+03  0.00000000000E+00 0. -1.
         -4    1    6    6    0  503  0.12078214834E+02  0.71235408886E+02 -0.85209606841E+02  0.11171859223E+03  0.00000000000E+00 0.  1.
<mgrwt>
<rscale>  0 0.15754746E+04</rscale>
<asrwt>0</asrwt>
<pdfrwt beam="1">  1        2 0.28491340E+00 0.15754746E+04</pdfrwt>
<pdfrwt beam="2">  1       -1 0.51549352E-01 0.15754746E+04</pdfrwt>
<totfact> 0.33459742E+01</totfact>
</mgrwt>
</event>
<event>
12    6  0.1521603E-007  0.1882904E+04  0.7818608E-02  0.8663413E-01
         -1   -1    0    0    0  501 -0.00000000000E+00  0.00000000000E+00  0.14430218434E+04  0.14430218434E+04  0.00000000000E+00 0.  1.
          2   -1    0    0  501    0  0.00000000000E+00 -0.00000000000E+00 -0.61421900712E+03  0.61421900712E+03  0.00000000000E+00 0. -1.
         24    2    1    2    0    0 -0.40943463467E+03 -0.49298331341E+03  0.70750370021E+03  0.95791252840E+03  0.79785079287E+02 0.  0.
        254    2    1    2    0    0  0.40943463467E+03  0.49298331341E+03  0.12129913609E+03  0.10993283222E+04  0.88495198293E+03 0.  0.
         23    2    4    4    0    0  0.19659854933E+03 -0.96881067037E+01  0.41845298863E+03  0.47109886994E+03  0.89924371255E+02 0.  0.
         23    2    4    4    0    0  0.21283608534E+03  0.50267142012E+03 -0.29715385254E+03  0.62822945222E+03  0.91619194091E+02 0.  0.
          4    1    3    3  502    0 -0.33225613509E+03 -0.41714787996E+03  0.54361214176E+03  0.76152521542E+03  0.00000000000E+00 0. -1.
         -3    1    3    3    0  502 -0.77178499576E+02 -0.75835433454E+02  0.16389155846E+03  0.19638731298E+03  0.00000000000E+00 0.  1.
         11    1    5    5    0    0  0.17477109272E+03  0.75653417781E+01  0.40286560381E+03  0.43920708553E+03  0.00000000000E+00 0.  1.
        -11    1    5    5    0    0  0.21827456615E+02 -0.17253448482E+02  0.15587384821E+02  0.31891784402E+02  0.00000000000E+00 0. -1.
          1    1    6    6  503    0  0.47797944321E+02  0.15821190419E+03 -0.47660431094E+02  0.17200920557E+03  0.00000000000E+00 0. -1.
         -1    1    6    6    0  503  0.16503814102E+03  0.34445951592E+03 -0.24949342145E+03  0.45622024664E+03  0.00000000000E+00 0.  1.
<mgrwt>
<rscale>  0 0.18829035E+04</rscale>
<asrwt>0</asrwt>
<pdfrwt beam="1">  1        2 0.94495232E-01 0.18829035E+04</pdfrwt>
<pdfrwt beam="2">  1       -1 0.22200336E+00 0.18829035E+04</pdfrwt>
<totfact> 0.55083371E+00</totfact>
</mgrwt>
</event>
<event>
12    6  0.1521603E-007  0.1332018E+04  0.7818608E-02  0.9004553E-01
          2   -1    0    0  501    0  0.00000000000E+00  0.00000000000E+00  0.76414592042E+03  0.76414592042E+03  0.00000000000E+00 0. -1.
         -3   -1    0    0    0  501 -0.00000000000E+00 -0.00000000000E+00 -0.58047584902E+03  0.58047584902E+03  0.00000000000E+00 0.  1.
         24    2    1    2    0    0  0.12675007641E+03  0.14373914121E+03  0.35218634491E+03  0.40792522101E+03  0.75108200649E+02 0.  0.
        254    2    1    2    0    0 -0.12675007641E+03 -0.14373914121E+03 -0.16851627351E+03  0.93669654844E+03  0.90126365001E+03 0.  0.
         23    2    4    4    0    0 -0.80067208386E+02 -0.16659918760E+02 -0.52794986310E+03  0.54201779392E+03  0.91454470797E+02 0.  0.
         23    2    4    4    0    0 -0.46682868029E+02 -0.12707922245E+03  0.35943358958E+03  0.39467875452E+03  0.90831685001E+02 0.  0.
          4    1    3    3  502    0  0.48624890486E+02  0.40137926775E+02  0.19019117269E+03  0.20036994612E+03  0.00000000000E+00 0. -1.
         -3    1    3    3    0  502  0.78125185929E+02  0.10360121444E+03  0.16199517223E+03  0.20755527489E+03  0.00000000000E+00 0.  1.
         11    1    5    5    0    0 -0.51964902980E+02  0.20041394606E+02 -0.43131654231E+03  0.43489765268E+03  0.00000000000E+00 0.  1.
        -11    1    5    5    0    0 -0.28102305406E+02 -0.36701313366E+02 -0.96633320788E+02  0.10712014124E+03  0.00000000000E+00 0. -1.
          1    1    6    6  503    0 -0.14268825882E+02  0.12893185022E+02  0.37695640650E+02  0.42317785104E+02  0.00000000000E+00 0. -1.
         -1    1    6    6    0  503 -0.32414042148E+02 -0.13997240747E+03  0.32173794893E+03  0.35236096941E+03  0.00000000000E+00 0.  1.
<mgrwt>
<rscale>  0 0.13320184E+04</rscale>
<asrwt>0</asrwt>
<pdfrwt beam="1">  1        2 0.11756091E+00 0.13320184E+04</pdfrwt>
<pdfrwt beam="2">  1       -3 0.89303976E-01 0.13320184E+04</pdfrwt>
<totfact> 0.25702982E+01</totfact>
</mgrwt>
</event>
<event>
12    6  0.1521603E-007  0.1599448E+04  0.7818608E-02  0.8820887E-01
         -1   -1    0    0    0  501 -0.00000000000E+00  0.00000000000E+00  0.50225288078E+03  0.50225288078E+03  0.00000000000E+00 0.  1.
          2   -1    0    0  501    0  0.00000000000E+00 -0.00000000000E+00 -0.12733792016E+04  0.12733792016E+04  0.00000000000E+00 0. -1.
         24    2    1    2    0    0  0.24102730462E+03  0.39648317706E+02 -0.77549179731E+03  0.81696321976E+03  0.79845000324E+02 0.  0.
        254    2    1    2    0    0 -0.24102730462E+03 -0.39648317706E+02  0.43654764511E+01  0.95866886267E+03  0.92701714126E+03 0.  0.
         23    2    4    4    0    0  0.32668114538E+00 -0.23015192785E+03 -0.38299852455E+03  0.45564695927E+03  0.89197898362E+02 0.  0.
         23    2    4    4    0    0 -0.24135398577E+03  0.19050361014E+03  0.38736400100E+03  0.50302190340E+03  0.91852022887E+02 0.  0.
          4    1    3    3  502    0  0.18121200781E+03  0.63730150981E+02 -0.60005264515E+03  0.63004960191E+03  0.00000000000E+00 0. -1.
         -3    1    3    3    0  502  0.59815296811E+02 -0.24081833275E+02 -0.17543915216E+03  0.18691361785E+03  0.00000000000E+00 0.  1.
         11    1    5    5    0    0  0.49915830136E+01 -0.10064043958E+03 -0.25189657970E+03  0.27130296873E+03  0.00000000000E+00 0. -1.
        -11    1    5    5    0    0 -0.46649018683E+01 -0.12951148827E+03 -0.13110194485E+03  0.18434399053E+03  0.00000000000E+00 0.  1.
          2    1    6    6  503    0 -0.13688059020E+03  0.71352097501E+02  0.24733529916E+03  0.29155131281E+03  0.00000000000E+00 0. -1.
         -2    1    6    6    0  503 -0.10447339556E+03  0.11915151264E+03  0.14002870184E+03  0.21147059059E+03  0.00000000000E+00 0.  1.
<mgrwt>
<rscale>  0 0.15994479E+04</rscale>
<asrwt>0</asrwt>
<pdfrwt beam="1">  1        2 0.19590449E+00 0.15994479E+04</pdfrwt>
<pdfrwt beam="2">  1       -1 0.77269675E-01 0.15994479E+04</pdfrwt>
<totfact> 0.31460994E+01</totfact>
</mgrwt>
</event>
<event>
12    6  0.1521603E-007  0.1942881E+04  0.7818608E-02  0.8633801E-01
          2   -1    0    0  501    0  0.00000000000E+00  0.00000000000E+00  0.87983207765E+03  0.87983207765E+03  0.00000000000E+00 0. -1.
         -1   -1    0    0    0  501 -0.00000000000E+00 -0.00000000000E+00 -0.10725875222E+04  0.10725875222E+04  0.00000000000E+00 0.  1.
         24    2    1    2    0    0  0.74444469170E+03 -0.16140850043E+03 -0.11241685755E+03  0.77376403658E+03  0.76306169081E+02 0.  0.
        254    2    1    2    0    0 -0.74444469170E+03  0.16140850043E+03 -0.80338587034E+02  0.11786555633E+04  0.89583706403E+03 0.  0.
         23    2    4    4    0    0 -0.66407109927E+03 -0.21061494856E+02 -0.40763905139E+03  0.78488489221E+03  0.91873208037E+02 0.  0.
         23    2    4    4    0    0 -0.80373592428E+02  0.18246999529E+03  0.32730046435E+03  0.39377067108E+03  0.90413128989E+02 0.  0.
          4    1    3    3  502    0  0.32321060304E+02  0.71929662829E+01  0.14724641328E+01  0.33144499600E+02  0.00000000000E+00 0. -1.
         -3    1    3    3    0  502  0.71212363139E+03 -0.16860146672E+03 -0.11388932168E+03  0.74061953698E+03  0.00000000000E+00 0.  1.
         11    1    5    5    0    0 -0.26593917194E+03 -0.53513031172E+02 -0.16339087405E+03  0.31667627855E+03  0.00000000000E+00 0.  1.
        -11    1    5    5    0    0 -0.39813192733E+03  0.32451536315E+02 -0.24424817734E+03  0.46820861366E+03  0.00000000000E+00 0. -1.
          3    1    6    6  503    0 -0.71304729835E+02  0.18547641214E+03  0.32871871401E+03  0.38411177657E+03  0.00000000000E+00 0. -1.
         -3    1    6    6    0  503 -0.90688625930E+01 -0.30064168524E+01 -0.14182496577E+01  0.96588945078E+01  0.00000000000E+00 0.  1.
<mgrwt>
<rscale>  0 0.19428813E+04</rscale>
<asrwt>0</asrwt>
<pdfrwt beam="1">  1        2 0.13535878E+00 0.19428813E+04</pdfrwt>
<pdfrwt beam="2">  1       -1 0.16501346E+00 0.19428813E+04</pdfrwt>
<totfact> 0.86360786E+00</totfact>
</mgrwt>
</event>
<event>
12    6  0.1521603E-007  0.1366374E+04  0.7818608E-02  0.8978525E-01
          2   -1    0    0  501    0  0.00000000000E+00  0.00000000000E+00  0.64552488567E+03  0.64552488567E+03  0.00000000000E+00 0. -1.
         -1   -1    0    0    0  501 -0.00000000000E+00 -0.00000000000E+00 -0.72304604936E+03  0.72304604936E+03  0.00000000000E+00 0.  1.
         24    2    1    2    0    0  0.83313735763E+02 -0.20468925553E+03  0.28250011449E+03  0.36720527423E+03  0.78705329183E+02 0.  0.
        254    2    1    2    0    0 -0.83313735763E+02  0.20468925553E+03 -0.36002127818E+03  0.10013656608E+04  0.90789811983E+03 0.  0.
         23    2    4    4    0    0 -0.21386248132E+03  0.24742647467E+02  0.25206270605E+03  0.34390447960E+03  0.91571413617E+02 0.  0.
         23    2    4    4    0    0  0.13054874555E+03  0.17994660806E+03 -0.61208398422E+03  0.65746118120E+03  0.90469024083E+02 0.  0.
          2    1    3    3  502    0  0.77467912779E+02 -0.20479281620E+03  0.24226740449E+03  0.32654995078E+03  0.00000000000E+00 0. -1.
         -1    1    3    3    0  502  0.58458229836E+01  0.10356066781E+00  0.40232709996E+02  0.40655323449E+02  0.00000000000E+00 0.  1.
         11    1    5    5    0    0 -0.93604590540E+02  0.17642038144E+02  0.47340771707E+02  0.10636827321E+03  0.00000000000E+00 0. -1.
        -11    1    5    5    0    0 -0.12025789078E+03  0.71006093237E+01  0.20472193434E+03  0.23753620639E+03  0.00000000000E+00 0.  1.
          2    1    6    6  503    0 -0.88647414810E+01  0.68389529323E+01 -0.79338261515E+01  0.13722263521E+02  0.00000000000E+00 0. -1.
         -2    1    6    6    0  503  0.13941348703E+03  0.17310765513E+03 -0.60415015807E+03  0.64373891768E+03  0.00000000000E+00 0.  1.
<mgrwt>
<rscale>  0 0.13663736E+04</rscale>
<asrwt>0</asrwt>
<pdfrwt beam="1">  1        2 0.99311521E-01 0.13663736E+04</pdfrwt>
<pdfrwt beam="2">  1       -1 0.11123785E+00 0.13663736E+04</pdfrwt>
<totfact> 0.37584578E+01</totfact>
</mgrwt>
</event>
<event>
12    6  0.1521603E-007  0.2297251E+04  0.7818608E-02  0.8479006E-01
         -1   -1    0    0    0  501 -0.00000000000E+00  0.00000000000E+00  0.13828672549E+04  0.13828672549E+04  0.00000000000E+00 0.  1.
          2   -1    0    0  501    0  0.00000000000E+00 -0.00000000000E+00 -0.95406176419E+03  0.95406176419E+03  0.00000000000E+00 0. -1.
         24    2    1    2    0    0 -0.62610735145E+03 -0.68106477588E+03 -0.11450112713E+03  0.93555592537E+03  0.79339377998E+02 0.  0.
        254    2    1    2    0    0  0.62610735145E+03  0.68106477588E+03  0.54330661785E+03  0.14013730937E+04  0.90155688803E+03 0.  0.
         23    2    4    4    0    0  0.76308202599E+03  0.52439210072E+03  0.14399866125E+03  0.94155582622E+03  0.92252402452E+02 0.  0.
         23    2    4    4    0    0 -0.13697467454E+03  0.15667267516E+03  0.39930795660E+03  0.45981726751E+03  0.93148734224E+02 0.  0.
          2    1    3    3  502    0 -0.48466756337E+03 -0.55094067608E+03 -0.62423710850E+02  0.73643397207E+03  0.00000000000E+00 0. -1.
         -1    1    3    3    0  502 -0.14143978807E+03 -0.13012409981E+03 -0.52077416281E+02  0.19912195330E+03  0.00000000000E+00 0.  1.
         11    1    5    5    0    0  0.32772921288E+03  0.26980093792E+03  0.93760482729E+02  0.43472981402E+03  0.00000000000E+00 0.  1.
        -11    1    5    5    0    0  0.43535281311E+03  0.25459116280E+03  0.50238178523E+02  0.50682601220E+03  0.00000000000E+00 0. -1.
          1    1    6    6  503    0 -0.87446493722E+02  0.15041123955E+03  0.26994041104E+03  0.32115145299E+03  0.00000000000E+00 0. -1.
         -1    1    6    6    0  503 -0.49528180822E+02  0.62614356119E+01  0.12936754556E+03  0.13866581452E+03  0.00000000000E+00 0.  1.
<mgrwt>
<rscale>  0 0.22972512E+04</rscale>
<asrwt>0</asrwt>
<pdfrwt beam="1">  1        2 0.14677873E+00 0.22972512E+04</pdfrwt>
<pdfrwt beam="2">  1       -1 0.21274881E+00 0.22972512E+04</pdfrwt>
<totfact> 0.34365121E+00</totfact>
</mgrwt>
</event>
<event>
12    6  0.1521603E-007  0.1347768E+04  0.7818608E-02  0.8992520E-01
          2   -1    0    0  501    0  0.00000000000E+00  0.00000000000E+00  0.10337203880E+04  0.10337203880E+04  0.00000000000E+00 0. -1.
         -1   -1    0    0    0  501 -0.00000000000E+00 -0.00000000000E+00 -0.43930598456E+03  0.43930598456E+03  0.00000000000E+00 0.  1.
         24    2    1    2    0    0 -0.15301498857E+03  0.31923673861E+03  0.31235925134E+03  0.47840279233E+03  0.77299727086E+02 0.  0.
        254    2    1    2    0    0  0.15301498857E+03 -0.31923673861E+03  0.28205515210E+03  0.99462358022E+03  0.88566092581E+03 0.  0.
         23    2    4    4    0    0 -0.76648752750E+02  0.27995349724E+03  0.64863168556E+02  0.31093925410E+03  0.90702795933E+02 0.  0.
         23    2    4    4    0    0  0.22966374132E+03 -0.59919023585E+03  0.21719198355E+03  0.68368432612E+03  0.92073488315E+02 0.  0.
          4    1    3    3  502    0 -0.42940066533E+02  0.17098900139E+03  0.17368013920E+03  0.24747904692E+03  0.00000000000E+00 0. -1.
         -1    1    3    3    0  502 -0.11007492204E+03  0.14824773722E+03  0.13867911214E+03  0.23092374542E+03  0.00000000000E+00 0.  1.
         11    1    5    5    0    0 -0.72897120494E+02  0.17712385515E+03  0.43933977355E+01  0.19158849700E+03  0.00000000000E+00 0. -1.
        -11    1    5    5    0    0 -0.37516322556E+01  0.10282964209E+03  0.60469770821E+02  0.11935075710E+03  0.00000000000E+00 0.  1.
          1    1    6    6  503    0  0.20696200835E+03 -0.49269177742E+03  0.21123867075E+03  0.57463052169E+03  0.00000000000E+00 0. -1.
         -1    1    6    6    0  503  0.22701732978E+02 -0.10649845843E+03  0.59533127968E+01  0.10905380443E+03  0.00000000000E+00 0.  1.
<mgrwt>
<rscale>  0 0.13477679E+04</rscale>
<asrwt>0</asrwt>
<pdfrwt beam="1">  1        2 0.15903391E+00 0.13477679E+04</pdfrwt>
<pdfrwt beam="2">  1       -1 0.67585536E-01 0.13477679E+04</pdfrwt>
<totfact> 0.59229062E+01</totfact>
</mgrwt>
</event>
<event>
12    6  0.1521603E-007  0.1518202E+04  0.7818608E-02  0.8872438E-01
         -1   -1    0    0    0  501 -0.00000000000E+00  0.00000000000E+00  0.44503254220E+03  0.44503254220E+03  0.00000000000E+00 0.  1.
          2   -1    0    0  501    0  0.00000000000E+00 -0.00000000000E+00 -0.12948146159E+04  0.12948146159E+04  0.00000000000E+00 0. -1.
         24    2    1    2    0    0  0.13064537417E+03  0.31278258628E+03 -0.68121191934E+03  0.76463688677E+03  0.75622281660E+02 0.  0.
        254    2    1    2    0    0 -0.13064537417E+03 -0.31278258628E+03 -0.16857015435E+03  0.97521027132E+03  0.89873133710E+03 0.  0.
         23    2    4    4    0    0 -0.18298553385E+03  0.26017324280E+03 -0.20888819447E+03  0.39152045034E+03  0.92087802549E+02 0.  0.
         23    2    4    4    0    0  0.52340159679E+02 -0.57295582908E+03  0.40318040122E+02  0.58368982098E+03  0.89723956496E+02 0.  0.
          2    1    3    3  502    0  0.93364819561E+02  0.18799616199E+03 -0.49231674014E+03  0.53519652379E+03  0.00000000000E+00 0. -1.
         -1    1    3    3    0  502  0.37280554611E+02  0.12478642429E+03 -0.18889517920E+03  0.22944036298E+03  0.00000000000E+00 0.  1.
         11    1    5    5    0    0 -0.16324287864E+03  0.23474426835E+03 -0.21625396925E+03  0.35849531122E+03  0.00000000000E+00 0. -1.
        -11    1    5    5    0    0 -0.19742655211E+02  0.25428974450E+02  0.73657747707E+01  0.33025139127E+02  0.00000000000E+00 0.  1.
          1    1    6    6  503    0  0.30842473636E+02 -0.54992966014E+03  0.38230172812E+02  0.55211904096E+03  0.00000000000E+00 0. -1.
         -1    1    6    6    0  503  0.21497686043E+02 -0.23026168943E+02  0.20878673099E+01  0.31570780023E+02  0.00000000000E+00 0.  1.
<mgrwt>
<rscale>  0 0.15182024E+04</rscale>
<asrwt>0</asrwt>
<pdfrwt beam="1">  1        2 0.19920224E+00 0.15182024E+04</pdfrwt>
<pdfrwt beam="2">  1       -1 0.68466546E-01 0.15182024E+04</pdfrwt>
<totfact> 0.39537088E+01</totfact>
</mgrwt>
</event>
<event>
12    6  0.1521603E-007  0.3527542E+04  0.7818608E-02  0.8107294E-01
          2   -1    0    0  501    0  0.00000000000E+00  0.00000000000E+00  0.15078433783E+04  0.15078433783E+04  0.00000000000E+00 0. -1.
         -1   -1    0    0    0  501 -0.00000000000E+00 -0.00000000000E+00 -0.20631376154E+04  0.20631376154E+04  0.00000000000E+00 0.  1.
         24    2    1    2    0    0  0.10697452830E+03  0.14977842647E+04 -0.90138047540E+03  0.17531761791E+04  0.79615955349E+02 0.  0.
        254    2    1    2    0    0 -0.10697452830E+03 -0.14977842647E+04  0.34608623824E+03  0.18178048146E+04  0.96428077160E+03 0.  0.
         23    2    4    4    0    0 -0.19402608383E+03 -0.15593022795E+04  0.15738967949E+03  0.15820718879E+04  0.95447510739E+02 0.  0.
         23    2    4    4    0    0  0.87051555532E+02  0.61518014781E+02  0.18869655876E+03  0.23573292671E+03  0.92742557580E+02 0.  0.
          2    1    3    3  502    0  0.29422554425E+02  0.46316328818E+03 -0.23636848374E+03  0.52082240575E+03  0.00000000000E+00 0. -1.
         -1    1    3    3    0  502  0.77551973874E+02  0.10346209765E+04 -0.66501199166E+03  0.12323537734E+04  0.00000000000E+00 0.  1.
         11    1    5    5    0    0 -0.19241911052E+02 -0.43657030550E+02 -0.39618056939E+01  0.47873618640E+02  0.00000000000E+00 0.  1.
        -11    1    5    5    0    0 -0.17478417278E+03 -0.15156452489E+04  0.16135148518E+03  0.15341982693E+04  0.00000000000E+00 0. -1.
          1    1    6    6  503    0  0.52624414924E+02  0.50968124122E+02  0.18566757527E+03  0.19959841490E+03  0.00000000000E+00 0. -1.
         -1    1    6    6    0  503  0.34427140608E+02  0.10549890659E+02  0.30289834906E+01  0.36134511819E+02  0.00000000000E+00 0.  1.
<mgrwt>
<rscale>  0 0.35275421E+04</rscale>
<asrwt>0</asrwt>
<pdfrwt beam="1">  1        2 0.23197591E+00 0.35275421E+04</pdfrwt>
<pdfrwt beam="2">  1       -1 0.31740578E+00 0.35275421E+04</pdfrwt>
<totfact> 0.29841071E-01</totfact>
</mgrwt>
</event>
<event>
12    6  0.1521603E-007  0.1757058E+04  0.7818608E-02  0.8729475E-01
         -3   -1    0    0    0  501 -0.00000000000E+00  0.00000000000E+00  0.43603964352E+03  0.43603964352E+03  0.00000000000E+00 0.  1.
          2   -1    0    0  501    0  0.00000000000E+00 -0.00000000000E+00 -0.17700518526E+04  0.17700518526E+04  0.00000000000E+00 0. -1.
         24    2    1    2    0    0  0.52484573764E+03 -0.18971778589E+02 -0.48269326697E+02  0.53330570121E+03  0.79133218969E+02 0.  0.
        254    2    1    2    0    0 -0.52484573764E+03  0.18971778589E+02 -0.12857428824E+04  0.16727857949E+04  0.93233823226E+03 0.  0.
         23    2    4    4    0    0  0.11568263077E+03 -0.30823915502E+03 -0.47806865915E+03  0.58738192571E+03  0.89855640022E+02 0.  0.
         23    2    4    4    0    0 -0.64052836841E+03  0.32721093360E+03 -0.80767422321E+03  0.10854038692E+04  0.91762315678E+02 0.  0.
          2    1    3    3  502    0  0.98198346161E+02  0.26882927023E+02 -0.34950580778E+01  0.10187159754E+03  0.00000000000E+00 0. -1.
         -1    1    3    3    0  502  0.42664739148E+03 -0.45854705612E+02 -0.44774268619E+02  0.43143410368E+03  0.00000000000E+00 0.  1.
         11    1    5    5    0    0  0.28017621268E+02 -0.10357056753E+03 -0.23153835407E+03  0.25518984887E+03  0.00000000000E+00 0. -1.
        -11    1    5    5    0    0  0.87665009503E+02 -0.20466858748E+03 -0.24653030508E+03  0.33219207684E+03  0.00000000000E+00 0.  1.
          4    1    6    6  503    0 -0.29383151531E+00  0.85931497246E+01 -0.35992760466E+01  0.93211237095E+01  0.00000000000E+00 0. -1.
         -4    1    6    6    0  503 -0.64023453690E+03  0.31861778388E+03 -0.80407494717E+03  0.10760827455E+04  0.00000000000E+00 0.  1.
<mgrwt>
<rscale>  0 0.17570575E+04</rscale>
<asrwt>0</asrwt>
<pdfrwt beam="1">  1        2 0.27231567E+00 0.17570575E+04</pdfrwt>
<pdfrwt beam="2">  1       -3 0.67083021E-01 0.17570575E+04</pdfrwt>
<totfact> 0.11624243E+01</totfact>
</mgrwt>
</event>
<event>
12    6  0.1521603E-007  0.1637597E+04  0.7818608E-02  0.8797778E-01
          2   -1    0    0  501    0  0.00000000000E+00  0.00000000000E+00  0.11289697641E+04  0.11289697641E+04  0.00000000000E+00 0. -1.
         -1   -1    0    0    0  501 -0.00000000000E+00 -0.00000000000E+00 -0.59384288858E+03  0.59384288858E+03  0.00000000000E+00 0.  1.
         24    2    1    2    0    0 -0.14347213819E+03 -0.22129513455E+03  0.71646754015E+03  0.76755602084E+03  0.79124699215E+02 0.  0.
        254    2    1    2    0    0  0.14347213819E+03  0.22129513455E+03 -0.18134066463E+03  0.95525663185E+03  0.90004166850E+03 0.  0.
         23    2    4    4    0    0 -0.26196168289E+03  0.39624822216E+03 -0.13551523171E+03  0.50241883396E+03  0.91780879364E+02 0.  0.
         23    2    4    4    0    0  0.40543382109E+03 -0.17495308761E+03 -0.45825432921E+02  0.45283779789E+03  0.89313687360E+02 0.  0.
          4    1    3    3  502    0 -0.13445512179E+03 -0.15273078422E+03  0.57817369514E+03  0.61293530978E+03  0.00000000000E+00 0. -1.
         -3    1    3    3    0  502 -0.90170163987E+01 -0.68564350324E+02  0.13829384501E+03  0.15462071106E+03  0.00000000000E+00 0.  1.
         11    1    5    5    0    0 -0.26800474542E+03  0.37221800581E+03 -0.12422240901E+03  0.47518837771E+03  0.00000000000E+00 0. -1.
        -11    1    5    5    0    0  0.60430625215E+01  0.24030216354E+02 -0.11292822701E+02  0.27230456244E+02  0.00000000000E+00 0.  1.
          4    1    6    6  503    0  0.33638600309E+03 -0.11787948779E+03 -0.10663293487E+02  0.35660177025E+03  0.00000000000E+00 0. -1.
         -4    1    6    6    0  503  0.69047817996E+02 -0.57073599821E+02 -0.35162139434E+02  0.96236027641E+02  0.00000000000E+00 0.  1.
<mgrwt>
<rscale>  0 0.16375966E+04</rscale>
<asrwt>0</asrwt>
<pdfrwt beam="1">  1        2 0.17368766E+00 0.16375966E+04</pdfrwt>
<pdfrwt beam="2">  1       -1 0.91360445E-01 0.16375966E+04</pdfrwt>
<totfact> 0.26648712E+01</totfact>
</mgrwt>
</event>
<event>
12    6  0.1521603E-007  0.2241280E+04  0.7818608E-02  0.8501440E-01
          2   -1    0    0  501    0  0.00000000000E+00  0.00000000000E+00  0.12066409913E+04  0.12066409913E+04  0.00000000000E+00 0. -1.
         -1   -1    0    0    0  501 -0.00000000000E+00 -0.00000000000E+00 -0.10407686181E+04  0.10407686181E+04  0.00000000000E+00 0.  1.
         24    2    1    2    0    0  0.20726700806E+03 -0.79991090041E+03 -0.36395285427E+03  0.90649932225E+03  0.80388306829E+02 0.  0.
        254    2    1    2    0    0 -0.20726700806E+03  0.79991090041E+03  0.52982522752E+03  0.13409102872E+04  0.91351440348E+03 0.  0.
         23    2    4    4    0    0 -0.54699682547E+03  0.33573707521E+03  0.26283836206E+03  0.69979763624E+03  0.93315681251E+02 0.  0.
         23    2    4    4    0    0  0.33972981742E+03  0.46417382520E+03  0.26698686546E+03  0.64111265096E+03  0.94179382256E+02 0.  0.
          4    1    3    3  502    0  0.10111216548E+03 -0.24514165156E+03 -0.12601136291E+03  0.29359319290E+03  0.00000000000E+00 0. -1.
         -3    1    3    3    0  502  0.10615484258E+03 -0.55476924885E+03 -0.23794149137E+03  0.61290612935E+03  0.00000000000E+00 0.  1.
         11    1    5    5    0    0 -0.87309055685E+02  0.92631700634E+02  0.69320856349E+02  0.14494441794E+03  0.00000000000E+00 0. -1.
        -11    1    5    5    0    0 -0.45968776979E+03  0.24310537458E+03  0.19351750571E+03  0.55485321830E+03  0.00000000000E+00 0.  1.
          3    1    6    6  503    0  0.17769430872E+02  0.61148370102E+02  0.88450405723E+01  0.64289272685E+02  0.00000000000E+00 0. -1.
         -3    1    6    6    0  503  0.32196038655E+03  0.40302545510E+03  0.25814182489E+03  0.57682337827E+03  0.00000000000E+00 0.  1.
<mgrwt>
<rscale>  0 0.22412801E+04</rscale>
<asrwt>0</asrwt>
<pdfrwt beam="1">  1        2 0.18563708E+00 0.22412801E+04</pdfrwt>
<pdfrwt beam="2">  1       -1 0.16011825E+00 0.22412801E+04</pdfrwt>
<totfact> 0.56842141E+00</totfact>
</mgrwt>
</event>
<event>
12    6  0.1521603E-007  0.3811919E+04  0.7818608E-02  0.8043602E-01
          2   -1    0    0  501    0  0.00000000000E+00  0.00000000000E+00  0.36405811999E+04  0.36405811999E+04  0.00000000000E+00 0. -1.
         -1   -1    0    0    0  501 -0.00000000000E+00 -0.00000000000E+00 -0.99783032842E+03  0.99783032842E+03  0.00000000000E+00 0.  1.
         24    2    1    2    0    0 -0.26976665676E+03  0.23280069714E+02 -0.91453067230E+03  0.95732191062E+03  0.82358237125E+02 0.  0.
        254    2    1    2    0    0  0.26976665676E+03 -0.23280069714E+02  0.35572815438E+04  0.36810896177E+04  0.90711233102E+03 0.  0.
         23    2    4    4    0    0  0.49443924967E+03 -0.26174621172E+03  0.27089853614E+04  0.27676304313E+04  0.90527702973E+02 0.  0.
         23    2    4    4    0    0 -0.22467259291E+03  0.23846614200E+03  0.84829618238E+03  0.91345918640E+03  0.86356223258E+02 0.  0.
          4    1    3    3  502    0 -0.18775564142E+03  0.52589607982E+02 -0.59487319456E+03  0.62601275175E+03  0.00000000000E+00 0. -1.
         -3    1    3    3    0  502 -0.82011015339E+02 -0.29309538268E+02 -0.31965747774E+03  0.33130915886E+03  0.00000000000E+00 0.  1.
         11    1    5    5    0    0  0.61556539632E+02 -0.34332681370E+02  0.51593020243E+03  0.52072249266E+03  0.00000000000E+00 0. -1.
        -11    1    5    5    0    0  0.43288271004E+03 -0.22741353035E+03  0.21930551590E+04  0.22469079387E+04  0.00000000000E+00 0.  1.
          4    1    6    6  503    0 -0.19071340200E+03  0.23204787906E+03  0.71020472822E+03  0.77110866670E+03  0.00000000000E+00 0.  1.
         -4    1    6    6    0  503 -0.33959190916E+02  0.64182629423E+01  0.13809145416E+03  0.14235051970E+03  0.00000000000E+00 0. -1.
<mgrwt>
<rscale>  0 0.38119194E+04</rscale>
<asrwt>0</asrwt>
<pdfrwt beam="1">  1        2 0.56008941E+00 0.38119194E+04</pdfrwt>
<pdfrwt beam="2">  1       -1 0.15351236E+00 0.38119194E+04</pdfrwt>
<totfact> 0.19177188E-01</totfact>
</mgrwt>
</event>
<event>
12    6  0.1521603E-007  0.1268952E+04  0.7818608E-02  0.9054556E-01
          2   -1    0    0  501    0  0.00000000000E+00  0.00000000000E+00  0.20190645415E+04  0.20190645415E+04  0.00000000000E+00 0. -1.
         -1   -1    0    0    0  501 -0.00000000000E+00 -0.00000000000E+00 -0.19937925503E+03  0.19937925503E+03  0.00000000000E+00 0.  1.
         24    2    1    2    0    0 -0.16523574825E+03  0.37898001719E+01  0.90615654230E+03  0.92461930207E+03  0.80523037142E+02 0.  0.
        254    2    1    2    0    0  0.16523574825E+03 -0.37898001719E+01  0.91352874420E+03  0.12938244945E+04  0.90118246821E+03 0.  0.
         23    2    4    4    0    0  0.26166415559E+03  0.40151732599E+03  0.52003669980E+03  0.71313658696E+03  0.91876706169E+02 0.  0.
         23    2    4    4    0    0 -0.96428407348E+02 -0.40530712616E+03  0.39349204440E+03  0.58068790754E+03  0.93755814198E+02 0.  0.
          4    1    3    3  502    0 -0.15863049634E+03  0.25408280016E+02  0.76766809795E+03  0.78429810893E+03  0.00000000000E+00 0. -1.
         -3    1    3    3    0  502 -0.66052519056E+01 -0.21618479844E+02  0.13848844435E+03  0.14032119314E+03  0.00000000000E+00 0.  1.
         11    1    5    5    0    0  0.99145953852E+01  0.70910386702E+02  0.62274304162E+02  0.94892945485E+02  0.00000000000E+00 0. -1.
        -11    1    5    5    0    0  0.25174956021E+03  0.33060693929E+03  0.45776239564E+03  0.61824364148E+03  0.00000000000E+00 0.  1.
          3    1    6    6  503    0  0.18015172086E+02 -0.41887407730E+02  0.34318588409E+02  0.57068965840E+02  0.00000000000E+00 0. -1.
         -3    1    6    6    0  503 -0.11444357943E+03 -0.36341971843E+03  0.35917345599E+03  0.52361894170E+03  0.00000000000E+00 0.  1.
<mgrwt>
<rscale>  0 0.12689517E+04</rscale>
<asrwt>0</asrwt>
<pdfrwt beam="1">  1        2 0.31062530E+00 0.12689517E+04</pdfrwt>
<pdfrwt beam="2">  1       -1 0.30673733E-01 0.12689517E+04</pdfrwt>
<totfact> 0.71663194E+01</totfact>
</mgrwt>
</event>
<event>
12    6  0.1521603E-007  0.4473891E+04  0.7818608E-02  0.7915224E-01
         -1   -1    0    0    0  501 -0.00000000000E+00  0.00000000000E+00  0.16297365602E+04  0.16297365602E+04  0.00000000000E+00 0.  1.
          2   -1    0    0  501    0  0.00000000000E+00 -0.00000000000E+00 -0.30703895336E+04  0.30703895336E+04  0.00000000000E+00 0. -1.
         24    2    1    2    0    0  0.17100336053E+04  0.33318578747E+02 -0.20467436077E+04  0.26682818730E+04  0.72413387707E+02 0.  0.
        254    2    1    2    0    0 -0.17100336053E+04 -0.33318578747E+02  0.60609063436E+03  0.20318442209E+04  0.91417723768E+03 0.  0.
         23    2    4    4    0    0 -0.66155550214E+03 -0.34851093899E+03 -0.43269522212E+02  0.75477439680E+03  0.93255463722E+02 0.  0.
         23    2    4    4    0    0 -0.10484781032E+04  0.31519236024E+03  0.64936015657E+03  0.12770698241E+04  0.10288909485E+03 0.  0.
          4    1    3    3  502    0  0.15896732261E+04  0.49312694532E+02 -0.18972146201E+04  0.24756647637E+04  0.00000000000E+00 0. -1.
         -3    1    3    3    0  502  0.12036037927E+03 -0.15994115785E+02 -0.14952898761E+03  0.19261710924E+03  0.00000000000E+00 0.  1.
         11    1    5    5    0    0 -0.40585723391E+03 -0.21804462040E+03 -0.71874507206E+02  0.46629335786E+03  0.00000000000E+00 0. -1.
        -11    1    5    5    0    0 -0.25569826823E+03 -0.13046631859E+03  0.28604984994E+02  0.28848103894E+03  0.00000000000E+00 0.  1.
          4    1    6    6  503    0 -0.84532591485E+03  0.21367870011E+03  0.49735854391E+03  0.10037928125E+04  0.00000000000E+00 0. -1.
         -4    1    6    6    0  503 -0.20315218833E+03  0.10151366013E+03  0.15200161266E+03  0.27327701160E+03  0.00000000000E+00 0.  1.
<mgrwt>
<rscale>  0 0.44738914E+04</rscale>
<asrwt>0</asrwt>
<pdfrwt beam="1">  1        2 0.47236762E+00 0.44738914E+04</pdfrwt>
<pdfrwt beam="2">  1       -1 0.25072870E+00 0.44738914E+04</pdfrwt>
<totfact> 0.93417863E-02</totfact>
</mgrwt>
</event>
<event>
12    6  0.1521603E-007  0.3191670E+04  0.7818608E-02  0.8191021E-01
         -1   -1    0    0    0  501 -0.00000000000E+00  0.00000000000E+00  0.11124740340E+04  0.11124740340E+04  0.00000000000E+00 0.  1.
          2   -1    0    0  501    0  0.00000000000E+00 -0.00000000000E+00 -0.22892117679E+04  0.22892117679E+04  0.00000000000E+00 0. -1.
         24    2    1    2    0    0  0.27783682248E+03  0.14391538147E+04 -0.62978946381E+03  0.15973304288E+04  0.80453264768E+02 0.  0.
        254    2    1    2    0    0 -0.27783682248E+03 -0.14391538147E+04 -0.54694827013E+03  0.18043553730E+04  0.89899326997E+03 0.  0.
         23    2    4    4    0    0 -0.36262554379E+03 -0.10354232862E+04  0.14944864556E+02  0.11008805885E+04  0.90089146843E+02 0.  0.
         23    2    4    4    0    0  0.84788721308E+02 -0.40373052849E+03 -0.56189313468E+03  0.70347478452E+03  0.94685853001E+02 0.  0.
          4    1    3    3  502    0  0.18547070132E+03  0.87577778870E+03 -0.42330637038E+03  0.99023956668E+03  0.00000000000E+00 0. -1.
         -3    1    3    3    0  502  0.92366121157E+02  0.56337602604E+03 -0.20648309343E+03  0.60709086217E+03  0.00000000000E+00 0.  1.
         11    1    5    5    0    0 -0.31108341405E+03 -0.95390839124E+03  0.26815449497E+02  0.10037097079E+04  0.00000000000E+00 0.  1.
        -11    1    5    5    0    0 -0.51542129740E+02 -0.81514895006E+02 -0.11870584941E+02  0.97170880581E+02  0.00000000000E+00 0. -1.
          2    1    6    6  503    0  0.59008604485E+02 -0.22451685206E+03 -0.23835801487E+03  0.33272267058E+03  0.00000000000E+00 0. -1.
         -2    1    6    6    0  503  0.25780116823E+02 -0.17921367643E+03 -0.32353511981E+03  0.37075211395E+03  0.00000000000E+00 0.  1.
<mgrwt>
<rscale>  0 0.31916696E+04</rscale>
<asrwt>0</asrwt>
<pdfrwt beam="1">  1        2 0.35218642E+00 0.31916696E+04</pdfrwt>
<pdfrwt beam="2">  1       -1 0.17114985E+00 0.31916696E+04</pdfrwt>
<totfact> 0.10628523E+00</totfact>
</mgrwt>
</event>
<event>
12    6  0.1521603E-007  0.1528579E+04  0.7818608E-02  0.8865668E-01
          2   -1    0    0  501    0  0.00000000000E+00  0.00000000000E+00  0.83731687545E+03  0.83731687545E+03  0.00000000000E+00 0. -1.
         -1   -1    0    0    0  501 -0.00000000000E+00 -0.00000000000E+00 -0.69763091976E+03  0.69763091976E+03  0.00000000000E+00 0.  1.
         24    2    1    2    0    0  0.48520159575E+03 -0.24949365334E+02  0.16289847382E+03  0.51853799331E+03  0.79389409772E+02 0.  0.
        254    2    1    2    0    0 -0.48520159575E+03  0.24949365334E+02 -0.23212518125E+02  0.10164098019E+04  0.89247241137E+03 0.  0.
         23    2    4    4    0    0 -0.50057285913E+02  0.40739916930E+03 -0.76197975918E+02  0.42748711050E+03  0.91974361051E+02 0.  0.
         23    2    4    4    0    0 -0.43514430983E+03 -0.38244980397E+03  0.52985457793E+02  0.58892269140E+03  0.91673631799E+02 0.  0.
          4    1    3    3  502    0  0.13784838950E+03 -0.39339004080E+02  0.64757227805E+02  0.15729982289E+03  0.00000000000E+00 0. -1.
         -3    1    3    3    0  502  0.34735320625E+03  0.14389638745E+02  0.98141246017E+02  0.36123817041E+03  0.00000000000E+00 0.  1.
         11    1    5    5    0    0 -0.27017883530E+02  0.39139261274E+03 -0.74852975971E+02  0.39940094060E+03  0.00000000000E+00 0.  1.
        -11    1    5    5    0    0 -0.23039402383E+02  0.16006556563E+02 -0.13449999467E+01  0.28086169907E+02  0.00000000000E+00 0. -1.
          1    1    6    6  503    0 -0.40814304859E+03 -0.34947628922E+03  0.72241425337E+02  0.54215611070E+03  0.00000000000E+00 0.  1.
         -1    1    6    6    0  503 -0.27001261248E+02 -0.32973514746E+02 -0.19255967544E+02  0.46766580693E+02  0.00000000000E+00 0. -1.
<mgrwt>
<rscale>  0 0.15285786E+04</rscale>
<asrwt>0</asrwt>
<pdfrwt beam="1">  1        2 0.12881798E+00 0.15285786E+04</pdfrwt>
<pdfrwt beam="2">  1       -1 0.10732783E+00 0.15285786E+04</pdfrwt>
<totfact> 0.28845216E+01</totfact>
</mgrwt>
</event>
<event>
12    6  0.1521603E-007  0.2309427E+04  0.7818608E-02  0.8474213E-01
         -1   -1    0    0    0  501 -0.00000000000E+00  0.00000000000E+00  0.64471113780E+03  0.64471113780E+03  0.00000000000E+00 0.  1.
          2   -1    0    0  501    0  0.00000000000E+00 -0.00000000000E+00 -0.20681564500E+04  0.20681564500E+04  0.00000000000E+00 0. -1.
         24    2    1    2    0    0 -0.52642456677E+03  0.84301614602E+02 -0.15653516750E+04  0.16555207855E+04  0.78699541629E+02 0.  0.
        254    2    1    2    0    0  0.52642456677E+03 -0.84301614602E+02  0.14190636287E+03  0.10573468023E+04  0.90200624044E+03 0.  0.
         23    2    4    4    0    0  0.56749983725E+03 -0.35118923134E+03  0.29268670811E+03  0.73455626411E+03  0.92290056664E+02 0.  0.
         23    2    4    4    0    0 -0.41075270476E+02  0.26688761674E+03 -0.15078034524E+03  0.32279053818E+03  0.92427491673E+02 0.  0.
          2    1    3    3  502    0 -0.36411705729E+03  0.83235798790E+02 -0.10062316876E+04  0.10733180511E+04  0.00000000000E+00 0. -1.
         -1    1    3    3    0  502 -0.16230750948E+03  0.10658158121E+01 -0.55911998740E+03  0.58220273437E+03  0.00000000000E+00 0.  1.
         11    1    5    5    0    0  0.26818555078E+03 -0.15838422356E+03  0.18645747937E+03  0.36300887528E+03  0.00000000000E+00 0.  1.
        -11    1    5    5    0    0  0.29931428647E+03 -0.19280500778E+03  0.10622922874E+03  0.37154738883E+03  0.00000000000E+00 0. -1.
          2    1    6    6  503    0 -0.45902991203E+02  0.13944750329E+03 -0.35871894449E+02  0.15112737537E+03  0.00000000000E+00 0. -1.
         -2    1    6    6    0  503  0.48277207266E+01  0.12744011345E+03 -0.11490845079E+03  0.17166316281E+03  0.00000000000E+00 0.  1.
<mgrwt>
<rscale>  0 0.23094272E+04</rscale>
<asrwt>0</asrwt>
<pdfrwt beam="1">  1        2 0.31817792E+00 0.23094272E+04</pdfrwt>
<pdfrwt beam="2">  1       -1 0.99186328E-01 0.23094272E+04</pdfrwt>
<totfact> 0.61280771E+00</totfact>
</mgrwt>
</event>
<event>
12    6  0.1521603E-007  0.1639321E+04  0.7818608E-02  0.8796749E-01
         -1   -1    0    0    0  501 -0.00000000000E+00  0.00000000000E+00  0.18614923232E+04  0.18614923232E+04  0.00000000000E+00 0.  1.
          2   -1    0    0  501    0  0.00000000000E+00 -0.00000000000E+00 -0.36091655670E+03  0.36091655670E+03  0.00000000000E+00 0. -1.
         24    2    1    2    0    0 -0.11574438361E+03 -0.55519072635E+03  0.62406720245E+03  0.84707223208E+03  0.80237075187E+02 0.  0.
        254    2    1    2    0    0  0.11574438361E+03  0.55519072635E+03  0.87650856407E+03  0.13753366478E+04  0.89534916487E+03 0.  0.
         23    2    4    4    0    0 -0.31635181970E+03  0.48283069500E+03  0.33798603560E+03  0.67501739169E+03  0.90608857002E+02 0.  0.
         23    2    4    4    0    0  0.43209620331E+03  0.72360031352E+02  0.53852252847E+03  0.70031925614E+03  0.92181580627E+02 0.  0.
          2    1    3    3  502    0 -0.20846702950E+02 -0.28331963296E+03  0.28851722675E+03  0.40490343241E+03  0.00000000000E+00 0. -1.
         -1    1    3    3    0  502 -0.94897680663E+02 -0.27187109339E+03  0.33554997570E+03  0.44216879967E+03  0.00000000000E+00 0.  1.
         11    1    5    5    0    0 -0.74574557723E+02  0.19271201304E+03  0.12150556441E+03  0.23971417732E+03  0.00000000000E+00 0. -1.
        -11    1    5    5    0    0 -0.24177726197E+03  0.29011868196E+03  0.21648047120E+03  0.43530321437E+03  0.00000000000E+00 0.  1.
          4    1    6    6  503    0  0.10370318823E+03 -0.54487520789E+01  0.80520403984E+02  0.13140614752E+03  0.00000000000E+00 0. -1.
         -4    1    6    6    0  503  0.32839301508E+03  0.77808783431E+02  0.45800212449E+03  0.56891310862E+03  0.00000000000E+00 0.  1.
<mgrwt>
<rscale>  0 0.16393211E+04</rscale>
<asrwt>0</asrwt>
<pdfrwt beam="1">  1        2 0.55525625E-01 0.16393211E+04</pdfrwt>
<pdfrwt beam="2">  1       -1 0.28638343E+00 0.16393211E+04</pdfrwt>
<totfact> 0.39568365E+00</totfact>
</mgrwt>
</event>
<event>
12    6  0.1521603E-007  0.1768363E+04  0.7818608E-02  0.8723307E-01
         -1   -1    0    0    0  501 -0.00000000000E+00  0.00000000000E+00  0.49219905937E+03  0.49219905937E+03  0.00000000000E+00 0.  1.
          2   -1    0    0  501    0  0.00000000000E+00 -0.00000000000E+00 -0.15883354598E+04  0.15883354598E+04  0.00000000000E+00 0. -1.
         24    2    1    2    0    0  0.17460078984E+02 -0.36509783738E+03  0.23064922497E+03  0.43951815881E+03  0.79848993315E+02 0.  0.
        254    2    1    2    0    0 -0.17460078984E+02  0.36509783738E+03 -0.13267856254E+04  0.16410163603E+04  0.89385307180E+03 0.  0.
         23    2    4    4    0    0 -0.29075418722E+03  0.24991262537E+03 -0.12645008928E+04  0.13247172465E+04  0.94440232893E+02 0.  0.
         23    2    4    4    0    0  0.27329410824E+03  0.11518521201E+03 -0.62284732571E+02  0.31629911382E+03  0.90600435053E+02 0.  0.
          2    1    3    3  502    0 -0.13669510526E+02 -0.16752679521E+03  0.14483824660E+03  0.22187879644E+03  0.00000000000E+00 0. -1.
         -1    1    3    3    0  502  0.31129589511E+02 -0.19757104216E+03  0.85810978364E+02  0.21763936237E+03  0.00000000000E+00 0.  1.
         11    1    5    5    0    0 -0.59955086659E+02  0.79796183888E+01 -0.19711702897E+03  0.20618780234E+03  0.00000000000E+00 0.  1.
        -11    1    5    5    0    0 -0.23079910056E+03  0.24193300698E+03 -0.10673838639E+04  0.11185294442E+04  0.00000000000E+00 0. -1.
          1    1    6    6  503    0  0.23078111882E+03  0.12038718797E+03 -0.28699736772E+02  0.26187148512E+03  0.00000000000E+00 0. -1.
         -1    1    6    6    0  503  0.42512989415E+02 -0.52019759590E+01 -0.33584995798E+02  0.54427628698E+02  0.00000000000E+00 0.  1.
<mgrwt>
<rscale>  0 0.17683633E+04</rscale>
<asrwt>0</asrwt>
<pdfrwt beam="1">  1        2 0.24435930E+00 0.17683633E+04</pdfrwt>
<pdfrwt beam="2">  1       -1 0.75722933E-01 0.17683633E+04</pdfrwt>
<totfact> 0.21389997E+01</totfact>
</mgrwt>
</event>
<event>
12    6  0.1521603E-007  0.2434010E+04  0.7818608E-02  0.8426879E-01
          2   -1    0    0  501    0  0.00000000000E+00  0.00000000000E+00  0.36985901326E+04  0.36985901326E+04  0.00000000000E+00 0. -1.
         -1   -1    0    0    0  501 -0.00000000000E+00 -0.00000000000E+00 -0.40045032493E+03  0.40045032493E+03  0.00000000000E+00 0.  1.
         24    2    1    2    0    0 -0.38413247629E+03  0.69111545114E+03  0.25732067662E+04  0.26931392178E+04  0.80046606015E+02 0.  0.
        254    2    1    2    0    0  0.38413247629E+03 -0.69111545114E+03  0.72493304147E+03  0.14059012397E+04  0.90875302195E+03 0.  0.
         23    2    4    4    0    0  0.35750406457E+03  0.34557726565E+02 -0.68198996932E+01  0.37100992534E+03  0.92727886958E+02 0.  0.
         23    2    4    4    0    0  0.26628411721E+02 -0.72567317771E+03  0.73175294116E+03  0.10348913143E+04  0.90702989990E+02 0.  0.
          2    1    3    3  502    0 -0.32486307544E+03  0.62889491873E+03  0.23333896167E+04  0.24383912606E+04  0.00000000000E+00 0. -1.
         -1    1    3    3    0  502 -0.59269400843E+02  0.62220532418E+02  0.23981714944E+03  0.25474795720E+03  0.00000000000E+00 0.  1.
         11    1    5    5    0    0  0.10209326740E+03  0.38638249223E+02 -0.33480007346E+02  0.11417907183E+03  0.00000000000E+00 0.  1.
        -11    1    5    5    0    0  0.25541079717E+03 -0.40805226575E+01  0.26660107653E+02  0.25683085351E+03  0.00000000000E+00 0. -1.
          4    1    6    6  503    0 -0.10774218001E+02 -0.32670352688E+03  0.27406878519E+03  0.42657353090E+03  0.00000000000E+00 0. -1.
         -4    1    6    6    0  503  0.37402629722E+02 -0.39896965083E+03  0.45768415598E+03  0.60831778342E+03  0.00000000000E+00 0.  1.
<mgrwt>
<rscale>  0 0.24340104E+04</rscale>
<asrwt>0</asrwt>
<pdfrwt beam="1">  1        2 0.56901384E+00 0.24340104E+04</pdfrwt>
<pdfrwt beam="2">  1       -1 0.61607745E-01 0.24340104E+04</pdfrwt>
<totfact> 0.15988150E+00</totfact>
</mgrwt>
</event>
<event>
12    6  0.1521603E-007  0.2353810E+04  0.7818608E-02  0.8457002E-01
          2   -1    0    0  501    0  0.00000000000E+00  0.00000000000E+00  0.24560280517E+04  0.24560280517E+04  0.00000000000E+00 0. -1.
         -1   -1    0    0    0  501 -0.00000000000E+00 -0.00000000000E+00 -0.56396172554E+03  0.56396172554E+03  0.00000000000E+00 0.  1.
         24    2    1    2    0    0  0.19477381685E+03  0.11108735336E+03 -0.44569972327E+03  0.50522973600E+03  0.79571370518E+02 0.  0.
        254    2    1    2    0    0 -0.19477381685E+03 -0.11108735336E+03  0.23377660494E+04  0.25147600412E+04  0.89921672765E+03 0.  0.
         23    2    4    4    0    0  0.11801621818E+03 -0.41977092216E+03  0.14939210044E+04  0.15589438962E+04  0.91491252766E+02 0.  0.
         23    2    4    4    0    0 -0.31279003503E+03  0.30868356880E+03  0.84384504506E+03  0.95581614504E+03  0.91579972578E+02 0.  0.
          2    1    3    3  502    0  0.45790130102E+02  0.69194884334E+02 -0.14602312843E+03  0.16795065367E+03  0.00000000000E+00 0. -1.
         -1    1    3    3    0  502  0.14898368675E+03  0.41892469023E+02 -0.29967659485E+03  0.33727908233E+03  0.00000000000E+00 0.  1.
         11    1    5    5    0    0  0.99873106671E+02 -0.24744780342E+03  0.78338955851E+03  0.82758942310E+03  0.00000000000E+00 0. -1.
        -11    1    5    5    0    0  0.18143111506E+02 -0.17232311874E+03  0.71053144588E+03  0.73135447310E+03  0.00000000000E+00 0.  1.
          1    1    6    6  503    0 -0.18078914851E+03  0.13742006079E+03  0.50710206425E+03  0.55562711677E+03  0.00000000000E+00 0. -1.
         -1    1    6    6    0  503 -0.13200088652E+03  0.17126350801E+03  0.33674298081E+03  0.40018902827E+03  0.00000000000E+00 0.  1.
<mgrwt>
<rscale>  0 0.23538104E+04</rscale>
<asrwt>0</asrwt>
<pdfrwt beam="1">  1        2 0.37785046E+00 0.23538104E+04</pdfrwt>
<pdfrwt beam="2">  1       -1 0.86763344E-01 0.23538104E+04</pdfrwt>
<totfact> 0.49620013E+00</totfact>
</mgrwt>
</event>
<event>
12    6  0.1521603E-007  0.1142479E+04  0.7818608E-02  0.9164750E-01
          4   -1    0    0  501    0  0.00000000000E+00  0.00000000000E+00  0.61846823050E+03  0.61846823050E+03  0.00000000000E+00 0. -1.
         -1   -1    0    0    0  501 -0.00000000000E+00 -0.00000000000E+00 -0.52761725003E+03  0.52761725003E+03  0.00000000000E+00 0.  1.
         24    2    1    2    0    0 -0.77970142819E+02  0.82923505688E+02 -0.15354806029E+03  0.20687639861E+03  0.79152931197E+02 0.  0.
        254    2    1    2    0    0  0.77970142819E+02 -0.82923505688E+02  0.24439904075E+03  0.93920908192E+03  0.89968169787E+03 0.  0.
         23    2    4    4    0    0 -0.39586602756E+03 -0.86188002732E+02  0.43960250471E+02  0.41680389452E+03  0.87491138276E+02 0.  0.
         23    2    4    4    0    0  0.47383617038E+03  0.32644970440E+01  0.20043879028E+03  0.52240518740E+03  0.90554391802E+02 0.  0.
          4    1    3    3  502    0 -0.21866491492E+01  0.75743230834E+01  0.92388305541E+01  0.12145278699E+02  0.00000000000E+00 0. -1.
         -3    1    3    3    0  502 -0.75783493670E+02  0.75349182605E+02 -0.16278689084E+03  0.19473111991E+03  0.00000000000E+00 0.  1.
         11    1    5    5    0    0 -0.30301610807E+02  0.49047667513E+01 -0.17111208316E+02  0.35143104649E+02  0.00000000000E+00 0.  1.
        -11    1    5    5    0    0 -0.36556441675E+03 -0.91092769483E+02  0.61071458787E+02  0.38166078987E+03  0.00000000000E+00 0. -1.
          4    1    6    6  503    0  0.18664478555E+03 -0.31110374252E+02  0.46932291119E+02  0.19495325417E+03  0.00000000000E+00 0.  1.
         -4    1    6    6    0  503  0.28719138483E+03  0.34374871296E+02  0.15350649916E+03  0.32745193323E+03  0.00000000000E+00 0. -1.
<mgrwt>
<rscale>  0 0.11424789E+04</rscale>
<asrwt>0</asrwt>
<pdfrwt beam="1">  1        4 0.95148958E-01 0.11424789E+04</pdfrwt>
<pdfrwt beam="2">  1       -1 0.81171885E-01 0.11424789E+04</pdfrwt>
<totfact> 0.57488120E+00</totfact>
</mgrwt>
</event>
<event>
12    6  0.1521603E-007  0.1363431E+04  0.7818608E-02  0.8980723E-01
          2   -1    0    0  501    0  0.00000000000E+00  0.00000000000E+00  0.23724824215E+04  0.23724824215E+04  0.00000000000E+00 0. -1.
         -1   -1    0    0    0  501 -0.00000000000E+00 -0.00000000000E+00 -0.19588587544E+03  0.19588587544E+03  0.00000000000E+00 0.  1.
         24    2    1    2    0    0 -0.28270895174E+03  0.35471266969E+02  0.10886934553E+04  0.11281385339E+04  0.79123636564E+02 0.  0.
        254    2    1    2    0    0  0.28270895174E+03 -0.35471266969E+02  0.10879030907E+04  0.14402297630E+04  0.89974778316E+03 0.  0.
         23    2    4    4    0    0  0.14795938591E+03  0.40204188144E+03  0.73400764135E+03  0.85471310218E+03  0.90761308755E+02 0.  0.
         23    2    4    4    0    0  0.13474956583E+03 -0.43751314841E+03  0.35389544940E+03  0.58551666085E+03  0.89512962799E+02 0.  0.
          4    1    3    3  502    0 -0.13476047533E+03  0.39225217864E+02  0.40561618820E+03  0.42921264608E+03  0.00000000000E+00 0. -1.
         -3    1    3    3    0  502 -0.14794847641E+03 -0.37539508951E+01  0.68307726711E+03  0.69892588782E+03  0.00000000000E+00 0.  1.
         11    1    5    5    0    0  0.69700542774E+02  0.25620126404E+03  0.37598991916E+03  0.46028868406E+03  0.00000000000E+00 0. -1.
        -11    1    5    5    0    0  0.78258843136E+02  0.14584061741E+03  0.35801772218E+03  0.39442441812E+03  0.00000000000E+00 0.  1.
          2    1    6    6  503    0  0.74685559364E+02 -0.36289497792E+03  0.27466863406E+03  0.46120879904E+03  0.00000000000E+00 0. -1.
         -2    1    6    6    0  503  0.60064006464E+02 -0.74618170497E+02  0.79226815334E+02  0.12430786181E+03  0.00000000000E+00 0.  1.
<mgrwt>
<rscale>  0 0.13634307E+04</rscale>
<asrwt>0</asrwt>
<pdfrwt beam="1">  1        2 0.36499728E+00 0.13634307E+04</pdfrwt>
<pdfrwt beam="2">  1       -1 0.30136290E-01 0.13634307E+04</pdfrwt>
<totfact> 0.46518722E+01</totfact>
</mgrwt>
</event>
<event>
12    6  0.1521603E-007  0.1916693E+04  0.7818608E-02  0.8646591E-01
          2   -1    0    0  501    0  0.00000000000E+00  0.00000000000E+00  0.52253951060E+03  0.52253951060E+03  0.00000000000E+00 0. -1.
         -1   -1    0    0    0  501 -0.00000000000E+00 -0.00000000000E+00 -0.17576249728E+04  0.17576249728E+04  0.00000000000E+00 0.  1.
         24    2    1    2    0    0  0.15481289460E+03  0.52007059351E+03 -0.11138409852E+04  0.12415396140E+04  0.79614182401E+02 0.  0.
        254    2    1    2    0    0 -0.15481289460E+03 -0.52007059351E+03 -0.12124447698E+03  0.10386248695E+04  0.87726902472E+03 0.  0.
         23    2    4    4    0    0 -0.13019544015E+03 -0.11164644727E+03 -0.46049113287E+03  0.49935003679E+03  0.88783973560E+02 0.  0.
         23    2    4    4    0    0 -0.24617454446E+02 -0.40842414624E+03  0.33924665589E+03  0.53927483269E+03  0.91174280090E+02 0.  0.
          4    1    3    3  502    0  0.14597106663E+01  0.11953123386E+03 -0.24231539653E+03  0.27019733162E+03  0.00000000000E+00 0. -1.
         -3    1    3    3    0  502  0.15335318393E+03  0.40053935965E+03 -0.87152558871E+03  0.97134228233E+03  0.00000000000E+00 0.  1.
         11    1    5    5    0    0 -0.71028140304E+02 -0.11352920463E+03 -0.31662851215E+03  0.34378407719E+03  0.00000000000E+00 0.  1.
        -11    1    5    5    0    0 -0.59167299850E+02  0.18827573562E+01 -0.14386262072E+03  0.15556595960E+03  0.00000000000E+00 0. -1.
          1    1    6    6  503    0  0.81486868417E+01 -0.19919199854E+03  0.11209675979E+03  0.22871278262E+03  0.00000000000E+00 0. -1.
         -1    1    6    6    0  503 -0.32766141288E+02 -0.20923214770E+03  0.22714989610E+03  0.31056205007E+03  0.00000000000E+00 0.  1.
<mgrwt>
<rscale>  0 0.19166935E+04</rscale>
<asrwt>0</asrwt>
<pdfrwt beam="1">  1        2 0.80390693E-01 0.19166935E+04</pdfrwt>
<pdfrwt beam="2">  1       -1 0.27040385E+00 0.19166935E+04</pdfrwt>
<totfact> 0.32104499E+00</totfact>
</mgrwt>
</event>
<event>
12    6  0.1521603E-007  0.1062225E+04  0.7818608E-02  0.9242812E-01
          2   -1    0    0  501    0  0.00000000000E+00  0.00000000000E+00  0.66593074392E+03  0.66593074392E+03  0.00000000000E+00 0. -1.
         -3   -1    0    0    0  501 -0.00000000000E+00 -0.00000000000E+00 -0.42358856994E+03  0.42358856994E+03  0.00000000000E+00 0.  1.
         24    2    1    2    0    0 -0.48177660772E+02 -0.13405810363E+03  0.35582374364E+02  0.16724678493E+03  0.80079457773E+02 0.  0.
        254    2    1    2    0    0  0.48177660772E+02  0.13405810363E+03  0.20675979962E+03  0.92227252893E+03  0.88743695029E+03 0.  0.
         23    2    4    4    0    0 -0.15311310961E+03  0.47050532815E+02 -0.30593633090E+03  0.35730612173E+03  0.91723765137E+02 0.  0.
         23    2    4    4    0    0  0.20129077038E+03  0.87007570818E+02  0.51269613052E+03  0.56496640720E+03  0.90782307725E+02 0.  0.
          4    1    3    3  502    0  0.10091787710E+02 -0.28225409723E+02  0.35461695124E+02  0.46433282828E+02  0.00000000000E+00 0. -1.
         -3    1    3    3    0  502 -0.58269448482E+02 -0.10583269391E+03  0.12067924004E+00  0.12081350210E+03  0.00000000000E+00 0.  1.
         11    1    5    5    0    0 -0.14427768760E+03  0.27926190038E+02 -0.19384632913E+03  0.24325361775E+03  0.00000000000E+00 0.  1.
        -11    1    5    5    0    0 -0.88354220071E+01  0.19124342776E+02 -0.11209000177E+03  0.11405250398E+03  0.00000000000E+00 0. -1.
          2    1    6    6  503    0  0.25840678000E+02  0.50760320954E+02  0.10047938782E+03  0.11550090130E+03  0.00000000000E+00 0. -1.
         -2    1    6    6    0  503  0.17545009238E+03  0.36247249863E+02  0.41221674270E+03  0.44946550590E+03  0.00000000000E+00 0.  1.
<mgrwt>
<rscale>  0 0.10622253E+04</rscale>
<asrwt>0</asrwt>
<pdfrwt beam="1">  1        2 0.10245088E+00 0.10622253E+04</pdfrwt>
<pdfrwt beam="2">  1       -3 0.65167472E-01 0.10622253E+04</pdfrwt>
<totfact> 0.62625062E+01</totfact>
</mgrwt>
</event>
<event>
12    6  0.1521603E-007  0.1549142E+04  0.7818608E-02  0.8852416E-01
         -1   -1    0    0    0  501 -0.00000000000E+00  0.00000000000E+00  0.79401181287E+03  0.79401181287E+03  0.00000000000E+00 0.  1.
          2   -1    0    0  501    0  0.00000000000E+00 -0.00000000000E+00 -0.75560588201E+03  0.75560588201E+03  0.00000000000E+00 0. -1.
         24    2    1    2    0    0 -0.41725452803E+03  0.25400504675E+03  0.15973432743E+03  0.52164709462E+03  0.89334937330E+02 0.  0.
        254    2    1    2    0    0  0.41725452803E+03 -0.25400504675E+03 -0.12132839657E+03  0.10279706003E+04  0.89631638959E+03 0.  0.
         23    2    4    4    0    0 -0.13407950913E+03 -0.12118334295E+03 -0.35459037585E+03  0.40829412979E+03  0.91142988765E+02 0.  0.
         23    2    4    4    0    0  0.55133403717E+03 -0.13282170380E+03  0.23326197928E+03  0.61967647047E+03  0.89313781316E+02 0.  0.
          4    1    3    3  502    0 -0.27302363543E+03  0.12693601704E+03  0.68067692325E+02  0.30868733155E+03  0.00000000000E+00 0. -1.
         -3    1    3    3    0  502 -0.14423089261E+03  0.12706902972E+03  0.91666635100E+02  0.21295976307E+03  0.00000000000E+00 0.  1.
         11    1    5    5    0    0  0.51336698411E+01 -0.85849767272E+01  0.11170087844E+01  0.10064993794E+02  0.00000000000E+00 0. -1.
        -11    1    5    5    0    0 -0.13921317897E+03 -0.11259836622E+03 -0.35570738464E+03  0.39822913600E+03  0.00000000000E+00 0.  1.
          4    1    6    6  503    0  0.15153243527E+03 -0.61625945149E+02  0.32955356375E+02  0.16687088293E+03  0.00000000000E+00 0. -1.
         -4    1    6    6    0  503  0.39980160189E+03 -0.71195758654E+02  0.20030662290E+03  0.45280558754E+03  0.00000000000E+00 0.  1.
<mgrwt>
<rscale>  0 0.15491417E+04</rscale>
<asrwt>0</asrwt>
<pdfrwt beam="1">  1        2 0.11624706E+00 0.15491417E+04</pdfrwt>
<pdfrwt beam="2">  1       -1 0.12215566E+00 0.15491417E+04</pdfrwt>
<totfact> 0.24195071E+01</totfact>
</mgrwt>
</event>
<event>
12    6  0.1521603E-007  0.1866335E+04  0.7818608E-02  0.8671797E-01
         -1   -1    0    0    0  501 -0.00000000000E+00  0.00000000000E+00  0.12925451547E+04  0.12925451547E+04  0.00000000000E+00 0.  1.
          2   -1    0    0  501    0  0.00000000000E+00 -0.00000000000E+00 -0.67371104634E+03  0.67371104634E+03  0.00000000000E+00 0. -1.
         24    2    1    2    0    0  0.29536048837E+03 -0.59100994946E+03  0.52161401368E+03  0.84559285634E+03  0.80096947335E+02 0.  0.
        254    2    1    2    0    0 -0.29536048837E+03  0.59100994946E+03  0.97220094626E+02  0.11206633447E+04  0.89994666886E+03 0.  0.
         23    2    4    4    0    0  0.51122179570E+02  0.67781925407E+03 -0.11353505805E+03  0.69630696903E+03  0.99502599327E+02 0.  0.
         23    2    4    4    0    0 -0.34648266794E+03 -0.86809304612E+02  0.21075515267E+03  0.42435637563E+03  0.89858247296E+02 0.  0.
          4    1    3    3  502    0  0.92271850684E+02 -0.23957665656E+03  0.24113871234E+03  0.35222002695E+03  0.00000000000E+00 0. -1.
         -3    1    3    3    0  502  0.20308863769E+03 -0.35143329290E+03  0.28047530135E+03  0.49337282939E+03  0.00000000000E+00 0.  1.
         11    1    5    5    0    0 -0.10740131647E+02  0.22775682677E+02 -0.19102216788E+02  0.31606594809E+02  0.00000000000E+00 0.  1.
        -11    1    5    5    0    0  0.61862311217E+02  0.65504357140E+03 -0.94432841258E+02  0.66470037422E+03  0.00000000000E+00 0. -1.
          3    1    6    6  503    0 -0.34361712884E+03 -0.86687107707E+02  0.18750656644E+03  0.40093153821E+03  0.00000000000E+00 0. -1.
         -3    1    6    6    0  503 -0.28655391054E+01 -0.12219690544E+00  0.23248586228E+02  0.23424837417E+02  0.00000000000E+00 0.  1.
<mgrwt>
<rscale>  0 0.18663354E+04</rscale>
<asrwt>0</asrwt>
<pdfrwt beam="1">  1        2 0.10364785E+00 0.18663354E+04</pdfrwt>
<pdfrwt beam="2">  1       -1 0.19885310E+00 0.18663354E+04</pdfrwt>
<totfact> 0.70661764E+00</totfact>
</mgrwt>
</event>
<event>
12    6  0.1521603E-007  0.1677252E+04  0.7818608E-02  0.8774446E-01
         -1   -1    0    0    0  501 -0.00000000000E+00  0.00000000000E+00  0.39954086650E+03  0.39954086650E+03  0.00000000000E+00 0.  1.
          2   -1    0    0  501    0  0.00000000000E+00 -0.00000000000E+00 -0.17602534877E+04  0.17602534877E+04  0.00000000000E+00 0. -1.
         24    2    1    2    0    0  0.30464175569E+03 -0.73691246265E+02  0.17654192664E+03  0.36808432960E+03  0.77987324256E+02 0.  0.
        254    2    1    2    0    0 -0.30464175569E+03  0.73691246265E+02 -0.15372545478E+04  0.17917100246E+04  0.86535326214E+03 0.  0.
         23    2    4    4    0    0 -0.38660587845E+03 -0.23430097947E+03 -0.41380232845E+03  0.62036138006E+03  0.96201978169E+02 0.  0.
         23    2    4    4    0    0  0.81964122758E+02  0.30799222573E+03 -0.11234522194E+04  0.11713486445E+04  0.91298572189E+02 0.  0.
          4    1    3    3  502    0  0.17889378599E+00  0.59268552652E+01 -0.20077572606E+01  0.62602480413E+01  0.00000000000E+00 0. -1.
         -3    1    3    3    0  502  0.30446286191E+03 -0.79618101531E+02  0.17854968390E+03  0.36182408156E+03  0.00000000000E+00 0.  1.
         11    1    5    5    0    0 -0.17804909647E+03 -0.69585859452E+02 -0.21996059162E+03  0.29142123199E+03  0.00000000000E+00 0.  1.
        -11    1    5    5    0    0 -0.20855678198E+03 -0.16471512001E+03 -0.19384173682E+03  0.32894014806E+03  0.00000000000E+00 0. -1.
          1    1    6    6  503    0  0.88270878190E+02  0.29917768031E+03 -0.10023904031E+04  0.10498026255E+04  0.00000000000E+00 0. -1.
         -1    1    6    6    0  503 -0.63067554318E+01  0.88145454178E+01 -0.12106181627E+03  0.12154601899E+03  0.00000000000E+00 0.  1.
<mgrwt>
<rscale>  0 0.16772516E+04</rscale>
<asrwt>0</asrwt>
<pdfrwt beam="1">  1        2 0.27080823E+00 0.16772516E+04</pdfrwt>
<pdfrwt beam="2">  1       -1 0.61467825E-01 0.16772516E+04</pdfrwt>
<totfact> 0.26462321E+01</totfact>
</mgrwt>
</event>
<event>
12    6  0.1521603E-007  0.1247393E+04  0.7818608E-02  0.9072356E-01
          2   -1    0    0  501    0  0.00000000000E+00  0.00000000000E+00  0.10652362818E+04  0.10652362818E+04  0.00000000000E+00 0. -1.
         -3   -1    0    0    0  501 -0.00000000000E+00 -0.00000000000E+00 -0.36517481637E+03  0.36517481637E+03  0.00000000000E+00 0.  1.
         24    2    1    2    0    0  0.36387057815E+02 -0.18736691076E+03 -0.87111752146E+02  0.22450724244E+03  0.79904113299E+02 0.  0.
        254    2    1    2    0    0 -0.36387057815E+02  0.18736691076E+03  0.78717321762E+03  0.12059038558E+04  0.89338236921E+03 0.  0.
         23    2    4    4    0    0 -0.82413719240E+02 -0.25935509574E+02  0.92395843811E+03  0.93236570073E+03  0.90232659086E+02 0.  0.
         23    2    4    4    0    0  0.46026661425E+02  0.21330242033E+03 -0.13678522050E+03  0.27353815504E+03  0.92176730437E+02 0.  0.
          2    1    3    3  502    0  0.18351503331E+02 -0.11244772245E+02  0.86842016618E+01  0.23208574619E+02  0.00000000000E+00 0. -1.
         -1    1    3    3    0  502  0.18035554484E+02 -0.17612213851E+03 -0.95795953808E+02  0.20129866782E+03  0.00000000000E+00 0.  1.
         11    1    5    5    0    0 -0.35550717453E+02 -0.58075244266E+02  0.50912312224E+03  0.51365644268E+03  0.00000000000E+00 0. -1.
        -11    1    5    5    0    0 -0.46863001787E+02  0.32139734692E+02  0.41483531588E+03  0.41870925805E+03  0.00000000000E+00 0.  1.
          4    1    6    6  503    0  0.15001316013E+02  0.77881144715E+01  0.94881485826E+01  0.19383476795E+02  0.00000000000E+00 0. -1.
         -4    1    6    6    0  503  0.31025345412E+02  0.20551430586E+03 -0.14627336908E+03  0.25415467824E+03  0.00000000000E+00 0.  1.
<mgrwt>
<rscale>  0 0.12473932E+04</rscale>
<asrwt>0</asrwt>
<pdfrwt beam="1">  1        2 0.16388250E+00 0.12473932E+04</pdfrwt>
<pdfrwt beam="2">  1       -3 0.56180741E-01 0.12473932E+04</pdfrwt>
<totfact> 0.44752307E+01</totfact>
</mgrwt>
</event>
<event>
12    6  0.1521603E-007  0.1311027E+04  0.7818608E-02  0.9020866E-01
         -1   -1    0    0    0  501 -0.00000000000E+00  0.00000000000E+00  0.66629207264E+03  0.66629207264E+03  0.00000000000E+00 0.  1.
          2   -1    0    0  501    0  0.00000000000E+00 -0.00000000000E+00 -0.64490896903E+03  0.64490896903E+03  0.00000000000E+00 0. -1.
         24    2    1    2    0    0  0.79865271477E+02  0.13166458103E+03 -0.27823377609E+03  0.32857249621E+03  0.82654870537E+02 0.  0.
        254    2    1    2    0    0 -0.79865271477E+02 -0.13166458103E+03  0.29961687970E+03  0.98262854546E+03  0.92307884835E+03 0.  0.
         23    2    4    4    0    0  0.16704878801E+03 -0.42290182625E+03 -0.35532353379E+02  0.46645057404E+03  0.97787206037E+02 0.  0.
         23    2    4    4    0    0 -0.24691405949E+03  0.29123724522E+03  0.33514923308E+03  0.51617797142E+03  0.91263376907E+02 0.  0.
          4    1    3    3  502    0  0.46227554430E+02  0.12163476767E+03 -0.25557365045E+03  0.28679242371E+03  0.00000000000E+00 0. -1.
         -3    1    3    3    0  502  0.33637717048E+02  0.10029813361E+02 -0.22660125647E+02  0.41780072506E+02  0.00000000000E+00 0.  1.
         11    1    5    5    0    0  0.13305332706E+03 -0.37192331507E+03  0.12030932192E+01  0.39500833860E+03  0.00000000000E+00 0. -1.
        -11    1    5    5    0    0  0.33995460949E+02 -0.50978511185E+02 -0.36735446598E+02  0.71442235439E+02  0.00000000000E+00 0.  1.
          4    1    6    6  503    0 -0.20483653722E+03  0.17745370996E+03  0.23990248000E+03  0.36194063887E+03  0.00000000000E+00 0. -1.
         -4    1    6    6    0  503 -0.42077522266E+02  0.11378353526E+03  0.95246753079E+02  0.15423733254E+03  0.00000000000E+00 0.  1.
<mgrwt>
<rscale>  0 0.13110267E+04</rscale>
<asrwt>0</asrwt>
<pdfrwt beam="1">  1        2 0.99216765E-01 0.13110267E+04</pdfrwt>
<pdfrwt beam="2">  1       -1 0.10250647E+00 0.13110267E+04</pdfrwt>
<totfact> 0.45762474E+01</totfact>
</mgrwt>
</event>
<event>
12    6  0.1521603E-007  0.1450353E+04  0.7818608E-02  0.8918156E-01
         -1   -1    0    0    0  501 -0.00000000000E+00  0.00000000000E+00  0.11291958659E+03  0.11291958659E+03  0.00000000000E+00 0.  1.
          2   -1    0    0  501    0  0.00000000000E+00 -0.00000000000E+00 -0.46571260894E+04  0.46571260894E+04  0.00000000000E+00 0. -1.
         24    2    1    2    0    0  0.38874514410E+03  0.29491761197E+02 -0.20651934013E+04  0.21030829144E+04  0.77080535870E+02 0.  0.
        254    2    1    2    0    0 -0.38874514410E+03 -0.29491761197E+02 -0.24790131014E+04  0.26669627615E+04  0.90287976123E+03 0.  0.
         23    2    4    4    0    0 -0.38082249448E+03  0.31227022052E+03 -0.74702117551E+03  0.89923017448E+03  0.89642663389E+02 0.  0.
         23    2    4    4    0    0 -0.79226496177E+01 -0.34176198172E+03 -0.17319919259E+04  0.17677325870E+04  0.90655652481E+02 0.  0.
          2    1    3    3  502    0  0.38436044742E+03  0.19063224640E+02 -0.20286460597E+04  0.20648247372E+04  0.00000000000E+00 0. -1.
         -1    1    3    3    0  502  0.43846966849E+01  0.10428536557E+02 -0.36547341669E+02  0.38258177202E+02  0.00000000000E+00 0.  1.
         11    1    5    5    0    0 -0.17447554271E+03  0.19905338344E+03 -0.41566940713E+03  0.49279308081E+03  0.00000000000E+00 0.  1.
        -11    1    5    5    0    0 -0.20634695178E+03  0.11321683708E+03 -0.33135176838E+03  0.40643709367E+03  0.00000000000E+00 0. -1.
          1    1    6    6  503    0 -0.15668715757E+02 -0.30932269953E+02 -0.32221852909E+03  0.32407883989E+03  0.00000000000E+00 0. -1.
         -1    1    6    6    0  503  0.77460661396E+01 -0.31082971176E+03 -0.14097733968E+04  0.14436537471E+04  0.00000000000E+00 0.  1.
<mgrwt>
<rscale>  0 0.14503527E+04</rscale>
<asrwt>0</asrwt>
<pdfrwt beam="1">  1        2 0.71648108E+00 0.14503527E+04</pdfrwt>
<pdfrwt beam="2">  1       -1 0.17372241E-01 0.14503527E+04</pdfrwt>
<totfact> 0.25422679E+00</totfact>
</mgrwt>
</event>
<event>
12    6  0.1521603E-007  0.3534739E+04  0.7818608E-02  0.8105606E-01
          2   -1    0    0  501    0  0.00000000000E+00  0.00000000000E+00  0.27462949782E+04  0.27462949782E+04  0.00000000000E+00 0. -1.
         -1   -1    0    0    0  501 -0.00000000000E+00 -0.00000000000E+00 -0.11373851874E+04  0.11373851874E+04  0.00000000000E+00 0.  1.
         24    2    1    2    0    0  0.86436912470E+03  0.11351092712E+04  0.16689446893E+04  0.21971451103E+04  0.80394144130E+02 0.  0.
        254    2    1    2    0    0 -0.86436912470E+03 -0.11351092712E+04 -0.60034898486E+02  0.16865350552E+04  0.89732338775E+03 0.  0.
         23    2    4    4    0    0 -0.25932119424E+02  0.11755996854E+03  0.78333728396E+02  0.17009470287E+03  0.91121972750E+02 0.  0.
         23    2    4    4    0    0 -0.83843700528E+03 -0.12526692398E+04 -0.13836862688E+03  0.15164403524E+04  0.91041909957E+02 0.  0.
          2    1    3    3  502    0  0.76764131907E+03  0.10462887066E+04  0.15148265348E+04  0.19946660580E+04  0.00000000000E+00 0. -1.
         -1    1    3    3    0  502  0.96727805631E+02  0.88820564591E+02  0.15411815448E+03  0.20247905229E+03  0.00000000000E+00 0.  1.
         11    1    5    5    0    0  0.34013580657E+02  0.33615870051E+02  0.23875769574E+02  0.53450937888E+02  0.00000000000E+00 0. -1.
        -11    1    5    5    0    0 -0.59945700080E+02  0.83944098489E+02  0.54457958822E+02  0.11664376498E+03  0.00000000000E+00 0.  1.
          1    1    6    6  503    0 -0.29238385618E+03 -0.36282437482E+03 -0.51264369482E+02  0.46878340617E+03  0.00000000000E+00 0. -1.
         -1    1    6    6    0  503 -0.54605314910E+03 -0.88984486493E+03 -0.87104257400E+02  0.10476569462E+04  0.00000000000E+00 0.  1.
<mgrwt>
<rscale>  0 0.35347392E+04</rscale>
<asrwt>0</asrwt>
<pdfrwt beam="1">  1        2 0.42250692E+00 0.35347392E+04</pdfrwt>
<pdfrwt beam="2">  1       -1 0.17498234E+00 0.35347392E+04</pdfrwt>
<totfact> 0.52451334E-01</totfact>
</mgrwt>
</event>
<event>
12    6  0.1521603E-007  0.1139961E+04  0.7818608E-02  0.9167095E-01
         -1   -1    0    0    0  501 -0.00000000000E+00  0.00000000000E+00  0.29811988093E+03  0.29811988093E+03  0.00000000000E+00 0.  1.
          2   -1    0    0  501    0  0.00000000000E+00 -0.00000000000E+00 -0.10897550147E+04  0.10897550147E+04  0.00000000000E+00 0. -1.
         24    2    1    2    0    0  0.12766214805E+02  0.19294127238E+03 -0.72733037322E+02  0.22132524752E+03  0.79406924400E+02 0.  0.
        254    2    1    2    0    0 -0.12766214805E+02 -0.19294127238E+03 -0.71890209647E+03  0.11665496481E+04  0.89812501714E+03 0.  0.
         23    2    4    4    0    0 -0.31692255000E+03  0.17425451896E+03 -0.11267384190E+03  0.38973592751E+03  0.91619640195E+02 0.  0.
         23    2    4    4    0    0  0.30415633519E+03 -0.36719579134E+03 -0.60622825456E+03  0.77681372062E+03  0.92644667903E+02 0.  0.
          2    1    3    3  502    0  0.18958252539E+02  0.60219190662E+02 -0.61252335331E+02  0.87963713239E+02  0.00000000000E+00 0. -1.
         -1    1    3    3    0  502 -0.61920377345E+01  0.13272208172E+03 -0.11480701991E+02  0.13336153428E+03  0.00000000000E+00 0.  1.
         11    1    5    5    0    0 -0.28839875150E+02  0.23142392112E+01 -0.34924924800E+02  0.45352447278E+02  0.00000000000E+00 0. -1.
        -11    1    5    5    0    0 -0.28808267485E+03  0.17194027975E+03 -0.77748917102E+02  0.34438348023E+03  0.00000000000E+00 0.  1.
          3    1    6    6  503    0  0.29055021754E+03 -0.31778671249E+03 -0.50732960542E+03  0.66542554210E+03  0.00000000000E+00 0. -1.
         -3    1    6    6    0  503  0.13606117658E+02 -0.49409078853E+02 -0.98898649146E+02  0.11138817852E+03  0.00000000000E+00 0.  1.
<mgrwt>
<rscale>  0 0.11399608E+04</rscale>
<asrwt>0</asrwt>
<pdfrwt beam="1">  1        2 0.16765462E+00 0.11399608E+04</pdfrwt>
<pdfrwt beam="2">  1       -1 0.45864596E-01 0.11399608E+04</pdfrwt>
<totfact> 0.11793285E+02</totfact>
</mgrwt>
</event>
<event>
12    6  0.1521603E-007  0.2179220E+04  0.7818608E-02  0.8527127E-01
          2   -1    0    0  501    0  0.00000000000E+00  0.00000000000E+00  0.31218813789E+04  0.31218813789E+04  0.00000000000E+00 0. -1.
         -1   -1    0    0    0  501 -0.00000000000E+00 -0.00000000000E+00 -0.38029951868E+03  0.38029951868E+03  0.00000000000E+00 0.  1.
         24    2    1    2    0    0 -0.53595216774E+03 -0.14533343250E+03 -0.23390746979E+01  0.56126523258E+03  0.81527034299E+02 0.  0.
        254    2    1    2    0    0  0.53595216774E+03  0.14533343250E+03  0.27439209349E+04  0.29409156650E+04  0.90084200551E+03 0.  0.
         23    2    4    4    0    0  0.70478859274E+03  0.33668278178E+03  0.20845048007E+04  0.22279184903E+04  0.91532940758E+02 0.  0.
         23    2    4    4    0    0 -0.16883642500E+03 -0.19134934928E+03  0.65941613418E+03  0.71299717468E+03  0.91733424703E+02 0.  0.
          2    1    3    3  502    0 -0.11452603374E+03 -0.65390499371E+02 -0.99727150312E+01  0.13225575548E+03  0.00000000000E+00 0. -1.
         -1    1    3    3    0  502 -0.42142613400E+03 -0.79942933130E+02  0.76336403333E+01  0.42900947710E+03  0.00000000000E+00 0.  1.
         11    1    5    5    0    0  0.75480589223E+01  0.40620763427E+01  0.67407981644E+02  0.67950788421E+02  0.00000000000E+00 0. -1.
        -11    1    5    5    0    0  0.69724053382E+03  0.33262070544E+03  0.20170968190E+04  0.21599677019E+04  0.00000000000E+00 0.  1.
          1    1    6    6  503    0 -0.29425705990E+02 -0.25270065915E+02  0.21539093807E+03  0.21885544226E+03  0.00000000000E+00 0. -1.
         -1    1    6    6    0  503 -0.13941071901E+03 -0.16607928336E+03  0.44402519611E+03  0.49414173242E+03  0.00000000000E+00 0.  1.
<mgrwt>
<rscale>  0 0.21792200E+04</rscale>
<asrwt>0</asrwt>
<pdfrwt beam="1">  1        2 0.48028943E+00 0.21792200E+04</pdfrwt>
<pdfrwt beam="2">  1       -1 0.58507620E-01 0.21792200E+04</pdfrwt>
<totfact> 0.45019379E+00</totfact>
</mgrwt>
</event>
<event>
12    6  0.1521603E-007  0.1812679E+04  0.7818608E-02  0.8699586E-01
          2   -1    0    0  501    0  0.00000000000E+00  0.00000000000E+00  0.29291336233E+04  0.29291336233E+04  0.00000000000E+00 0. -1.
         -1   -1    0    0    0  501 -0.00000000000E+00 -0.00000000000E+00 -0.28044184738E+03  0.28044184738E+03  0.00000000000E+00 0.  1.
         24    2    1    2    0    0  0.10344235611E+03  0.79419247224E+02 -0.17488891612E+03  0.23236266870E+03  0.79990867950E+02 0.  0.
        254    2    1    2    0    0 -0.10344235611E+03 -0.79419247224E+02  0.28235806920E+04  0.29772128020E+04  0.93497615258E+03 0.  0.
         23    2    4    4    0    0  0.67806356534E+02  0.32813799480E+03  0.49641842228E+03  0.60642177357E+03  0.95099273724E+02 0.  0.
         23    2    4    4    0    0 -0.17124871264E+03 -0.40755724203E+03  0.23271622697E+04  0.23707910284E+04  0.97656763375E+02 0.  0.
          2    1    3    3  502    0  0.63942065734E+02  0.78035567126E+02 -0.77370707294E+02  0.12713915154E+03  0.00000000000E+00 0. -1.
         -1    1    3    3    0  502  0.39500290372E+02  0.13836800981E+01 -0.97518208828E+02  0.10522351716E+03  0.00000000000E+00 0.  1.
         11    1    5    5    0    0  0.69616998318E+02  0.31180914006E+03  0.49599770908E+03  0.58998745214E+03  0.00000000000E+00 0.  1.
        -11    1    5    5    0    0 -0.18106417839E+01  0.16328854749E+02  0.42071319727E+00  0.16434321424E+02  0.00000000000E+00 0. -1.
          3    1    6    6  503    0 -0.29048045454E+02 -0.11665745469E+03  0.44367508074E+03  0.45967415410E+03  0.00000000000E+00 0. -1.
         -3    1    6    6    0  503 -0.14220066719E+03 -0.29089978734E+03  0.18834871890E+04  0.19111168743E+04  0.00000000000E+00 0.  1.
<mgrwt>
<rscale>  0 0.18126794E+04</rscale>
<asrwt>0</asrwt>
<pdfrwt beam="1">  1        2 0.45063592E+00 0.18126794E+04</pdfrwt>
<pdfrwt beam="2">  1       -1 0.43144902E-01 0.18126794E+04</pdfrwt>
<totfact> 0.10999035E+01</totfact>
</mgrwt>
</event>
<event>
12    6  0.1521603E-007  0.2336931E+04  0.7818608E-02  0.8463500E-01
          2   -1    0    0  501    0  0.00000000000E+00  0.00000000000E+00  0.21774011123E+04  0.21774011123E+04  0.00000000000E+00 0. -1.
         -1   -1    0    0    0  501 -0.00000000000E+00 -0.00000000000E+00 -0.62703738700E+03  0.62703738700E+03  0.00000000000E+00 0.  1.
         24    2    1    2    0    0 -0.47649617166E+03  0.29198827950E+03  0.16391711258E+04  0.17336428486E+04  0.79559976261E+02 0.  0.
        254    2    1    2    0    0  0.47649617166E+03 -0.29198827950E+03 -0.88807400506E+02  0.10707956507E+04  0.90907140216E+03 0.  0.
         23    2    4    4    0    0  0.78463701441E+02 -0.51764103728E+03  0.14167891203E+03  0.55010674814E+03  0.91846199245E+02 0.  0.
         23    2    4    4    0    0  0.39803247022E+03  0.22565275778E+03 -0.23048631253E+03  0.52068890257E+03  0.92972999014E+02 0.  0.
          4    1    3    3  502    0 -0.43099995097E+03  0.27382714216E+03  0.14187581597E+04  0.15078517756E+04  0.00000000000E+00 0. -1.
         -1    1    3    3    0  502 -0.45496220697E+02  0.18161137346E+02  0.22041296614E+03  0.22579107301E+03  0.00000000000E+00 0.  1.
         11    1    5    5    0    0  0.30210733118E+01 -0.30572519612E+03  0.97090808954E+02  0.32078598413E+03  0.00000000000E+00 0. -1.
        -11    1    5    5    0    0  0.75442628129E+02 -0.21191584116E+03  0.44588103075E+02  0.22932076402E+03  0.00000000000E+00 0.  1.
          1    1    6    6  503    0  0.85337694776E+02  0.14312990472E+02 -0.21035000252E+02  0.89049733753E+02  0.00000000000E+00 0. -1.
         -1    1    6    6    0  503  0.31269477545E+03  0.21133976731E+03 -0.20945131228E+03  0.43163916881E+03  0.00000000000E+00 0.  1.
<mgrwt>
<rscale>  0 0.23369312E+04</rscale>
<asrwt>0</asrwt>
<pdfrwt beam="1">  1        2 0.33498478E+00 0.23369312E+04</pdfrwt>
<pdfrwt beam="2">  1       -1 0.96467291E-01 0.23369312E+04</pdfrwt>
<totfact> 0.56561192E+00</totfact>
</mgrwt>
</event>
<event>
12    6  0.1521603E-007  0.1466991E+04  0.7818608E-02  0.8906705E-01
         -1   -1    0    0    0  501 -0.00000000000E+00  0.00000000000E+00  0.10780295889E+04  0.10780295889E+04  0.00000000000E+00 0.  1.
          2   -1    0    0  501    0  0.00000000000E+00 -0.00000000000E+00 -0.49907337455E+03  0.49907337455E+03  0.00000000000E+00 0. -1.
         24    2    1    2    0    0 -0.52459457485E+02  0.34500752348E+02  0.66578526062E+03  0.67346368060E+03  0.79630516954E+02 0.  0.
        254    2    1    2    0    0  0.52459457485E+02 -0.34500752348E+02 -0.86829046324E+02  0.90363928281E+03  0.89726382606E+03 0.  0.
         23    2    4    4    0    0 -0.22701862195E+03 -0.30386299604E+03 -0.26017030103E+03  0.46895726754E+03  0.91444836716E+02 0.  0.
         23    2    4    4    0    0  0.27947807944E+03  0.26936224370E+03  0.17334125471E+03  0.43468201527E+03  0.90759289333E+02 0.  0.
          4    1    3    3  502    0 -0.71920737703E+01 -0.14657404052E+02  0.36409898957E+03  0.36446486748E+03  0.00000000000E+00 0. -1.
         -3    1    3    3    0  502 -0.45267383715E+02  0.49158156401E+02  0.30168627105E+03  0.30899881312E+03  0.00000000000E+00 0.  1.
         11    1    5    5    0    0 -0.49299094718E+02 -0.13996501683E+03 -0.96740258887E+02  0.17714198928E+03  0.00000000000E+00 0. -1.
        -11    1    5    5    0    0 -0.17771952723E+03 -0.16389797921E+03 -0.16343004214E+03  0.29181527826E+03  0.00000000000E+00 0.  1.
          1    1    6    6  503    0  0.19512411279E+03  0.23508806275E+03  0.15164935249E+03  0.34108260400E+03  0.00000000000E+00 0. -1.
         -1    1    6    6    0  503  0.84353966641E+02  0.34274180942E+02  0.21691902218E+02  0.93599411265E+02  0.00000000000E+00 0.  1.
<mgrwt>
<rscale>  0 0.14669913E+04</rscale>
<asrwt>0</asrwt>
<pdfrwt beam="1">  1        2 0.76780519E-01 0.14669913E+04</pdfrwt>
<pdfrwt beam="2">  1       -1 0.16585071E+00 0.14669913E+04</pdfrwt>
<totfact> 0.18047777E+01</totfact>
</mgrwt>
</event>
<event>
12    6  0.1521603E-007  0.2593406E+04  0.7818608E-02  0.8370445E-01
          2   -1    0    0  501    0  0.00000000000E+00  0.00000000000E+00  0.26978955672E+04  0.26978955672E+04  0.00000000000E+00 0. -1.
         -1   -1    0    0    0  501 -0.00000000000E+00 -0.00000000000E+00 -0.62324067652E+03  0.62324067652E+03  0.00000000000E+00 0.  1.
         24    2    1    2    0    0  0.70737677480E+03  0.28106468947E+03 -0.17281316245E+03  0.78455912259E+03  0.79305526502E+02 0.  0.
        254    2    1    2    0    0 -0.70737677480E+03 -0.28106468947E+03  0.22474680531E+04  0.25365771211E+04  0.89651078097E+03 0.  0.
         23    2    4    4    0    0 -0.17611412374E+03 -0.34280735255E+02  0.17530718490E+04  0.17645455491E+04  0.90381046228E+02 0.  0.
         23    2    4    4    0    0 -0.53126265106E+03 -0.24678395422E+03  0.49439620414E+03  0.77203157209E+03  0.91993571320E+02 0.  0.
          2    1    3    3  502    0  0.33711620354E+03  0.11137639425E+03 -0.11491494339E+03  0.37317218559E+03  0.00000000000E+00 0. -1.
         -1    1    3    3    0  502  0.37026057126E+03  0.16968829522E+03 -0.57898219060E+02  0.41138693700E+03  0.00000000000E+00 0.  1.
         11    1    5    5    0    0 -0.17363168124E+03 -0.72982874950E+01  0.15087013462E+04  0.15186773778E+04  0.00000000000E+00 0. -1.
        -11    1    5    5    0    0 -0.24824425031E+01 -0.26982447760E+02  0.24437050281E+03  0.24586817128E+03  0.00000000000E+00 0.  1.
          2    1    6    6  503    0 -0.51299170715E+03 -0.22283411465E+03  0.44748286120E+03  0.71627958600E+03  0.00000000000E+00 0. -1.
         -2    1    6    6    0  503 -0.18270943907E+02 -0.23949839565E+02  0.46913342941E+02  0.55751986084E+02  0.00000000000E+00 0.  1.
<mgrwt>
<rscale>  0 0.25934057E+04</rscale>
<asrwt>0</asrwt>
<pdfrwt beam="1">  1        2 0.41506085E+00 0.25934057E+04</pdfrwt>
<pdfrwt beam="2">  1       -1 0.95883182E-01 0.25934057E+04</pdfrwt>
<totfact> 0.28099923E+00</totfact>
</mgrwt>
</event>
<event>
12    6  0.1521603E-007  0.1680544E+04  0.7818608E-02  0.8772539E-01
         -1   -1    0    0    0  501 -0.00000000000E+00  0.00000000000E+00  0.63500519988E+03  0.63500519988E+03  0.00000000000E+00 0.  1.
          2   -1    0    0  501    0  0.00000000000E+00 -0.00000000000E+00 -0.11118922480E+04  0.11118922480E+04  0.00000000000E+00 0. -1.
         24    2    1    2    0    0 -0.23420310988E+03  0.40980115109E+02  0.40314136331E+03  0.47510414412E+03  0.81673266300E+02 0.  0.
        254    2    1    2    0    0  0.23420310988E+03 -0.40980115109E+02 -0.88002841141E+03  0.12717933037E+04  0.88683579992E+03 0.  0.
         23    2    4    4    0    0  0.43101409942E+03  0.69562058502E+02 -0.92229206838E+03  0.10242823877E+04  0.88992788531E+02 0.  0.
         23    2    4    4    0    0 -0.19681098954E+03 -0.11054217361E+03  0.42263656963E+02  0.24751091607E+03  0.92310883018E+02 0.  0.
          4    1    3    3  502    0 -0.88413975024E+02 -0.12346777170E+02  0.20342940639E+03  0.22215534491E+03  0.00000000000E+00 0. -1.
         -3    1    3    3    0  502 -0.14578913486E+03  0.53326892280E+02  0.19971195692E+03  0.25294879921E+03  0.00000000000E+00 0.  1.
         11    1    5    5    0    0  0.10871775989E+03  0.16865013730E+02 -0.15215027693E+03  0.18775965161E+03  0.00000000000E+00 0. -1.
        -11    1    5    5    0    0  0.32229633953E+03  0.52697044772E+02 -0.77014179145E+03  0.83652273605E+03  0.00000000000E+00 0.  1.
          1    1    6    6  503    0 -0.91634598814E+01 -0.24652881409E+01 -0.20045936826E+02  0.22178508197E+02  0.00000000000E+00 0. -1.
         -1    1    6    6    0  503 -0.18764752966E+03 -0.10807688547E+03  0.62309593788E+02  0.22533240787E+03  0.00000000000E+00 0.  1.
<mgrwt>
<rscale>  0 0.16805444E+04</rscale>
<asrwt>0</asrwt>
<pdfrwt beam="1">  1        2 0.17106035E+00 0.16805444E+04</pdfrwt>
<pdfrwt beam="2">  1       -1 0.97693107E-01 0.16805444E+04</pdfrwt>
<totfact> 0.23408710E+01</totfact>
</mgrwt>
</event>
<event>
12    6  0.1521603E-007  0.1840804E+04  0.7818608E-02  0.8684896E-01
         -1   -1    0    0    0  501 -0.00000000000E+00  0.00000000000E+00  0.53083382781E+03  0.53083382781E+03  0.00000000000E+00 0.  1.
          2   -1    0    0  501    0  0.00000000000E+00 -0.00000000000E+00 -0.15958671640E+04  0.15958671640E+04  0.00000000000E+00 0. -1.
         24    2    1    2    0    0  0.26365248153E+03 -0.56630617901E+02  0.33403064353E+03  0.43821116678E+03  0.87936897699E+02 0.  0.
        254    2    1    2    0    0 -0.26365248153E+03  0.56630617901E+02 -0.13990639797E+04  0.16884898250E+04  0.90603433269E+03 0.  0.
         23    2    4    4    0    0 -0.30695498298E+03  0.53996769197E+02 -0.15070341751E+04  0.15416902193E+04  0.92302301703E+02 0.  0.
         23    2    4    4    0    0  0.43302501454E+02  0.26338487048E+01  0.10797019533E+03  0.14679960573E+03  0.89501493682E+02 0.  0.
          4    1    3    3  502    0  0.57280868678E+02  0.44749110838E+01  0.27581888472E+02  0.63732906080E+02  0.00000000000E+00 0. -1.
         -1    1    3    3    0  502  0.20637161285E+03 -0.61105528985E+02  0.30644875506E+03  0.37447826070E+03  0.00000000000E+00 0.  1.
         11    1    5    5    0    0 -0.56486768927E+02  0.13044058580E+02 -0.49219718390E+03  0.49559960691E+03  0.00000000000E+00 0.  1.
        -11    1    5    5    0    0 -0.25046821405E+03  0.40952710617E+02 -0.10148369911E+04  0.10460906124E+04  0.00000000000E+00 0. -1.
          4    1    6    6  503    0 -0.25539980376E+02  0.50534051337E+01  0.51575875026E+02  0.57774547906E+02  0.00000000000E+00 0.  1.
         -4    1    6    6    0  503  0.68842481830E+02 -0.24195564288E+01  0.56394320303E+02  0.89025057822E+02  0.00000000000E+00 0. -1.
<mgrwt>
<rscale>  0 0.18408045E+04</rscale>
<asrwt>0</asrwt>
<pdfrwt beam="1">  1        2 0.24551803E+00 0.18408045E+04</pdfrwt>
<pdfrwt beam="2">  1       -1 0.81666742E-01 0.18408045E+04</pdfrwt>
<totfact> 0.17938859E+01</totfact>
</mgrwt>
</event>
<event>
12    6  0.1521603E-007  0.2108747E+04  0.7818608E-02  0.8557400E-01
         -1   -1    0    0    0  501 -0.00000000000E+00  0.00000000000E+00  0.25324413715E+04  0.25324413715E+04  0.00000000000E+00 0.  1.
          2   -1    0    0  501    0  0.00000000000E+00 -0.00000000000E+00 -0.43898499265E+03  0.43898499265E+03  0.00000000000E+00 0. -1.
         24    2    1    2    0    0 -0.12443595378E+03 -0.37466370451E+03 -0.21745839439E+03  0.45785717140E+03  0.80547116929E+02 0.  0.
        254    2    1    2    0    0  0.12443595378E+03  0.37466370451E+03  0.23109147733E+04  0.25135691928E+04  0.90655711318E+03 0.  0.
         23    2    4    4    0    0  0.13523994540E+03  0.40137805123E+03  0.36837208928E+03  0.56866830050E+03  0.91057437832E+02 0.  0.
         23    2    4    4    0    0 -0.10803991622E+02 -0.26714346725E+02  0.19425426840E+04  0.19449008923E+04  0.91307278444E+02 0.  0.
          4    1    3    3  502    0 -0.69482728873E+02 -0.30968464259E+03 -0.16264207307E+03  0.35662988013E+03  0.00000000000E+00 0. -1.
         -3    1    3    3    0  502 -0.54953224909E+02 -0.64979061913E+02 -0.54816321322E+02  0.10122729127E+03  0.00000000000E+00 0.  1.
         11    1    5    5    0    0 -0.11003907672E+02  0.70510208277E+02  0.55870840500E+02  0.90632920473E+02  0.00000000000E+00 0.  1.
        -11    1    5    5    0    0  0.14624385308E+03  0.33086784296E+03  0.31250124878E+03  0.47803538002E+03  0.00000000000E+00 0. -1.
          3    1    6    6  503    0  0.14189944012E+01 -0.84033499255E+01  0.18400771934E+04  0.18400969288E+04  0.00000000000E+00 0. -1.
         -3    1    6    6    0  503 -0.12222986023E+02 -0.18310996800E+02  0.10246549058E+03  0.10480396343E+03  0.00000000000E+00 0.  1.
<mgrwt>
<rscale>  0 0.21087473E+04</rscale>
<asrwt>0</asrwt>
<pdfrwt beam="1">  1        2 0.67536154E-01 0.21087473E+04</pdfrwt>
<pdfrwt beam="2">  1       -1 0.38960636E+00 0.21087473E+04</pdfrwt>
<totfact> 0.63478126E-01</totfact>
</mgrwt>
</event>
<event>
12    6  0.1521603E-007  0.1274442E+04  0.7818608E-02  0.9050082E-01
         -1   -1    0    0    0  501 -0.00000000000E+00  0.00000000000E+00  0.58301106584E+03  0.58301106584E+03  0.00000000000E+00 0.  1.
          2   -1    0    0  501    0  0.00000000000E+00 -0.00000000000E+00 -0.69647134479E+03  0.69647134479E+03  0.00000000000E+00 0. -1.
         24    2    1    2    0    0 -0.21621756227E+03 -0.20893744570E+03  0.40874473050E+02  0.31363323435E+03  0.79310735019E+02 0.  0.
        254    2    1    2    0    0  0.21621756227E+03  0.20893744570E+03 -0.15433475200E+03  0.96584917629E+03  0.90478755805E+03 0.  0.
         23    2    4    4    0    0 -0.17679328114E+02  0.30218405147E+03  0.30145820814E+03  0.43682875077E+03  0.91184135902E+02 0.  0.
         23    2    4    4    0    0  0.23389689039E+03 -0.93246605762E+02 -0.45579296014E+03  0.52902042552E+03  0.93341862469E+02 0.  0.
          2    1    3    3  502    0 -0.22390094571E+02 -0.61791515502E+02 -0.53050649894E+01  0.65936722981E+02  0.00000000000E+00 0. -1.
         -1    1    3    3    0  502 -0.19382746770E+03 -0.14714593020E+03  0.46179538040E+02  0.24769651137E+03  0.00000000000E+00 0.  1.
         11    1    5    5    0    0 -0.30262746500E+02  0.29875275511E+03  0.29860300356E+03  0.42347703155E+03  0.00000000000E+00 0.  1.
        -11    1    5    5    0    0  0.12583418386E+02  0.34312963524E+01  0.28552045795E+01  0.13351719220E+02  0.00000000000E+00 0. -1.
          3    1    6    6  503    0  0.10819186884E+01 -0.14698275198E+02 -0.70680433474E+02  0.72200647628E+02  0.00000000000E+00 0. -1.
         -3    1    6    6    0  503  0.23281497170E+03 -0.78548330564E+02 -0.38511252666E+03  0.45681977789E+03  0.00000000000E+00 0.  1.
<mgrwt>
<rscale>  0 0.12744418E+04</rscale>
<asrwt>0</asrwt>
<pdfrwt beam="1">  1        2 0.10714944E+00 0.12744418E+04</pdfrwt>
<pdfrwt beam="2">  1       -1 0.89694010E-01 0.12744418E+04</pdfrwt>
<totfact> 0.56315994E+01</totfact>
</mgrwt>
</event>
<event>
12    6  0.1521603E-007  0.1338288E+04  0.7818608E-02  0.8999742E-01
          2   -1    0    0  501    0  0.00000000000E+00  0.00000000000E+00  0.19633862744E+04  0.19633862744E+04  0.00000000000E+00 0. -1.
         -1   -1    0    0    0  501 -0.00000000000E+00 -0.00000000000E+00 -0.22805164965E+03  0.22805164965E+03  0.00000000000E+00 0.  1.
         24    2    1    2    0    0  0.35522479781E+03 -0.34247839428E+02  0.51725112092E+03  0.63335284417E+03  0.78927382087E+02 0.  0.
        254    2    1    2    0    0 -0.35522479781E+03  0.34247839428E+02  0.12180835039E+04  0.15580850799E+04  0.90362830984E+03 0.  0.
         23    2    4    4    0    0 -0.33431515877E+03 -0.29236955619E+03  0.22120874206E+03  0.50467689672E+03  0.92297777624E+02 0.  0.
         23    2    4    4    0    0 -0.20909639039E+02  0.32661739562E+03  0.99687476179E+03  0.10534081832E+04  0.93772989470E+02 0.  0.
          4    1    3    3  502    0  0.15898052811E+00 -0.72857792465E+01  0.23421643084E+02  0.24529191157E+02  0.00000000000E+00 0. -1.
         -3    1    3    3    0  502  0.35506581728E+03 -0.26962060182E+02  0.49382947783E+03  0.60882365301E+03  0.00000000000E+00 0.  1.
         11    1    5    5    0    0 -0.13469327263E+02  0.66183153547E+01  0.60641850447E+01  0.16186389817E+02  0.00000000000E+00 0.  1.
        -11    1    5    5    0    0 -0.32084583151E+03 -0.29898787154E+03  0.21514455702E+03  0.48849050691E+03  0.00000000000E+00 0. -1.
          1    1    6    6  503    0 -0.34313716486E+02  0.25241957479E+03  0.64367769126E+03  0.69225287511E+03  0.00000000000E+00 0. -1.
         -1    1    6    6    0  503  0.13404077447E+02  0.74197820826E+02  0.35319707053E+03  0.36115530806E+03  0.00000000000E+00 0.  1.
<mgrwt>
<rscale>  0 0.13382877E+04</rscale>
<asrwt>0</asrwt>
<pdfrwt beam="1">  1        2 0.30205942E+00 0.13382877E+04</pdfrwt>
<pdfrwt beam="2">  1       -1 0.35084870E-01 0.13382877E+04</pdfrwt>
<totfact> 0.60281732E+01</totfact>
</mgrwt>
</event>
<event>
12    6  0.1521603E-007  0.1400523E+04  0.7818608E-02  0.8953440E-01
          2   -1    0    0  501    0  0.00000000000E+00  0.00000000000E+00  0.11024988815E+04  0.11024988815E+04  0.00000000000E+00 0. -1.
         -1   -1    0    0    0  501 -0.00000000000E+00 -0.00000000000E+00 -0.44477700240E+03  0.44477700240E+03  0.00000000000E+00 0.  1.
         24    2    1    2    0    0  0.40581661995E+03 -0.28977617996E+02  0.19615408962E+03  0.45851335962E+03  0.78938220808E+02 0.  0.
        254    2    1    2    0    0 -0.40581661995E+03  0.28977617996E+02  0.46156778948E+03  0.10887625243E+04  0.89823837518E+03 0.  0.
         23    2    4    4    0    0  0.50939188598E+02  0.36828277511E+03  0.61749037490E+02  0.38729449740E+03  0.89202470299E+02 0.  0.
         23    2    4    4    0    0 -0.45675580855E+03 -0.33930515711E+03  0.39981875199E+03  0.70146802689E+03  0.91915722410E+02 0.  0.
          4    1    3    3  502    0  0.34002997816E+03 -0.32112332900E+02  0.19361185587E+03  0.39260302941E+03  0.00000000000E+00 0. -1.
         -3    1    3    3    0  502  0.65786641793E+02  0.31347149040E+01  0.25422337505E+01  0.65910330210E+02  0.00000000000E+00 0.  1.
         11    1    5    5    0    0 -0.16804096189E+02  0.18027391698E+02 -0.26334305742E+01  0.24785065196E+02  0.00000000000E+00 0. -1.
        -11    1    5    5    0    0  0.67743284787E+02  0.35025538341E+03  0.64382468064E+02  0.36250943220E+03  0.00000000000E+00 0.  1.
          1    1    6    6  503    0 -0.80151134647E+02 -0.26761440433E+02  0.37004155186E+02  0.92247962473E+02  0.00000000000E+00 0. -1.
         -1    1    6    6    0  503 -0.37660467390E+03 -0.31254371668E+03  0.36281459680E+03  0.60922006442E+03  0.00000000000E+00 0.  1.
<mgrwt>
<rscale>  0 0.14005230E+04</rscale>
<asrwt>0</asrwt>
<pdfrwt beam="1">  1        2 0.16961521E+00 0.14005230E+04</pdfrwt>
<pdfrwt beam="2">  1       -1 0.68427232E-01 0.14005230E+04</pdfrwt>
<totfact> 0.52097166E+01</totfact>
</mgrwt>
</event>
<event>
12    6  0.1521603E-007  0.1590381E+04  0.7818608E-02  0.8826479E-01
          2   -1    0    0  501    0  0.00000000000E+00  0.00000000000E+00  0.14122060637E+04  0.14122060637E+04  0.00000000000E+00 0. -1.
         -1   -1    0    0    0  501 -0.00000000000E+00 -0.00000000000E+00 -0.44775882952E+03  0.44775882952E+03  0.00000000000E+00 0.  1.
         24    2    1    2    0    0  0.24182703938E+03  0.11405098802E+03  0.81771414502E+03  0.86404682606E+03  0.80203178335E+02 0.  0.
        254    2    1    2    0    0 -0.24182703938E+03 -0.11405098802E+03  0.14673308920E+03  0.99591806720E+03  0.94806869596E+03 0.  0.
         23    2    4    4    0    0 -0.32756457380E+02  0.32711919636E+03  0.32205768877E+03  0.46913207103E+03  0.91015334113E+02 0.  0.
         23    2    4    4    0    0 -0.20907058200E+03 -0.44117018438E+03 -0.17532459957E+03  0.52678599617E+03  0.91777615463E+02 0.  0.
          4    1    3    3  502    0  0.24758744411E+03  0.10735434405E+03  0.79924532957E+03  0.84357429697E+03  0.00000000000E+00 0. -1.
         -3    1    3    3    0  502 -0.57604047346E+01  0.66966439741E+01  0.18468815448E+02  0.20472529089E+02  0.00000000000E+00 0.  1.
         11    1    5    5    0    0 -0.98024118036E+01  0.57745858209E+01  0.37853246703E+02  0.39525958616E+02  0.00000000000E+00 0.  1.
        -11    1    5    5    0    0 -0.22954045577E+02  0.32134461054E+03  0.28420444207E+03  0.42960611241E+03  0.00000000000E+00 0. -1.
          1    1    6    6  503    0 -0.10741916149E+03 -0.26019435506E+03 -0.14615347827E+03  0.31717631985E+03  0.00000000000E+00 0.  1.
         -1    1    6    6    0  503 -0.10165142051E+03 -0.18097582932E+03 -0.29171121299E+02  0.20960967632E+03  0.00000000000E+00 0. -1.
<mgrwt>
<rscale>  0 0.15903808E+04</rscale>
<asrwt>0</asrwt>
<pdfrwt beam="1">  1        2 0.21726247E+00 0.15903808E+04</pdfrwt>
<pdfrwt beam="2">  1       -1 0.68885974E-01 0.15903808E+04</pdfrwt>
<totfact> 0.33208489E+01</totfact>
</mgrwt>
</event>
<event>
12    6  0.1521603E-007  0.2211053E+04  0.7818608E-02  0.8513842E-01
          2   -1    0    0  501    0  0.00000000000E+00  0.00000000000E+00  0.18197053006E+04  0.18197053006E+04  0.00000000000E+00 0. -1.
         -1   -1    0    0    0  501 -0.00000000000E+00 -0.00000000000E+00 -0.67164092888E+03  0.67164092888E+03  0.00000000000E+00 0.  1.
         24    2    1    2    0    0 -0.67454518910E+03  0.42046596421E+02 -0.23062656928E+03  0.71848345930E+03  0.79061611555E+02 0.  0.
        254    2    1    2    0    0  0.67454518910E+03 -0.42046596421E+02  0.13786909410E+04  0.17728627701E+04  0.88627002807E+03 0.  0.
         23    2    4    4    0    0  0.18824986972E+02 -0.21023529591E+03  0.92332351862E+03  0.95192729826E+03  0.95320519081E+02 0.  0.
         23    2    4    4    0    0  0.65572020213E+03  0.16818869949E+03  0.45536742235E+03  0.82093547189E+03  0.91209306258E+02 0.  0.
          4    1    3    3  502    0 -0.30574943104E+03 -0.20216417740E+02 -0.10728250337E+03  0.32465513034E+03  0.00000000000E+00 0. -1.
         -3    1    3    3    0  502 -0.36879575806E+03  0.62263014161E+02 -0.12334406591E+03  0.39382832896E+03  0.00000000000E+00 0.  1.
         11    1    5    5    0    0  0.19976506028E+02 -0.43243717584E+02  0.39443044292E+03  0.39729643115E+03  0.00000000000E+00 0.  1.
        -11    1    5    5    0    0 -0.11515190556E+01 -0.16699157832E+03  0.52889307569E+03  0.55463086710E+03  0.00000000000E+00 0. -1.
          1    1    6    6  503    0  0.59853964411E+03  0.12566458692E+03  0.40143811021E+03  0.73156944326E+03  0.00000000000E+00 0. -1.
         -1    1    6    6    0  503  0.57180558017E+02  0.42524112570E+02  0.53929312140E+02  0.89366028629E+02  0.00000000000E+00 0.  1.
<mgrwt>
<rscale>  0 0.22110527E+04</rscale>
<asrwt>0</asrwt>
<pdfrwt beam="1">  1        2 0.27995466E+00 0.22110527E+04</pdfrwt>
<pdfrwt beam="2">  1       -1 0.10332937E+00 0.22110527E+04</pdfrwt>
<totfact> 0.77307346E+00</totfact>
</mgrwt>
</event>
<event>
12    6  0.1521603E-007  0.1771194E+04  0.7818608E-02  0.8721770E-01
          2   -1    0    0  501    0  0.00000000000E+00  0.00000000000E+00  0.16000278051E+04  0.16000278051E+04  0.00000000000E+00 0. -1.
         -1   -1    0    0    0  501 -0.00000000000E+00 -0.00000000000E+00 -0.49016754375E+03  0.49016754375E+03  0.00000000000E+00 0.  1.
         24    2    1    2    0    0 -0.12760926830E+03  0.53682447920E+03  0.84487471074E+03  0.10124436256E+04  0.82244582320E+02 0.  0.
        254    2    1    2    0    0  0.12760926830E+03 -0.53682447920E+03  0.26498555065E+03  0.10777517233E+04  0.88705512129E+03 0.  0.
         23    2    4    4    0    0  0.68270036025E+02 -0.50467502716E+03 -0.23294241093E+03  0.56694609381E+03  0.88363033153E+02 0.  0.
         23    2    4    4    0    0  0.59339232277E+02 -0.32149452044E+02  0.49792796158E+03  0.51080562949E+03  0.91844457868E+02 0.  0.
          4    1    3    3  502    0 -0.12184920093E+03  0.49475181168E+03  0.73230604263E+03  0.89213156149E+03  0.00000000000E+00 0. -1.
         -3    1    3    3    0  502 -0.57600673729E+01  0.42072667519E+02  0.11256866811E+03  0.12031206410E+03  0.00000000000E+00 0.  1.
         11    1    5    5    0    0  0.33922579261E+02 -0.28000784825E+03 -0.17663006110E+03  0.33279620634E+03  0.00000000000E+00 0. -1.
        -11    1    5    5    0    0  0.34347456765E+02 -0.22466717891E+03 -0.56312349825E+02  0.23414988748E+03  0.00000000000E+00 0.  1.
          2    1    6    6  503    0  0.30752055849E+02  0.50425610054E+01  0.40969110228E+03  0.41087457410E+03  0.00000000000E+00 0. -1.
         -2    1    6    6    0  503  0.28587176428E+02 -0.37192013049E+02  0.88236859303E+02  0.99931055385E+02  0.00000000000E+00 0.  1.
<mgrwt>
<rscale>  0 0.17711936E+04</rscale>
<asrwt>0</asrwt>
<pdfrwt beam="1">  1        2 0.24615812E+00 0.17711936E+04</pdfrwt>
<pdfrwt beam="2">  1       -1 0.75410392E-01 0.17711936E+04</pdfrwt>
<totfact> 0.21248297E+01</totfact>
</mgrwt>
</event>
<event>
12    6  0.1521603E-007  0.4351202E+04  0.7818608E-02  0.7937218E-01
         -1   -1    0    0    0  501 -0.00000000000E+00  0.00000000000E+00  0.12511593255E+04  0.12511593255E+04  0.00000000000E+00 0.  1.
          2   -1    0    0  501    0  0.00000000000E+00 -0.00000000000E+00 -0.37830839688E+04  0.37830839688E+04  0.00000000000E+00 0. -1.
         24    2    1    2    0    0 -0.27788068753E+03  0.60752905465E+03  0.10678823296E+04  0.12618689491E+04  0.75042295749E+02 0.  0.
        254    2    1    2    0    0  0.27788068753E+03 -0.60752905465E+03 -0.35998069728E+04  0.37723743451E+04  0.90878420394E+03 0.  0.
         23    2    4    4    0    0 -0.18155090710E+03 -0.28768573728E+03 -0.25927086178E+04  0.26164239669E+04  0.88388814080E+02 0.  0.
         23    2    4    4    0    0  0.45943159463E+03 -0.31984331737E+03 -0.10070983550E+04  0.11559503782E+04  0.92720237181E+02 0.  0.
          4    1    3    3  502    0 -0.60877189706E+02  0.18124065738E+03  0.35816349040E+03  0.40599913050E+03  0.00000000000E+00 0. -1.
         -3    1    3    3    0  502 -0.21700349782E+03  0.42628839727E+03  0.70971883922E+03  0.85586981864E+03  0.00000000000E+00 0.  1.
         11    1    5    5    0    0  0.99844284498E+01 -0.19636723374E+02 -0.16282406762E+03  0.16430753699E+03  0.00000000000E+00 0. -1.
        -11    1    5    5    0    0 -0.19153533555E+03 -0.26804901391E+03 -0.24298845502E+04  0.24521164299E+04  0.00000000000E+00 0.  1.
          4    1    6    6  503    0  0.65943146942E+02 -0.46542449684E+02 -0.87526183422E+02  0.11906103912E+03  0.00000000000E+00 0. -1.
         -4    1    6    6    0  503  0.39348844769E+03 -0.27330086768E+03 -0.91957217159E+03  0.10368893391E+04  0.00000000000E+00 0.  1.
<mgrwt>
<rscale>  0 0.43512025E+04</rscale>
<asrwt>0</asrwt>
<pdfrwt beam="1">  1        2 0.58201291E+00 0.43512025E+04</pdfrwt>
<pdfrwt beam="2">  1       -1 0.19248605E+00 0.43512025E+04</pdfrwt>
<totfact> 0.74489689E-02</totfact>
</mgrwt>
</event>
<event>
12    6  0.1521603E-007  0.2627130E+04  0.7818608E-02  0.8359044E-01
          2   -1    0    0  501    0  0.00000000000E+00  0.00000000000E+00  0.44729925707E+04  0.44729925707E+04  0.00000000000E+00 0. -1.
         -1   -1    0    0    0  501 -0.00000000000E+00 -0.00000000000E+00 -0.38574926837E+03  0.38574926837E+03  0.00000000000E+00 0.  1.
         24    2    1    2    0    0 -0.93445602497E+03 -0.21399551509E+03  0.60763835324E+03  0.11377948729E+04  0.79691037595E+02 0.  0.
        254    2    1    2    0    0  0.93445602497E+03  0.21399551509E+03  0.34796049491E+04  0.37209469661E+04  0.90487213457E+03 0.  0.
         23    2    4    4    0    0  0.28044992564E+03  0.17273789370E+01  0.17789714804E+03  0.34725923674E+03  0.10142207644E+03 0.  0.
         23    2    4    4    0    0  0.65400609933E+03  0.21226813615E+03  0.33017078011E+04  0.33736877294E+04  0.87822276986E+02 0.  0.
          4    1    3    3  502    0 -0.27770141500E+03 -0.30444250054E+02  0.15755164464E+03  0.32072955739E+03  0.00000000000E+00 0. -1.
         -3    1    3    3    0  502 -0.65675460997E+03 -0.18355126504E+03  0.45008670860E+03  0.81706531555E+03  0.00000000000E+00 0.  1.
         11    1    5    5    0    0  0.70765641483E+02 -0.38445438258E+02  0.23864015655E+02  0.83995946215E+02  0.00000000000E+00 0. -1.
        -11    1    5    5    0    0  0.20968428416E+03  0.40172817195E+02  0.15403313239E+03  0.26326329052E+03  0.00000000000E+00 0.  1.
          3    1    6    6  503    0  0.42660145775E+03  0.14463425313E+03  0.19532711083E+04  0.20045388231E+04  0.00000000000E+00 0. -1.
         -3    1    6    6    0  503  0.22740464158E+03  0.67633883021E+02  0.13484366928E+04  0.13691489063E+04  0.00000000000E+00 0.  1.
<mgrwt>
<rscale>  0 0.26271305E+04</rscale>
<asrwt>0</asrwt>
<pdfrwt beam="1">  1        2 0.68815267E+00 0.26271305E+04</pdfrwt>
<pdfrwt beam="2">  1       -1 0.59346045E-01 0.26271305E+04</pdfrwt>
<totfact> 0.37911564E-01</totfact>
</mgrwt>
</event>
<event>
12    6  0.1521603E-007  0.1572831E+04  0.7818608E-02  0.8837415E-01
         -1   -1    0    0    0  501 -0.00000000000E+00  0.00000000000E+00  0.68581131827E+03  0.68581131827E+03  0.00000000000E+00 0.  1.
          2   -1    0    0  501    0  0.00000000000E+00 -0.00000000000E+00 -0.90177725232E+03  0.90177725232E+03  0.00000000000E+00 0. -1.
         24    2    1    2    0    0  0.69768453050E+02 -0.49289526057E+03  0.57924877079E+01  0.50414394294E+03  0.79461860992E+02 0.  0.
        254    2    1    2    0    0 -0.69768453050E+02  0.49289526057E+03 -0.22175842176E+03  0.10834446277E+04  0.93640914596E+03 0.  0.
         23    2    4    4    0    0  0.35072426135E+03  0.25400241527E+03 -0.36130987560E+03  0.57171956488E+03  0.93774731079E+02 0.  0.
         23    2    4    4    0    0 -0.42049271440E+03  0.23889284530E+03  0.13955145384E+03  0.51172506278E+03  0.92217228335E+02 0.  0.
          2    1    3    3  502    0 -0.63164935153E+01 -0.85839928813E+02  0.24890707076E+02  0.89598765436E+02  0.00000000000E+00 0. -1.
         -1    1    3    3    0  502  0.76084946565E+02 -0.40705533176E+03 -0.19098219368E+02  0.41454517750E+03  0.00000000000E+00 0.  1.
         11    1    5    5    0    0  0.35034414653E+03  0.25557701574E+03 -0.34186348228E+03  0.55220582440E+03  0.00000000000E+00 0.  1.
        -11    1    5    5    0    0  0.38011482146E+00 -0.15746004777E+01 -0.19446393326E+02  0.19513740475E+02  0.00000000000E+00 0. -1.
          1    1    6    6  503    0 -0.47658614264E+02  0.20213238362E+02 -0.12974548061E+02  0.53369067971E+02  0.00000000000E+00 0. -1.
         -1    1    6    6    0  503 -0.37283410014E+03  0.21867960694E+03  0.15252600191E+03  0.45835599481E+03  0.00000000000E+00 0.  1.
<mgrwt>
<rscale>  0 0.15728306E+04</rscale>
<asrwt>0</asrwt>
<pdfrwt beam="1">  1        2 0.13873496E+00 0.15728306E+04</pdfrwt>
<pdfrwt beam="2">  1       -1 0.10550943E+00 0.15728306E+04</pdfrwt>
<totfact> 0.27001468E+01</totfact>
</mgrwt>
</event>
<event>
12    6  0.1521603E-007  0.1930770E+04  0.7818608E-02  0.8639690E-01
          2   -1    0    0  501    0  0.00000000000E+00  0.00000000000E+00  0.15893418579E+04  0.15893418579E+04  0.00000000000E+00 0. -1.
         -1   -1    0    0    0  501 -0.00000000000E+00 -0.00000000000E+00 -0.58638627832E+03  0.58638627832E+03  0.00000000000E+00 0.  1.
         24    2    1    2    0    0 -0.15102310965E+02  0.22431096309E+03  0.11859593417E+04  0.12096674125E+04  0.79070858720E+02 0.  0.
        254    2    1    2    0    0  0.15102310965E+02 -0.22431096309E+03 -0.18300376207E+03  0.96606072378E+03  0.92154189114E+03 0.  0.
         23    2    4    4    0    0 -0.33760650932E+03 -0.18096184402E+03 -0.38211604253E+03  0.54893652675E+03  0.92700034095E+02 0.  0.
         23    2    4    4    0    0  0.35270882028E+03 -0.43349119068E+02  0.19911228046E+03  0.41712419702E+03  0.89801099580E+02 0.  0.
          4    1    3    3  502    0  0.11958964048E+01  0.19358098020E+03  0.11005582319E+04  0.11174540026E+04  0.00000000000E+00 0. -1.
         -3    1    3    3    0  502 -0.16298207370E+02  0.30729982891E+02  0.85401109777E+02  0.92213409888E+02  0.00000000000E+00 0.  1.
         11    1    5    5    0    0 -0.38918550992E+02 -0.20115448545E+02 -0.91327522113E+01  0.44751447400E+02  0.00000000000E+00 0.  1.
        -11    1    5    5    0    0 -0.29868795833E+03 -0.16084639548E+03 -0.37298329032E+03  0.50418507935E+03  0.00000000000E+00 0. -1.
          3    1    6    6  503    0  0.20457765366E+03  0.32203637362E+01  0.15190335914E+03  0.25482742717E+03  0.00000000000E+00 0. -1.
         -3    1    6    6    0  503  0.14813116662E+03 -0.46569482804E+02  0.47208921316E+02  0.16229676986E+03  0.00000000000E+00 0.  1.
<mgrwt>
<rscale>  0 0.19307701E+04</rscale>
<asrwt>0</asrwt>
<pdfrwt beam="1">  1        2 0.24451413E+00 0.19307701E+04</pdfrwt>
<pdfrwt beam="2">  1       -1 0.90213274E-01 0.19307701E+04</pdfrwt>
<totfact> 0.14459700E+01</totfact>
</mgrwt>
</event>
<event>
12    6  0.1521603E-007  0.2004352E+04  0.7818608E-02  0.8604589E-01
          2   -1    0    0  501    0  0.00000000000E+00  0.00000000000E+00  0.15760610734E+04  0.15760610734E+04  0.00000000000E+00 0. -1.
         -1   -1    0    0    0  501 -0.00000000000E+00 -0.00000000000E+00 -0.63725739171E+03  0.63725739171E+03  0.00000000000E+00 0.  1.
         24    2    1    2    0    0  0.30576209823E+03  0.62881240711E+03  0.80004782357E+03  0.10654410537E+04  0.78693168817E+02 0.  0.
        254    2    1    2    0    0 -0.30576209823E+03 -0.62881240711E+03  0.13875585808E+03  0.11478774114E+04  0.89970765218E+03 0.  0.
         23    2    4    4    0    0  0.11588584432E+02 -0.37111769166E+02  0.40714247088E+03  0.41905080210E+03  0.91252421584E+02 0.  0.
         23    2    4    4    0    0 -0.31735068266E+03 -0.59170063795E+03 -0.26838661280E+03  0.72882660930E+03  0.91300338240E+02 0.  0.
          4    1    3    3  502    0  0.63127715307E+01  0.18741019301E+02  0.68646057106E+01  0.20933220020E+02  0.00000000000E+00 0. -1.
         -3    1    3    3    0  502  0.29944932669E+03  0.61007138781E+03  0.79318321786E+03  0.10445078337E+04  0.00000000000E+00 0.  1.
         11    1    5    5    0    0  0.36385103118E+02 -0.21885083690E+02  0.36712590382E+03  0.36957308056E+03  0.00000000000E+00 0. -1.
        -11    1    5    5    0    0 -0.24796518686E+02 -0.15226685476E+02  0.40016567056E+02  0.49477721536E+02  0.00000000000E+00 0.  1.
          1    1    6    6  503    0 -0.29874958137E+03 -0.50580181620E+03 -0.21260770035E+03  0.62473100122E+03  0.00000000000E+00 0. -1.
         -1    1    6    6    0  503 -0.18601101285E+02 -0.85898821749E+02 -0.55778912452E+02  0.10409560808E+03  0.00000000000E+00 0.  1.
<mgrwt>
<rscale>  0 0.20043518E+04</rscale>
<asrwt>0</asrwt>
<pdfrwt beam="1">  1        2 0.24247093E+00 0.20043518E+04</pdfrwt>
<pdfrwt beam="2">  1       -1 0.98039600E-01 0.20043518E+04</pdfrwt>
<totfact> 0.12134442E+01</totfact>
</mgrwt>
</event>
<event>
12    6  0.1521603E-007  0.2058680E+04  0.7818608E-02  0.8579667E-01
         -1   -1    0    0    0  501 -0.00000000000E+00  0.00000000000E+00  0.99421126427E+03  0.99421126427E+03  0.00000000000E+00 0.  1.
          2   -1    0    0  501    0  0.00000000000E+00 -0.00000000000E+00 -0.10657102101E+04  0.10657102101E+04  0.00000000000E+00 0. -1.
         24    2    1    2    0    0  0.54753126200E+03 -0.19455689112E+03 -0.59454359898E+03  0.83510918764E+03  0.79261576008E+02 0.  0.
        254    2    1    2    0    0 -0.54753126200E+03  0.19455689112E+03  0.52304465317E+03  0.12248122867E+04  0.94283962672E+03 0.  0.
         23    2    4    4    0    0 -0.26402997263E+03 -0.17194078366E+00 -0.24931175755E+03  0.37443797433E+03  0.91299442257E+02 0.  0.
         23    2    4    4    0    0 -0.28350128938E+03  0.19472883191E+03  0.77235641073E+03  0.85037431238E+03  0.91157813252E+02 0.  0.
          4    1    3    3  502    0  0.45258820932E+03 -0.14476321886E+03 -0.52072545559E+03  0.70494501690E+03  0.00000000000E+00 0. -1.
         -3    1    3    3    0  502  0.94943052683E+02 -0.49793672265E+02 -0.73818143391E+02  0.13016417074E+03  0.00000000000E+00 0.  1.
         11    1    5    5    0    0 -0.22124740929E+03  0.19125070095E+02 -0.16054377885E+03  0.27402643915E+03  0.00000000000E+00 0. -1.
        -11    1    5    5    0    0 -0.42782563333E+02 -0.19297010878E+02 -0.88767978702E+02  0.10041153518E+03  0.00000000000E+00 0.  1.
          4    1    6    6  503    0 -0.27580806644E+03  0.17019850156E+03  0.66217736673E+03  0.73723570482E+03  0.00000000000E+00 0. -1.
         -4    1    6    6    0  503 -0.76932229354E+01  0.24530330343E+02  0.11017904400E+03  0.11313860757E+03  0.00000000000E+00 0.  1.
<mgrwt>
<rscale>  0 0.20586803E+04</rscale>
<asrwt>0</asrwt>
<pdfrwt beam="1">  1        2 0.16395542E+00 0.20586803E+04</pdfrwt>
<pdfrwt beam="2">  1       -1 0.15295558E+00 0.20586803E+04</pdfrwt>
<totfact> 0.79856918E+00</totfact>
</mgrwt>
</event>
<event>
12    6  0.1521603E-007  0.2315071E+04  0.7818608E-02  0.8472003E-01
         -1   -1    0    0    0  501 -0.00000000000E+00  0.00000000000E+00  0.11511084558E+04  0.11511084558E+04  0.00000000000E+00 0.  1.
          2   -1    0    0  501    0  0.00000000000E+00 -0.00000000000E+00 -0.11639982838E+04  0.11639982838E+04  0.00000000000E+00 0. -1.
         24    2    1    2    0    0  0.64391548294E+03 -0.73087241283E+03 -0.94942208557E+02  0.98193346426E+03  0.79860329640E+02 0.  0.
        254    2    1    2    0    0 -0.64391548294E+03  0.73087241283E+03  0.82052380506E+02  0.13331732753E+04  0.90654109438E+03 0.  0.
         23    2    4    4    0    0 -0.47507952445E+03  0.60963400913E+02  0.33531881705E+03  0.59165114632E+03  0.90527780649E+02 0.  0.
         23    2    4    4    0    0 -0.16883595849E+03  0.66990901192E+03 -0.25326643655E+03  0.74152212898E+03  0.91801496439E+02 0.  0.
          2    1    3    3  502    0  0.24839579490E+03 -0.24030167923E+03 -0.60275928349E+02  0.35082553428E+03  0.00000000000E+00 0. -1.
         -1    1    3    3    0  502  0.39551968804E+03 -0.49057073360E+03 -0.34666280208E+02  0.63110792998E+03  0.00000000000E+00 0.  1.
         11    1    5    5    0    0 -0.26522120662E+03 -0.86145240111E+01  0.20173493713E+03  0.33333689163E+03  0.00000000000E+00 0. -1.
        -11    1    5    5    0    0 -0.20985831783E+03  0.69577924924E+02  0.13358387993E+03  0.25831425468E+03  0.00000000000E+00 0.  1.
          2    1    6    6  503    0 -0.11058895470E+03  0.46479259720E+03 -0.21896395120E+03  0.52555426669E+03  0.00000000000E+00 0.  1.
         -2    1    6    6    0  503 -0.58247003793E+02  0.20511641473E+03 -0.34302485348E+02  0.21596786229E+03  0.00000000000E+00 0. -1.
<mgrwt>
<rscale>  0 0.23150709E+04</rscale>
<asrwt>0</asrwt>
<pdfrwt beam="1">  1        2 0.17907666E+00 0.23150709E+04</pdfrwt>
<pdfrwt beam="2">  1       -1 0.17709361E+00 0.23150709E+04</pdfrwt>
<totfact> 0.44886565E+00</totfact>
</mgrwt>
</event>
<event>
12    6  0.1521603E-007  0.1581949E+04  0.7818608E-02  0.8831715E-01
          2   -1    0    0  501    0  0.00000000000E+00  0.00000000000E+00  0.46511574832E+03  0.46511574832E+03  0.00000000000E+00 0. -1.
         -1   -1    0    0    0  501 -0.00000000000E+00 -0.00000000000E+00 -0.13451296560E+04  0.13451296560E+04  0.00000000000E+00 0.  1.
         24    2    1    2    0    0 -0.28299896895E+02  0.30142637494E+03 -0.80606067751E+03  0.86433909899E+03  0.75428897275E+02 0.  0.
        254    2    1    2    0    0  0.28299896895E+02 -0.30142637494E+03 -0.73953230153E+02  0.94590630530E+03  0.89309065301E+03 0.  0.
         23    2    4    4    0    0  0.30228841437E+03 -0.42034269864E+03  0.16520961374E+03  0.55172221720E+03  0.95062709346E+02 0.  0.
         23    2    4    4    0    0 -0.27398851748E+03  0.11891632370E+03 -0.23916284390E+03  0.39418408811E+03  0.94717631215E+02 0.  0.
          4    1    3    3  502    0 -0.32868153197E+02  0.14718515508E+03 -0.30831225173E+03  0.34322038101E+03  0.00000000000E+00 0. -1.
         -3    1    3    3    0  502  0.45682563020E+01  0.15424121986E+03 -0.49774842578E+03  0.52111871798E+03  0.00000000000E+00 0.  1.
         11    1    5    5    0    0  0.75343294728E+02 -0.96005928251E+02 -0.18714715917E+01  0.12205430236E+03  0.00000000000E+00 0. -1.
        -11    1    5    5    0    0  0.22694511964E+03 -0.32433677039E+03  0.16708108534E+03  0.42966791483E+03  0.00000000000E+00 0.  1.
          2    1    6    6  503    0 -0.22857805200E+02  0.13388803862E+02 -0.66723913548E+02  0.71790110507E+02  0.00000000000E+00 0. -1.
         -2    1    6    6    0  503 -0.25113071227E+03  0.10552751984E+03 -0.17243893035E+03  0.32239397760E+03  0.00000000000E+00 0.  1.
<mgrwt>
<rscale>  0 0.15819494E+04</rscale>
<asrwt>0</asrwt>
<pdfrwt beam="1">  1        2 0.71556269E-01 0.15819494E+04</pdfrwt>
<pdfrwt beam="2">  1       -1 0.20694302E+00 0.15819494E+04</pdfrwt>
<totfact> 0.99133814E+00</totfact>
</mgrwt>
</event>
<event>
12    6  0.1521603E-007  0.1417302E+04  0.7818608E-02  0.8941389E-01
         -1   -1    0    0    0  501 -0.00000000000E+00  0.00000000000E+00  0.26431102591E+03  0.26431102591E+03  0.00000000000E+00 0.  1.
          2   -1    0    0  501    0  0.00000000000E+00 -0.00000000000E+00 -0.18999809657E+04  0.18999809657E+04  0.00000000000E+00 0. -1.
         24    2    1    2    0    0  0.14773258299E+03  0.27184217993E+03 -0.63648688630E+02  0.32575541913E+03  0.79638876583E+02 0.  0.
        254    2    1    2    0    0 -0.14773258299E+03 -0.27184217993E+03 -0.15720212512E+04  0.18385365725E+04  0.90179977124E+03 0.  0.
         23    2    4    4    0    0 -0.42487437500E+03  0.97155875239E+02 -0.51237144019E+03  0.67875812975E+03  0.90722694757E+02 0.  0.
         23    2    4    4    0    0  0.27714179201E+03 -0.36899805517E+03 -0.10596498110E+04  0.11597784428E+04  0.96235007992E+02 0.  0.
          4    1    3    3  502    0  0.43261093850E+02  0.24879738863E+02  0.10260020638E+01  0.49915692194E+02  0.00000000000E+00 0. -1.
         -3    1    3    3    0  502  0.10447148914E+03  0.24696244107E+03 -0.64674690694E+02  0.27583972694E+03  0.00000000000E+00 0.  1.
         11    1    5    5    0    0 -0.16597326720E+02 -0.84754079312E+01 -0.55849387621E+01  0.19454956562E+02  0.00000000000E+00 0.  1.
        -11    1    5    5    0    0 -0.40827704828E+03  0.10563128317E+03 -0.50678650143E+03  0.65930317318E+03  0.00000000000E+00 0. -1.
          3    1    6    6  503    0  0.13970526777E+03 -0.26123494673E+03 -0.64007253436E+03  0.70530426660E+03  0.00000000000E+00 0. -1.
         -3    1    6    6    0  503  0.13743652424E+03 -0.10776310843E+03 -0.41957727664E+03  0.45447417617E+03  0.00000000000E+00 0.  1.
<mgrwt>
<rscale>  0 0.14173015E+04</rscale>
<asrwt>0</asrwt>
<pdfrwt beam="1">  1        2 0.29230477E+00 0.14173015E+04</pdfrwt>
<pdfrwt beam="2">  1       -1 0.40663234E-01 0.14173015E+04</pdfrwt>
<totfact> 0.49708656E+01</totfact>
</mgrwt>
</event>
<event>
12    6  0.1521603E-007  0.2247121E+04  0.7818608E-02  0.8499067E-01
         -1   -1    0    0    0  501 -0.00000000000E+00  0.00000000000E+00  0.56955462283E+03  0.56955462283E+03  0.00000000000E+00 0.  1.
          2   -1    0    0  501    0  0.00000000000E+00 -0.00000000000E+00 -0.22164474320E+04  0.22164474320E+04  0.00000000000E+00 0. -1.
         24    2    1    2    0    0  0.34083487577E+03 -0.53808340391E+03  0.16499298633E+03  0.66405216447E+03  0.89668441986E+02 0.  0.
        254    2    1    2    0    0 -0.34083487577E+03  0.53808340391E+03 -0.18118857955E+04  0.21219498904E+04  0.90224112033E+03 0.  0.
         23    2    4    4    0    0 -0.12755776570E+03 -0.22550184433E+03 -0.26718788839E+03  0.38319133785E+03  0.91236880251E+02 0.  0.
         23    2    4    4    0    0 -0.21327711006E+03  0.76358524824E+03 -0.15446979071E+04  0.17387585525E+04  0.92952260469E+02 0.  0.
          2    1    3    3  502    0 -0.25964696232E+00 -0.21615855396E+02 -0.50121272246E+01  0.22190854881E+02  0.00000000000E+00 0. -1.
         -1    1    3    3    0  502  0.34109452273E+03 -0.51646754852E+03  0.17000511356E+03  0.64186130958E+03  0.00000000000E+00 0.  1.
         11    1    5    5    0    0 -0.47390068661E+02 -0.15775508138E+03 -0.19763551249E+03  0.25727860405E+03  0.00000000000E+00 0. -1.
        -11    1    5    5    0    0 -0.80167697042E+02 -0.67746762951E+02 -0.69552375903E+02  0.12591273380E+03  0.00000000000E+00 0.  1.
          1    1    6    6  503    0 -0.14072048033E+03  0.33189059343E+03 -0.69908573468E+03  0.78655863356E+03  0.00000000000E+00 0. -1.
         -1    1    6    6    0  503 -0.72556629730E+02  0.43169465481E+03 -0.84561217245E+03  0.95219991898E+03  0.00000000000E+00 0.  1.
<mgrwt>
<rscale>  0 0.22471207E+04</rscale>
<asrwt>0</asrwt>
<pdfrwt beam="1">  1        2 0.34099191E+00 0.22471207E+04</pdfrwt>
<pdfrwt beam="2">  1       -1 0.87623789E-01 0.22471207E+04</pdfrwt>
<totfact> 0.67098821E+00</totfact>
</mgrwt>
</event>
<event>
12    6  0.1521603E-007  0.3747638E+04  0.7818608E-02  0.8057486E-01
          2   -1    0    0  501    0  0.00000000000E+00  0.00000000000E+00  0.17380855145E+04  0.17380855145E+04  0.00000000000E+00 0. -1.
         -1   -1    0    0    0  501 -0.00000000000E+00 -0.00000000000E+00 -0.20201524858E+04  0.20201524858E+04  0.00000000000E+00 0.  1.
         24    2    1    2    0    0  0.31075462835E+03 -0.12985187094E+04 -0.13461670619E+04  0.18977543415E+04  0.81157280360E+02 0.  0.
        254    2    1    2    0    0 -0.31075462835E+03  0.12985187094E+04  0.10641000906E+04  0.18604836589E+04  0.73916923942E+03 0.  0.
         23    2    4    4    0    0 -0.56354904615E+02  0.12386655626E+04  0.80167728819E+03  0.14792738620E+04  0.89980182422E+02 0.  0.
         23    2    4    4    0    0 -0.25439972373E+03  0.59853146790E+02  0.26242280241E+03  0.38120979686E+03  0.90297084014E+02 0.  0.
          2    1    3    3  502    0  0.67118543845E+02 -0.42255956003E+03 -0.45710213447E+03  0.62610210193E+03  0.00000000000E+00 0. -1.
         -1    1    3    3    0  502  0.24363608450E+03 -0.87595914937E+03 -0.88906492747E+03  0.12716522395E+04  0.00000000000E+00 0.  1.
         11    1    5    5    0    0  0.16770213915E+02  0.22576884551E+03  0.12069842551E+03  0.25655588397E+03  0.00000000000E+00 0. -1.
        -11    1    5    5    0    0 -0.73125118530E+02  0.10128967171E+04  0.68097886268E+03  0.12227179781E+04  0.00000000000E+00 0.  1.
          4    1    6    6  503    0 -0.24074346529E+03  0.72305485358E+02  0.21665225362E+03  0.33184890883E+03  0.00000000000E+00 0.  1.
         -4    1    6    6    0  503 -0.13656258439E+02 -0.12452338568E+02  0.45770548791E+02  0.49360888029E+02  0.00000000000E+00 0. -1.
<mgrwt>
<rscale>  0 0.37476381E+04</rscale>
<asrwt>0</asrwt>
<pdfrwt beam="1">  1        2 0.26739777E+00 0.37476381E+04</pdfrwt>
<pdfrwt beam="2">  1       -1 0.31079269E+00 0.37476381E+04</pdfrwt>
<totfact> 0.24051382E-01</totfact>
</mgrwt>
</event>
<event>
12    6  0.1521603E-007  0.2150226E+04  0.7818608E-02  0.8539435E-01
          2   -1    0    0  501    0  0.00000000000E+00  0.00000000000E+00  0.25259471944E+04  0.25259471944E+04  0.00000000000E+00 0. -1.
         -1   -1    0    0    0  501 -0.00000000000E+00 -0.00000000000E+00 -0.45759791702E+03  0.45759791702E+03  0.00000000000E+00 0.  1.
         24    2    1    2    0    0 -0.47594794643E+03  0.69218588381E+03  0.45447643766E+03  0.95938553580E+03  0.90686429299E+02 0.  0.
        254    2    1    2    0    0  0.47594794643E+03 -0.69218588381E+03  0.16138728397E+04  0.20241595756E+04  0.88712383542E+03 0.  0.
         23    2    4    4    0    0  0.13006234547E+03 -0.59666748578E+03  0.15214967390E+04  0.16424151219E+04  0.98218141460E+02 0.  0.
         23    2    4    4    0    0  0.34588560096E+03 -0.95518398032E+02  0.92376100694E+02  0.38174445378E+03  0.91841552153E+02 0.  0.
          2    1    3    3  502    0 -0.33791596732E+03  0.49204470713E+03  0.36859210590E+03  0.70153783598E+03  0.00000000000E+00 0. -1.
         -1    1    3    3    0  502 -0.13803197911E+03  0.20014117668E+03  0.85884331766E+02  0.25784769982E+03  0.00000000000E+00 0.  1.
         11    1    5    5    0    0  0.11816039179E+03 -0.55875103824E+03  0.13401635464E+04  0.14567782714E+04  0.00000000000E+00 0. -1.
        -11    1    5    5    0    0  0.11901953675E+02 -0.37916447541E+02  0.18133319268E+03  0.18563685049E+03  0.00000000000E+00 0.  1.
          4    1    6    6  503    0  0.21126863097E+03 -0.54928179489E+02  0.10172454713E+03  0.24083069327E+03  0.00000000000E+00 0. -1.
         -4    1    6    6    0  503  0.13461696999E+03 -0.40590218543E+02 -0.93484464349E+01  0.14091376051E+03  0.00000000000E+00 0.  1.
<mgrwt>
<rscale>  0 0.21502262E+04</rscale>
<asrwt>0</asrwt>
<pdfrwt beam="1">  1        2 0.38860725E+00 0.21502262E+04</pdfrwt>
<pdfrwt beam="2">  1       -1 0.70399681E-01 0.21502262E+04</pdfrwt>
<totfact> 0.71631578E+00</totfact>
</mgrwt>
</event>
<event>
12    6  0.1521603E-007  0.1748960E+04  0.7818608E-02  0.8733923E-01
          2   -1    0    0  501    0  0.00000000000E+00  0.00000000000E+00  0.36867698128E+04  0.36867698128E+04  0.00000000000E+00 0. -1.
         -1   -1    0    0    0  501 -0.00000000000E+00 -0.00000000000E+00 -0.20742142587E+03  0.20742142587E+03  0.00000000000E+00 0.  1.
         24    2    1    2    0    0  0.18965938892E+01 -0.34931436906E+03  0.89716090764E+02  0.36964940791E+03  0.81040621450E+02 0.  0.
        254    2    1    2    0    0 -0.18965938892E+01  0.34931436906E+03  0.33896322962E+04  0.35245418308E+04  0.90042428228E+03 0.  0.
         23    2    4    4    0    0  0.14455649645E+03  0.57384028694E+03  0.15294133454E+04  0.16428672945E+04  0.98582506984E+02 0.  0.
         23    2    4    4    0    0 -0.14645309034E+03 -0.22452591788E+03  0.18602189508E+04  0.18816745363E+04  0.91783005825E+02 0.  0.
          2    1    3    3  502    0  0.31677155836E+02 -0.79392493739E+02  0.69682342523E+01  0.85762267650E+02  0.00000000000E+00 0. -1.
         -3    1    3    3    0  502 -0.29780561947E+02 -0.26992187532E+03  0.82747856512E+02  0.28388714026E+03  0.00000000000E+00 0.  1.
         11    1    5    5    0    0  0.13805401471E+03  0.49555464319E+03  0.13994895365E+04  0.14910413402E+04  0.00000000000E+00 0. -1.
        -11    1    5    5    0    0  0.65024817441E+01  0.78285643752E+02  0.12992380890E+03  0.15182595432E+03  0.00000000000E+00 0.  1.
          1    1    6    6  503    0 -0.13786805620E+03 -0.19634025091E+03  0.17822374143E+04  0.17983123466E+04  0.00000000000E+00 0. -1.
         -1    1    6    6    0  503 -0.85850341481E+01 -0.28185666973E+02  0.77981536497E+02  0.83362189682E+02  0.00000000000E+00 0.  1.
<mgrwt>
<rscale>  0 0.17489597E+04</rscale>
<asrwt>0</asrwt>
<pdfrwt beam="1">  1        2 0.56719531E+00 0.17489597E+04</pdfrwt>
<pdfrwt beam="2">  1       -1 0.31910991E-01 0.17489597E+04</pdfrwt>
<totfact> 0.59623141E+00</totfact>
</mgrwt>
</event>
<event>
12    6  0.1521603E-007  0.1162087E+04  0.7818608E-02  0.9146705E-01
          2   -1    0    0  501    0  0.00000000000E+00  0.00000000000E+00  0.16894419936E+04  0.16894419936E+04  0.00000000000E+00 0. -1.
         -1   -1    0    0    0  501 -0.00000000000E+00 -0.00000000000E+00 -0.19983608560E+03  0.19983608560E+03  0.00000000000E+00 0.  1.
         24    2    1    2    0    0  0.18950606271E+03 -0.71844345077E+02  0.43573586973E+03  0.48717115630E+03  0.79973931009E+02 0.  0.
        254    2    1    2    0    0 -0.18950606271E+03  0.71844345077E+02  0.10538700383E+04  0.14021069229E+04  0.90232344974E+03 0.  0.
         23    2    4    4    0    0  0.38029833281E+02  0.59366857432E+02  0.11366561928E+04  0.11427791896E+04  0.94796010671E+02 0.  0.
         23    2    4    4    0    0 -0.22753589599E+03  0.12477487645E+02 -0.82786154501E+02  0.25932773330E+03  0.92027464478E+02 0.  0.
          4    1    3    3  502    0  0.35389206679E+02 -0.23857705906E+02  0.17813188959E+03  0.18317356843E+03  0.00000000000E+00 0. -1.
         -1    1    3    3    0  502  0.15411685603E+03 -0.47986639171E+02  0.25760398013E+03  0.30399758787E+03  0.00000000000E+00 0.  1.
         11    1    5    5    0    0  0.38769663470E+02  0.80966874111E+02  0.10330291018E+04  0.10369222953E+04  0.00000000000E+00 0. -1.
        -11    1    5    5    0    0 -0.73983018847E+00 -0.21600016678E+02  0.10362709101E+03  0.10585689425E+03  0.00000000000E+00 0.  1.
          3    1    6    6  503    0 -0.23579503119E+03  0.71018361916E+01 -0.79249120166E+02  0.24885770203E+03  0.00000000000E+00 0. -1.
         -3    1    6    6    0  503  0.82591352032E+01  0.53756514533E+01 -0.35370343345E+01  0.10470031267E+02  0.00000000000E+00 0.  1.
<mgrwt>
<rscale>  0 0.11620869E+04</rscale>
<asrwt>0</asrwt>
<pdfrwt beam="1">  1        2 0.25991414E+00 0.11620869E+04</pdfrwt>
<pdfrwt beam="2">  1       -1 0.30744014E-01 0.11620869E+04</pdfrwt>
<totfact> 0.10946309E+02</totfact>
</mgrwt>
</event>
<event>
12    6  0.1521603E-007  0.1319866E+04  0.7818608E-02  0.9013958E-01
          2   -1    0    0  501    0  0.00000000000E+00  0.00000000000E+00  0.56941249604E+03  0.56941249604E+03  0.00000000000E+00 0. -1.
         -1   -1    0    0    0  501 -0.00000000000E+00 -0.00000000000E+00 -0.76484358133E+03  0.76484358133E+03  0.00000000000E+00 0.  1.
         24    2    1    2    0    0  0.29551151833E+03  0.10050955707E+03 -0.21244070328E+03  0.38563767313E+03  0.78461034904E+02 0.  0.
        254    2    1    2    0    0 -0.29551151833E+03 -0.10050955707E+03  0.17009617997E+02  0.94861840424E+03  0.89563291656E+03 0.  0.
         23    2    4    4    0    0 -0.78053181703E+02  0.94003110298E+02 -0.40192299310E+03  0.43009695997E+03  0.92262769689E+02 0.  0.
         23    2    4    4    0    0 -0.21745833663E+03 -0.19451266737E+03  0.41893261110E+03  0.51852144427E+03  0.90755989281E+02 0.  0.
          2    1    3    3  502    0  0.81344437174E+02  0.36524772936E+02 -0.10464054780E+03  0.13747952845E+03  0.00000000000E+00 0. -1.
         -1    1    3    3    0  502  0.21416708116E+03  0.63984784133E+02 -0.10780015548E+03  0.24815814469E+03  0.00000000000E+00 0.  1.
         11    1    5    5    0    0 -0.54153649343E+02  0.11104069430E+03 -0.31548984498E+03  0.33881631574E+03  0.00000000000E+00 0. -1.
        -11    1    5    5    0    0 -0.23899532361E+02 -0.17037584007E+02 -0.86433148119E+02  0.91280644222E+02  0.00000000000E+00 0.  1.
          1    1    6    6  503    0 -0.14778563946E+03 -0.15789972130E+03  0.36087546361E+03  0.42071845390E+03  0.00000000000E+00 0. -1.
         -1    1    6    6    0  503 -0.69672697168E+02 -0.36612946070E+02  0.58057147485E+02  0.97802990367E+02  0.00000000000E+00 0.  1.
<mgrwt>
<rscale>  0 0.13198659E+04</rscale>
<asrwt>0</asrwt>
<pdfrwt beam="1">  1        2 0.87601922E-01 0.13198659E+04</pdfrwt>
<pdfrwt beam="2">  1       -1 0.11766824E+00 0.13198659E+04</pdfrwt>
<totfact> 0.38397229E+01</totfact>
</mgrwt>
</event>
<event>
12    6  0.1521603E-007  0.2031653E+04  0.7818608E-02  0.8591963E-01
          2   -1    0    0  501    0  0.00000000000E+00  0.00000000000E+00  0.16537936731E+04  0.16537936731E+04  0.00000000000E+00 0. -1.
         -1   -1    0    0    0  501 -0.00000000000E+00 -0.00000000000E+00 -0.62396142971E+03  0.62396142971E+03  0.00000000000E+00 0.  1.
         24    2    1    2    0    0 -0.68172144766E+03 -0.30130651939E+03  0.77086538927E+03  0.10751332964E+04  0.78411771523E+02 0.  0.
        254    2    1    2    0    0  0.68172144766E+03  0.30130651939E+03  0.25896685412E+03  0.12026218064E+04  0.90758229753E+03 0.  0.
         23    2    4    4    0    0  0.20152882920E+03  0.57027917136E+03  0.19583615421E+03  0.64221125816E+03  0.90836658450E+02 0.  0.
         23    2    4    4    0    0  0.48019261846E+03 -0.26897265198E+03  0.63130699909E+02  0.56041054821E+03  0.84517802498E+02 0.  0.
          4    1    3    3  502    0 -0.59937351702E+03 -0.27158897404E+03  0.71270035396E+03  0.97002627710E+03  0.00000000000E+00 0. -1.
         -3    1    3    3    0  502 -0.82347930641E+02 -0.29717545343E+02  0.58165035306E+02  0.10510701934E+03  0.00000000000E+00 0.  1.
         11    1    5    5    0    0  0.44711685034E+02  0.25715467480E+03  0.95321890272E+02  0.27787393601E+03  0.00000000000E+00 0.  1.
        -11    1    5    5    0    0  0.15681714417E+03  0.31312449656E+03  0.10051426394E+03  0.36433732214E+03  0.00000000000E+00 0. -1.
          4    1    6    6  503    0  0.96400582004E+02 -0.94273397588E+02  0.23525756901E+02  0.13687222852E+03  0.00000000000E+00 0. -1.
         -4    1    6    6    0  503  0.38379203646E+03 -0.17469925439E+03  0.39604943008E+02  0.42353831969E+03  0.00000000000E+00 0.  1.
<mgrwt>
<rscale>  0 0.20316530E+04</rscale>
<asrwt>0</asrwt>
<pdfrwt beam="1">  1        2 0.25442979E+00 0.20316530E+04</pdfrwt>
<pdfrwt beam="2">  1       -1 0.95994067E-01 0.20316530E+04</pdfrwt>
<totfact> 0.11487899E+01</totfact>
</mgrwt>
</event>
<event>
12    6  0.1521603E-007  0.2932934E+04  0.7818608E-02  0.8263146E-01
         -1   -1    0    0    0  501 -0.00000000000E+00  0.00000000000E+00  0.13159382026E+04  0.13159382026E+04  0.00000000000E+00 0.  1.
          2   -1    0    0  501    0  0.00000000000E+00 -0.00000000000E+00 -0.16342144785E+04  0.16342144785E+04  0.00000000000E+00 0. -1.
         24    2    1    2    0    0  0.63790253617E+03 -0.97036307787E+03  0.50238073892E+03  0.12678055737E+04  0.80127505893E+02 0.  0.
        254    2    1    2    0    0 -0.63790253617E+03  0.97036307787E+03 -0.82065701483E+03  0.16823471074E+04  0.89904933424E+03 0.  0.
         23    2    4    4    0    0  0.10891658792E+03  0.61777687456E+03 -0.41562926984E+03  0.75803667296E+03  0.91437507260E+02 0.  0.
         23    2    4    4    0    0 -0.74681912409E+03  0.35258620331E+03 -0.40502774498E+03  0.92431043449E+03  0.90810077820E+02 0.  0.
          4    1    3    3  502    0  0.17270516620E+03 -0.20611965700E+03  0.10188036536E+03  0.28756216072E+03  0.00000000000E+00 0. -1.
         -3    1    3    3    0  502  0.46519736998E+03 -0.76424342087E+03  0.40050037356E+03  0.98024341293E+03  0.00000000000E+00 0.  1.
         11    1    5    5    0    0  0.92797076740E+02  0.31059281683E+03 -0.18191543572E+03  0.37171551093E+03  0.00000000000E+00 0. -1.
        -11    1    5    5    0    0  0.16119511176E+02  0.30718405773E+03 -0.23371383413E+03  0.38632116202E+03  0.00000000000E+00 0.  1.
          2    1    6    6  503    0 -0.71509195328E+02  0.69832368893E+01 -0.43144308432E+02  0.83807887242E+02  0.00000000000E+00 0. -1.
         -2    1    6    6    0  503 -0.67530992876E+03  0.34560296643E+03 -0.36188343655E+03  0.84050254725E+03  0.00000000000E+00 0.  1.
<mgrwt>
<rscale>  0 0.29329339E+04</rscale>
<asrwt>0</asrwt>
<pdfrwt beam="1">  1        2 0.25141761E+00 0.29329339E+04</pdfrwt>
<pdfrwt beam="2">  1       -1 0.20245203E+00 0.29329339E+04</pdfrwt>
<totfact> 0.15137234E+00</totfact>
</mgrwt>
</event>
<event>
12    6  0.1521603E-007  0.1921112E+04  0.7818608E-02  0.8644418E-01
          2   -1    0    0  501    0  0.00000000000E+00  0.00000000000E+00  0.14208161239E+04  0.14208161239E+04  0.00000000000E+00 0. -1.
         -1   -1    0    0    0  501 -0.00000000000E+00 -0.00000000000E+00 -0.64939299412E+03  0.64939299412E+03  0.00000000000E+00 0.  1.
         24    2    1    2    0    0  0.61717157071E+01  0.63124424982E+03 -0.13243703134E+03  0.64958466746E+03  0.76897853822E+02 0.  0.
        254    2    1    2    0    0 -0.61717157071E+01 -0.63124424982E+03  0.90386016112E+03  0.14206244506E+04  0.89593707685E+03 0.  0.
         23    2    4    4    0    0  0.35985009570E+03 -0.51718772942E+03  0.78078452355E+03  0.10076301173E+04  0.93374205569E+02 0.  0.
         23    2    4    4    0    0 -0.36602181140E+03 -0.11405652040E+03  0.12307563758E+03  0.41299433325E+03  0.91846885986E+02 0.  0.
          4    1    3    3  502    0 -0.12618712621E+02  0.34763868841E+03 -0.10829147027E+03  0.36433354514E+03  0.00000000000E+00 0. -1.
         -3    1    3    3    0  502  0.18790428328E+02  0.28360556141E+03 -0.24145561066E+02  0.28525112231E+03  0.00000000000E+00 0.  1.
         11    1    5    5    0    0  0.32005182105E+03 -0.42490966425E+03  0.60907029945E+03  0.80867052661E+03  0.00000000000E+00 0. -1.
        -11    1    5    5    0    0  0.39798274651E+02 -0.92278065169E+02  0.17171422409E+03  0.19895959070E+03  0.00000000000E+00 0.  1.
          4    1    6    6  503    0 -0.32249296826E+03 -0.96147612990E+02  0.13785136313E+03  0.36366066102E+03  0.00000000000E+00 0. -1.
         -4    1    6    6    0  503 -0.43528843148E+02 -0.17908907408E+02 -0.14775725550E+02  0.49333672232E+02  0.00000000000E+00 0.  1.
<mgrwt>
<rscale>  0 0.19211122E+04</rscale>
<asrwt>0</asrwt>
<pdfrwt beam="1">  1        2 0.21858710E+00 0.19211122E+04</pdfrwt>
<pdfrwt beam="2">  1       -1 0.99906615E-01 0.19211122E+04</pdfrwt>
<totfact> 0.14329566E+01</totfact>
</mgrwt>
</event>
<event>
12    6  0.1521603E-007  0.1199337E+04  0.7818608E-02  0.9113437E-01
         -1   -1    0    0    0  501 -0.00000000000E+00  0.00000000000E+00  0.43805519944E+03  0.43805519944E+03  0.00000000000E+00 0.  1.
          2   -1    0    0  501    0  0.00000000000E+00 -0.00000000000E+00 -0.82090660770E+03  0.82090660770E+03  0.00000000000E+00 0. -1.
         24    2    1    2    0    0  0.68116102665E+01 -0.66740207171E+02 -0.34597215969E+03  0.36124820688E+03  0.79390669522E+02 0.  0.
        254    2    1    2    0    0 -0.68116102665E+01  0.66740207171E+02 -0.36879248574E+02  0.89771360026E+03  0.89444338883E+03 0.  0.
         23    2    4    4    0    0  0.36345689455E+03  0.68537660113E+01 -0.25414122454E+03  0.45476496064E+03  0.10037688532E+03 0.  0.
         23    2    4    4    0    0 -0.37026850482E+03  0.59886441160E+02  0.21726197597E+03  0.44294863962E+03  0.91189800113E+02 0.  0.
          4    1    3    3  502    0 -0.91377928832E+01 -0.57375140676E+02 -0.10866438981E+03  0.12322075977E+03  0.00000000000E+00 0. -1.
         -3    1    3    3    0  502  0.15949403150E+02 -0.93650664944E+01 -0.23730776988E+03  0.23802744711E+03  0.00000000000E+00 0.  1.
         11    1    5    5    0    0  0.36624041840E+03  0.92621548849E+01 -0.25900436648E+03  0.44866590403E+03  0.00000000000E+00 0. -1.
        -11    1    5    5    0    0 -0.27835238549E+01 -0.24083888736E+01  0.48631419340E+01  0.60990566063E+01  0.00000000000E+00 0.  1.
          2    1    6    6  503    0 -0.35427293175E+03  0.41324488689E+02  0.21873004496E+03  0.41840154888E+03  0.00000000000E+00 0. -1.
         -2    1    6    6    0  503 -0.15995573070E+02  0.18561952471E+02 -0.14680689916E+01  0.24547090743E+02  0.00000000000E+00 0.  1.
<mgrwt>
<rscale>  0 0.11993372E+04</rscale>
<asrwt>0</asrwt>
<pdfrwt beam="1">  1        2 0.12629332E+00 0.11993372E+04</pdfrwt>
<pdfrwt beam="2">  1       -1 0.67393108E-01 0.11993372E+04</pdfrwt>
<totfact> 0.83605561E+01</totfact>
</mgrwt>
</event>
<event>
12    6  0.1521603E-007  0.3429906E+04  0.7818608E-02  0.8130605E-01
          2   -1    0    0  501    0  0.00000000000E+00  0.00000000000E+00  0.18477451343E+04  0.18477451343E+04  0.00000000000E+00 0. -1.
         -1   -1    0    0    0  501 -0.00000000000E+00 -0.00000000000E+00 -0.15917043550E+04  0.15917043550E+04  0.00000000000E+00 0.  1.
         24    2    1    2    0    0 -0.12150963047E+04  0.75693181663E+03 -0.58254979348E+03  0.15476359636E+04  0.80050040814E+02 0.  0.
        254    2    1    2    0    0  0.12150963047E+04 -0.75693181663E+03  0.83859057279E+03  0.18918135256E+04  0.90902115606E+03 0.  0.
         23    2    4    4    0    0  0.10499096566E+04 -0.18304276445E+03  0.67906434626E+03  0.12669457959E+04  0.90599794964E+02 0.  0.
         23    2    4    4    0    0  0.16518664814E+03 -0.57388905218E+03  0.15952622653E+03  0.62486772969E+03  0.91519340674E+02 0.  0.
          4    1    3    3  502    0 -0.50594291227E+03  0.28203252158E+03 -0.26520810499E+03  0.63706821664E+03  0.00000000000E+00 0. -1.
         -3    1    3    3    0  502 -0.70915339248E+03  0.47489929505E+03 -0.31734168850E+03  0.91056774694E+03  0.00000000000E+00 0.  1.
         11    1    5    5    0    0  0.57598730986E+03 -0.79095510898E+02  0.41728019192E+03  0.71563974144E+03  0.00000000000E+00 0. -1.
        -11    1    5    5    0    0  0.47392234675E+03 -0.10394725355E+03  0.26178415434E+03  0.55130605451E+03  0.00000000000E+00 0.  1.
          4    1    6    6  503    0  0.17062759440E+03 -0.48955341085E+03  0.12316114572E+03  0.53286488518E+03  0.00000000000E+00 0. -1.
         -4    1    6    6    0  503 -0.54409462585E+01 -0.84335641331E+02  0.36365080808E+02  0.92002844505E+02  0.00000000000E+00 0.  1.
<mgrwt>
<rscale>  0 0.34299061E+04</rscale>
<asrwt>0</asrwt>
<pdfrwt beam="1">  1        2 0.28426848E+00 0.34299061E+04</pdfrwt>
<pdfrwt beam="2">  1       -1 0.24487759E+00 0.34299061E+04</pdfrwt>
<totfact> 0.57489865E-01</totfact>
</mgrwt>
</event>
<event>
12    6  0.1521603E-007  0.2081973E+04  0.7818608E-02  0.8569226E-01
          2   -1    0    0  501    0  0.00000000000E+00  0.00000000000E+00  0.33431414969E+04  0.33431414969E+04  0.00000000000E+00 0. -1.
         -1   -1    0    0    0  501 -0.00000000000E+00 -0.00000000000E+00 -0.32414198534E+03  0.32414198534E+03  0.00000000000E+00 0.  1.
         24    2    1    2    0    0 -0.83093891861E+03 -0.14506813129E+03  0.15126116310E+04  0.17354260206E+04  0.11047749818E+03 0.  0.
        254    2    1    2    0    0  0.83093891861E+03  0.14506813129E+03  0.15063878805E+04  0.19318574616E+04  0.86681287263E+03 0.  0.
         23    2    4    4    0    0  0.50896291911E+03 -0.23600403610E+03  0.34581152439E+03  0.66542135421E+03  0.91971790011E+02 0.  0.
         23    2    4    4    0    0  0.32197599950E+03  0.38107216739E+03  0.11605763562E+04  0.12664361074E+04  0.89657094734E+02 0.  0.
          2    1    3    3  502    0 -0.71545159507E+02 -0.17582904585E+02  0.78453293318E+02  0.10762335999E+03  0.00000000000E+00 0. -1.
         -1    1    3    3    0  502 -0.75939375910E+03 -0.12748522671E+03  0.14341583377E+04  0.16278026606E+04  0.00000000000E+00 0.  1.
         11    1    5    5    0    0  0.38649853279E+03 -0.14309661879E+03  0.22255218979E+03  0.46838791117E+03  0.00000000000E+00 0. -1.
        -11    1    5    5    0    0  0.12246438632E+03 -0.92907417317E+02  0.12325933460E+03  0.19703344304E+03  0.00000000000E+00 0.  1.
          3    1    6    6  503    0  0.92352993728E+02  0.14507633834E+03  0.49164077670E+03  0.52085206413E+03  0.00000000000E+00 0. -1.
         -3    1    6    6    0  503  0.22962300577E+03  0.23599582906E+03  0.66893557946E+03  0.74558404327E+03  0.00000000000E+00 0.  1.
<mgrwt>
<rscale>  0 0.20819726E+04</rscale>
<asrwt>0</asrwt>
<pdfrwt beam="1">  1        2 0.51432944E+00 0.20819726E+04</pdfrwt>
<pdfrwt beam="2">  1       -1 0.49868000E-01 0.20819726E+04</pdfrwt>
<totfact> 0.44315439E+00</totfact>
</mgrwt>
</event>
<event>
12    6  0.1521603E-007  0.1456865E+04  0.7818608E-02  0.8913655E-01
          2   -1    0    0  501    0  0.00000000000E+00  0.00000000000E+00  0.64451593163E+03  0.64451593163E+03  0.00000000000E+00 0. -1.
         -1   -1    0    0    0  501 -0.00000000000E+00 -0.00000000000E+00 -0.82327517312E+03  0.82327517312E+03  0.00000000000E+00 0.  1.
         24    2    1    2    0    0 -0.22724937146E+03  0.41038932598E+02  0.33986091893E+03  0.41893180687E+03  0.81681967233E+02 0.  0.
        254    2    1    2    0    0  0.22724937146E+03 -0.41038932598E+02 -0.51862016043E+03  0.10488592979E+04  0.88193678068E+03 0.  0.
         23    2    4    4    0    0  0.47582028245E+03  0.21440111735E+03 -0.39306223499E+03  0.66021561677E+03  0.94941875578E+02 0.  0.
         23    2    4    4    0    0 -0.24857091099E+03 -0.25544004994E+03 -0.12555792544E+03  0.38864368111E+03  0.90785468659E+02 0.  0.
          2    1    3    3  502    0 -0.20023487219E+03  0.74992485643E+01  0.29616026566E+03  0.35757676900E+03  0.00000000000E+00 0. -1.
         -1    1    3    3    0  502 -0.27014499270E+02  0.33539684033E+02  0.43700653270E+02  0.61355037871E+02  0.00000000000E+00 0.  1.
         11    1    5    5    0    0  0.19024606638E+03  0.83009734559E+02 -0.21539698997E+03  0.29913215322E+03  0.00000000000E+00 0. -1.
        -11    1    5    5    0    0  0.28557421608E+03  0.13139138279E+03 -0.17766524502E+03  0.36108346355E+03  0.00000000000E+00 0.  1.
          1    1    6    6  503    0 -0.95204700337E+02 -0.54327225808E+02 -0.84815776044E+01  0.10994234666E+03  0.00000000000E+00 0. -1.
         -1    1    6    6    0  503 -0.15336621065E+03 -0.20111282414E+03 -0.11707634783E+03  0.27870133445E+03  0.00000000000E+00 0.  1.
<mgrwt>
<rscale>  0 0.14568651E+04</rscale>
<asrwt>0</asrwt>
<pdfrwt beam="1">  1        2 0.99156297E-01 0.14568651E+04</pdfrwt>
<pdfrwt beam="2">  1       -1 0.12665772E+00 0.14568651E+04</pdfrwt>
<totfact> 0.27254160E+01</totfact>
</mgrwt>
</event>
<event>
12    6  0.1521603E-007  0.1077900E+04  0.7818608E-02  0.9227004E-01
         -1   -1    0    0    0  501 -0.00000000000E+00  0.00000000000E+00  0.94438971144E+02  0.94438971144E+02  0.00000000000E+00 0.  1.
          2   -1    0    0  501    0  0.00000000000E+00 -0.00000000000E+00 -0.30757105837E+04  0.30757105837E+04  0.00000000000E+00 0. -1.
         24    2    1    2    0    0 -0.40329440881E+02 -0.11095606693E+03 -0.19912070474E+03  0.24558710832E+03  0.82013780095E+02 0.  0.
        254    2    1    2    0    0  0.40329440881E+02  0.11095606693E+03 -0.27821509078E+04  0.29245624465E+04  0.89373604446E+03 0.  0.
         23    2    4    4    0    0 -0.20701746939E+03  0.42921411595E+03 -0.16248704349E+04  0.16958277818E+04  0.92449691312E+02 0.  0.
         23    2    4    4    0    0  0.24734691027E+03 -0.31825804901E+03 -0.11572804729E+04  0.12287346647E+04  0.89566196011E+02 0.  0.
          2    1    3    3  502    0 -0.25787023409E+02 -0.11155658482E+03 -0.20058006888E+03  0.23095931725E+03  0.00000000000E+00 0. -1.
         -1    1    3    3    0  502 -0.14542417472E+02  0.60051788450E+00  0.14593641480E+01  0.14627791063E+02  0.00000000000E+00 0.  1.
         11    1    5    5    0    0 -0.77522835259E+01 -0.27939060331E+01 -0.49740269344E+02  0.50418232865E+02  0.00000000000E+00 0.  1.
        -11    1    5    5    0    0 -0.19926518586E+03  0.43200802198E+03 -0.15751301655E+04  0.16454095489E+04  0.00000000000E+00 0. -1.
          3    1    6    6  503    0  0.11186958684E+03 -0.19829201068E+03 -0.55581574637E+03  0.60063771933E+03  0.00000000000E+00 0. -1.
         -3    1    6    6    0  503  0.13547732343E+03 -0.11996603833E+03 -0.60146472655E+03  0.62809694538E+03  0.00000000000E+00 0.  1.
<mgrwt>
<rscale>  0 0.10778997E+04</rscale>
<asrwt>0</asrwt>
<pdfrwt beam="1">  1        2 0.47318630E+00 0.10778997E+04</pdfrwt>
<pdfrwt beam="2">  1       -1 0.14529071E-01 0.10778997E+04</pdfrwt>
<totfact> 0.62545814E+01</totfact>
</mgrwt>
</event>
<event>
12    6  0.1521603E-007  0.2008311E+04  0.7818608E-02  0.8602745E-01
          2   -1    0    0  501    0  0.00000000000E+00  0.00000000000E+00  0.13918119312E+04  0.13918119312E+04  0.00000000000E+00 0. -1.
         -1   -1    0    0    0  501 -0.00000000000E+00 -0.00000000000E+00 -0.72447168764E+03  0.72447168764E+03  0.00000000000E+00 0.  1.
         24    2    1    2    0    0 -0.38037501730E+03  0.61892949283E+03  0.61245972114E+03  0.95359689025E+03  0.80506199711E+02 0.  0.
        254    2    1    2    0    0  0.38037501730E+03 -0.61892949283E+03  0.54880522458E+02  0.11626867286E+04  0.90612895678E+03 0.  0.
         23    2    4    4    0    0  0.23508661398E+03 -0.32827812738E+03 -0.41340154336E+03  0.58531667691E+03  0.93072720079E+02 0.  0.
         23    2    4    4    0    0  0.14528840332E+03 -0.29065136545E+03  0.46828206581E+03  0.57737005173E+03  0.92093143598E+02 0.  0.
          4    1    3    3  502    0 -0.18987651956E+03  0.23815307701E+03  0.23700504721E+03  0.38592923337E+03  0.00000000000E+00 0. -1.
         -1    1    3    3    0  502 -0.19049849774E+03  0.38077641582E+03  0.37545467393E+03  0.56766765688E+03  0.00000000000E+00 0.  1.
         11    1    5    5    0    0  0.17104405402E+03 -0.29600810319E+03 -0.32765247928E+03  0.47353248331E+03  0.00000000000E+00 0.  1.
        -11    1    5    5    0    0  0.64042559966E+02 -0.32270024190E+02 -0.85749064074E+02  0.11178419360E+03  0.00000000000E+00 0. -1.
          1    1    6    6  503    0  0.27920591800E+01 -0.76614183806E+02  0.73316772673E+02  0.10607958291E+03  0.00000000000E+00 0. -1.
         -1    1    6    6    0  503  0.14249634414E+03 -0.21403718164E+03  0.39496529314E+03  0.47129046882E+03  0.00000000000E+00 0.  1.
<mgrwt>
<rscale>  0 0.20083111E+04</rscale>
<asrwt>0</asrwt>
<pdfrwt beam="1">  1        2 0.21412491E+00 0.20083111E+04</pdfrwt>
<pdfrwt beam="2">  1       -1 0.11145718E+00 0.20083111E+04</pdfrwt>
<totfact> 0.11449524E+01</totfact>
</mgrwt>
</event>
<event>
12    6  0.1521603E-007  0.1457305E+04  0.7818608E-02  0.8913352E-01
          2   -1    0    0  501    0  0.00000000000E+00  0.00000000000E+00  0.67963832684E+03  0.67963832684E+03  0.00000000000E+00 0. -1.
         -1   -1    0    0    0  501 -0.00000000000E+00 -0.00000000000E+00 -0.78120156751E+03  0.78120156751E+03  0.00000000000E+00 0.  1.
         24    2    1    2    0    0 -0.12251324575E+02 -0.40630935502E+03  0.14000651364E+03  0.43675476851E+03  0.76912398341E+02 0.  0.
        254    2    1    2    0    0  0.12251324575E+02  0.40630935502E+03 -0.24156975432E+03  0.10240851258E+04  0.90838153428E+03 0.  0.
         23    2    4    4    0    0  0.46332238247E+02  0.20859870511E+01 -0.51624299173E+03  0.52570703555E+03  0.87806794022E+02 0.  0.
         23    2    4    4    0    0 -0.34080913672E+02  0.40422336797E+03  0.27467323742E+03  0.49837809028E+03  0.91527556657E+02 0.  0.
          2    1    3    3  502    0 -0.15465004705E+02 -0.27500713284E+03  0.13127058567E+03  0.30512301806E+03  0.00000000000E+00 0. -1.
         -1    1    3    3    0  502  0.32136801304E+01 -0.13130222218E+03  0.87359279714E+01  0.13163175045E+03  0.00000000000E+00 0.  1.
         11    1    5    5    0    0 -0.12059715981E+01 -0.33033318553E+02 -0.28975074628E+03  0.29163015871E+03  0.00000000000E+00 0. -1.
        -11    1    5    5    0    0  0.47538209845E+02  0.35119305604E+02 -0.22649224546E+03  0.23407687685E+03  0.00000000000E+00 0.  1.
          1    1    6    6  503    0  0.21952676316E+02  0.11419668684E+03  0.46985459994E+02  0.12542103785E+03  0.00000000000E+00 0. -1.
         -1    1    6    6    0  503 -0.56033589988E+02  0.29002668113E+03  0.22768777742E+03  0.37295705243E+03  0.00000000000E+00 0.  1.
<mgrwt>
<rscale>  0 0.14573051E+04</rscale>
<asrwt>0</asrwt>
<pdfrwt beam="1">  1        2 0.10455974E+00 0.14573051E+04</pdfrwt>
<pdfrwt beam="2">  1       -1 0.12018486E+00 0.14573051E+04</pdfrwt>
<totfact> 0.29050161E+01</totfact>
</mgrwt>
</event>
<event>
12    6  0.1521603E-007  0.2901523E+04  0.7818608E-02  0.8272425E-01
          2   -1    0    0  501    0  0.00000000000E+00  0.00000000000E+00  0.16766454661E+04  0.16766454661E+04  0.00000000000E+00 0. -1.
         -1   -1    0    0    0  501 -0.00000000000E+00 -0.00000000000E+00 -0.12553093640E+04  0.12553093640E+04  0.00000000000E+00 0.  1.
         24    2    1    2    0    0  0.58312292226E+03  0.61102413660E+02 -0.99580306797E+03  0.11583672965E+04  0.80157320472E+02 0.  0.
        254    2    1    2    0    0 -0.58312292226E+03 -0.61102413660E+02  0.14171391701E+04  0.17735875335E+04  0.89082179161E+03 0.  0.
         23    2    4    4    0    0 -0.20681054673E+03 -0.28861075216E+03  0.96963413165E+02  0.37923515090E+03  0.91381768884E+02 0.  0.
         23    2    4    4    0    0 -0.37631237553E+03  0.22750833850E+03  0.13201757569E+04  0.13943523826E+04  0.89350376732E+02 0.  0.
          2    1    3    3  502    0  0.11046206994E+02 -0.71770100680E+01 -0.99476729595E+01  0.16507100284E+02  0.00000000000E+00 0. -1.
         -1    1    3    3    0  502  0.57207671527E+03  0.68279423728E+02 -0.98585539501E+03  0.11418601962E+04  0.00000000000E+00 0.  1.
         11    1    5    5    0    0 -0.27575396573E+02 -0.18130073155E+02  0.36439108781E+02  0.49162085976E+02  0.00000000000E+00 0.  1.
        -11    1    5    5    0    0 -0.17923515016E+03 -0.27048067901E+03  0.60524304384E+02  0.33007306493E+03  0.00000000000E+00 0. -1.
          3    1    6    6  503    0 -0.32953622670E+03  0.16842020499E+03  0.11539343703E+04  0.12118267290E+04  0.00000000000E+00 0. -1.
         -3    1    6    6    0  503 -0.46776148822E+02  0.59088133513E+02  0.16624138662E+03  0.18252565367E+03  0.00000000000E+00 0.  1.
<mgrwt>
<rscale>  0 0.29015229E+04</rscale>
<asrwt>0</asrwt>
<pdfrwt beam="1">  1        2 0.25794546E+00 0.29015229E+04</pdfrwt>
<pdfrwt beam="2">  1       -1 0.19312452E+00 0.29015229E+04</pdfrwt>
<totfact> 0.16677831E+00</totfact>
</mgrwt>
</event>
<event>
12    6  0.1521603E-007  0.1106974E+04  0.7818608E-02  0.9198421E-01
          2   -1    0    0  501    0  0.00000000000E+00  0.00000000000E+00  0.69811209524E+03  0.69811209524E+03  0.00000000000E+00 0. -1.
         -1   -1    0    0    0  501 -0.00000000000E+00 -0.00000000000E+00 -0.43882336801E+03  0.43882336801E+03  0.00000000000E+00 0.  1.
         24    2    1    2    0    0  0.16162490876E+03 -0.53655718982E+02  0.47857425923E+02  0.19445316671E+03  0.80747467553E+02 0.  0.
        254    2    1    2    0    0 -0.16162490876E+03  0.53655718982E+02  0.21143130131E+03  0.94248229654E+03  0.90253428567E+03 0.  0.
         23    2    4    4    0    0  0.44011400187E+01  0.42020198924E+03  0.29476712567E+03  0.52108885587E+03  0.89759988565E+02 0.  0.
         23    2    4    4    0    0 -0.16602604878E+03 -0.36654627026E+03 -0.83335824358E+02  0.42139344066E+03  0.93309994637E+02 0.  0.
          2    1    3    3  502    0  0.19005297281E+02 -0.28397255761E+02  0.35207225156E+02  0.49062757390E+02  0.00000000000E+00 0. -1.
         -1    1    3    3    0  502  0.14261961148E+03 -0.25258463221E+02  0.12650200767E+02  0.14539040932E+03  0.00000000000E+00 0.  1.
         11    1    5    5    0    0 -0.15970672921E+02  0.26126674105E+03  0.22933524034E+03  0.34800865626E+03  0.00000000000E+00 0. -1.
        -11    1    5    5    0    0  0.20371812940E+02  0.15893524819E+03  0.65431885327E+02  0.17308019961E+03  0.00000000000E+00 0.  1.
          4    1    6    6  503    0 -0.85264457880E+02 -0.11108403869E+03  0.24948354872E+01  0.14005683001E+03  0.00000000000E+00 0.  1.
         -4    1    6    6    0  503 -0.80761590897E+02 -0.25546223157E+03 -0.85830659845E+02  0.28133661065E+03  0.00000000000E+00 0. -1.
<mgrwt>
<rscale>  0 0.11069741E+04</rscale>
<asrwt>0</asrwt>
<pdfrwt beam="1">  1        2 0.10740186E+00 0.11069741E+04</pdfrwt>
<pdfrwt beam="2">  1       -1 0.67511287E-01 0.11069741E+04</pdfrwt>
<totfact> 0.10358437E+02</totfact>
</mgrwt>
</event>
<event>
12    6  0.1521603E-007  0.1625364E+04  0.7818608E-02  0.8805116E-01
          2   -1    0    0  501    0  0.00000000000E+00  0.00000000000E+00  0.19972898703E+04  0.19972898703E+04  0.00000000000E+00 0. -1.
         -1   -1    0    0    0  501 -0.00000000000E+00 -0.00000000000E+00 -0.33067400302E+03  0.33067400302E+03  0.00000000000E+00 0.  1.
         24    2    1    2    0    0  0.58326406402E+02  0.34475701174E+03  0.12049361385E+04  0.12571778485E+04  0.79785200371E+02 0.  0.
        254    2    1    2    0    0 -0.58326406402E+02 -0.34475701174E+03  0.46167972879E+03  0.10707860248E+04  0.90065263674E+03 0.  0.
         23    2    4    4    0    0  0.33681145531E+03 -0.34865208529E+03  0.54340179025E+02  0.49598910469E+03  0.89733516082E+02 0.  0.
         23    2    4    4    0    0 -0.39513786171E+03  0.38950735569E+01  0.40733954977E+03  0.57479692009E+03  0.91196980109E+02 0.  0.
          2    1    3    3  502    0 -0.86619729255E+01  0.16856541674E+03  0.62407399267E+03  0.64649646389E+03  0.00000000000E+00 0. -1.
         -1    1    3    3    0  502  0.66988379327E+02  0.17619159500E+03  0.58086214581E+03  0.61068138464E+03  0.00000000000E+00 0.  1.
         11    1    5    5    0    0  0.15963002025E+03 -0.22064479244E+03  0.52767201753E+02  0.27739907242E+03  0.00000000000E+00 0.  1.
        -11    1    5    5    0    0  0.17718143506E+03 -0.12800729286E+03  0.15729772726E+01  0.21859003228E+03  0.00000000000E+00 0. -1.
          3    1    6    6  503    0  0.22132235299E+01 -0.53980075425E+01  0.15934081636E+02  0.16968553309E+02  0.00000000000E+00 0.  1.
         -3    1    6    6    0  503 -0.39735108524E+03  0.92930810994E+01  0.39140546813E+03  0.55782836678E+03  0.00000000000E+00 0. -1.
<mgrwt>
<rscale>  0 0.16253638E+04</rscale>
<asrwt>0</asrwt>
<pdfrwt beam="1">  1        2 0.30727536E+00 0.16253638E+04</pdfrwt>
<pdfrwt beam="2">  1       -1 0.50872924E-01 0.16253638E+04</pdfrwt>
<totfact> 0.28387594E+01</totfact>
</mgrwt>
</event>
<event>
12    6  0.1521603E-007  0.2229651E+04  0.7818608E-02  0.8506187E-01
         -1   -1    0    0    0  501 -0.00000000000E+00  0.00000000000E+00  0.32390285900E+03  0.32390285900E+03  0.00000000000E+00 0.  1.
          2   -1    0    0  501    0  0.00000000000E+00 -0.00000000000E+00 -0.38370630964E+04  0.38370630964E+04  0.00000000000E+00 0. -1.
         24    2    1    2    0    0 -0.13098926270E+03  0.47667087645E+03  0.55604131822E+01  0.50104326377E+03  0.81486947251E+02 0.  0.
        254    2    1    2    0    0  0.13098926270E+03 -0.47667087645E+03 -0.35187206506E+04  0.36599226916E+04  0.87707797855E+03 0.  0.
         23    2    4    4    0    0  0.34910378743E+03 -0.25403952713E+02 -0.63005444796E+03  0.72666453008E+03  0.92487386586E+02 0.  0.
         23    2    4    4    0    0 -0.21811452473E+03 -0.45126692374E+03 -0.28886662026E+04  0.29332581615E+04  0.91625486270E+02 0.  0.
          2    1    3    3  502    0 -0.38506610452E+02  0.27710111255E+03  0.20959056787E+02  0.28054779929E+03  0.00000000000E+00 0. -1.
         -1    1    3    3    0  502 -0.92482652244E+02  0.19956976390E+03 -0.15398643605E+02  0.22049546447E+03  0.00000000000E+00 0.  1.
         11    1    5    5    0    0  0.34128222766E+03 -0.28249418299E+02 -0.56208774779E+03  0.65819011294E+03  0.00000000000E+00 0.  1.
        -11    1    5    5    0    0  0.78215597638E+01  0.28454655857E+01 -0.67966700165E+02  0.68474417142E+02  0.00000000000E+00 0. -1.
          3    1    6    6  503    0 -0.21668060894E+02 -0.64926915261E+02 -0.24855166475E+03  0.25780407142E+03  0.00000000000E+00 0. -1.
         -3    1    6    6    0  503 -0.19644646384E+03 -0.38634000848E+03 -0.26401145379E+04  0.26754540901E+04  0.00000000000E+00 0.  1.
<mgrwt>
<rscale>  0 0.22296508E+04</rscale>
<asrwt>0</asrwt>
<pdfrwt beam="1">  1        2 0.59031742E+00 0.22296508E+04</pdfrwt>
<pdfrwt beam="2">  1       -1 0.49831207E-01 0.22296508E+04</pdfrwt>
<totfact> 0.19387944E+00</totfact>
</mgrwt>
</event>
<event>
12    6  0.1521603E-007  0.2086690E+04  0.7818608E-02  0.8567129E-01
         -1   -1    0    0    0  501 -0.00000000000E+00  0.00000000000E+00  0.78476347690E+03  0.78476347690E+03  0.00000000000E+00 0.  1.
          2   -1    0    0  501    0  0.00000000000E+00 -0.00000000000E+00 -0.13871303734E+04  0.13871303734E+04  0.00000000000E+00 0. -1.
         24    2    1    2    0    0  0.80486489450E+03 -0.48157592099E+02  0.31914536935E+02  0.81092490676E+03  0.80336882305E+02 0.  0.
        254    2    1    2    0    0 -0.80486489450E+03  0.48157592099E+02 -0.63428143348E+03  0.13609689436E+04  0.89431363427E+03 0.  0.
         23    2    4    4    0    0 -0.59007806911E+03 -0.24287223148E+03 -0.23360478743E+02  0.64472697560E+03  0.89152188015E+02 0.  0.
         23    2    4    4    0    0 -0.21478682539E+03  0.29102982358E+03 -0.61092095474E+03  0.71624196798E+03  0.94585438503E+02 0.  0.
          4    1    3    3  502    0  0.33202285040E+03 -0.31215016595E+02  0.51159104595E+02  0.33738821027E+03  0.00000000000E+00 0. -1.
         -3    1    3    3    0  502  0.47284204411E+03 -0.16942575504E+02 -0.19244567660E+02  0.47353669649E+03  0.00000000000E+00 0.  1.
         11    1    5    5    0    0 -0.16657534603E+03 -0.50524017187E+02 -0.42550888385E+02  0.17919430884E+03  0.00000000000E+00 0.  1.
        -11    1    5    5    0    0 -0.42350272308E+03 -0.19234821430E+03  0.19190409641E+02  0.46553266676E+03  0.00000000000E+00 0. -1.
          4    1    6    6  503    0 -0.20225394937E+02  0.20665822041E+02 -0.11685512463E+03  0.12037966171E+03  0.00000000000E+00 0.  1.
         -4    1    6    6    0  503 -0.19456143045E+03  0.27036400154E+03 -0.49406583011E+03  0.59586230627E+03  0.00000000000E+00 0. -1.
<mgrwt>
<rscale>  0 0.20866904E+04</rscale>
<asrwt>0</asrwt>
<pdfrwt beam="1">  1        2 0.21340467E+00 0.20866904E+04</pdfrwt>
<pdfrwt beam="2">  1       -1 0.12073284E+00 0.20866904E+04</pdfrwt>
<totfact> 0.94381485E+00</totfact>
</mgrwt>
</event>
<event>
12    6  0.1521603E-007  0.1536029E+04  0.7818608E-02  0.8860841E-01
          2   -1    0    0  501    0  0.00000000000E+00  0.00000000000E+00  0.29216105098E+04  0.29216105098E+04  0.00000000000E+00 0. -1.
         -1   -1    0    0    0  501 -0.00000000000E+00 -0.00000000000E+00 -0.20189078272E+03  0.20189078272E+03  0.00000000000E+00 0.  1.
         24    2    1    2    0    0  0.26559015361E+03  0.11580157949E+03  0.71791325750E+02  0.30932653209E+03  0.81121966799E+02 0.  0.
        254    2    1    2    0    0 -0.26559015361E+03 -0.11580157949E+03  0.26479284013E+04  0.28141747604E+04  0.90780318800E+03 0.  0.
         23    2    4    4    0    0 -0.31243817866E+02  0.10965362373E+03 -0.32940936524E+00  0.14418059146E+03  0.88248745552E+02 0.  0.
         23    2    4    4    0    0 -0.23434633575E+03 -0.22545520322E+03  0.26482578107E+04  0.26699941690E+04  0.99253093934E+02 0.  0.
          4    1    3    3  502    0  0.16738418790E+03  0.96958648708E+02  0.79268374066E+02  0.20905004436E+03  0.00000000000E+00 0. -1.
         -3    1    3    3    0  502  0.98205965708E+02  0.18842930778E+02 -0.74770483156E+01  0.10027648774E+03  0.00000000000E+00 0.  1.
         11    1    5    5    0    0 -0.37693935190E+02  0.57775969204E+02 -0.38916527557E+02  0.79204744080E+02  0.00000000000E+00 0. -1.
        -11    1    5    5    0    0  0.64501173243E+01  0.51877654526E+02  0.38587118192E+02  0.64975847382E+02  0.00000000000E+00 0.  1.
          4    1    6    6  503    0 -0.19391961636E+03 -0.20780053886E+03  0.24725676558E+04  0.24888504765E+04  0.00000000000E+00 0. -1.
         -4    1    6    6    0  503 -0.40426719390E+02 -0.17654664355E+02  0.17569015485E+03  0.18114369248E+03  0.00000000000E+00 0.  1.
<mgrwt>
<rscale>  0 0.15360289E+04</rscale>
<asrwt>0</asrwt>
<pdfrwt beam="1">  1        2 0.44947851E+00 0.15360289E+04</pdfrwt>
<pdfrwt beam="2">  1       -1 0.31060123E-01 0.15360289E+04</pdfrwt>
<totfact> 0.20642382E+01</totfact>
</mgrwt>
</event>
<event>
12    6  0.1521603E-007  0.2683470E+04  0.7818608E-02  0.8340388E-01
         -1   -1    0    0    0  501 -0.00000000000E+00  0.00000000000E+00  0.11088495222E+04  0.11088495222E+04  0.00000000000E+00 0.  1.
          2   -1    0    0  501    0  0.00000000000E+00 -0.00000000000E+00 -0.16235316542E+04  0.16235316542E+04  0.00000000000E+00 0. -1.
         24    2    1    2    0    0  0.63225789910E+03  0.50484024006E+03 -0.11144430687E+04  0.13795283144E+04  0.80630625975E+02 0.  0.
        254    2    1    2    0    0 -0.63225789910E+03 -0.50484024006E+03  0.59976093666E+03  0.13528528620E+04  0.90326295510E+03 0.  0.
         23    2    4    4    0    0 -0.56340096907E+03  0.39507987016E+02  0.57594668560E+02  0.57533149190E+03  0.93314772335E+02 0.  0.
         23    2    4    4    0    0 -0.68856930024E+02 -0.54434822707E+03  0.54216626810E+03  0.77752137008E+03  0.97667545927E+02 0.  0.
          4    1    3    3  502    0  0.63311128353E+03  0.50631287547E+03 -0.11140448789E+04  0.13777803226E+04  0.00000000000E+00 0. -1.
         -3    1    3    3    0  502 -0.85338443120E+00 -0.14726354100E+01 -0.39818978432E+00  0.17479917455E+01  0.00000000000E+00 0.  1.
         11    1    5    5    0    0 -0.26518882981E+03  0.32674854844E+02  0.71897351771E+02  0.27669837510E+03  0.00000000000E+00 0.  1.
        -11    1    5    5    0    0 -0.29821213927E+03  0.68331321722E+01 -0.14302683211E+02  0.29863311680E+03  0.00000000000E+00 0. -1.
          1    1    6    6  503    0 -0.72868226117E+02 -0.47129608021E+03  0.50800251560E+03  0.69677566652E+03  0.00000000000E+00 0. -1.
         -1    1    6    6    0  503  0.40112960930E+01 -0.73052146863E+02  0.34163752501E+02  0.80745703555E+02  0.00000000000E+00 0.  1.
<mgrwt>
<rscale>  0 0.26834696E+04</rscale>
<asrwt>0</asrwt>
<pdfrwt beam="1">  1        2 0.24977410E+00 0.26834696E+04</pdfrwt>
<pdfrwt beam="2">  1       -1 0.17059224E+00 0.26834696E+04</pdfrwt>
<totfact> 0.26362344E+00</totfact>
</mgrwt>
</event>
<event>
12    6  0.1521603E-007  0.1400634E+04  0.7818608E-02  0.8953360E-01
          2   -1    0    0  501    0  0.00000000000E+00  0.00000000000E+00  0.48594453978E+03  0.48594453978E+03  0.00000000000E+00 0. -1.
         -1   -1    0    0    0  501 -0.00000000000E+00 -0.00000000000E+00 -0.10092592222E+04  0.10092592222E+04  0.00000000000E+00 0.  1.
         24    2    1    2    0    0 -0.13504390149E+03  0.11786381834E+03  0.24076331958E+03  0.30982236939E+03  0.76773625122E+02 0.  0.
        254    2    1    2    0    0  0.13504390149E+03 -0.11786381834E+03 -0.76407800202E+03  0.11853813926E+04  0.88836091639E+03 0.  0.
         23    2    4    4    0    0 -0.71402722390E+02 -0.31580949233E+03 -0.81346148745E+03  0.88045616255E+03  0.93002571961E+02 0.  0.
         23    2    4    4    0    0  0.20644662388E+03  0.19794567399E+03  0.49383485432E+02  0.30492523006E+03  0.93477103789E+02 0.  0.
          2    1    3    3  502    0 -0.14447874742E+03  0.11045202951E+03  0.21644325376E+03  0.28270380503E+03  0.00000000000E+00 0. -1.
         -1    1    3    3    0  502  0.94348459311E+01  0.74117888297E+01  0.24320065823E+02  0.27118564361E+02  0.00000000000E+00 0.  1.
         11    1    5    5    0    0 -0.56183696799E+02 -0.26163951163E+03 -0.55771993522E+03  0.61859790492E+03  0.00000000000E+00 0. -1.
        -11    1    5    5    0    0 -0.15219025591E+02 -0.54169980698E+02 -0.25574155223E+03  0.26185825762E+03  0.00000000000E+00 0.  1.
          1    1    6    6  503    0  0.25365721589E+02 -0.54957262407E+01 -0.68060457869E+01  0.26831792670E+02  0.00000000000E+00 0. -1.
         -1    1    6    6    0  503  0.18108090229E+03  0.20344140023E+03  0.56189531219E+02  0.27809343739E+03  0.00000000000E+00 0.  1.
<mgrwt>
<rscale>  0 0.14006342E+04</rscale>
<asrwt>0</asrwt>
<pdfrwt beam="1">  1        2 0.74760699E-01 0.14006342E+04</pdfrwt>
<pdfrwt beam="2">  1       -1 0.15527065E+00 0.14006342E+04</pdfrwt>
<totfact> 0.22500784E+01</totfact>
</mgrwt>
</event>
<event>
12    6  0.1521603E-007  0.1250214E+04  0.7818608E-02  0.9070005E-01
          2   -1    0    0  501    0  0.00000000000E+00  0.00000000000E+00  0.10217471950E+04  0.10217471950E+04  0.00000000000E+00 0. -1.
         -1   -1    0    0    0  501 -0.00000000000E+00 -0.00000000000E+00 -0.38244158364E+03  0.38244158364E+03  0.00000000000E+00 0.  1.
         24    2    1    2    0    0 -0.73945005084E+02  0.28156059778E+03  0.10666973079E+03  0.32051655658E+03  0.81290820989E+02 0.  0.
        254    2    1    2    0    0  0.73945005084E+02 -0.28156059778E+03  0.53263588053E+03  0.10836722220E+04  0.89771948266E+03 0.  0.
         23    2    4    4    0    0  0.19141886371E+03 -0.12698483220E+02 -0.19818315427E+03  0.29089816708E+03  0.92426988024E+02 0.  0.
         23    2    4    4    0    0 -0.11747385863E+03 -0.26886211456E+03  0.73081903480E+03  0.79277405493E+03  0.91144371415E+02 0.  0.
          4    1    3    3  502    0 -0.29413837575E+02  0.11751616503E+03  0.87543632084E+02  0.14946273918E+03  0.00000000000E+00 0. -1.
         -3    1    3    3    0  502 -0.44531167509E+02  0.16404443276E+03  0.19126098702E+02  0.17105381741E+03  0.00000000000E+00 0.  1.
         11    1    5    5    0    0  0.12005786272E+03  0.34105307847E+02 -0.14030016047E+03  0.18777965132E+03  0.00000000000E+00 0. -1.
        -11    1    5    5    0    0  0.71361000992E+02 -0.46803791067E+02 -0.57882993802E+02  0.10311851576E+03  0.00000000000E+00 0.  1.
          3    1    6    6  503    0 -0.18603435697E+02 -0.12738840835E+03  0.23774039817E+03  0.27035974427E+03  0.00000000000E+00 0. -1.
         -3    1    6    6    0  503 -0.98870422932E+02 -0.14147370621E+03  0.49307863664E+03  0.52241431066E+03  0.00000000000E+00 0.  1.
<mgrwt>
<rscale>  0 0.12502138E+04</rscale>
<asrwt>0</asrwt>
<pdfrwt beam="1">  1        2 0.15719187E+00 0.12502138E+04</pdfrwt>
<pdfrwt beam="2">  1       -1 0.58837167E-01 0.12502138E+04</pdfrwt>
<totfact> 0.80116001E+01</totfact>
</mgrwt>
</event>
<event>
12    6  0.1521603E-007  0.1269997E+04  0.7818608E-02  0.9053702E-01
          2   -1    0    0  501    0  0.00000000000E+00  0.00000000000E+00  0.21550589119E+04  0.21550589119E+04  0.00000000000E+00 0. -1.
         -1   -1    0    0    0  501 -0.00000000000E+00 -0.00000000000E+00 -0.18710537063E+03  0.18710537063E+03  0.00000000000E+00 0.  1.
         24    2    1    2    0    0 -0.31212206275E+03 -0.77264981507E+02  0.77693000597E+03  0.84448399864E+03  0.78376848428E+02 0.  0.
        254    2    1    2    0    0  0.31212206275E+03  0.77264981507E+02  0.11910235353E+04  0.14976802839E+04  0.84918732428E+03 0.  0.
         23    2    4    4    0    0  0.44707054326E+03  0.91305823185E+02  0.12410261356E+04  0.13253675061E+04  0.90798309859E+02 0.  0.
         23    2    4    4    0    0 -0.13494848051E+03 -0.14040841678E+02 -0.50002600241E+02  0.17231277782E+03  0.93718705400E+02 0.  0.
          4    1    3    3  502    0 -0.28735253357E+03 -0.73025664385E+02  0.75500941412E+03  0.81113712874E+03  0.00000000000E+00 0. -1.
         -3    1    3    3    0  502 -0.24769529182E+02 -0.42393171215E+01  0.21920591846E+02  0.33346869904E+02  0.00000000000E+00 0.  1.
         11    1    5    5    0    0  0.18626080416E+03 -0.53513662926E+01  0.53546320039E+03  0.56695904901E+03  0.00000000000E+00 0. -1.
        -11    1    5    5    0    0  0.26080973910E+03  0.96657189478E+02  0.70556293520E+03  0.75840845711E+03  0.00000000000E+00 0.  1.
          3    1    6    6  503    0 -0.36822204159E+02 -0.19193058430E+02  0.25203273436E+02  0.48574203060E+02  0.00000000000E+00 0. -1.
         -3    1    6    6    0  503 -0.98126276347E+02  0.51522167513E+01 -0.75205873677E+02  0.12373857476E+03  0.00000000000E+00 0.  1.
<mgrwt>
<rscale>  0 0.12699970E+04</rscale>
<asrwt>0</asrwt>
<pdfrwt beam="1">  1        2 0.33154751E+00 0.12699970E+04</pdfrwt>
<pdfrwt beam="2">  1       -1 0.28785443E-01 0.12699970E+04</pdfrwt>
<totfact> 0.67307492E+01</totfact>
</mgrwt>
</event>
<event>
12    6  0.1521603E-007  0.1479469E+04  0.7818608E-02  0.8898221E-01
          2   -1    0    0  501    0  0.00000000000E+00  0.00000000000E+00  0.16201088876E+04  0.16201088876E+04  0.00000000000E+00 0. -1.
         -1   -1    0    0    0  501 -0.00000000000E+00 -0.00000000000E+00 -0.33775965428E+03  0.33775965428E+03  0.00000000000E+00 0.  1.
         24    2    1    2    0    0 -0.40740457150E+03 -0.19896773055E+03  0.39997542662E+03  0.61007509585E+03  0.81514648990E+02 0.  0.
        254    2    1    2    0    0  0.40740457150E+03  0.19896773055E+03  0.88237380665E+03  0.13477934460E+04  0.91235793178E+03 0.  0.
         23    2    4    4    0    0  0.61645685178E+03  0.35642755106E+03  0.50328997585E+03  0.87687793641E+03  0.92490357970E+02 0.  0.
         23    2    4    4    0    0 -0.20905228028E+03 -0.15745982051E+03  0.37908383080E+03  0.47091550957E+03  0.97777376824E+02 0.  0.
          4    1    3    3  502    0 -0.37821156565E+03 -0.19267200874E+03  0.39495950948E+03  0.57979264007E+03  0.00000000000E+00 0. -1.
         -1    1    3    3    0  502 -0.29193005850E+02 -0.62957218104E+01  0.50159171344E+01  0.30282455785E+02  0.00000000000E+00 0.  1.
         11    1    5    5    0    0  0.73047183782E+01 -0.79035431601E+00  0.19626279477E+02  0.20956488653E+02  0.00000000000E+00 0. -1.
        -11    1    5    5    0    0  0.60915213340E+03  0.35721790537E+03  0.48366369637E+03  0.85592144776E+03  0.00000000000E+00 0.  1.
          4    1    6    6  503    0 -0.10386682495E+03 -0.37906015539E+02  0.97459484095E+02  0.14738905787E+03  0.00000000000E+00 0. -1.
         -4    1    6    6    0  503 -0.10518545532E+03 -0.11955380497E+03  0.28162434670E+03  0.32352645170E+03  0.00000000000E+00 0.  1.
<mgrwt>
<rscale>  0 0.14794694E+04</rscale>
<asrwt>0</asrwt>
<pdfrwt beam="1">  1        2 0.24924752E+00 0.14794694E+04</pdfrwt>
<pdfrwt beam="2">  1       -1 0.51963025E-01 0.14794694E+04</pdfrwt>
<totfact> 0.44668092E+01</totfact>
</mgrwt>
</event>
<event>
12    6  0.1521603E-007  0.1597238E+04  0.7818608E-02  0.8822246E-01
          2   -1    0    0  501    0  0.00000000000E+00  0.00000000000E+00  0.16932135978E+04  0.16932135978E+04  0.00000000000E+00 0. -1.
         -1   -1    0    0    0  501 -0.00000000000E+00 -0.00000000000E+00 -0.37667571714E+03  0.37667571714E+03  0.00000000000E+00 0.  1.
         24    2    1    2    0    0  0.51186116576E+03 -0.14802300998E+03  0.59950531601E+03  0.80504469287E+03  0.69120685103E+02 0.  0.
        254    2    1    2    0    0 -0.51186116576E+03  0.14802300998E+03  0.71703256468E+03  0.12648446221E+04  0.89542367333E+03 0.  0.
         23    2    4    4    0    0 -0.33732939245E+03  0.29701015796E+03  0.86367638398E+03  0.97781304553E+03  0.90417381144E+02 0.  0.
         23    2    4    4    0    0 -0.17453177330E+03 -0.14898714798E+03 -0.14664381930E+03  0.28703157657E+03  0.90687408473E+02 0.  0.
          2    1    3    3  502    0  0.28954012861E+03 -0.11530212606E+03  0.37152247001E+03  0.48492990429E+03  0.00000000000E+00 0. -1.
         -1    1    3    3    0  502  0.22232103715E+03 -0.32720883917E+02  0.22798284600E+03  0.32011478858E+03  0.00000000000E+00 0.  1.
         11    1    5    5    0    0 -0.17886970740E+03  0.20571529254E+03  0.46128940923E+03  0.53581813415E+03  0.00000000000E+00 0. -1.
        -11    1    5    5    0    0 -0.15845968505E+03  0.91294865418E+02  0.40238697475E+03  0.44199491138E+03  0.00000000000E+00 0.  1.
          4    1    6    6  503    0 -0.12627950720E+03 -0.15291742114E+03 -0.11906232702E+03  0.23131383302E+03  0.00000000000E+00 0. -1.
         -4    1    6    6    0  503 -0.48252266099E+02  0.39302731624E+01 -0.27581492279E+02  0.55717743558E+02  0.00000000000E+00 0.  1.
<mgrwt>
<rscale>  0 0.15972382E+04</rscale>
<asrwt>0</asrwt>
<pdfrwt beam="1">  1        2 0.26049440E+00 0.15972382E+04</pdfrwt>
<pdfrwt beam="2">  1       -1 0.57950111E-01 0.15972382E+04</pdfrwt>
<totfact> 0.32607020E+01</totfact>
</mgrwt>
</event>
<event>
12    6  0.1521603E-007  0.1441102E+04  0.7818608E-02  0.8924593E-01
         -1   -1    0    0    0  501 -0.00000000000E+00  0.00000000000E+00  0.28018856183E+03  0.28018856183E+03  0.00000000000E+00 0.  1.
          2   -1    0    0  501    0  0.00000000000E+00 -0.00000000000E+00 -0.18530153095E+04  0.18530153095E+04  0.00000000000E+00 0. -1.
         24    2    1    2    0    0  0.32769089598E+03  0.23849370693E+03 -0.26007054914E+03  0.48845652679E+03  0.81807802061E+02 0.  0.
        254    2    1    2    0    0 -0.32769089598E+03 -0.23849370693E+03 -0.13127561986E+04  0.16447473446E+04  0.90421480804E+03 0.  0.
         23    2    4    4    0    0  0.29886110789E+03 -0.13038549799E+02 -0.36710263620E+03  0.48438060779E+03  0.10184430324E+03 0.  0.
         23    2    4    4    0    0 -0.62655200387E+03 -0.22545515713E+03 -0.94565356236E+03  0.11603667368E+04  0.93770264104E+02 0.  0.
          2    1    3    3  502    0  0.10914259052E+01  0.18997634259E+02 -0.55823089652E+01  0.19830872178E+02  0.00000000000E+00 0. -1.
         -1    1    3    3    0  502  0.32659947007E+03  0.21949607267E+03 -0.25448824018E+03  0.46862565461E+03  0.00000000000E+00 0.  1.
         11    1    5    5    0    0  0.28368120783E+03 -0.13750237957E+02 -0.29043853113E+03  0.40622486025E+03  0.00000000000E+00 0. -1.
        -11    1    5    5    0    0  0.15179900053E+02  0.71168815761E+00 -0.76664105076E+02  0.78155747535E+02  0.00000000000E+00 0.  1.
          2    1    6    6  503    0 -0.45067464823E+03 -0.14741278883E+03 -0.73863829633E+03  0.87773840162E+03  0.00000000000E+00 0. -1.
         -2    1    6    6    0  503 -0.17587735564E+03 -0.78042368301E+02 -0.20701526603E+03  0.28262833518E+03  0.00000000000E+00 0.  1.
<mgrwt>
<rscale>  0 0.14411019E+04</rscale>
<asrwt>0</asrwt>
<pdfrwt beam="1">  1        2 0.28507929E+00 0.14411019E+04</pdfrwt>
<pdfrwt beam="2">  1       -1 0.43105931E-01 0.14411019E+04</pdfrwt>
<totfact> 0.47303939E+01</totfact>
</mgrwt>
</event>
<event>
12    6  0.1521603E-007  0.2235287E+04  0.7818608E-02  0.8503883E-01
         -1   -1    0    0    0  501 -0.00000000000E+00  0.00000000000E+00  0.82403698925E+03  0.82403698925E+03  0.00000000000E+00 0.  1.
          2   -1    0    0  501    0  0.00000000000E+00 -0.00000000000E+00 -0.15158629028E+04  0.15158629028E+04  0.00000000000E+00 0. -1.
         24    2    1    2    0    0  0.66054385960E+03 -0.58010702118E+03 -0.61134755270E+03  0.10735234621E+04  0.76579677978E+02 0.  0.
        254    2    1    2    0    0 -0.66054385960E+03  0.58010702118E+03 -0.80478360831E+02  0.12663764299E+04  0.90795933232E+03 0.  0.
         23    2    4    4    0    0 -0.62603113834E+01  0.69441855717E+02  0.32016992657E+03  0.33995266674E+03  0.90540990271E+02 0.  0.
         23    2    4    4    0    0 -0.65428354822E+03  0.51066516546E+03 -0.40064828740E+03  0.92642376316E+03  0.94212876304E+02 0.  0.
          2    1    3    3  502    0  0.42810385059E+03 -0.35793888486E+03 -0.42906277526E+03  0.70390909732E+03  0.00000000000E+00 0. -1.
         -1    1    3    3    0  502  0.23244000901E+03 -0.22216813633E+03 -0.18228477744E+03  0.36961436481E+03  0.00000000000E+00 0.  1.
         11    1    5    5    0    0  0.37517147080E-01 -0.21574398948E+02  0.85282405212E+02  0.87968998723E+02  0.00000000000E+00 0. -1.
        -11    1    5    5    0    0 -0.62978285305E+01  0.91016254665E+02  0.23488752135E+03  0.25198366801E+03  0.00000000000E+00 0.  1.
          4    1    6    6  503    0 -0.56427435672E+03  0.40081251353E+03 -0.31377111929E+03  0.75993982391E+03  0.00000000000E+00 0.  1.
         -4    1    6    6    0  503 -0.90009191494E+02  0.10985265193E+03 -0.86877168108E+02  0.16648393925E+03  0.00000000000E+00 0. -1.
<mgrwt>
<rscale>  0 0.22352871E+04</rscale>
<asrwt>0</asrwt>
<pdfrwt beam="1">  1        2 0.23320968E+00 0.22352871E+04</pdfrwt>
<pdfrwt beam="2">  1       -1 0.12677492E+00 0.22352871E+04</pdfrwt>
<totfact> 0.69749261E+00</totfact>
</mgrwt>
</event>
<event>
12    6  0.1521603E-007  0.2398429E+04  0.7818608E-02  0.8440092E-01
          2   -1    0    0  501    0  0.00000000000E+00  0.00000000000E+00  0.58287200199E+03  0.58287200199E+03  0.00000000000E+00 0. -1.
         -3   -1    0    0    0  501 -0.00000000000E+00 -0.00000000000E+00 -0.24672925326E+04  0.24672925326E+04  0.00000000000E+00 0.  1.
         24    2    1    2    0    0 -0.66436713400E+03 -0.78412737670E+03 -0.86175596750E+03  0.13435909233E+04  0.79836020117E+02 0.  0.
        254    2    1    2    0    0  0.66436713400E+03  0.78412737670E+03 -0.10226645631E+04  0.17065736112E+04  0.90017290021E+03 0.  0.
         23    2    4    4    0    0  0.21523676998E+03  0.20270214530E+03 -0.90576378265E+03  0.95728050332E+03  0.92535967109E+02 0.  0.
         23    2    4    4    0    0  0.44913036402E+03  0.58142523140E+03 -0.11690078041E+03  0.74929310789E+03  0.89448227866E+02 0.  0.
          2    1    3    3  502    0 -0.39641933604E+03 -0.44473803231E+03 -0.54651092466E+03  0.80846422193E+03  0.00000000000E+00 0. -1.
         -1    1    3    3    0  502 -0.26794779796E+03 -0.33938934439E+03 -0.31524504284E+03  0.53512670140E+03  0.00000000000E+00 0.  1.
         11    1    5    5    0    0  0.34808197949E+02  0.86646066845E+02 -0.22819752259E+03  0.24656289433E+03  0.00000000000E+00 0. -1.
        -11    1    5    5    0    0  0.18042857203E+03  0.11605607845E+03 -0.67756626006E+03  0.71071760899E+03  0.00000000000E+00 0.  1.
          2    1    6    6  503    0  0.13759538041E+03  0.24867363816E+03 -0.39248532952E+02  0.28689983333E+03  0.00000000000E+00 0.  1.
         -2    1    6    6    0  503  0.31153498362E+03  0.33275159324E+03 -0.77652247457E+02  0.46239327456E+03  0.00000000000E+00 0. -1.
<mgrwt>
<rscale>  0 0.23984293E+04</rscale>
<asrwt>0</asrwt>
<pdfrwt beam="1">  1        2 0.89672617E-01 0.23984293E+04</pdfrwt>
<pdfrwt beam="2">  1       -3 0.37958346E+00 0.23984293E+04</pdfrwt>
<totfact> 0.39432321E-01</totfact>
</mgrwt>
</event>
<event>
12    6  0.1521603E-007  0.1746118E+04  0.7818608E-02  0.8735490E-01
         -1   -1    0    0    0  501 -0.00000000000E+00  0.00000000000E+00  0.44227721081E+03  0.44227721081E+03  0.00000000000E+00 0.  1.
          2   -1    0    0  501    0  0.00000000000E+00 -0.00000000000E+00 -0.17234262793E+04  0.17234262793E+04  0.00000000000E+00 0. -1.
         24    2    1    2    0    0  0.48035212264E+03 -0.89916625255E+01  0.53422483870E+02  0.48987042319E+03  0.79372904792E+02 0.  0.
        254    2    1    2    0    0 -0.48035212264E+03  0.89916625255E+01 -0.13345715524E+04  0.16758330669E+04  0.89247757848E+03 0.  0.
         23    2    4    4    0    0 -0.41316082802E+03  0.13242928297E+03 -0.14197070347E+04  0.14876798643E+04  0.96870684069E+02 0.  0.
         23    2    4    4    0    0 -0.67191294623E+02 -0.12343762044E+03  0.85135482340E+02  0.18815320263E+03  0.91662757391E+02 0.  0.
          2    1    3    3  502    0  0.35493173568E+01  0.11855541328E+01  0.10364340926E+02  0.11019199387E+02  0.00000000000E+00 0. -1.
         -1    1    3    3    0  502  0.47680280528E+03 -0.10177216658E+02  0.43058142944E+02  0.47885122380E+03  0.00000000000E+00 0.  1.
         11    1    5    5    0    0 -0.29087828256E+02  0.99218375889E+01 -0.40986799907E+02  0.51229506931E+02  0.00000000000E+00 0. -1.
        -11    1    5    5    0    0 -0.38407299976E+03  0.12250744538E+03 -0.13787202348E+04  0.14364503574E+04  0.00000000000E+00 0.  1.
          4    1    6    6  503    0 -0.29636072609E+02 -0.65383655616E+00  0.44515659040E+02  0.53482410209E+02  0.00000000000E+00 0. -1.
         -4    1    6    6    0  503 -0.37555222014E+02 -0.12278378389E+03  0.40619823300E+02  0.13467079242E+03  0.00000000000E+00 0.  1.
<mgrwt>
<rscale>  0 0.17461182E+04</rscale>
<asrwt>0</asrwt>
<pdfrwt beam="1">  1        2 0.26514251E+00 0.17461182E+04</pdfrwt>
<pdfrwt beam="2">  1       -1 0.68042646E-01 0.17461182E+04</pdfrwt>
<totfact> 0.22474975E+01</totfact>
</mgrwt>
</event>
<event>
12    6  0.1521603E-007  0.1324034E+04  0.7818608E-02  0.9010720E-01
         -1   -1    0    0    0  501 -0.00000000000E+00  0.00000000000E+00  0.40424128618E+03  0.40424128618E+03  0.00000000000E+00 0.  1.
          2   -1    0    0  501    0  0.00000000000E+00 -0.00000000000E+00 -0.10841703643E+04  0.10841703643E+04  0.00000000000E+00 0. -1.
         24    2    1    2    0    0  0.21428093217E+02 -0.31936420995E+03 -0.15109244260E+02  0.32925355266E+03  0.75676620575E+02 0.  0.
        254    2    1    2    0    0 -0.21428093217E+02  0.31936420995E+03 -0.66481983387E+03  0.11591580978E+04  0.89398513550E+03 0.  0.
         23    2    4    4    0    0 -0.41455937263E+03  0.25931028972E+03 -0.53274889318E+03  0.72921807579E+03  0.94001697255E+02 0.  0.
         23    2    4    4    0    0  0.39313127941E+03  0.60053920228E+02 -0.13207094069E+03  0.42994002204E+03  0.96161390347E+02 0.  0.
          2    1    3    3  502    0 -0.23412108589E+02 -0.49856006072E+02  0.49731153034E+01  0.55303526523E+02  0.00000000000E+00 0. -1.
         -1    1    3    3    0  502  0.44840201805E+02 -0.26950820387E+03 -0.20082359563E+02  0.27395002613E+03  0.00000000000E+00 0.  1.
         11    1    5    5    0    0 -0.18149789310E+03  0.11093768697E+03 -0.30117283469E+03  0.36871904202E+03  0.00000000000E+00 0.  1.
        -11    1    5    5    0    0 -0.23306147953E+03  0.14837260275E+03 -0.23157605849E+03  0.36049903377E+03  0.00000000000E+00 0. -1.
          4    1    6    6  503    0  0.29757185078E+00  0.11571299011E+02  0.25618830780E+01  0.11855241656E+02  0.00000000000E+00 0.  1.
         -4    1    6    6    0  503  0.39283370756E+03  0.48482621217E+02 -0.13463282377E+03  0.41808478039E+03  0.00000000000E+00 0. -1.
<mgrwt>
<rscale>  0 0.13240339E+04</rscale>
<asrwt>0</asrwt>
<pdfrwt beam="1">  1        2 0.16679544E+00 0.13240339E+04</pdfrwt>
<pdfrwt beam="2">  1       -1 0.62190968E-01 0.13240339E+04</pdfrwt>
<totfact> 0.65222701E+01</totfact>
</mgrwt>
</event>
<event>
12    6  0.1521603E-007  0.1773936E+04  0.7818608E-02  0.8720284E-01
          2   -1    0    0  501    0  0.00000000000E+00  0.00000000000E+00  0.13092218067E+04  0.13092218067E+04  0.00000000000E+00 0. -1.
         -1   -1    0    0    0  501 -0.00000000000E+00 -0.00000000000E+00 -0.60090093079E+03  0.60090093079E+03  0.00000000000E+00 0.  1.
         24    2    1    2    0    0  0.29978776490E+02 -0.52608443962E+03  0.68426883714E+03  0.86732050452E+03  0.79733627950E+02 0.  0.
        254    2    1    2    0    0 -0.29978776490E+02  0.52608443962E+03  0.24052038727E+02  0.10428022329E+04  0.89955235077E+03 0.  0.
         23    2    4    4    0    0  0.14913317043E+02 -0.18020609195E+03 -0.21064741454E+03  0.29156917514E+03  0.89126920921E+02 0.  0.
         23    2    4    4    0    0 -0.44892093533E+02  0.70629053157E+03  0.23469945327E+03  0.75123305779E+03  0.91682379446E+02 0.  0.
          4    1    3    3  502    0  0.41291487772E+02 -0.37544311086E+03  0.53546378569E+03  0.65527397495E+03  0.00000000000E+00 0. -1.
         -3    1    3    3    0  502 -0.11312711282E+02 -0.15064132876E+03  0.14880505145E+03  0.21204652958E+03  0.00000000000E+00 0.  1.
         11    1    5    5    0    0  0.18906156384E+02 -0.16993949090E+02 -0.75381781787E+02  0.79552813151E+02  0.00000000000E+00 0.  1.
        -11    1    5    5    0    0 -0.39928393408E+01 -0.16321214286E+03 -0.13526563276E+03  0.21201636198E+03  0.00000000000E+00 0. -1.
          1    1    6    6  503    0 -0.32786420421E+02  0.69601372039E+03  0.22332287810E+03  0.73169881523E+03  0.00000000000E+00 0. -1.
         -1    1    6    6    0  503 -0.12105673112E+02  0.10276811186E+02  0.11376575174E+02  0.19534242559E+02  0.00000000000E+00 0.  1.
<mgrwt>
<rscale>  0 0.17739364E+04</rscale>
<asrwt>0</asrwt>
<pdfrwt beam="1">  1        2 0.20141874E+00 0.17739364E+04</pdfrwt>
<pdfrwt beam="2">  1       -1 0.92446297E-01 0.17739364E+04</pdfrwt>
<totfact> 0.20042071E+01</totfact>
</mgrwt>
</event>
<event>
12    6  0.1521603E-007  0.1561011E+04  0.7818608E-02  0.8844865E-01
          2   -1    0    0  501    0  0.00000000000E+00  0.00000000000E+00  0.15187170263E+04  0.15187170263E+04  0.00000000000E+00 0. -1.
         -1   -1    0    0    0  501 -0.00000000000E+00 -0.00000000000E+00 -0.40112052180E+03  0.40112052180E+03  0.00000000000E+00 0.  1.
         24    2    1    2    0    0  0.26412409431E+03  0.70250766481E+02 -0.16287630984E+03  0.32810093751E+03  0.80155009218E+02 0.  0.
        254    2    1    2    0    0 -0.26412409431E+03 -0.70250766481E+02  0.12804728143E+04  0.15917366106E+04  0.90516192025E+03 0.  0.
         23    2    4    4    0    0 -0.50473385581E+03  0.17311920123E+03  0.50976229863E+03  0.74346412448E+03  0.90303821950E+02 0.  0.
         23    2    4    4    0    0  0.24060976150E+03 -0.24336996771E+03  0.77071051570E+03  0.84827248610E+03  0.91921233439E+02 0.  0.
          4    1    3    3  502    0  0.65138434819E+02 -0.17141168407E+02 -0.42815847299E+02  0.79812481010E+02  0.00000000000E+00 0. -1.
         -1    1    3    3    0  502  0.19898565949E+03  0.87391934888E+02 -0.12006046254E+03  0.24828845650E+03  0.00000000000E+00 0.  1.
         11    1    5    5    0    0  0.64763008330E+00 -0.36134983754E+01 -0.68397248104E+00  0.37342487315E+01  0.00000000000E+00 0. -1.
        -11    1    5    5    0    0 -0.50538148589E+03  0.17673269961E+03  0.51044627111E+03  0.73972987575E+03  0.00000000000E+00 0.  1.
          4    1    6    6  503    0  0.33101097682E+02 -0.78233077602E+02  0.13551582573E+03  0.15993947644E+03  0.00000000000E+00 0. -1.
         -4    1    6    6    0  503  0.20750866382E+03 -0.16513689011E+03  0.63519468996E+03  0.68833300966E+03  0.00000000000E+00 0.  1.
<mgrwt>
<rscale>  0 0.15610107E+04</rscale>
<asrwt>0</asrwt>
<pdfrwt beam="1">  1        2 0.23364877E+00 0.15610107E+04</pdfrwt>
<pdfrwt beam="2">  1       -1 0.61710850E-01 0.15610107E+04</pdfrwt>
<totfact> 0.36158567E+01</totfact>
</mgrwt>
</event>
<event>
12    6  0.1521603E-007  0.2427516E+04  0.7818608E-02  0.8429273E-01
          2   -1    0    0  501    0  0.00000000000E+00  0.00000000000E+00  0.17732987936E+04  0.17732987936E+04  0.00000000000E+00 0. -1.
         -1   -1    0    0    0  501 -0.00000000000E+00 -0.00000000000E+00 -0.83077253835E+03  0.83077253835E+03  0.00000000000E+00 0.  1.
         24    2    1    2    0    0 -0.32645709752E+03  0.10011379717E+04  0.30977018098E+03  0.11005890130E+04  0.80542756250E+02 0.  0.
        254    2    1    2    0    0  0.32645709752E+03 -0.10011379717E+04  0.63275607430E+03  0.15034823190E+04  0.86673373021E+03 0.  0.
         23    2    4    4    0    0  0.39012769595E+02 -0.10273341220E+04  0.35156256220E+03  0.10903305921E+04  0.91033897392E+02 0.  0.
         23    2    4    4    0    0  0.28744432792E+03  0.26196150329E+02  0.28119351209E+03  0.41315172689E+03  0.91181567443E+02 0.  0.
          2    1    3    3  502    0 -0.29432712233E+03  0.82739712925E+03  0.27742177464E+03  0.92096542034E+03  0.00000000000E+00 0. -1.
         -1    1    3    3    0  502 -0.32129975189E+02  0.17374084244E+03  0.32348406348E+02  0.17962359264E+03  0.00000000000E+00 0.  1.
         11    1    5    5    0    0  0.61823497071E+02 -0.77630641664E+03  0.28863532572E+03  0.83053244883E+03  0.00000000000E+00 0.  1.
        -11    1    5    5    0    0 -0.22810727476E+02 -0.25102770538E+03  0.62927236482E+02  0.25979814327E+03  0.00000000000E+00 0. -1.
          2    1    6    6  503    0  0.18604736857E+03  0.58720547694E+01  0.11943793654E+03  0.22116402299E+03  0.00000000000E+00 0. -1.
         -2    1    6    6    0  503  0.10139695935E+03  0.20324095560E+02  0.16175557555E+03  0.19198770390E+03  0.00000000000E+00 0.  1.
<mgrwt>
<rscale>  0 0.24275156E+04</rscale>
<asrwt>0</asrwt>
<pdfrwt beam="1">  1        2 0.27281520E+00 0.24275156E+04</pdfrwt>
<pdfrwt beam="2">  1       -1 0.12781116E+00 0.24275156E+04</pdfrwt>
<totfact> 0.48271477E+00</totfact>
</mgrwt>
</event>
<event>
12    6  0.1521603E-007  0.1985598E+04  0.7818608E-02  0.8613384E-01
         -1   -1    0    0    0  501 -0.00000000000E+00  0.00000000000E+00  0.66781375905E+03  0.66781375905E+03  0.00000000000E+00 0.  1.
          2   -1    0    0  501    0  0.00000000000E+00 -0.00000000000E+00 -0.14759358694E+04  0.14759358694E+04  0.00000000000E+00 0. -1.
         24    2    1    2    0    0  0.72039995602E+03  0.31667154486E+03 -0.32264452589E+03  0.85430275446E+03  0.80478209659E+02 0.  0.
        254    2    1    2    0    0 -0.72039995602E+03 -0.31667154486E+03 -0.48547758444E+03  0.12894468740E+04  0.89873677561E+03 0.  0.
         23    2    4    4    0    0 -0.44237763243E+03  0.24293742100E+03 -0.40384436132E+03  0.65286017349E+03  0.91758257198E+02 0.  0.
         23    2    4    4    0    0 -0.27802232359E+03 -0.55960896585E+03 -0.81633223121E+02  0.63658670048E+03  0.90111248097E+02 0.  0.
          4    1    3    3  502    0  0.43202692931E+02  0.10856577615E+02 -0.81352545562E+00  0.44553336325E+02  0.00000000000E+00 0. -1.
         -3    1    3    3    0  502  0.67719726309E+03  0.30581496724E+03 -0.32183100043E+03  0.80974941813E+03  0.00000000000E+00 0.  1.
         11    1    5    5    0    0 -0.26253314210E+03  0.95547039759E+02 -0.19940822610E+03  0.34324412325E+03  0.00000000000E+00 0. -1.
        -11    1    5    5    0    0 -0.17984449033E+03  0.14739038124E+03 -0.20443613522E+03  0.30961605024E+03  0.00000000000E+00 0.  1.
          1    1    6    6  503    0 -0.33016792667E+02 -0.87924769017E+02  0.18480165786E+02  0.95720374697E+02  0.00000000000E+00 0. -1.
         -1    1    6    6    0  503 -0.24500553092E+03 -0.47168419684E+03 -0.10011338891E+03  0.54086632578E+03  0.00000000000E+00 0.  1.
<mgrwt>
<rscale>  0 0.19855984E+04</rscale>
<asrwt>0</asrwt>
<pdfrwt beam="1">  1        2 0.22706705E+00 0.19855984E+04</pdfrwt>
<pdfrwt beam="2">  1       -1 0.10274058E+00 0.19855984E+04</pdfrwt>
<totfact> 0.12431973E+01</totfact>
</mgrwt>
</event>
<event>
12    6  0.1521603E-007  0.1861532E+04  0.7818608E-02  0.8674245E-01
          2   -1    0    0  501    0  0.00000000000E+00  0.00000000000E+00  0.17005394598E+04  0.17005394598E+04  0.00000000000E+00 0. -1.
         -1   -1    0    0    0  501 -0.00000000000E+00 -0.00000000000E+00 -0.50944159226E+03  0.50944159226E+03  0.00000000000E+00 0.  1.
         24    2    1    2    0    0 -0.13770127456E+03 -0.56601121631E+02  0.12318278157E+04  0.12432573589E+04  0.78254487532E+02 0.  0.
        254    2    1    2    0    0  0.13770127456E+03  0.56601121631E+02 -0.40729948156E+02  0.96672369322E+03  0.95432198045E+03 0.  0.
         23    2    4    4    0    0  0.39137737639E+03 -0.20782654953E+03  0.22382039789E+03  0.50559769823E+03  0.95735763991E+02 0.  0.
         23    2    4    4    0    0 -0.25367610182E+03  0.26442767116E+03 -0.26455034605E+03  0.46112599499E+03  0.91524530856E+02 0.  0.
          4    1    3    3  502    0 -0.11729832346E+03 -0.63600029481E+02  0.81318970930E+03  0.82406393183E+03  0.00000000000E+00 0. -1.
         -3    1    3    3    0  502 -0.20402951103E+02  0.69989078506E+01  0.41863810642E+03  0.41919342704E+03  0.00000000000E+00 0.  1.
         11    1    5    5    0    0  0.34626781500E+02 -0.30539622940E+02 -0.45747430066E+01  0.46396237347E+02  0.00000000000E+00 0.  1.
        -11    1    5    5    0    0  0.35675059489E+03 -0.17728692659E+03  0.22839514090E+03  0.45920146088E+03  0.00000000000E+00 0. -1.
          4    1    6    6  503    0 -0.14141563546E+03  0.17346771687E+03 -0.20933820178E+03  0.30645050738E+03  0.00000000000E+00 0. -1.
         -4    1    6    6    0  503 -0.11226046636E+03  0.90959954286E+02 -0.55212144270E+02  0.15467548761E+03  0.00000000000E+00 0.  1.
<mgrwt>
<rscale>  0 0.18615322E+04</rscale>
<asrwt>0</asrwt>
<pdfrwt beam="1">  1        2 0.26162145E+00 0.18615322E+04</pdfrwt>
<pdfrwt beam="2">  1       -1 0.78375630E-01 0.18615322E+04</pdfrwt>
<totfact> 0.17087203E+01</totfact>
</mgrwt>
</event>
<event>
12    6  0.1521603E-007  0.1664268E+04  0.7818608E-02  0.8782010E-01
          2   -1    0    0  501    0  0.00000000000E+00  0.00000000000E+00  0.14992465648E+04  0.14992465648E+04  0.00000000000E+00 0. -1.
         -1   -1    0    0    0  501 -0.00000000000E+00 -0.00000000000E+00 -0.46186357028E+03  0.46186357028E+03  0.00000000000E+00 0.  1.
         24    2    1    2    0    0 -0.28013535642E+02  0.23714543520E+03 -0.25867301165E+03  0.36096568691E+03  0.79760795848E+02 0.  0.
        254    2    1    2    0    0  0.28013535642E+02 -0.23714543520E+03  0.12960560062E+04  0.16001444482E+04  0.90756728030E+03 0.  0.
         23    2    4    4    0    0 -0.35038154200E+03 -0.72086841499E+02  0.18664191781E+03  0.41363923495E+03  0.91095957702E+02 0.  0.
         23    2    4    4    0    0  0.37839507764E+03 -0.16505859371E+03  0.11094140884E+04  0.11865052133E+04  0.81042133541E+02 0.  0.
          4    1    3    3  502    0 -0.22014285388E+02  0.24227074199E+02 -0.66342931130E+02  0.73979486322E+02  0.00000000000E+00 0. -1.
         -3    1    3    3    0  502 -0.59992502534E+01  0.21291836101E+03 -0.19233008052E+03  0.28698620059E+03  0.00000000000E+00 0.  1.
         11    1    5    5    0    0 -0.91511981471E+02 -0.50671707895E+02  0.84705204712E+02  0.13459954101E+03  0.00000000000E+00 0.  1.
        -11    1    5    5    0    0 -0.25886956053E+03 -0.21415133604E+02  0.10193671310E+03  0.27903969394E+03  0.00000000000E+00 0. -1.
          3    1    6    6  503    0  0.22614734842E+02 -0.34245022561E+02  0.12854315527E+03  0.13493513467E+03  0.00000000000E+00 0. -1.
         -3    1    6    6    0  503  0.35578034280E+03 -0.13081357114E+03  0.98087093313E+03  0.10515700786E+04  0.00000000000E+00 0.  1.
<mgrwt>
<rscale>  0 0.16642685E+04</rscale>
<asrwt>0</asrwt>
<pdfrwt beam="1">  1        2 0.23065332E+00 0.16642685E+04</pdfrwt>
<pdfrwt beam="2">  1       -1 0.71055934E-01 0.16642685E+04</pdfrwt>
<totfact> 0.27638478E+01</totfact>
</mgrwt>
</event>
<event>
12    6  0.1521603E-007  0.1627811E+04  0.7818608E-02  0.8803643E-01
         -1   -1    0    0    0  501 -0.00000000000E+00  0.00000000000E+00  0.42051761775E+03  0.42051761775E+03  0.00000000000E+00 0.  1.
          2   -1    0    0  501    0  0.00000000000E+00 -0.00000000000E+00 -0.15753010969E+04  0.15753010969E+04  0.00000000000E+00 0. -1.
         24    2    1    2    0    0 -0.17496665805E+03  0.22614525414E+03 -0.99872394762E+03  0.10417364978E+04  0.77526769469E+02 0.  0.
        254    2    1    2    0    0  0.17496665805E+03 -0.22614525414E+03 -0.15605953149E+03  0.95408221677E+03  0.89675152166E+03 0.  0.
         23    2    4    4    0    0 -0.13707889237E+03 -0.32498124802E+03  0.23761172183E+03  0.43463020719E+03  0.89669684695E+02 0.  0.
         23    2    4    4    0    0  0.31204555042E+03  0.98835993887E+02 -0.39367125332E+03  0.51945200958E+03  0.87820016760E+02 0.  0.
          2    1    3    3  502    0 -0.13187203823E+03  0.16950192222E+03 -0.85216647437E+03  0.87881103551E+03  0.00000000000E+00 0. -1.
         -1    1    3    3    0  502 -0.43094619823E+02  0.56643331921E+02 -0.14655747326E+03  0.16292546233E+03  0.00000000000E+00 0.  1.
         11    1    5    5    0    0 -0.65405608861E+02 -0.65347626579E+02  0.81902032627E+02  0.12351578409E+03  0.00000000000E+00 0. -1.
        -11    1    5    5    0    0 -0.71673283507E+02 -0.25963362144E+03  0.15570968920E+03  0.31111442311E+03  0.00000000000E+00 0.  1.
          4    1    6    6  503    0  0.10093983547E+03  0.75440073860E+02 -0.13329230763E+03  0.18343089817E+03  0.00000000000E+00 0.  1.
         -4    1    6    6    0  503  0.21110571495E+03  0.23395920027E+02 -0.26037894569E+03  0.33602111141E+03  0.00000000000E+00 0. -1.
<mgrwt>
<rscale>  0 0.16278106E+04</rscale>
<asrwt>0</asrwt>
<pdfrwt beam="1">  1        2 0.24235401E+00 0.16278106E+04</pdfrwt>
<pdfrwt beam="2">  1       -1 0.64695019E-01 0.16278106E+04</pdfrwt>
<totfact> 0.30407737E+01</totfact>
</mgrwt>
</event>
<event>
12    6  0.1521603E-007  0.2482416E+04  0.7818608E-02  0.8409277E-01
          2   -1    0    0  501    0  0.00000000000E+00  0.00000000000E+00  0.19689109719E+04  0.19689109719E+04  0.00000000000E+00 0. -1.
         -1   -1    0    0    0  501 -0.00000000000E+00 -0.00000000000E+00 -0.78246165142E+03  0.78246165142E+03  0.00000000000E+00 0.  1.
         24    2    1    2    0    0 -0.48150178493E+03 -0.84502880014E+03  0.10274009057E+04  0.14167731588E+04  0.75999476770E+02 0.  0.
        254    2    1    2    0    0  0.48150178493E+03  0.84502880014E+03  0.15904841481E+03  0.13345994646E+04  0.89996760531E+03 0.  0.
         23    2    4    4    0    0  0.29267638885E+03  0.61537240634E+03 -0.32418194169E+03  0.75996338789E+03  0.90043059424E+02 0.  0.
         23    2    4    4    0    0  0.18882539608E+03  0.22965639380E+03  0.48323035650E+03  0.57463607667E+03  0.91093104845E+02 0.  0.
          4    1    3    3  502    0 -0.32670255732E+03 -0.55709781737E+03  0.63032654654E+03  0.90244340230E+03  0.00000000000E+00 0. -1.
         -3    1    3    3    0  502 -0.15479922761E+03 -0.28793098277E+03  0.39707435916E+03  0.51432975649E+03  0.00000000000E+00 0.  1.
         11    1    5    5    0    0  0.10931440645E+03  0.27348372817E+03 -0.18496143912E+03  0.34778401773E+03  0.00000000000E+00 0.  1.
        -11    1    5    5    0    0  0.18336198239E+03  0.34188867818E+03 -0.13922050257E+03  0.41217937016E+03  0.00000000000E+00 0. -1.
          4    1    6    6  503    0  0.84558127838E+02  0.65804367615E+02  0.24405146512E+03  0.26653594393E+03  0.00000000000E+00 0. -1.
         -4    1    6    6    0  503  0.10426726825E+03  0.16385202618E+03  0.23917889138E+03  0.30810013273E+03  0.00000000000E+00 0.  1.
<mgrwt>
<rscale>  0 0.24824160E+04</rscale>
<asrwt>0</asrwt>
<pdfrwt beam="1">  1        2 0.30290938E+00 0.24824160E+04</pdfrwt>
<pdfrwt beam="2">  1       -1 0.12037872E+00 0.24824160E+04</pdfrwt>
<totfact> 0.43409055E+00</totfact>
</mgrwt>
</event>
<event>
12    6  0.1521603E-007  0.1467817E+04  0.7818608E-02  0.8906141E-01
         -1   -1    0    0    0  501 -0.00000000000E+00  0.00000000000E+00  0.38874743376E+03  0.38874743376E+03  0.00000000000E+00 0.  1.
          2   -1    0    0  501    0  0.00000000000E+00 -0.00000000000E+00 -0.13855303202E+04  0.13855303202E+04  0.00000000000E+00 0. -1.
         24    2    1    2    0    0  0.32068090632E+03 -0.31371720738E+03 -0.36992722868E+03  0.58667216900E+03  0.77995829897E+02 0.  0.
        254    2    1    2    0    0 -0.32068090632E+03  0.31371720738E+03 -0.62685565775E+03  0.11876055849E+04  0.90344024698E+03 0.  0.
         23    2    4    4    0    0 -0.13414787712E+03  0.57833623103E+03 -0.60116569808E+03  0.84971867347E+03  0.90294952437E+02 0.  0.
         23    2    4    4    0    0 -0.18653302920E+03 -0.26461902365E+03 -0.25689959664E+02  0.33788691148E+03  0.93219055246E+02 0.  0.
          4    1    3    3  502    0  0.32630875755E+02 -0.72853592687E+02 -0.67546313045E+02  0.10457018899E+03  0.00000000000E+00 0. -1.
         -3    1    3    3    0  502  0.28805003057E+03 -0.24086361469E+03 -0.30238091563E+03  0.48210198001E+03  0.00000000000E+00 0.  1.
         11    1    5    5    0    0 -0.81449915477E+02  0.22004779434E+03 -0.28339972577E+03  0.36792733671E+03  0.00000000000E+00 0.  1.
        -11    1    5    5    0    0 -0.52697961642E+02  0.35828843668E+03 -0.31776597231E+03  0.48179133676E+03  0.00000000000E+00 0. -1.
          3    1    6    6  503    0 -0.11253565559E+03 -0.10687373615E+03 -0.47462881420E+02  0.16229292767E+03  0.00000000000E+00 0. -1.
         -3    1    6    6    0  503 -0.73997373611E+02 -0.15774528750E+03  0.21772921756E+02  0.17559398381E+03  0.00000000000E+00 0.  1.
<mgrwt>
<rscale>  0 0.14678166E+04</rscale>
<asrwt>0</asrwt>
<pdfrwt beam="1">  1        2 0.21315852E+00 0.14678166E+04</pdfrwt>
<pdfrwt beam="2">  1       -1 0.59807296E-01 0.14678166E+04</pdfrwt>
<totfact> 0.46148562E+01</totfact>
</mgrwt>
</event>
<event>
12    6  0.1521603E-007  0.1616909E+04  0.7818608E-02  0.8810227E-01
          2   -1    0    0  501    0  0.00000000000E+00  0.00000000000E+00  0.52284500558E+03  0.52284500558E+03  0.00000000000E+00 0. -1.
         -1   -1    0    0    0  501 -0.00000000000E+00 -0.00000000000E+00 -0.12500807185E+04  0.12500807185E+04  0.00000000000E+00 0.  1.
         24    2    1    2    0    0 -0.22757678928E+03 -0.24622069604E+03  0.23328959609E+03  0.41834493756E+03  0.90402571621E+02 0.  0.
        254    2    1    2    0    0  0.22757678928E+03  0.24622069604E+03 -0.96052530898E+03  0.13545807865E+04  0.89435139166E+03 0.  0.
         23    2    4    4    0    0 -0.78152300918E+02  0.30752578512E+03 -0.97617133851E+03  0.10302725488E+04  0.88719512969E+02 0.  0.
         23    2    4    4    0    0  0.30572909020E+03 -0.61305089079E+02  0.15646029534E+02  0.32430823771E+03  0.87763570263E+02 0.  0.
          2    1    3    3  502    0 -0.17750307567E+03 -0.17784577459E+03  0.21708973422E+03  0.33206085906E+03  0.00000000000E+00 0. -1.
         -1    1    3    3    0  502 -0.50073713615E+02 -0.68374921449E+02  0.16199861870E+02  0.86284078502E+02  0.00000000000E+00 0.  1.
         11    1    5    5    0    0 -0.33469529914E+02  0.11130993590E+03 -0.49983182582E+03  0.51316855453E+03  0.00000000000E+00 0.  1.
        -11    1    5    5    0    0 -0.44682771004E+02  0.19621584922E+03 -0.47633951269E+03  0.51710399424E+03  0.00000000000E+00 0. -1.
          1    1    6    6  503    0  0.18376222674E+03 -0.39560857061E+02  0.52294981962E+02  0.19511120554E+03  0.00000000000E+00 0.  1.
         -1    1    6    6    0  503  0.12196686346E+03 -0.21744232018E+02 -0.36648952428E+02  0.12919703217E+03  0.00000000000E+00 0. -1.
<mgrwt>
<rscale>  0 0.16169087E+04</rscale>
<asrwt>0</asrwt>
<pdfrwt beam="1">  1        2 0.80437694E-01 0.16169087E+04</pdfrwt>
<pdfrwt beam="2">  1       -1 0.19232011E+00 0.16169087E+04</pdfrwt>
<totfact> 0.10886374E+01</totfact>
</mgrwt>
</event>
<event>
12    6  0.1521603E-007  0.2690802E+04  0.7818608E-02  0.8337995E-01
         -1   -1    0    0    0  501 -0.00000000000E+00  0.00000000000E+00  0.21928512467E+04  0.21928512467E+04  0.00000000000E+00 0.  1.
          2   -1    0    0  501    0  0.00000000000E+00 -0.00000000000E+00 -0.82545702441E+03  0.82545702441E+03  0.00000000000E+00 0. -1.
         24    2    1    2    0    0  0.16862419308E+03 -0.92937674526E+03 -0.20937984918E+03  0.97072666447E+03  0.79341557465E+02 0.  0.
        254    2    1    2    0    0 -0.16862419308E+03  0.92937674526E+03  0.15767740714E+04  0.20475816066E+04  0.90232960178E+03 0.  0.
         23    2    4    4    0    0 -0.53155854123E+03  0.54095162732E+03  0.85960484967E+03  0.11501063840E+04  0.92957253520E+02 0.  0.
         23    2    4    4    0    0  0.36293434816E+03  0.38842511794E+03  0.71716922176E+03  0.89747522265E+03  0.92383273984E+02 0.  0.
          4    1    3    3  502    0  0.17409701243E+03 -0.85399654309E+03 -0.20292148252E+03  0.89487261295E+03  0.00000000000E+00 0. -1.
         -3    1    3    3    0  502 -0.54728193519E+01 -0.75380202170E+02 -0.64583666592E+01  0.75854051512E+02  0.00000000000E+00 0.  1.
         11    1    5    5    0    0 -0.47021767507E+03  0.47188650089E+03  0.79587900802E+03  0.10378848332E+04  0.00000000000E+00 0. -1.
        -11    1    5    5    0    0 -0.61340866166E+02  0.69065126425E+02  0.63725841651E+02  0.11222155071E+03  0.00000000000E+00 0.  1.
          2    1    6    6  503    0  0.16098915110E+03  0.10749150541E+03  0.25583172240E+03  0.32081427757E+03  0.00000000000E+00 0. -1.
         -2    1    6    6    0  503  0.20194519705E+03  0.28093361253E+03  0.46133749937E+03  0.57666094508E+03  0.00000000000E+00 0.  1.
<mgrwt>
<rscale>  0 0.26908025E+04</rscale>
<asrwt>0</asrwt>
<pdfrwt beam="1">  1        2 0.12699339E+00 0.26908025E+04</pdfrwt>
<pdfrwt beam="2">  1       -1 0.33736173E+00 0.26908025E+04</pdfrwt>
<totfact> 0.62269575E-01</totfact>
</mgrwt>
</event>
<event>
12    6  0.1521603E-007  0.1667028E+04  0.7818608E-02  0.8780396E-01
         -1   -1    0    0    0  501 -0.00000000000E+00  0.00000000000E+00  0.22068649770E+04  0.22068649770E+04  0.00000000000E+00 0.  1.
          2   -1    0    0  501    0  0.00000000000E+00 -0.00000000000E+00 -0.31481126401E+03  0.31481126401E+03  0.00000000000E+00 0. -1.
         24    2    1    2    0    0  0.30596780496E+03  0.27024023115E+03  0.27473427584E+02  0.41696567151E+03  0.80371025837E+02 0.  0.
        254    2    1    2    0    0 -0.30596780496E+03 -0.27024023115E+03  0.18645802854E+04  0.21047105695E+04  0.88684883742E+03 0.  0.
         23    2    4    4    0    0 -0.57298921566E+03 -0.36130392601E+02  0.13808292601E+04  0.14982320450E+04  0.91584761577E+02 0.  0.
         23    2    4    4    0    0  0.26702141070E+03 -0.23410983855E+03  0.48375102521E+03  0.60647852442E+03  0.87711435489E+02 0.  0.
          2    1    3    3  502    0  0.28969000414E+03  0.27041040584E+03  0.37158635958E+02  0.39802368059E+03  0.00000000000E+00 0. -1.
         -1    1    3    3    0  502  0.16277800820E+02 -0.17017468682E+00 -0.96852083741E+01  0.18941990925E+02  0.00000000000E+00 0.  1.
         11    1    5    5    0    0 -0.10268095317E+03  0.24372516312E+02  0.21003632580E+03  0.23505883487E+03  0.00000000000E+00 0.  1.
        -11    1    5    5    0    0 -0.47030826248E+03 -0.60502908913E+02  0.11707929344E+04  0.12631732102E+04  0.00000000000E+00 0. -1.
          1    1    6    6  503    0  0.20943152769E+03 -0.15979363530E+03  0.40840486202E+03  0.48599393206E+03  0.00000000000E+00 0. -1.
         -1    1    6    6    0  503  0.57589883014E+02 -0.74316203246E+02  0.75346163190E+02  0.12048459237E+03  0.00000000000E+00 0.  1.
<mgrwt>
<rscale>  0 0.16670284E+04</rscale>
<asrwt>0</asrwt>
<pdfrwt beam="1">  1        2 0.48432504E-01 0.16670284E+04</pdfrwt>
<pdfrwt beam="2">  1       -1 0.33951768E+00 0.16670284E+04</pdfrwt>
<totfact> 0.20767727E+00</totfact>
</mgrwt>
</event>
<event>
12    6  0.1521603E-007  0.3421171E+04  0.7818608E-02  0.8132730E-01
          2   -1    0    0  501    0  0.00000000000E+00  0.00000000000E+00  0.24875806630E+04  0.24875806630E+04  0.00000000000E+00 0. -1.
         -1   -1    0    0    0  501 -0.00000000000E+00 -0.00000000000E+00 -0.11762844893E+04  0.11762844893E+04  0.00000000000E+00 0.  1.
         24    2    1    2    0    0 -0.96465037894E+03 -0.66600898883E+03  0.17613371864E+04  0.21172364692E+04  0.79140733812E+02 0.  0.
        254    2    1    2    0    0  0.96465037894E+03  0.66600898883E+03 -0.45004101264E+03  0.15466286831E+04  0.90299780929E+03 0.  0.
         23    2    4    4    0    0  0.17256709763E+03  0.65136680414E+03 -0.16211676807E+03  0.69898757935E+03  0.90794674329E+02 0.  0.
         23    2    4    4    0    0  0.79208328130E+03  0.14642184694E+02 -0.28792424458E+03  0.84764110376E+03  0.89357439928E+02 0.  0.
          2    1    3    3  502    0 -0.90779943933E+03 -0.64753724841E+03  0.16678532265E+04  0.20062748304E+04  0.00000000000E+00 0. -1.
         -1    1    3    3    0  502 -0.56850939608E+02 -0.18471740419E+02  0.93483959877E+02  0.11096163879E+03  0.00000000000E+00 0.  1.
         11    1    5    5    0    0  0.67575075584E+02  0.20141891067E+03 -0.10498954877E+02  0.21271153347E+03  0.00000000000E+00 0. -1.
        -11    1    5    5    0    0  0.10499202205E+03  0.44994789346E+03 -0.15161781319E+03  0.48627604589E+03  0.00000000000E+00 0.  1.
          2    1    6    6  503    0  0.48171856378E+03  0.26746568656E+00 -0.22013648782E+03  0.52963470383E+03  0.00000000000E+00 0. -1.
         -2    1    6    6    0  503  0.31036471752E+03  0.14374719007E+02 -0.67787756752E+02  0.31800639993E+03  0.00000000000E+00 0.  1.
<mgrwt>
<rscale>  0 0.34211709E+04</rscale>
<asrwt>0</asrwt>
<pdfrwt beam="1">  1        2 0.38270471E+00 0.34211709E+04</pdfrwt>
<pdfrwt beam="2">  1       -1 0.18096685E+00 0.34211709E+04</pdfrwt>
<totfact> 0.68118021E-01</totfact>
</mgrwt>
</event>
<event>
12    6  0.1521603E-007  0.1444785E+04  0.7818608E-02  0.8922024E-01
         -1   -1    0    0    0  501 -0.00000000000E+00  0.00000000000E+00  0.21959187159E+03  0.21959187159E+03  0.00000000000E+00 0.  1.
          2   -1    0    0  501    0  0.00000000000E+00 -0.00000000000E+00 -0.23764591977E+04  0.23764591977E+04  0.00000000000E+00 0. -1.
         24    2    1    2    0    0 -0.14487851291E+02 -0.36265295038E+03 -0.11026212763E+04  0.11635524836E+04  0.79709741487E+02 0.  0.
        254    2    1    2    0    0  0.14487851291E+02  0.36265295038E+03 -0.10542460499E+04  0.14324985857E+04  0.89938334666E+03 0.  0.
         23    2    4    4    0    0 -0.10812526565E+03  0.34677156887E+03 -0.82993622367E+01  0.37537515101E+03  0.94318770855E+02 0.  0.
         23    2    4    4    0    0  0.12261311694E+03  0.15881381516E+02 -0.10459466876E+04  0.10571234347E+04  0.90660290078E+02 0.  0.
          4    1    3    3  502    0 -0.46854191204E+02 -0.24493526460E+03 -0.75452858632E+03  0.79467099271E+03  0.00000000000E+00 0. -1.
         -3    1    3    3    0  502  0.32366339913E+02 -0.11771768579E+03 -0.34809268996E+03  0.36888149087E+03  0.00000000000E+00 0.  1.
         11    1    5    5    0    0 -0.10076516608E+03  0.33427463703E+03 -0.28738923607E+02  0.35031282789E+03  0.00000000000E+00 0.  1.
        -11    1    5    5    0    0 -0.73600995630E+01  0.12496931839E+02  0.20439561370E+02  0.25062323116E+02  0.00000000000E+00 0. -1.
          4    1    6    6  503    0 -0.12122638604E+02 -0.17032548967E+01 -0.34852032842E+02  0.36939459081E+02  0.00000000000E+00 0. -1.
         -4    1    6    6    0  503  0.13473575554E+03  0.17584636412E+02 -0.10110946548E+04  0.10201839757E+04  0.00000000000E+00 0.  1.
<mgrwt>
<rscale>  0 0.14447853E+04</rscale>
<asrwt>0</asrwt>
<pdfrwt beam="1">  1        2 0.36560909E+00 0.14447853E+04</pdfrwt>
<pdfrwt beam="2">  1       -1 0.33783366E-01 0.14447853E+04</pdfrwt>
<totfact> 0.37549296E+01</totfact>
</mgrwt>
</event>
<event>
12    6  0.1521603E-007  0.1456148E+04  0.7818608E-02  0.8914149E-01
         -1   -1    0    0    0  501 -0.00000000000E+00  0.00000000000E+00  0.15840057093E+03  0.15840057093E+03  0.00000000000E+00 0.  1.
          2   -1    0    0  501    0  0.00000000000E+00 -0.00000000000E+00 -0.33465257308E+04  0.33465257308E+04  0.00000000000E+00 0. -1.
         24    2    1    2    0    0  0.19587021626E+03 -0.41469258682E+02 -0.37342452030E+02  0.21860176892E+03  0.79419352922E+02 0.  0.
        254    2    1    2    0    0 -0.19587021626E+03  0.41469258682E+02 -0.31507827079E+04  0.32863245328E+04  0.91236638577E+03 0.  0.
         23    2    4    4    0    0 -0.11809791971E+03  0.41522196010E+03 -0.23937525927E+04  0.24340922236E+04  0.91635598291E+02 0.  0.
         23    2    4    4    0    0 -0.77772296549E+02 -0.37375270142E+03 -0.75703011513E+03  0.85223230925E+03  0.86404292648E+02 0.  0.
          4    1    3    3  502    0  0.13954623626E+03 -0.58717053039E+02 -0.47825325237E+02  0.15877060844E+03  0.00000000000E+00 0. -1.
         -3    1    3    3    0  502  0.56323980007E+02  0.17247794357E+02  0.10482873208E+02  0.59831160483E+02  0.00000000000E+00 0.  1.
         11    1    5    5    0    0 -0.13116628678E+03  0.38253765508E+03 -0.21357030640E+04  0.21736529691E+04  0.00000000000E+00 0.  1.
        -11    1    5    5    0    0  0.13068367066E+02  0.32684305024E+02 -0.25804952871E+03  0.26043925449E+03  0.00000000000E+00 0. -1.
          4    1    6    6  503    0 -0.54887154684E+02 -0.85511859071E+02 -0.21909451048E+03  0.24151041864E+03  0.00000000000E+00 0. -1.
         -4    1    6    6    0  503 -0.22885141864E+02 -0.28824084235E+03 -0.53793560465E+03  0.61072189061E+03  0.00000000000E+00 0.  1.
<mgrwt>
<rscale>  0 0.14561478E+04</rscale>
<asrwt>0</asrwt>
<pdfrwt beam="1">  1        2 0.51485009E+00 0.14561478E+04</pdfrwt>
<pdfrwt beam="2">  1       -1 0.24369319E-01 0.14561478E+04</pdfrwt>
<totfact> 0.16963213E+01</totfact>
</mgrwt>
</event>
<event>
12    6  0.1521603E-007  0.1740072E+04  0.7818608E-02  0.8738834E-01
          2   -1    0    0  501    0  0.00000000000E+00  0.00000000000E+00  0.18032354987E+04  0.18032354987E+04  0.00000000000E+00 0. -1.
         -1   -1    0    0    0  501 -0.00000000000E+00 -0.00000000000E+00 -0.41978010402E+03  0.41978010402E+03  0.00000000000E+00 0.  1.
         24    2    1    2    0    0 -0.22111404717E+03 -0.42372299016E+03  0.10677187666E+04  0.11724774615E+04  0.79040742352E+02 0.  0.
        254    2    1    2    0    0  0.22111404717E+03  0.42372299016E+03  0.31573662807E+03  0.10505381412E+04  0.88062941896E+03 0.  0.
         23    2    4    4    0    0  0.34472661972E+03 -0.15752571044E+03  0.20105432190E+03  0.43844940617E+03  0.90356237329E+02 0.  0.
         23    2    4    4    0    0 -0.12361257255E+03  0.58124870060E+03  0.11468230616E+03  0.61208873502E+03  0.91490262577E+02 0.  0.
          4    1    3    3  502    0 -0.11713808802E+03 -0.25457093181E+03  0.71086247741E+03  0.76410284175E+03  0.00000000000E+00 0. -1.
         -3    1    3    3    0  502 -0.10397595915E+03 -0.16915205835E+03  0.35685628917E+03  0.40837461974E+03  0.00000000000E+00 0.  1.
         11    1    5    5    0    0  0.23659491139E+03 -0.11322906417E+03  0.18391083989E+03  0.32034539188E+03  0.00000000000E+00 0.  1.
        -11    1    5    5    0    0  0.10813170833E+03 -0.44296646273E+02  0.17143482013E+02  0.11810401429E+03  0.00000000000E+00 0. -1.
          4    1    6    6  503    0 -0.17264697571E+02  0.11623150754E+03 -0.13134598674E+02  0.11823853353E+03  0.00000000000E+00 0. -1.
         -4    1    6    6    0  503 -0.10634787498E+03  0.46501719306E+03  0.12781690484E+03  0.49385020149E+03  0.00000000000E+00 0.  1.
<mgrwt>
<rscale>  0 0.17400717E+04</rscale>
<asrwt>0</asrwt>
<pdfrwt beam="1">  1        2 0.27742084E+00 0.17400717E+04</pdfrwt>
<pdfrwt beam="2">  1       -1 0.64581556E-01 0.17400717E+04</pdfrwt>
<totfact> 0.22571213E+01</totfact>
</mgrwt>
</event>
<event>
12    6  0.1521603E-007  0.1365402E+04  0.7818608E-02  0.8979250E-01
          2   -1    0    0  501    0  0.00000000000E+00  0.00000000000E+00  0.66638748049E+03  0.66638748049E+03  0.00000000000E+00 0. -1.
         -1   -1    0    0    0  501 -0.00000000000E+00 -0.00000000000E+00 -0.69941353906E+03  0.69941353906E+03  0.00000000000E+00 0.  1.
         24    2    1    2    0    0 -0.14023031778E+03  0.35077675329E+03  0.61835557580E+02  0.39067708858E+03  0.78077389063E+02 0.  0.
        254    2    1    2    0    0  0.14023031778E+03 -0.35077675329E+03 -0.94861616148E+02  0.97512393097E+03  0.89395697987E+03 0.  0.
         23    2    4    4    0    0  0.38807460994E+03 -0.23737300395E+03 -0.35777068146E+03  0.58545654772E+03  0.88383612014E+02 0.  0.
         23    2    4    4    0    0 -0.24784429216E+03 -0.11340374935E+03  0.26290906532E+03  0.38966738324E+03  0.91827498146E+02 0.  0.
          2    1    3    3  502    0 -0.11120815718E+03  0.24160537988E+03  0.93986288674E+01  0.26613670930E+03  0.00000000000E+00 0. -1.
         -1    1    3    3    0  502 -0.29022160600E+02  0.10917137341E+03  0.52436928713E+02  0.12454037928E+03  0.00000000000E+00 0.  1.
         11    1    5    5    0    0  0.54843410181E+02 -0.37833668037E+02 -0.17023906959E+02  0.68767721248E+02  0.00000000000E+00 0. -1.
        -11    1    5    5    0    0  0.33323119976E+03 -0.19953933591E+03 -0.34074677451E+03  0.51668882648E+03  0.00000000000E+00 0.  1.
          3    1    6    6  503    0 -0.64336002119E+02 -0.57945055768E+01  0.21915114226E+02  0.68212679870E+02  0.00000000000E+00 0. -1.
         -3    1    6    6    0  503 -0.18350829004E+03 -0.10760924377E+03  0.24099395109E+03  0.32145470337E+03  0.00000000000E+00 0.  1.
<mgrwt>
<rscale>  0 0.13654017E+04</rscale>
<asrwt>0</asrwt>
<pdfrwt beam="1">  1        2 0.10252115E+00 0.13654017E+04</pdfrwt>
<pdfrwt beam="2">  1       -1 0.10760208E+00 0.13654017E+04</pdfrwt>
<totfact> 0.39079521E+01</totfact>
</mgrwt>
</event>
<event>
12    6  0.1521603E-007  0.1514977E+04  0.7818608E-02  0.8874554E-01
         -1   -1    0    0    0  501 -0.00000000000E+00  0.00000000000E+00  0.27512285592E+03  0.27512285592E+03  0.00000000000E+00 0.  1.
          2   -1    0    0  501    0  0.00000000000E+00 -0.00000000000E+00 -0.20855728901E+04  0.20855728901E+04  0.00000000000E+00 0. -1.
         24    2    1    2    0    0 -0.60996669698E+02  0.41270280735E+03 -0.94235877823E+03  0.10345676840E+04  0.90807626279E+02 0.  0.
        254    2    1    2    0    0  0.60996669698E+02 -0.41270280735E+03 -0.86809125590E+03  0.13261280620E+04  0.91158598455E+03 0.  0.
         23    2    4    4    0    0  0.21411988408E+03 -0.26168493501E+03  0.73229729800E+02  0.35631866003E+03  0.85288124535E+02 0.  0.
         23    2    4    4    0    0 -0.15312321438E+03 -0.15101787234E+03 -0.94132098570E+03  0.96980940194E+03  0.90509454806E+02 0.  0.
          2    1    3    3  502    0 -0.81781781769E+02  0.29311110786E+03 -0.63651618784E+03  0.70551770975E+03  0.00000000000E+00 0. -1.
         -1    1    3    3    0  502  0.20785112072E+02  0.11959169949E+03 -0.30584259039E+03  0.32904997427E+03  0.00000000000E+00 0.  1.
         11    1    5    5    0    0  0.95345436917E+02 -0.60138181092E+02  0.42024354530E+02  0.12030544268E+03  0.00000000000E+00 0.  1.
        -11    1    5    5    0    0  0.11877444716E+03 -0.20154675392E+03  0.31205375270E+02  0.23601321734E+03  0.00000000000E+00 0. -1.
          2    1    6    6  503    0 -0.11721399509E+03 -0.81183927431E+02 -0.74205272366E+03  0.75562702136E+03  0.00000000000E+00 0. -1.
         -2    1    6    6    0  503 -0.35909219286E+02 -0.69833944908E+02 -0.19926826205E+03  0.21418238058E+03  0.00000000000E+00 0.  1.
<mgrwt>
<rscale>  0 0.15149769E+04</rscale>
<asrwt>0</asrwt>
<pdfrwt beam="1">  1        2 0.32085737E+00 0.15149769E+04</pdfrwt>
<pdfrwt beam="2">  1       -1 0.42326593E-01 0.15149769E+04</pdfrwt>
<totfact> 0.36137766E+01</totfact>
</mgrwt>
</event>
<event>
12    6  0.1521603E-007  0.3036965E+04  0.7818608E-02  0.8233253E-01
          2   -1    0    0  501    0  0.00000000000E+00  0.00000000000E+00  0.18633890414E+04  0.18633890414E+04  0.00000000000E+00 0. -1.
         -1   -1    0    0    0  501 -0.00000000000E+00 -0.00000000000E+00 -0.12374171058E+04  0.12374171058E+04  0.00000000000E+00 0.  1.
         24    2    1    2    0    0  0.61346549844E+03 -0.69208300026E+03  0.13366875690E+04  0.16272075887E+04  0.75842486140E+02 0.  0.
        254    2    1    2    0    0 -0.61346549844E+03  0.69208300026E+03 -0.71071563334E+03  0.14735985585E+04  0.90058714349E+03 0.  0.
         23    2    4    4    0    0  0.75809391151E+02  0.20015385325E+03  0.13862720012E+03  0.27054136532E+03  0.90368694682E+02 0.  0.
         23    2    4    4    0    0 -0.68927488959E+03  0.49192914701E+03 -0.84934283346E+03  0.12030571932E+04  0.94176441582E+02 0.  0.
          2    1    3    3  502    0  0.36615356654E+03 -0.42994332252E+03  0.87689812451E+03  0.10430100746E+04  0.00000000000E+00 0. -1.
         -1    1    3    3    0  502  0.24731193190E+03 -0.26213967774E+03  0.45978944449E+03  0.58419751418E+03  0.00000000000E+00 0.  1.
         11    1    5    5    0    0  0.59976797100E+02  0.13798294384E+03  0.14120002212E+03  0.20633457109E+03  0.00000000000E+00 0. -1.
        -11    1    5    5    0    0  0.15832594051E+02  0.62170909412E+02 -0.25728220074E+01  0.64206794224E+02  0.00000000000E+00 0.  1.
          3    1    6    6  503    0 -0.62379222223E+03  0.47534210401E+03 -0.77437563384E+03  0.11021453963E+04  0.00000000000E+00 0. -1.
         -3    1    6    6    0  503 -0.65482667357E+02  0.16587043004E+02 -0.74967199615E+02  0.10091179682E+03  0.00000000000E+00 0.  1.
<mgrwt>
<rscale>  0 0.30369652E+04</rscale>
<asrwt>0</asrwt>
<pdfrwt beam="1">  1        2 0.28667524E+00 0.30369652E+04</pdfrwt>
<pdfrwt beam="2">  1       -1 0.19037186E+00 0.30369652E+04</pdfrwt>
<totfact> 0.13571809E+00</totfact>
</mgrwt>
</event>
<event>
12    6  0.1521603E-007  0.2277282E+04  0.7818608E-02  0.8486933E-01
         -1   -1    0    0    0  501 -0.00000000000E+00  0.00000000000E+00  0.42123689005E+03  0.42123689005E+03  0.00000000000E+00 0.  1.
          2   -1    0    0  501    0  0.00000000000E+00 -0.00000000000E+00 -0.30778486816E+04  0.30778486816E+04  0.00000000000E+00 0. -1.
         24    2    1    2    0    0 -0.93267209955E+03 -0.19364821299E+03 -0.12911675583E+04  0.16064382061E+04  0.78442148997E+02 0.  0.
        254    2    1    2    0    0  0.93267209955E+03  0.19364821299E+03 -0.13654442333E+04  0.18926473656E+04  0.90016621829E+03 0.  0.
         23    2    4    4    0    0  0.75499419057E+03 -0.86163152457E+02 -0.13453141855E+04  0.15478416820E+04  0.92213328711E+02 0.  0.
         23    2    4    4    0    0  0.17767790898E+03  0.27981136545E+03 -0.20130047745E+02  0.34480568361E+03  0.92854192458E+02 0.  0.
          2    1    3    3  502    0 -0.27180970375E+02 -0.16517723660E+02 -0.29364675620E+02  0.43288849831E+02  0.00000000000E+00 0. -1.
         -1    1    3    3    0  502 -0.90549112918E+03 -0.17713048933E+03 -0.12618028827E+04  0.15631493563E+04  0.00000000000E+00 0.  1.
         11    1    5    5    0    0  0.45754722897E+03 -0.81109494262E+02 -0.88898338420E+03  0.10031050165E+04  0.00000000000E+00 0. -1.
        -11    1    5    5    0    0  0.29744696160E+03 -0.50536581950E+01 -0.45633080133E+03  0.54473666543E+03  0.00000000000E+00 0.  1.
          3    1    6    6  503    0 -0.11163177136E+02  0.11158852375E+02 -0.21674141705E+01  0.15932174814E+02  0.00000000000E+00 0. -1.
         -3    1    6    6    0  503  0.18884108612E+03  0.26865251307E+03 -0.17962633574E+02  0.32887350880E+03  0.00000000000E+00 0.  1.
<mgrwt>
<rscale>  0 0.22772821E+04</rscale>
<asrwt>0</asrwt>
<pdfrwt beam="1">  1        2 0.47351520E+00 0.22772821E+04</pdfrwt>
<pdfrwt beam="2">  1       -1 0.64805673E-01 0.22772821E+04</pdfrwt>
<totfact> 0.38829408E+00</totfact>
</mgrwt>
</event>
<event>
12    6  0.1521603E-007  0.1253516E+04  0.7818608E-02  0.9067262E-01
          2   -1    0    0  501    0  0.00000000000E+00  0.00000000000E+00  0.16123056773E+04  0.16123056773E+04  0.00000000000E+00 0. -1.
         -1   -1    0    0    0  501 -0.00000000000E+00 -0.00000000000E+00 -0.24364199408E+03  0.24364199408E+03  0.00000000000E+00 0.  1.
         24    2    1    2    0    0 -0.38085183978E+02 -0.44828751846E+02 -0.87245997613E+02  0.13751074168E+03  0.88528197467E+02 0.  0.
        254    2    1    2    0    0  0.38085183978E+02  0.44828751846E+02  0.14559096808E+04  0.17184369297E+04  0.91098429425E+03 0.  0.
         23    2    4    4    0    0  0.29855557086E+03  0.28970973308E+03  0.11865159222E+04  0.12605645019E+04  0.90197956369E+02 0.  0.
         23    2    4    4    0    0 -0.26047038688E+03 -0.24488098123E+03  0.26939375858E+03  0.45787242781E+03  0.96242639083E+02 0.  0.
          2    1    3    3  502    0 -0.43967450110E+00 -0.59447860877E+02 -0.27759568060E+02  0.65611242142E+02  0.00000000000E+00 0. -1.
         -1    1    3    3    0  502 -0.37645509477E+02  0.14619109031E+02 -0.59486429553E+02  0.71899499537E+02  0.00000000000E+00 0.  1.
         11    1    5    5    0    0  0.27717613963E+03  0.22472508940E+03  0.10158222280E+04  0.10766720843E+04  0.00000000000E+00 0.  1.
        -11    1    5    5    0    0  0.21379431229E+02  0.64984643677E+02  0.17069369423E+03  0.18389241758E+03  0.00000000000E+00 0. -1.
          3    1    6    6  503    0 -0.16106412720E+03 -0.19315329550E+03  0.22461624635E+03  0.33719772650E+03  0.00000000000E+00 0. -1.
         -3    1    6    6    0  503 -0.99406259678E+02 -0.51727685734E+02  0.44777512225E+02  0.12067470131E+03  0.00000000000E+00 0.  1.
<mgrwt>
<rscale>  0 0.12535156E+04</rscale>
<asrwt>0</asrwt>
<pdfrwt beam="1">  1        2 0.24804702E+00 0.12535156E+04</pdfrwt>
<pdfrwt beam="2">  1       -1 0.37483385E-01 0.12535156E+04</pdfrwt>
<totfact> 0.84293992E+01</totfact>
</mgrwt>
</event>
<event>
12    6  0.1521603E-007  0.2627700E+04  0.7818608E-02  0.8358852E-01
         -1   -1    0    0    0  501 -0.00000000000E+00  0.00000000000E+00  0.12635492430E+04  0.12635492430E+04  0.00000000000E+00 0.  1.
          2   -1    0    0  501    0  0.00000000000E+00 -0.00000000000E+00 -0.13661534760E+04  0.13661534760E+04  0.00000000000E+00 0. -1.
         24    2    1    2    0    0 -0.39849987914E+03 -0.71932453014E+03 -0.84070513569E+03  0.11786505301E+04  0.78752864135E+02 0.  0.
        254    2    1    2    0    0  0.39849987914E+03  0.71932453014E+03  0.73810090272E+03  0.14510521888E+04  0.94049432681E+03 0.  0.
         23    2    4    4    0    0  0.44858013270E+03  0.65477128871E+03  0.92934792630E+03  0.12252673555E+04  0.87423957778E+02 0.  0.
         23    2    4    4    0    0 -0.50080253564E+02  0.64553241424E+02 -0.19124702358E+03  0.22578483331E+03  0.87910261921E+02 0.  0.
          2    1    3    3  502    0 -0.29845342196E+03 -0.49540990213E+03 -0.63111159405E+03  0.85604162302E+03  0.00000000000E+00 0. -1.
         -1    1    3    3    0  502 -0.10004645718E+03 -0.22391462801E+03 -0.20959354164E+03  0.32260890708E+03  0.00000000000E+00 0.  1.
         11    1    5    5    0    0  0.37141889436E+03  0.58399970706E+03  0.77881133865E+03  0.10418995893E+04  0.00000000000E+00 0. -1.
        -11    1    5    5    0    0  0.77161238345E+02  0.70771581654E+02  0.15053658765E+03  0.18336776624E+03  0.00000000000E+00 0.  1.
          2    1    6    6  503    0 -0.64243207002E+02  0.13793876461E+02 -0.12416195958E+03  0.14047652074E+03  0.00000000000E+00 0. -1.
         -2    1    6    6    0  503  0.14162953438E+02  0.50759364963E+02 -0.67085063997E+02  0.85308312567E+02  0.00000000000E+00 0.  1.
<mgrwt>
<rscale>  0 0.26277003E+04</rscale>
<asrwt>0</asrwt>
<pdfrwt beam="1">  1        2 0.21017746E+00 0.26277003E+04</pdfrwt>
<pdfrwt beam="2">  1       -1 0.19439219E+00 0.26277003E+04</pdfrwt>
<totfact> 0.25047343E+00</totfact>
</mgrwt>
</event>
<event>
12    6  0.1521603E-007  0.1116724E+04  0.7818608E-02  0.9189043E-01
          2   -1    0    0  501    0  0.00000000000E+00  0.00000000000E+00  0.25669391675E+04  0.25669391675E+04  0.00000000000E+00 0. -1.
         -1   -1    0    0    0  501 -0.00000000000E+00 -0.00000000000E+00 -0.12145522337E+03  0.12145522337E+03  0.00000000000E+00 0.  1.
         24    2    1    2    0    0  0.14561115071E+03  0.32678012662E+02  0.69349364214E+03  0.71386589255E+03  0.80003882009E+02 0.  0.
        254    2    1    2    0    0 -0.14561115071E+03 -0.32678012662E+02  0.17519903020E+04  0.19745284983E+04  0.89834420611E+03 0.  0.
         23    2    4    4    0    0  0.14884103471E+02  0.40942080768E+03  0.66120895303E+03  0.78320012695E+03  0.91423328519E+02 0.  0.
         23    2    4    4    0    0 -0.16049525419E+03 -0.44209882034E+03  0.10907813489E+04  0.11913283713E+04  0.90825346663E+02 0.  0.
          4    1    3    3  502    0  0.49152051471E+02  0.87736317889E+01  0.41847827641E+03  0.42144628200E+03  0.00000000000E+00 0. -1.
         -3    1    3    3    0  502  0.96459099243E+02  0.23904380873E+02  0.27501536572E+03  0.29241961055E+03  0.00000000000E+00 0.  1.
         11    1    5    5    0    0  0.24049904886E+01  0.13805449755E+03  0.14720922560E+03  0.20183008788E+03  0.00000000000E+00 0. -1.
        -11    1    5    5    0    0  0.12479112982E+02  0.27136631013E+03  0.51399972742E+03  0.58137003907E+03  0.00000000000E+00 0.  1.
          3    1    6    6  503    0 -0.96212699172E+02 -0.23788057421E+03  0.70305526210E+03  0.74841883503E+03  0.00000000000E+00 0. -1.
         -3    1    6    6    0  503 -0.64282555013E+02 -0.20421824613E+03  0.38772608684E+03  0.44290953631E+03  0.00000000000E+00 0.  1.
<mgrwt>
<rscale>  0 0.11167241E+04</rscale>
<asrwt>0</asrwt>
<pdfrwt beam="1">  1        2 0.39491368E+00 0.11167241E+04</pdfrwt>
<pdfrwt beam="2">  1       -1 0.18685421E-01 0.11167241E+04</pdfrwt>
<totfact> 0.83166356E+01</totfact>
</mgrwt>
</event>
<event>
12    6  0.1521603E-007  0.2218401E+04  0.7818608E-02  0.8510808E-01
         -1   -1    0    0    0  501 -0.00000000000E+00  0.00000000000E+00  0.18249973261E+04  0.18249973261E+04  0.00000000000E+00 0.  1.
          2   -1    0    0  501    0  0.00000000000E+00 -0.00000000000E+00 -0.67415218631E+03  0.67415218631E+03  0.00000000000E+00 0. -1.
         24    2    1    2    0    0  0.86314381738E+03 -0.21437079231E+03  0.76973325667E+03  0.11789432037E+04  0.80285149036E+02 0.  0.
        254    2    1    2    0    0 -0.86314381738E+03  0.21437079231E+03  0.38111188310E+03  0.13202063086E+04  0.89817946082E+03 0.  0.
         23    2    4    4    0    0 -0.91998817181E+03 -0.99488652331E+02  0.31505155583E+03  0.98169704198E+03  0.90528289450E+02 0.  0.
         23    2    4    4    0    0  0.56844354423E+02  0.31385944464E+03  0.66060327264E+02  0.33850926666E+03  0.92116910259E+02 0.  0.
          2    1    3    3  502    0  0.19670004974E+02 -0.16108220075E+02  0.32648108016E+02  0.41379739084E+02  0.00000000000E+00 0. -1.
         -1    1    3    3    0  502  0.84347381241E+03 -0.19826257223E+03  0.73708514865E+03  0.11375634647E+04  0.00000000000E+00 0.  1.
         11    1    5    5    0    0 -0.24759116675E+03 -0.29851341868E+02  0.12793022924E+03  0.28028312831E+03  0.00000000000E+00 0. -1.
        -11    1    5    5    0    0 -0.67239700506E+03 -0.69637310463E+02  0.18712132660E+03  0.70141391367E+03  0.00000000000E+00 0.  1.
          1    1    6    6  503    0 -0.36694981400E+01  0.11847925438E+03 -0.12952134160E+02  0.11924158970E+03  0.00000000000E+00 0. -1.
         -1    1    6    6    0  503  0.60513852563E+02  0.19538019026E+03  0.79012461424E+02  0.21926767696E+03  0.00000000000E+00 0.  1.
<mgrwt>
<rscale>  0 0.22184012E+04</rscale>
<asrwt>0</asrwt>
<pdfrwt beam="1">  1        2 0.10371572E+00 0.22184012E+04</pdfrwt>
<pdfrwt beam="2">  1       -1 0.28076882E+00 0.22184012E+04</pdfrwt>
<totfact> 0.19693607E+00</totfact>
</mgrwt>
</event>
<event>
12    6  0.1521603E-007  0.1405731E+04  0.7818608E-02  0.8949681E-01
          2   -1    0    0  501    0  0.00000000000E+00  0.00000000000E+00  0.25529596337E+04  0.25529596337E+04  0.00000000000E+00 0. -1.
         -1   -1    0    0    0  501 -0.00000000000E+00 -0.00000000000E+00 -0.19350869510E+03  0.19350869510E+03  0.00000000000E+00 0.  1.
         24    2    1    2    0    0 -0.37515071309E+03 -0.14759219071E+03  0.64794581456E+03  0.76872006868E+03  0.92602662369E+02 0.  0.
        254    2    1    2    0    0  0.37515071309E+03  0.14759219071E+03  0.17115051240E+04  0.19777482601E+04  0.90538217262E+03 0.  0.
         23    2    4    4    0    0 -0.93436570272E+02  0.41490260070E+03  0.88935575657E+03  0.99020608983E+03  0.93165862053E+02 0.  0.
         23    2    4    4    0    0  0.46858728337E+03 -0.26731040999E+03  0.82214936744E+03  0.98754217027E+03  0.91000320080E+02 0.  0.
          4    1    3    3  502    0 -0.30873592860E+03 -0.15488784341E+03  0.56490271589E+03  0.66213533063E+03  0.00000000000E+00 0. -1.
         -3    1    3    3    0  502 -0.66414784491E+02  0.72956526935E+01  0.83043098675E+02  0.10658473805E+03  0.00000000000E+00 0.  1.
         11    1    5    5    0    0 -0.88011482159E+02  0.41845812423E+03  0.86391447756E+03  0.96395095688E+03  0.00000000000E+00 0. -1.
        -11    1    5    5    0    0 -0.54250881138E+01 -0.35555235266E+01  0.25441279008E+02  0.26255132948E+02  0.00000000000E+00 0.  1.
          2    1    6    6  503    0  0.41898720546E+03 -0.26462297201E+03  0.76855725672E+03  0.91447025786E+03  0.00000000000E+00 0. -1.
         -2    1    6    6    0  503  0.49600077912E+02 -0.26874379750E+01  0.53592110724E+02  0.73071912412E+02  0.00000000000E+00 0.  1.
<mgrwt>
<rscale>  0 0.14057310E+04</rscale>
<asrwt>0</asrwt>
<pdfrwt beam="1">  1        2 0.39276300E+00 0.14057310E+04</pdfrwt>
<pdfrwt beam="2">  1       -1 0.29770570E-01 0.14057310E+04</pdfrwt>
<totfact> 0.37311520E+01</totfact>
</mgrwt>
</event>
<event>
12    6  0.1521603E-007  0.2076410E+04  0.7818608E-02  0.8571707E-01
          2   -1    0    0  501    0  0.00000000000E+00  0.00000000000E+00  0.24778594318E+04  0.24778594318E+04  0.00000000000E+00 0. -1.
         -1   -1    0    0    0  501 -0.00000000000E+00 -0.00000000000E+00 -0.43500012589E+03  0.43500012589E+03  0.00000000000E+00 0.  1.
         24    2    1    2    0    0 -0.67076500386E+03  0.45194776878E+03  0.51968436238E+03  0.96566554140E+03  0.90860471164E+02 0.  0.
        254    2    1    2    0    0  0.67076500386E+03 -0.45194776878E+03  0.15231749435E+04  0.19471940163E+04  0.90405760455E+03 0.  0.
         23    2    4    4    0    0 -0.16424793616E+03 -0.28712845529E+03  0.57660312093E+03  0.67066936691E+03  0.88916288054E+02 0.  0.
         23    2    4    4    0    0  0.83501294003E+03 -0.16481931350E+03  0.94657182256E+03  0.12765246493E+04  0.95419856383E+02 0.  0.
          2    1    3    3  502    0 -0.89456977798E+02  0.76259610236E+02  0.11208923999E+03  0.16242560375E+03  0.00000000000E+00 0. -1.
         -3    1    3    3    0  502 -0.58130802607E+03  0.37568815855E+03  0.40759512239E+03  0.80323993765E+03  0.00000000000E+00 0.  1.
         11    1    5    5    0    0 -0.15175931867E+03 -0.27242505690E+03  0.48173489192E+03  0.57385957213E+03  0.00000000000E+00 0.  1.
        -11    1    5    5    0    0 -0.12488617491E+02 -0.14703398389E+02  0.94868229010E+02  0.96809794786E+02  0.00000000000E+00 0. -1.
          2    1    6    6  503    0  0.28700398196E+03 -0.12454619282E+02  0.29968804046E+03  0.41513771787E+03  0.00000000000E+00 0. -1.
         -2    1    6    6    0  503  0.54800895807E+03 -0.15236469422E+03  0.64688378209E+03  0.86138693147E+03  0.00000000000E+00 0.  1.
<mgrwt>
<rscale>  0 0.20764096E+04</rscale>
<asrwt>0</asrwt>
<pdfrwt beam="1">  1        2 0.38120913E+00 0.20764096E+04</pdfrwt>
<pdfrwt beam="2">  1       -1 0.66923098E-01 0.20764096E+04</pdfrwt>
<totfact> 0.85259770E+00</totfact>
</mgrwt>
</event>
<event>
12    6  0.1521603E-007  0.1241408E+04  0.7818608E-02  0.9077365E-01
         -1   -1    0    0    0  501 -0.00000000000E+00  0.00000000000E+00  0.10783475665E+03  0.10783475665E+03  0.00000000000E+00 0.  1.
          2   -1    0    0  501    0  0.00000000000E+00 -0.00000000000E+00 -0.35728120739E+04  0.35728120739E+04  0.00000000000E+00 0. -1.
         24    2    1    2    0    0  0.12655335066E+03 -0.14231562156E+03 -0.20250942071E+03  0.29095779668E+03  0.85888807601E+02 0.  0.
        254    2    1    2    0    0 -0.12655335066E+03  0.14231562156E+03 -0.32624678965E+04  0.33896890338E+04  0.90001415749E+03 0.  0.
         23    2    4    4    0    0  0.60957474813E+02  0.43796495877E+03 -0.98949457510E+03  0.10881138775E+04  0.96763513067E+02 0.  0.
         23    2    4    4    0    0 -0.18751082547E+03 -0.29564933721E+03 -0.22729733214E+04  0.23015751563E+04  0.90948557336E+02 0.  0.
          2    1    3    3  502    0  0.10914820729E+03 -0.10567622784E+03 -0.19882957446E+03  0.25022788807E+03  0.00000000000E+00 0. -1.
         -1    1    3    3    0  502  0.17405143370E+02 -0.36639393717E+02 -0.36798462520E+01  0.40729908619E+02  0.00000000000E+00 0.  1.
         11    1    5    5    0    0  0.48186117743E+02  0.42363811349E+03 -0.97471684157E+03  0.10638910068E+04  0.00000000000E+00 0. -1.
        -11    1    5    5    0    0  0.12771357070E+02  0.14326845278E+02 -0.14777733534E+02  0.24222870710E+02  0.00000000000E+00 0.  1.
          3    1    6    6  503    0 -0.91307343241E+02 -0.14366222555E+03 -0.13963764152E+04  0.14067135312E+04  0.00000000000E+00 0. -1.
         -3    1    6    6    0  503 -0.96203482232E+02 -0.15198711166E+03 -0.87659690618E+03  0.89486162508E+03  0.00000000000E+00 0.  1.
<mgrwt>
<rscale>  0 0.12414078E+04</rscale>
<asrwt>0</asrwt>
<pdfrwt beam="1">  1        2 0.54966334E+00 0.12414078E+04</pdfrwt>
<pdfrwt beam="2">  1       -1 0.16589964E-01 0.12414078E+04</pdfrwt>
<totfact> 0.23157897E+01</totfact>
</mgrwt>
</event>
<event>
12    6  0.1521603E-007  0.1103075E+04  0.7818608E-02  0.9202200E-01
         -1   -1    0    0    0  501 -0.00000000000E+00  0.00000000000E+00  0.17478918013E+03  0.17478918013E+03  0.00000000000E+00 0.  1.
          2   -1    0    0  501    0  0.00000000000E+00 -0.00000000000E+00 -0.17403471306E+04  0.17403471306E+04  0.00000000000E+00 0. -1.
         24    2    1    2    0    0  0.17475414562E+02 -0.12921189802E+03 -0.82000384463E+02  0.17474284254E+03  0.82522077409E+02 0.  0.
        254    2    1    2    0    0 -0.17475414562E+02  0.12921189802E+03 -0.14835575660E+04  0.17403934682E+04  0.90056941309E+03 0.  0.
         23    2    4    4    0    0 -0.35389070478E+03 -0.12522124653E+03 -0.10881250717E+04  0.11552786848E+04  0.98659395893E+02 0.  0.
         23    2    4    4    0    0  0.33641529022E+03  0.25443314456E+03 -0.39543249425E+03  0.58511478334E+03  0.89894269199E+02 0.  0.
          4    1    3    3  502    0 -0.25912115543E+02 -0.13510126783E+02 -0.25846400234E+02  0.39012788450E+02  0.00000000000E+00 0. -1.
         -3    1    3    3    0  502  0.43387530105E+02 -0.11570177124E+03 -0.56153984229E+02  0.13573005409E+03  0.00000000000E+00 0.  1.
         11    1    5    5    0    0 -0.92451240608E+02 -0.13355683571E+02 -0.16811496764E+03  0.19232329167E+03  0.00000000000E+00 0. -1.
        -11    1    5    5    0    0 -0.26143946417E+03 -0.11186556296E+03 -0.92001010410E+03  0.96295539318E+03  0.00000000000E+00 0.  1.
          2    1    6    6  503    0  0.22086376068E+03  0.11192341484E+03 -0.21841158149E+03  0.33016854863E+03  0.00000000000E+00 0. -1.
         -2    1    6    6    0  503  0.11555152953E+03  0.14250972972E+03 -0.17702091276E+03  0.25494623471E+03  0.00000000000E+00 0.  1.
<mgrwt>
<rscale>  0 0.11030754E+04</rscale>
<asrwt>0</asrwt>
<pdfrwt beam="1">  1        2 0.26774570E+00 0.11030754E+04</pdfrwt>
<pdfrwt beam="2">  1       -1 0.26890645E-01 0.11030754E+04</pdfrwt>
<totfact> 0.13011461E+02</totfact>
</mgrwt>
</event>
<event>
12    6  0.1521603E-007  0.1626376E+04  0.7818608E-02  0.8804506E-01
          2   -1    0    0  501    0  0.00000000000E+00  0.00000000000E+00  0.69115837301E+03  0.69115837301E+03  0.00000000000E+00 0. -1.
         -1   -1    0    0    0  501 -0.00000000000E+00 -0.00000000000E+00 -0.95676336795E+03  0.95676336795E+03  0.00000000000E+00 0.  1.
         24    2    1    2    0    0 -0.48756882040E+03 -0.88837210464E+02 -0.10432836702E+03  0.51264479005E+03  0.79403198998E+02 0.  0.
        254    2    1    2    0    0  0.48756882040E+03  0.88837210464E+02 -0.16127662793E+03  0.11352769509E+04  0.10085773148E+04 0.  0.
         23    2    4    4    0    0 -0.12982184469E+03  0.39700752642E+03 -0.73703886955E+02  0.43390532369E+03  0.91503440264E+02 0.  0.
         23    2    4    4    0    0  0.61739066509E+03 -0.30817031596E+03 -0.87572740971E+02  0.70137162723E+03  0.90072179641E+02 0.  0.
          4    1    3    3  502    0 -0.19050318223E+03 -0.74348313138E+02 -0.42129573285E+02  0.20879184623E+03  0.00000000000E+00 0. -1.
         -3    1    3    3    0  502 -0.29706563817E+03 -0.14488897326E+02 -0.62198793732E+02  0.30385294382E+03  0.00000000000E+00 0.  1.
         11    1    5    5    0    0 -0.19914828147E+02  0.15296853474E+03  0.68140250567E+01  0.15440985700E+03  0.00000000000E+00 0. -1.
        -11    1    5    5    0    0 -0.10990701654E+03  0.24403899167E+03 -0.80517912012E+02  0.27949546668E+03  0.00000000000E+00 0.  1.
          1    1    6    6  503    0  0.55686534332E+02 -0.40213691673E+02 -0.34231013426E+02  0.76745640814E+02  0.00000000000E+00 0. -1.
         -1    1    6    6    0  503  0.56170413076E+03 -0.26795662428E+03 -0.53341727545E+02  0.62462598641E+03  0.00000000000E+00 0.  1.
<mgrwt>
<rscale>  0 0.16263764E+04</rscale>
<asrwt>0</asrwt>
<pdfrwt beam="1">  1        2 0.10633206E+00 0.16263764E+04</pdfrwt>
<pdfrwt beam="2">  1       -1 0.14719436E+00 0.16263764E+04</pdfrwt>
<totfact> 0.16706555E+01</totfact>
</mgrwt>
</event>
<event>
12    6  0.1521603E-007  0.1224982E+04  0.7818608E-02  0.9091266E-01
          2   -1    0    0  501    0  0.00000000000E+00  0.00000000000E+00  0.16541446504E+04  0.16541446504E+04  0.00000000000E+00 0. -1.
         -1   -1    0    0    0  501 -0.00000000000E+00 -0.00000000000E+00 -0.22679124825E+03  0.22679124825E+03  0.00000000000E+00 0.  1.
         24    2    1    2    0    0  0.57813217987E+02 -0.15117525861E+02 -0.80677117889E+02  0.12852313511E+03  0.80240209027E+02 0.  0.
        254    2    1    2    0    0 -0.57813217987E+02  0.15117525861E+02  0.15080305201E+04  0.17524127636E+04  0.89063097672E+03 0.  0.
         23    2    4    4    0    0 -0.40511848630E+03  0.16300901150E+03  0.11116807202E+04  0.11979560228E+04  0.92583384544E+02 0.  0.
         23    2    4    4    0    0  0.34730526831E+03 -0.14789148564E+03  0.39634979982E+03  0.55445674074E+03  0.88522723713E+02 0.  0.
          4    1    3    3  502    0 -0.84557079868E+01 -0.29725480639E+02 -0.35159968159E+02  0.46811607083E+02  0.00000000000E+00 0. -1.
         -3    1    3    3    0  502  0.66268925974E+02  0.14607954777E+02 -0.45517149731E+02  0.81711528024E+02  0.00000000000E+00 0.  1.
         11    1    5    5    0    0 -0.18052301121E+03  0.12250611777E+03  0.54656125514E+03  0.58849427532E+03  0.00000000000E+00 0. -1.
        -11    1    5    5    0    0 -0.22459547509E+03  0.40502893727E+02  0.56511946510E+03  0.60946174750E+03  0.00000000000E+00 0.  1.
          2    1    6    6  503    0  0.26204163054E+03 -0.14296599857E+03  0.33842271544E+03  0.45125937908E+03  0.00000000000E+00 0. -1.
         -2    1    6    6    0  503  0.85263637770E+02 -0.49254870731E+01  0.57927084383E+02  0.10319736166E+03  0.00000000000E+00 0.  1.
<mgrwt>
<rscale>  0 0.12249825E+04</rscale>
<asrwt>0</asrwt>
<pdfrwt beam="1">  1        2 0.25448378E+00 0.12249825E+04</pdfrwt>
<pdfrwt beam="2">  1       -1 0.34890962E-01 0.12249825E+04</pdfrwt>
<totfact> 0.91076685E+01</totfact>
</mgrwt>
</event>
<event>
12    6  0.1521603E-007  0.1706242E+04  0.7818608E-02  0.8757812E-01
         -1   -1    0    0    0  501 -0.00000000000E+00  0.00000000000E+00  0.38721151109E+03  0.38721151109E+03  0.00000000000E+00 0.  1.
          2   -1    0    0  501    0  0.00000000000E+00 -0.00000000000E+00 -0.18796331139E+04  0.18796331139E+04  0.00000000000E+00 0. -1.
         24    2    1    2    0    0  0.27563655214E+03  0.30000690865E+03  0.69194317269E+02  0.42087490079E+03  0.79800842485E+02 0.  0.
        254    2    1    2    0    0 -0.27563655214E+03 -0.30000690865E+03 -0.15616159201E+04  0.18459697242E+04  0.89609167317E+03 0.  0.
         23    2    4    4    0    0 -0.40037788142E+03 -0.82900151175E+02 -0.15193985466E+04  0.15761494522E+04  0.92196906211E+02 0.  0.
         23    2    4    4    0    0  0.12474132928E+03 -0.21710675747E+03 -0.42217373509E+02  0.26982027195E+03  0.91241049742E+02 0.  0.
          2    1    3    3  502    0  0.10159934205E+03  0.62117417740E+02  0.48729089044E+01  0.11918366135E+03  0.00000000000E+00 0. -1.
         -1    1    3    3    0  502  0.17403721008E+03  0.23788949091E+03  0.64321408364E+02  0.30169123944E+03  0.00000000000E+00 0.  1.
         11    1    5    5    0    0 -0.88598208863E+02  0.83202688651E+01 -0.44084491225E+03  0.44973670758E+03  0.00000000000E+00 0. -1.
        -11    1    5    5    0    0 -0.31177967256E+03 -0.91220420040E+02 -0.10785536343E+04  0.11264127447E+04  0.00000000000E+00 0.  1.
          3    1    6    6  503    0  0.17756007177E+02 -0.92612131514E+02 -0.47500112327E+02  0.10558666282E+03  0.00000000000E+00 0. -1.
         -3    1    6    6    0  503  0.10698532211E+03 -0.12449462596E+03  0.52827388182E+01  0.16423360913E+03  0.00000000000E+00 0.  1.
<mgrwt>
<rscale>  0 0.17062422E+04</rscale>
<asrwt>0</asrwt>
<pdfrwt beam="1">  1        2 0.28917433E+00 0.17062422E+04</pdfrwt>
<pdfrwt beam="2">  1       -1 0.59571002E-01 0.17062422E+04</pdfrwt>
<totfact> 0.24120168E+01</totfact>
</mgrwt>
</event>
<event>
12    6  0.1521603E-007  0.1573221E+04  0.7818608E-02  0.8837170E-01
          2   -1    0    0  501    0  0.00000000000E+00  0.00000000000E+00  0.10840838345E+04  0.10840838345E+04  0.00000000000E+00 0. -1.
         -1   -1    0    0    0  501 -0.00000000000E+00 -0.00000000000E+00 -0.57076402101E+03  0.57076402101E+03  0.00000000000E+00 0.  1.
         24    2    1    2    0    0  0.39152012945E+03  0.34963328254E+03  0.23798403502E+03  0.58185540523E+03  0.79924136820E+02 0.  0.
        254    2    1    2    0    0 -0.39152012945E+03 -0.34963328254E+03  0.27533577845E+03  0.10729924503E+04  0.89441129432E+03 0.  0.
         23    2    4    4    0    0 -0.22161738971E+03 -0.50198044674E+03 -0.15495158812E+03  0.57756228588E+03  0.92030229205E+02 0.  0.
         23    2    4    4    0    0 -0.16990273974E+03  0.15234716419E+03  0.43028736657E+03  0.49543016438E+03  0.90704082282E+02 0.  0.
          2    1    3    3  502    0  0.27444097375E+03  0.20343581620E+03  0.17782898912E+03  0.38513261191E+03  0.00000000000E+00 0. -1.
         -1    1    3    3    0  502  0.11707915571E+03  0.14619746634E+03  0.60155045894E+02  0.19672279332E+03  0.00000000000E+00 0.  1.
         11    1    5    5    0    0 -0.20542174514E+03 -0.39908165402E+03 -0.10024871984E+03  0.45990658376E+03  0.00000000000E+00 0.  1.
        -11    1    5    5    0    0 -0.16195644571E+02 -0.10289879271E+03 -0.54702868279E+02  0.11765570213E+03  0.00000000000E+00 0. -1.
          3    1    6    6  503    0 -0.10595897333E+03  0.40210599609E+02  0.16205452640E+03  0.19775203128E+03  0.00000000000E+00 0. -1.
         -3    1    6    6    0  503 -0.63943766406E+02  0.11213656458E+03  0.26823284017E+03  0.29767813310E+03  0.00000000000E+00 0.  1.
<mgrwt>
<rscale>  0 0.15732210E+04</rscale>
<asrwt>0</asrwt>
<pdfrwt beam="1">  1        2 0.16678213E+00 0.15732210E+04</pdfrwt>
<pdfrwt beam="2">  1       -1 0.87809849E-01 0.15732210E+04</pdfrwt>
<totfact> 0.31156688E+01</totfact>
</mgrwt>
</event>
<event>
12    6  0.1521603E-007  0.2170353E+04  0.7818608E-02  0.8530870E-01
          2   -1    0    0  501    0  0.00000000000E+00  0.00000000000E+00  0.17084271037E+04  0.17084271037E+04  0.00000000000E+00 0. -1.
         -1   -1    0    0    0  501 -0.00000000000E+00 -0.00000000000E+00 -0.68929349006E+03  0.68929349006E+03  0.00000000000E+00 0.  1.
         24    2    1    2    0    0 -0.61273567093E+03 -0.43211868886E+03 -0.12028303757E+03  0.76349126003E+03  0.79242231933E+02 0.  0.
        254    2    1    2    0    0  0.61273567093E+03  0.43211868886E+03  0.11394166512E+04  0.16342293338E+04  0.90014645838E+03 0.  0.
         23    2    4    4    0    0  0.61598148940E+01  0.19685097210E+02  0.82722883879E+03  0.83183555892E+03  0.84955276409E+02 0.  0.
         23    2    4    4    0    0  0.60657585603E+03  0.41243359166E+03  0.31218781246E+03  0.80239377485E+03  0.91317046730E+02 0.  0.
          2    1    3    3  502    0 -0.17213793660E+03 -0.11361969609E+03  0.19252261138E+01  0.20626345059E+03  0.00000000000E+00 0. -1.
         -1    1    3    3    0  502 -0.44059773433E+03 -0.31849899277E+03 -0.12220826369E+03  0.55722780944E+03  0.00000000000E+00 0.  1.
         11    1    5    5    0    0 -0.11493134972E+01  0.41730953172E+02  0.20677394144E+03  0.21094609793E+03  0.00000000000E+00 0.  1.
        -11    1    5    5    0    0  0.73091283912E+01 -0.22045855962E+02  0.62045489735E+03  0.62088946099E+03  0.00000000000E+00 0. -1.
          4    1    6    6  503    0  0.14494963746E+03  0.10401592921E+03  0.11948955995E+03  0.21472649084E+03  0.00000000000E+00 0. -1.
         -4    1    6    6    0  503  0.46162621857E+03  0.30841766245E+03  0.19269825251E+03  0.58766728402E+03  0.00000000000E+00 0.  1.
<mgrwt>
<rscale>  0 0.21703527E+04</rscale>
<asrwt>0</asrwt>
<pdfrwt beam="1">  1        2 0.26283494E+00 0.21703527E+04</pdfrwt>
<pdfrwt beam="2">  1       -1 0.10604515E+00 0.21703527E+04</pdfrwt>
<totfact> 0.84207784E+00</totfact>
</mgrwt>
</event>
<event>
12    6  0.1521603E-007  0.2404270E+04  0.7818608E-02  0.8437907E-01
         -1   -1    0    0    0  501 -0.00000000000E+00  0.00000000000E+00  0.14813010128E+04  0.14813010128E+04  0.00000000000E+00 0.  1.
          2   -1    0    0  501    0  0.00000000000E+00 -0.00000000000E+00 -0.97558055090E+03  0.97558055090E+03  0.00000000000E+00 0. -1.
         24    2    1    2    0    0  0.64633147024E+03 -0.56697877342E+03  0.78610853324E+03  0.11677472771E+04  0.80360302262E+02 0.  0.
        254    2    1    2    0    0 -0.64633147024E+03  0.56697877342E+03 -0.28038807131E+03  0.12891342866E+04  0.91871673519E+03 0.  0.
         23    2    4    4    0    0  0.16843140157E+03  0.36427576123E+03 -0.11504158025E+03  0.42832252762E+03  0.95706087740E+02 0.  0.
         23    2    4    4    0    0 -0.81476287181E+03  0.20270301219E+03 -0.16534649106E+03  0.86081175902E+03  0.93436469977E+02 0.  0.
          2    1    3    3  502    0  0.55365043161E+03 -0.46757013043E+03  0.69532602133E+03  0.10043051843E+04  0.00000000000E+00 0. -1.
         -1    1    3    3    0  502  0.92681038627E+02 -0.99408642992E+02  0.90782511909E+02  0.16344209278E+03  0.00000000000E+00 0.  1.
         11    1    5    5    0    0  0.62075334847E+02  0.73813384517E+02  0.48770490725E+01  0.96568879759E+02  0.00000000000E+00 0.  1.
        -11    1    5    5    0    0  0.10635606672E+03  0.29046237671E+03 -0.11991862932E+03  0.33175364786E+03  0.00000000000E+00 0. -1.
          3    1    6    6  503    0 -0.11165240631E+03  0.31642148638E+02  0.92770385091E+01  0.11641970988E+03  0.00000000000E+00 0. -1.
         -3    1    6    6    0  503 -0.70311046550E+03  0.17106086355E+03 -0.17462352957E+03  0.74439204914E+03  0.00000000000E+00 0.  1.
<mgrwt>
<rscale>  0 0.24042699E+04</rscale>
<asrwt>0</asrwt>
<pdfrwt beam="1">  1        2 0.15008931E+00 0.24042699E+04</pdfrwt>
<pdfrwt beam="2">  1       -1 0.22789246E+00 0.24042699E+04</pdfrwt>
<totfact> 0.26100369E+00</totfact>
</mgrwt>
</event>
<event>
12    6  0.1521603E-007  0.3122494E+04  0.7818608E-02  0.8209592E-01
          2   -1    0    0  501    0  0.00000000000E+00  0.00000000000E+00  0.19071416503E+04  0.19071416503E+04  0.00000000000E+00 0. -1.
         -1   -1    0    0    0  501 -0.00000000000E+00 -0.00000000000E+00 -0.12780864097E+04  0.12780864097E+04  0.00000000000E+00 0.  1.
         24    2    1    2    0    0  0.76032238473E+03 -0.29394805667E+02 -0.94556163649E+03  0.12163174403E+04  0.79919482845E+02 0.  0.
        254    2    1    2    0    0 -0.76032238473E+03  0.29394805667E+02  0.15746168770E+04  0.19689106197E+04  0.90456427953E+03 0.  0.
         23    2    4    4    0    0  0.95874997522E+02  0.11863708774E+03  0.79678793585E+01  0.17940253717E+03  0.94101060061E+02 0.  0.
         23    2    4    4    0    0 -0.85619738225E+03 -0.89242282069E+02  0.15666489977E+04  0.17895080826E+04  0.83138158641E+02 0.  0.
          4    1    3    3  502    0  0.13135239425E+03  0.31970136504E+01 -0.21269193733E+03  0.25000306513E+03  0.00000000000E+00 0. -1.
         -3    1    3    3    0  502  0.62896999049E+03 -0.32591819317E+02 -0.73286969916E+03  0.96631437512E+03  0.00000000000E+00 0.  1.
         11    1    5    5    0    0  0.10234428172E+03  0.10918678114E+03  0.31770135102E+02  0.15298838734E+03  0.00000000000E+00 0. -1.
        -11    1    5    5    0    0 -0.64692841961E+01  0.94503065996E+01 -0.23802255744E+02  0.26414149832E+02  0.00000000000E+00 0.  1.
          1    1    6    6  503    0 -0.80349861495E+03 -0.10332112283E+03  0.14764079183E+04  0.16840622375E+04  0.00000000000E+00 0. -1.
         -1    1    6    6    0  503 -0.52698767299E+02  0.14078840760E+02  0.90241079409E+02  0.10544584508E+03  0.00000000000E+00 0.  1.
<mgrwt>
<rscale>  0 0.31224938E+04</rscale>
<asrwt>0</asrwt>
<pdfrwt beam="1">  1        2 0.29340641E+00 0.31224938E+04</pdfrwt>
<pdfrwt beam="2">  1       -1 0.19662868E+00 0.31224938E+04</pdfrwt>
<totfact> 0.11521871E+00</totfact>
</mgrwt>
</event>
<event>
12    6  0.1521603E-007  0.3513690E+04  0.7818608E-02  0.8110553E-01
         -1   -1    0    0    0  501 -0.00000000000E+00  0.00000000000E+00  0.11074431411E+04  0.11074431411E+04  0.00000000000E+00 0.  1.
          2   -1    0    0  501    0  0.00000000000E+00 -0.00000000000E+00 -0.27870550475E+04  0.27870550475E+04  0.00000000000E+00 0. -1.
         24    2    1    2    0    0  0.72587160573E+03  0.88937660078E+03  0.51861631682E+03  0.12622427357E+04  0.80084416793E+02 0.  0.
        254    2    1    2    0    0 -0.72587160573E+03 -0.88937660078E+03 -0.21982282232E+04  0.26322554529E+04  0.88242910328E+03 0.  0.
         23    2    4    4    0    0 -0.70792787523E+03 -0.78817710178E+03 -0.11166401211E+04  0.15419073810E+04  0.90599068804E+02 0.  0.
         23    2    4    4    0    0 -0.17943730495E+02 -0.10119949900E+03 -0.10815881021E+04  0.10903480719E+04  0.91993365686E+02 0.  0.
          2    1    3    3  502    0  0.12077236620E+03  0.11031499494E+03  0.90038643160E+02  0.18671454097E+03  0.00000000000E+00 0. -1.
         -1    1    3    3    0  502  0.60509923952E+03  0.77906160583E+03  0.42857767366E+03  0.10755281948E+04  0.00000000000E+00 0.  1.
         11    1    5    5    0    0 -0.60182731968E+03 -0.71409450562E+03 -0.97838908213E+03  0.13525428946E+04  0.00000000000E+00 0. -1.
        -11    1    5    5    0    0 -0.10610055555E+03 -0.74082596155E+02 -0.13825103897E+03  0.18936448642E+03  0.00000000000E+00 0.  1.
          3    1    6    6  503    0 -0.50989840623E+02 -0.85161343562E+02 -0.70120154203E+03  0.70819207905E+03  0.00000000000E+00 0. -1.
         -3    1    6    6    0  503  0.33046110128E+02 -0.16038155437E+02 -0.38038656005E+03  0.38215599287E+03  0.00000000000E+00 0.  1.
<mgrwt>
<rscale>  0 0.35136904E+04</rscale>
<asrwt>0</asrwt>
<pdfrwt beam="1">  1        2 0.42877770E+00 0.35136904E+04</pdfrwt>
<pdfrwt beam="2">  1       -1 0.17037587E+00 0.35136904E+04</pdfrwt>
<totfact> 0.53651842E-01</totfact>
</mgrwt>
</event>
<event>
12    6  0.1521603E-007  0.3133734E+04  0.7818608E-02  0.8206540E-01
          2   -1    0    0  501    0  0.00000000000E+00  0.00000000000E+00  0.19871207150E+04  0.19871207150E+04  0.00000000000E+00 0. -1.
         -1   -1    0    0    0  501 -0.00000000000E+00 -0.00000000000E+00 -0.12354922700E+04  0.12354922700E+04  0.00000000000E+00 0.  1.
         24    2    1    2    0    0 -0.10249700595E+03  0.66424972378E+03  0.16371125753E+04  0.17715722778E+04  0.81224500017E+02 0.  0.
        254    2    1    2    0    0  0.10249700595E+03 -0.66424972378E+03 -0.88548413029E+03  0.14510407072E+04  0.93257903534E+03 0.  0.
         23    2    4    4    0    0 -0.39217717022E+03 -0.40400753725E+03 -0.33511676103E+03  0.66156348575E+03  0.91312535590E+02 0.  0.
         23    2    4    4    0    0  0.49467417617E+03 -0.26024218653E+03 -0.55036736926E+03  0.78947722144E+03  0.89115126659E+02 0.  0.
          4    1    3    3  502    0 -0.52759544246E+02  0.53935173055E+03  0.13414894414E+04  0.14468164294E+04  0.00000000000E+00 0. -1.
         -3    1    3    3    0  502 -0.49737461702E+02  0.12489799323E+03  0.29562313386E+03  0.32475584842E+03  0.00000000000E+00 0.  1.
         11    1    5    5    0    0 -0.39418907170E+03 -0.39593019763E+03 -0.33772174206E+03  0.65284126762E+03  0.00000000000E+00 0. -1.
        -11    1    5    5    0    0  0.20119014782E+01 -0.80773396183E+01  0.26049810376E+01  0.87222181280E+01  0.00000000000E+00 0.  1.
          3    1    6    6  503    0  0.30880107422E+03 -0.21006101439E+03 -0.36530811601E+03  0.52243062012E+03  0.00000000000E+00 0. -1.
         -3    1    6    6    0  503  0.18587310195E+03 -0.50181172140E+02 -0.18505925325E+03  0.26704660132E+03  0.00000000000E+00 0.  1.
<mgrwt>
<rscale>  0 0.31337341E+04</rscale>
<asrwt>0</asrwt>
<pdfrwt beam="1">  1        2 0.30571088E+00 0.31337341E+04</pdfrwt>
<pdfrwt beam="2">  1       -1 0.19007573E+00 0.31337341E+04</pdfrwt>
<totfact> 0.11545120E+00</totfact>
</mgrwt>
</event>
<event>
12    6  0.1521603E-007  0.1390243E+04  0.7818608E-02  0.8960912E-01
          2   -1    0    0  501    0  0.00000000000E+00  0.00000000000E+00  0.15184475597E+04  0.15184475597E+04  0.00000000000E+00 0. -1.
         -1   -1    0    0    0  501 -0.00000000000E+00 -0.00000000000E+00 -0.31821551890E+03  0.31821551890E+03  0.00000000000E+00 0.  1.
         24    2    1    2    0    0 -0.31467935897E+03 -0.22728148358E+03  0.22122057200E+03  0.45392812155E+03  0.80201161591E+02 0.  0.
        254    2    1    2    0    0  0.31467935897E+03  0.22728148358E+03  0.97901146878E+03  0.13827349570E+04  0.89599806567E+03 0.  0.
         23    2    4    4    0    0  0.29589262194E+03 -0.29656249089E+03  0.55973935122E+03  0.70520175908E+03  0.92193410709E+02 0.  0.
         23    2    4    4    0    0  0.18786737024E+02  0.52384397447E+03  0.41927211756E+03  0.67753319796E+03  0.92177408829E+02 0.  0.
          4    1    3    3  502    0 -0.83367398345E+02 -0.98570634374E+02  0.48787874469E+02  0.13800923796E+03  0.00000000000E+00 0. -1.
         -3    1    3    3    0  502 -0.23131196062E+03 -0.12871084921E+03  0.17243269754E+03  0.31591888359E+03  0.00000000000E+00 0.  1.
         11    1    5    5    0    0  0.27470068624E+03 -0.25192946555E+03  0.52860615718E+03  0.64680243664E+03  0.00000000000E+00 0. -1.
        -11    1    5    5    0    0  0.21191935700E+02 -0.44633025344E+02  0.31133194036E+02  0.58399322436E+02  0.00000000000E+00 0.  1.
          1    1    6    6  503    0 -0.24842976252E+02  0.39730781325E+03  0.30389762433E+03  0.50082375943E+03  0.00000000000E+00 0. -1.
         -1    1    6    6    0  503  0.43629713276E+02  0.12653616122E+03  0.11537449323E+03  0.17670943853E+03  0.00000000000E+00 0.  1.
<mgrwt>
<rscale>  0 0.13902425E+04</rscale>
<asrwt>0</asrwt>
<pdfrwt beam="1">  1        2 0.23360731E+00 0.13902425E+04</pdfrwt>
<pdfrwt beam="2">  1       -1 0.48956235E-01 0.13902425E+04</pdfrwt>
<totfact> 0.57460146E+01</totfact>
</mgrwt>
</event>
<event>
12    6  0.1521603E-007  0.2036375E+04  0.7818608E-02  0.8589800E-01
          4   -1    0    0  501    0  0.00000000000E+00  0.00000000000E+00  0.10309066420E+04  0.10309066420E+04  0.00000000000E+00 0. -1.
         -1   -1    0    0    0  501 -0.00000000000E+00 -0.00000000000E+00 -0.10056257234E+04  0.10056257234E+04  0.00000000000E+00 0.  1.
         24    2    1    2    0    0  0.23826521823E+03 -0.58113664798E+03  0.53667100179E+03  0.83022467913E+03  0.82262602830E+02 0.  0.
        254    2    1    2    0    0 -0.23826521823E+03  0.58113664798E+03 -0.51139008321E+03  0.12063076863E+04  0.89396213514E+03 0.  0.
         23    2    4    4    0    0 -0.34109547920E+03  0.46997068611E+03 -0.72241093364E+03  0.93128140532E+03  0.90492691046E+02 0.  0.
         23    2    4    4    0    0  0.10283026097E+03  0.11116596187E+03  0.21102085043E+03  0.27502628101E+03  0.90430759590E+02 0.  0.
          4    1    3    3  502    0  0.15944854281E+03 -0.45281827466E+03  0.44051123581E+03  0.65155074748E+03  0.00000000000E+00 0. -1.
         -3    1    3    3    0  502  0.78816675421E+02 -0.12831837332E+03  0.96159765984E+02  0.17867393165E+03  0.00000000000E+00 0.  1.
         11    1    5    5    0    0 -0.36887924434E+02  0.37404715839E+02 -0.31636365784E+02  0.61324476158E+02  0.00000000000E+00 0.  1.
        -11    1    5    5    0    0 -0.30420755477E+03  0.43256597027E+03 -0.69077456785E+03  0.86995692917E+03  0.00000000000E+00 0. -1.
          1    1    6    6  503    0  0.49790614168E+02  0.54081691864E+02  0.17372653378E+03  0.18863945291E+03  0.00000000000E+00 0. -1.
         -1    1    6    6    0  503  0.53039646803E+02  0.57084270009E+02  0.37294316651E+02  0.86386828104E+02  0.00000000000E+00 0.  1.
<mgrwt>
<rscale>  0 0.20363754E+04</rscale>
<asrwt>0</asrwt>
<pdfrwt beam="1">  1        4 0.15860102E+00 0.20363754E+04</pdfrwt>
<pdfrwt beam="2">  1       -1 0.15471165E+00 0.20363754E+04</pdfrwt>
<totfact> 0.31426050E-01</totfact>
</mgrwt>
</event>
<event>
12    6  0.1647303E-007  0.3078048E+04  0.7818608E-02  0.8221788E-01
         -1   -1    0    0    0  501 -0.00000000000E+00  0.00000000000E+00  0.15839864229E+04  0.15839864229E+04  0.00000000000E+00 0.  1.
          2   -1    0    0  501    0  0.00000000000E+00 -0.00000000000E+00 -0.14953381396E+04  0.14953381396E+04  0.00000000000E+00 0. -1.
         24    2    1    2    0    0  0.12666946497E+04 -0.32721995857E+03  0.55727765062E+03  0.14242334758E+04  0.79337109331E+02 0.  0.
        254    2    1    2    0    0 -0.12666946497E+04  0.32721995857E+03 -0.46862936727E+03  0.16550910867E+04  0.89895760995E+03 0.  0.
         23    2    4    4    0    0 -0.75455078793E+03  0.27896252328E+03 -0.71267512490E+03  0.10786596131E+04  0.91835430081E+02 0.  0.
         23    2    4    4    0    0 -0.51214386180E+03  0.48257435292E+02  0.24404575763E+03  0.57643147365E+03  0.89971088483E+02 0.  0.
          4    1    3    3  502    0  0.33927114986E+03 -0.98183470989E+02  0.18749905590E+03  0.39987598461E+03  0.00000000000E+00 0. -1.
         -3    1    3    3    0  502  0.92742349986E+03 -0.22903648758E+03  0.36977859471E+03  0.10243574912E+04  0.00000000000E+00 0.  1.
         11    1    5    5    0    0 -0.17220177172E+02  0.23951525724E+02 -0.25048653992E+02  0.38699420579E+02  0.00000000000E+00 0.  1.
        -11    1    5    5    0    0 -0.73733061075E+03  0.25501099756E+03 -0.68762647091E+03  0.10399601925E+04  0.00000000000E+00 0. -1.
          3    1    6    6  503    0 -0.45121495048E+03  0.41052621540E+02  0.24498519976E+03  0.51507086636E+03  0.00000000000E+00 0. -1.
         -3    1    6    6    0  503 -0.60928911318E+02  0.72048137522E+01 -0.93944213415E+00  0.61360607291E+02  0.00000000000E+00 0.  1.
<mgrwt>
<rscale>  0 0.30780483E+04</rscale>
<asrwt>0</asrwt>
<pdfrwt beam="1">  1        2 0.23005202E+00 0.30780483E+04</pdfrwt>
<pdfrwt beam="2">  1       -1 0.24369022E+00 0.30780483E+04</pdfrwt>
<totfact> 0.94832017E-01</totfact>
</mgrwt>
</event>
<event>
12    6  0.1521603E-007  0.2064047E+04  0.7818608E-02  0.8577248E-01
          2   -1    0    0  501    0  0.00000000000E+00  0.00000000000E+00  0.10665430983E+04  0.10665430983E+04  0.00000000000E+00 0. -1.
         -1   -1    0    0    0  501 -0.00000000000E+00 -0.00000000000E+00 -0.99862146594E+03  0.99862146594E+03  0.00000000000E+00 0.  1.
         24    2    1    2    0    0 -0.30063539481E+03 -0.78233240684E+02  0.80492190637E+03  0.86651371370E+03  0.80278640412E+02 0.  0.
        254    2    1    2    0    0  0.30063539481E+03  0.78233240684E+02 -0.73700027404E+03  0.11986508505E+04  0.89280030072E+03 0.  0.
         23    2    4    4    0    0 -0.56520331516E+02 -0.33518543014E+03 -0.12522612493E+03  0.37348128634E+03  0.90900321395E+02 0.  0.
         23    2    4    4    0    0  0.35715572633E+03  0.41341867083E+03 -0.61177414911E+03  0.82516956418E+03  0.90343731939E+02 0.  0.
          4    1    3    3  502    0 -0.88237266869E+02 -0.35113749970E+02  0.34915630373E+03  0.36184100809E+03  0.00000000000E+00 0. -1.
         -3    1    3    3    0  502 -0.21239812794E+03 -0.43119490715E+02  0.45576560264E+03  0.50467270561E+03  0.00000000000E+00 0.  1.
         11    1    5    5    0    0 -0.74217133795E+02 -0.24806986521E+03 -0.67842939648E+02  0.26767425247E+03  0.00000000000E+00 0. -1.
        -11    1    5    5    0    0  0.17696802279E+02 -0.87115564930E+02 -0.57383185284E+02  0.10580703387E+03  0.00000000000E+00 0.  1.
          1    1    6    6  503    0  0.28934328471E+03  0.38058306820E+03 -0.53788008156E+03  0.71963740199E+03  0.00000000000E+00 0. -1.
         -1    1    6    6    0  503  0.67812441618E+02  0.32835602631E+02 -0.73894067541E+02  0.10553216219E+03  0.00000000000E+00 0.  1.
<mgrwt>
<rscale>  0 0.20640473E+04</rscale>
<asrwt>0</asrwt>
<pdfrwt beam="1">  1        2 0.16408355E+00 0.20640473E+04</pdfrwt>
<pdfrwt beam="2">  1       -1 0.15363407E+00 0.20640473E+04</pdfrwt>
<totfact> 0.78769209E+00</totfact>
</mgrwt>
</event>
<event>
12    6  0.1895073E-007  0.1376115E+04  0.7818608E-02  0.8971291E-01
          2   -1    0    0  501    0  0.00000000000E+00  0.00000000000E+00  0.18660160413E+04  0.18660160413E+04  0.00000000000E+00 0. -1.
         -1   -1    0    0    0  501 -0.00000000000E+00 -0.00000000000E+00 -0.25370814417E+03  0.25370814417E+03  0.00000000000E+00 0.  1.
         24    2    1    2    0    0 -0.24551072872E+03 -0.20682406600E+02  0.92570079507E+03  0.96354737191E+03  0.10391485002E+03 0.  0.
        254    2    1    2    0    0  0.24551072872E+03  0.20682406600E+02  0.68660710202E+03  0.11561768135E+04  0.89700180140E+03 0.  0.
         23    2    4    4    0    0  0.24069045474E+03 -0.29811440194E+03  0.12551351269E+01  0.39461884610E+03  0.94437104382E+02 0.  0.
         23    2    4    4    0    0  0.48202739747E+01  0.31879680854E+03  0.68535196689E+03  0.76155796742E+03  0.92782428521E+02 0.  0.
          2    1    3    3  502    0 -0.22605873629E+03  0.40896220658E+01  0.87599676919E+03  0.90470415987E+03  0.00000000000E+00 0. -1.
         -3    1    3    3    0  502 -0.19451992432E+02 -0.24772028666E+02  0.49704025884E+02  0.58843212037E+02  0.00000000000E+00 0.  1.
         11    1    5    5    0    0  0.15958655180E+03 -0.15503754053E+03  0.38973854776E+02  0.22588374851E+03  0.00000000000E+00 0. -1.
        -11    1    5    5    0    0  0.81103902948E+02 -0.14307686141E+03 -0.37718719649E+02  0.16873509759E+03  0.00000000000E+00 0.  1.
          1    1    6    6  503    0 -0.26267828179E+02  0.19198351302E+03  0.32625433179E+03  0.37945955922E+03  0.00000000000E+00 0. -1.
         -1    1    6    6    0  503  0.31088102154E+02  0.12681329552E+03  0.35909763510E+03  0.38209840820E+03  0.00000000000E+00 0.  1.
<mgrwt>
<rscale>  0 0.13761155E+04</rscale>
<asrwt>0</asrwt>
<pdfrwt beam="1">  1        2 0.28707938E+00 0.13761155E+04</pdfrwt>
<pdfrwt beam="2">  1       -1 0.39032024E-01 0.13761155E+04</pdfrwt>
<totfact> 0.56123069E+01</totfact>
</mgrwt>
</event>
<event>
12    6  0.1521603E-007  0.2409248E+04  0.7818608E-02  0.8436049E-01
          2   -1    0    0  501    0  0.00000000000E+00  0.00000000000E+00  0.11409588481E+04  0.11409588481E+04  0.00000000000E+00 0. -1.
         -1   -1    0    0    0  501 -0.00000000000E+00 -0.00000000000E+00 -0.12718417988E+04  0.12718417988E+04  0.00000000000E+00 0.  1.
         24    2    1    2    0    0  0.60044753676E+03  0.83856909576E+03 -0.20186268339E+03  0.10539630586E+04  0.79713318515E+02 0.  0.
        254    2    1    2    0    0 -0.60044753676E+03 -0.83856909576E+03  0.70979732642E+02  0.13588375883E+04  0.88185378389E+03 0.  0.
         23    2    4    4    0    0 -0.36369944542E+03 -0.75173945630E+03 -0.30784405401E+03  0.89454744099E+03  0.89764502002E+02 0.  0.
         23    2    4    4    0    0 -0.23674809134E+03 -0.86829639458E+02  0.37882378666E+03  0.46429014731E+03  0.92026270781E+02 0.  0.
          2    1    3    3  502    0  0.42518341956E+02  0.40418196616E+02 -0.26945735307E+02  0.64556275230E+02  0.00000000000E+00 0. -1.
         -1    1    3    3    0  502  0.55792919480E+03  0.79815089915E+03 -0.17491694808E+03  0.98940678335E+03  0.00000000000E+00 0.  1.
         11    1    5    5    0    0 -0.35514633337E+03 -0.75164815910E+03 -0.30544349822E+03  0.88566336934E+03  0.00000000000E+00 0.  1.
        -11    1    5    5    0    0 -0.85531120537E+01 -0.91297207685E-01 -0.24005557925E+01  0.88840716508E+01  0.00000000000E+00 0. -1.
          3    1    6    6  503    0 -0.11584318571E+03 -0.90012574386E+02  0.18986592517E+03  0.23993952730E+03  0.00000000000E+00 0. -1.
         -3    1    6    6    0  503 -0.12090490563E+03  0.31829349277E+01  0.18895786149E+03  0.22435062001E+03  0.00000000000E+00 0.  1.
<mgrwt>
<rscale>  0 0.24092481E+04</rscale>
<asrwt>0</asrwt>
<pdfrwt beam="1">  1        2 0.17553213E+00 0.24092481E+04</pdfrwt>
<pdfrwt beam="2">  1       -1 0.19566797E+00 0.24092481E+04</pdfrwt>
<totfact> 0.33965945E+00</totfact>
</mgrwt>
</event>
<event>
12    6  0.1521603E-007  0.2530852E+04  0.7818608E-02  0.8392076E-01
         -1   -1    0    0    0  501 -0.00000000000E+00  0.00000000000E+00  0.49195636830E+03  0.49195636830E+03  0.00000000000E+00 0.  1.
          2   -1    0    0  501    0  0.00000000000E+00 -0.00000000000E+00 -0.32549687653E+04  0.32549687653E+04  0.00000000000E+00 0. -1.
         24    2    1    2    0    0 -0.60032005374E+03  0.67956427769E+03 -0.21469102594E+04  0.23318918834E+04  0.79399745780E+02 0.  0.
        254    2    1    2    0    0  0.60032005374E+03 -0.67956427769E+03 -0.61610213760E+03  0.14150332502E+04  0.89473207204E+03 0.  0.
         23    2    4    4    0    0  0.35078174158E+03  0.15569536174E+03 -0.21240395554E+03  0.45008095760E+03  0.10083923924E+03 0.  0.
         23    2    4    4    0    0  0.24953831216E+03 -0.83525963943E+03 -0.40369818207E+03  0.96495229259E+03  0.90734063498E+02 0.  0.
          2    1    3    3  502    0 -0.41354404614E+03  0.46931394703E+03 -0.13838118312E+04  0.15186209017E+04  0.00000000000E+00 0. -1.
         -1    1    3    3    0  502 -0.18677600760E+03  0.21025033065E+03 -0.76309842825E+03  0.81327098174E+03  0.00000000000E+00 0.  1.
         11    1    5    5    0    0  0.29811427222E+03  0.11722811689E+03 -0.13178423111E+03  0.34638365184E+03  0.00000000000E+00 0.  1.
        -11    1    5    5    0    0  0.52667469360E+02  0.38467244847E+02 -0.80619724427E+02  0.10369730576E+03  0.00000000000E+00 0. -1.
          1    1    6    6  503    0 -0.16387957773E+01 -0.33687598909E+02 -0.31615690836E+02  0.46228691079E+02  0.00000000000E+00 0. -1.
         -1    1    6    6    0  503  0.25117710794E+03 -0.80157204052E+03 -0.37208249123E+03  0.91872360151E+03  0.00000000000E+00 0.  1.
<mgrwt>
<rscale>  0 0.25308517E+04</rscale>
<asrwt>0</asrwt>
<pdfrwt beam="1">  1        2 0.50076442E+00 0.25308517E+04</pdfrwt>
<pdfrwt beam="2">  1       -1 0.75685596E-01 0.25308517E+04</pdfrwt>
<totfact> 0.21185454E+00</totfact>
</mgrwt>
</event>
<event>
12    6  0.1521603E-007  0.1723962E+04  0.7818608E-02  0.8747815E-01
          2   -1    0    0  501    0  0.00000000000E+00  0.00000000000E+00  0.18341320478E+04  0.18341320478E+04  0.00000000000E+00 0. -1.
         -3   -1    0    0    0  501 -0.00000000000E+00 -0.00000000000E+00 -0.40510250331E+03  0.40510250331E+03  0.00000000000E+00 0.  1.
         24    2    1    2    0    0 -0.46573688333E+03  0.49360963921E+02  0.10581963800E+04  0.11602325355E+04  0.83741318914E+02 0.  0.
        254    2    1    2    0    0  0.46573688333E+03 -0.49360963921E+02  0.37083316446E+03  0.10790020156E+04  0.89854369095E+03 0.  0.
         23    2    4    4    0    0  0.19051087446E+03  0.23210677034E+03 -0.20537304953E+03  0.37543129730E+03  0.92750328265E+02 0.  0.
         23    2    4    4    0    0  0.27522600887E+03 -0.28146773426E+03  0.57620621400E+03  0.70357071830E+03  0.89580763605E+02 0.  0.
          2    1    3    3  502    0 -0.46138345119E+03  0.41975097555E+02  0.10087836574E+04  0.11100815579E+04  0.00000000000E+00 0. -1.
         -1    1    3    3    0  502 -0.43534321448E+01  0.73858663660E+01  0.49412722632E+02  0.50150977571E+02  0.00000000000E+00 0.  1.
         11    1    5    5    0    0  0.15189328374E+03  0.17206272214E+03 -0.10533579991E+03  0.25253273201E+03  0.00000000000E+00 0. -1.
        -11    1    5    5    0    0  0.38617590720E+02  0.60044048201E+02 -0.10003724963E+03  0.12289856529E+03  0.00000000000E+00 0.  1.
          3    1    6    6  503    0  0.12410873231E+03 -0.18435685528E+03  0.35191593513E+03  0.41621539246E+03  0.00000000000E+00 0. -1.
         -3    1    6    6    0  503  0.15111727656E+03 -0.97110878983E+02  0.22429027887E+03  0.28735532584E+03  0.00000000000E+00 0.  1.
<mgrwt>
<rscale>  0 0.17239623E+04</rscale>
<asrwt>0</asrwt>
<pdfrwt beam="1">  1        2 0.28217416E+00 0.17239623E+04</pdfrwt>
<pdfrwt beam="2">  1       -3 0.62323463E-01 0.17239623E+04</pdfrwt>
<totfact> 0.12585851E+01</totfact>
</mgrwt>
</event>
<event>
12    6  0.1521603E-007  0.2328436E+04  0.7818608E-02  0.8466793E-01
          2   -1    0    0  501    0  0.00000000000E+00  0.00000000000E+00  0.85569691862E+03  0.85569691862E+03  0.00000000000E+00 0. -1.
         -1   -1    0    0    0  501 -0.00000000000E+00 -0.00000000000E+00 -0.15839757832E+04  0.15839757832E+04  0.00000000000E+00 0.  1.
         24    2    1    2    0    0  0.45881238806E+03  0.80753950930E+03 -0.71383643224E+03  0.11741001012E+04  0.79496724713E+02 0.  0.
        254    2    1    2    0    0 -0.45881238806E+03 -0.80753950930E+03 -0.14442432329E+02  0.12655726006E+04  0.85955602314E+03 0.  0.
         23    2    4    4    0    0 -0.33451280459E+01  0.79757995273E+02  0.20694206891E+03  0.23985656140E+03  0.91288676555E+02 0.  0.
         23    2    4    4    0    0 -0.45546726001E+03 -0.88729750457E+03 -0.22138450124E+03  0.10257160392E+04  0.91296270725E+02 0.  0.
          2    1    3    3  502    0  0.56711219694E+02  0.12234103602E+03 -0.72672840928E+02  0.15318235324E+03  0.00000000000E+00 0. -1.
         -1    1    3    3    0  502  0.40210116837E+03  0.68519847327E+03 -0.64116359131E+03  0.10209177480E+04  0.00000000000E+00 0.  1.
         11    1    5    5    0    0 -0.39981486039E+02  0.26827647910E+02  0.13494828202E+03  0.14328042692E+03  0.00000000000E+00 0.  1.
        -11    1    5    5    0    0  0.36636357993E+02  0.52930347363E+02  0.71993786889E+02  0.96576134472E+02  0.00000000000E+00 0. -1.
          2    1    6    6  503    0 -0.45873083738E+03 -0.88393503542E+03 -0.21689059479E+03  0.10192235565E+04  0.00000000000E+00 0. -1.
         -2    1    6    6    0  503  0.32635773689E+01 -0.33624691537E+01 -0.44939064494E+01  0.64924826706E+01  0.00000000000E+00 0.  1.
<mgrwt>
<rscale>  0 0.23284357E+04</rscale>
<asrwt>0</asrwt>
<pdfrwt beam="1">  1        2 0.13164568E+00 0.23284357E+04</pdfrwt>
<pdfrwt beam="2">  1       -1 0.24368858E+00 0.23284357E+04</pdfrwt>
<totfact> 0.24878289E+00</totfact>
</mgrwt>
</event>
<event>
12    6  0.1521603E-007  0.2512094E+04  0.7818608E-02  0.8398690E-01
         -1   -1    0    0    0  501 -0.00000000000E+00  0.00000000000E+00  0.48324036544E+03  0.48324036544E+03  0.00000000000E+00 0.  1.
          2   -1    0    0  501    0  0.00000000000E+00 -0.00000000000E+00 -0.32647406820E+04  0.32647406820E+04  0.00000000000E+00 0. -1.
         24    2    1    2    0    0  0.46587223657E+03 -0.95128605855E+03 -0.16161894167E+04  0.19348632014E+04  0.98210343382E+02 0.  0.
        254    2    1    2    0    0 -0.46587223657E+03  0.95128605855E+03 -0.11653108999E+04  0.18131178460E+04  0.89859040959E+03 0.  0.
         23    2    4    4    0    0  0.16173728801E+03  0.64037496402E+03 -0.42713578237E+03  0.79183919687E+03  0.91243039442E+02 0.  0.
         23    2    4    4    0    0 -0.62760952458E+03  0.31091109454E+03 -0.73817511749E+03  0.10212786492E+04  0.86880095953E+02 0.  0.
          4    1    3    3  502    0  0.43373951390E+03 -0.81024648537E+03 -0.13877243606E+04  0.16644543352E+04  0.00000000000E+00 0. -1.
         -3    1    3    3    0  502  0.32132722672E+02 -0.14103957319E+03 -0.22846505604E+03  0.27040886617E+03  0.00000000000E+00 0.  1.
         11    1    5    5    0    0 -0.75800703838E+01  0.91201338836E+02 -0.70097020840E+02  0.11527677131E+03  0.00000000000E+00 0.  1.
        -11    1    5    5    0    0  0.16931735840E+03  0.54917362518E+03 -0.35703876153E+03  0.67656242556E+03  0.00000000000E+00 0. -1.
          3    1    6    6  503    0 -0.53847901917E+03  0.26482487371E+03 -0.58413218020E+03  0.83743792114E+03  0.00000000000E+00 0. -1.
         -3    1    6    6    0  503 -0.89130505420E+02  0.46086220828E+02 -0.15404293730E+03  0.18384072802E+03  0.00000000000E+00 0.  1.
<mgrwt>
<rscale>  0 0.25120943E+04</rscale>
<asrwt>0</asrwt>
<pdfrwt beam="1">  1        2 0.50226781E+00 0.25120943E+04</pdfrwt>
<pdfrwt beam="2">  1       -1 0.74344670E-01 0.25120943E+04</pdfrwt>
<totfact> 0.21705422E+00</totfact>
</mgrwt>
</event>
<event>
12    6  0.1521603E-007  0.2411105E+04  0.7818608E-02  0.8435358E-01
         -1   -1    0    0    0  501 -0.00000000000E+00  0.00000000000E+00  0.94816102027E+03  0.94816102027E+03  0.00000000000E+00 0.  1.
          2   -1    0    0  501    0  0.00000000000E+00 -0.00000000000E+00 -0.15328159552E+04  0.15328159552E+04  0.00000000000E+00 0. -1.
         24    2    1    2    0    0 -0.20405164536E+03  0.90466861553E+03 -0.71594627756E+03  0.11742289066E+04  0.78562554147E+02 0.  0.
        254    2    1    2    0    0  0.20405164536E+03 -0.90466861553E+03  0.13129134263E+03  0.13067480688E+04  0.91120289775E+03 0.  0.
         23    2    4    4    0    0  0.47543233799E+03 -0.22163593169E+03  0.18717984004E+03  0.56419657835E+03  0.90128199120E+02 0.  0.
         23    2    4    4    0    0 -0.27138069263E+03 -0.68303268383E+03 -0.55888497418E+02  0.74255149049E+03  0.89878052745E+02 0.  0.
          2    1    3    3  502    0 -0.19852372147E+03  0.89498542449E+03 -0.69466761778E+03  0.11502059282E+04  0.00000000000E+00 0. -1.
         -1    1    3    3    0  502 -0.55279238879E+01  0.96831910329E+01 -0.21278659783E+02  0.24022978443E+02  0.00000000000E+00 0.  1.
         11    1    5    5    0    0  0.41990235702E+03 -0.21669611013E+03  0.18772523378E+03  0.50844464494E+03  0.00000000000E+00 0. -1.
        -11    1    5    5    0    0  0.55529980976E+02 -0.49398215665E+01 -0.54539374001E+00  0.55751933407E+02  0.00000000000E+00 0.  1.
          4    1    6    6  503    0 -0.77302570098E+02 -0.21651370295E+03 -0.58660322477E+02  0.23726547229E+03  0.00000000000E+00 0. -1.
         -4    1    6    6    0  503 -0.19407812253E+03 -0.46651898089E+03  0.27718250585E+01  0.50528601820E+03  0.00000000000E+00 0.  1.
<mgrwt>
<rscale>  0 0.24111046E+04</rscale>
<asrwt>0</asrwt>
<pdfrwt beam="1">  1        2 0.23581784E+00 0.24111046E+04</pdfrwt>
<pdfrwt beam="2">  1       -1 0.14587093E+00 0.24111046E+04</pdfrwt>
<totfact> 0.46807438E+00</totfact>
</mgrwt>
</event>
<event>
12    6  0.1521603E-007  0.1106255E+04  0.7818608E-02  0.9199117E-01
          2   -1    0    0  501    0  0.00000000000E+00  0.00000000000E+00  0.10548618330E+04  0.10548618330E+04  0.00000000000E+00 0. -1.
         -1   -1    0    0    0  501 -0.00000000000E+00 -0.00000000000E+00 -0.29003792350E+03  0.29003792350E+03  0.00000000000E+00 0.  1.
         24    2    1    2    0    0 -0.14676140926E+03  0.92566688412E+02  0.13158030631E+03  0.23229849703E+03  0.80880848550E+02 0.  0.
        254    2    1    2    0    0  0.14676140926E+03 -0.92566688412E+02  0.63324360324E+03  0.11126012595E+04  0.89820743627E+03 0.  0.
         23    2    4    4    0    0  0.54577351549E+02 -0.43753372399E+03  0.58910064826E+03  0.74138017806E+03  0.90501644752E+02 0.  0.
         23    2    4    4    0    0  0.92184057711E+02  0.34496703558E+03  0.44142954984E+02  0.37122108146E+03  0.91412989836E+02 0.  0.
          4    1    3    3  502    0 -0.26326718057E+02  0.39393022058E+02  0.75643014038E+02  0.89256774775E+02  0.00000000000E+00 0. -1.
         -1    1    3    3    0  502 -0.12043469120E+03  0.53173666354E+02  0.55937292268E+02  0.14304172225E+03  0.00000000000E+00 0.  1.
         11    1    5    5    0    0  0.51929049666E+02 -0.40927194826E+03  0.57962868402E+03  0.71145594746E+03  0.00000000000E+00 0. -1.
        -11    1    5    5    0    0  0.26483018829E+01 -0.28261775732E+02  0.94719642364E+01  0.29924230598E+02  0.00000000000E+00 0.  1.
          3    1    6    6  503    0  0.99011124127E+02  0.33908977070E+03  0.30089824887E+02  0.35452852192E+03  0.00000000000E+00 0. -1.
         -3    1    6    6    0  503 -0.68270664153E+01  0.58772648787E+01  0.14053130097E+02  0.16692559535E+02  0.00000000000E+00 0.  1.
<mgrwt>
<rscale>  0 0.11062548E+04</rscale>
<asrwt>0</asrwt>
<pdfrwt beam="1">  1        2 0.16228643E+00 0.11062548E+04</pdfrwt>
<pdfrwt beam="2">  1       -1 0.44621220E-01 0.11062548E+04</pdfrwt>
<totfact> 0.13080768E+02</totfact>
</mgrwt>
</event>
<event>
12    6  0.1521603E-007  0.1256540E+04  0.7818608E-02  0.9064758E-01
         -1   -1    0    0    0  501 -0.00000000000E+00  0.00000000000E+00  0.10244511094E+04  0.10244511094E+04  0.00000000000E+00 0.  1.
          2   -1    0    0  501    0  0.00000000000E+00 -0.00000000000E+00 -0.38530182386E+03  0.38530182386E+03  0.00000000000E+00 0. -1.
         24    2    1    2    0    0  0.95949775067E+02 -0.48065500179E+02 -0.16175370379E+03  0.20980428160E+03  0.79604800410E+02 0.  0.
        254    2    1    2    0    0 -0.95949775067E+02  0.48065500179E+02  0.80090298935E+03  0.11999486517E+04  0.88708202364E+03 0.  0.
         23    2    4    4    0    0  0.19963066849E+03  0.37045729076E+03  0.27864300926E+03  0.51315560524E+03  0.92713216414E+02 0.  0.
         23    2    4    4    0    0 -0.29558044356E+03 -0.32239179058E+03  0.52225998009E+03  0.68679304644E+03  0.87320882835E+02 0.  0.
          2    1    3    3  502    0  0.75091198699E+02 -0.66402668876E+02 -0.97642167647E+02  0.13993568329E+03  0.00000000000E+00 0. -1.
         -1    1    3    3    0  502  0.20858576367E+02  0.18337168697E+02 -0.64111536139E+02  0.69868598312E+02  0.00000000000E+00 0.  1.
         11    1    5    5    0    0  0.11919588522E+03  0.12547990106E+03  0.11148980940E+03  0.20587093584E+03  0.00000000000E+00 0. -1.
        -11    1    5    5    0    0  0.80434783275E+02  0.24497738970E+03  0.16715319987E+03  0.30728466941E+03  0.00000000000E+00 0.  1.
          4    1    6    6  503    0 -0.55971834885E+01 -0.17387749534E+02  0.54957307779E+02  0.57913452455E+02  0.00000000000E+00 0. -1.
         -4    1    6    6    0  503 -0.28998326007E+03 -0.30500404105E+03  0.46730267231E+03  0.62887959398E+03  0.00000000000E+00 0.  1.
<mgrwt>
<rscale>  0 0.12565395E+04</rscale>
<asrwt>0</asrwt>
<pdfrwt beam="1">  1        2 0.59277204E-01 0.12565395E+04</pdfrwt>
<pdfrwt beam="2">  1       -1 0.15760786E+00 0.12565395E+04</pdfrwt>
<totfact> 0.28445964E+01</totfact>
</mgrwt>
</event>
<event>
12    6  0.1521603E-007  0.2093049E+04  0.7818608E-02  0.8564311E-01
          2   -1    0    0  501    0  0.00000000000E+00  0.00000000000E+00  0.15988836508E+04  0.15988836508E+04  0.00000000000E+00 0. -1.
         -1   -1    0    0    0  501 -0.00000000000E+00 -0.00000000000E+00 -0.68498649648E+03  0.68498649648E+03  0.00000000000E+00 0.  1.
         24    2    1    2    0    0 -0.74830528145E+03  0.37724846237E+03  0.17909845013E+03  0.86144031670E+03  0.87897484477E+02 0.  0.
        254    2    1    2    0    0  0.74830528145E+03 -0.37724846237E+03  0.73479870416E+03  0.14224298306E+04  0.88379878402E+03 0.  0.
         23    2    4    4    0    0  0.59906058267E+03 -0.14239595220E+02  0.81097047897E+03  0.10123946919E+04  0.90518211586E+02 0.  0.
         23    2    4    4    0    0  0.14924469878E+03 -0.36300886715E+03 -0.76171774810E+02  0.41003513867E+03  0.90979436799E+02 0.  0.
          4    1    3    3  502    0 -0.73057382021E+03  0.35695783468E+03  0.16078568920E+03  0.82886008491E+03  0.00000000000E+00 0. -1.
         -3    1    3    3    0  502 -0.17731461246E+02  0.20290627694E+02  0.18312760932E+02  0.32580231784E+02  0.00000000000E+00 0.  1.
         11    1    5    5    0    0  0.26092227885E+03  0.25176265963E+02  0.29979177119E+03  0.39823282894E+03  0.00000000000E+00 0. -1.
        -11    1    5    5    0    0  0.33813830382E+03 -0.39415861183E+02  0.51117870778E+03  0.61416186296E+03  0.00000000000E+00 0.  1.
          2    1    6    6  503    0  0.20104690142E+02 -0.70617568449E+02 -0.51014609625E+02  0.89406543019E+02  0.00000000000E+00 0.  1.
         -2    1    6    6    0  503  0.12914000864E+03 -0.29239129870E+03 -0.25157165185E+02  0.32062859565E+03  0.00000000000E+00 0. -1.
<mgrwt>
<rscale>  0 0.20930492E+04</rscale>
<asrwt>0</asrwt>
<pdfrwt beam="1">  1        2 0.24598210E+00 0.20930492E+04</pdfrwt>
<pdfrwt beam="2">  1       -1 0.10538254E+00 0.20930492E+04</pdfrwt>
<totfact> 0.99018855E+00</totfact>
</mgrwt>
</event>
<event>
12    6  0.1521603E-007  0.1147986E+04  0.7818608E-02  0.9159644E-01
          2   -1    0    0  501    0  0.00000000000E+00  0.00000000000E+00  0.86048560117E+03  0.86048560117E+03  0.00000000000E+00 0. -1.
         -1   -1    0    0    0  501 -0.00000000000E+00 -0.00000000000E+00 -0.38288596820E+03  0.38288596820E+03  0.00000000000E+00 0.  1.
         24    2    1    2    0    0  0.14627863800E+03 -0.10846182905E+03  0.18793550689E+03  0.27475697746E+03  0.83727137859E+02 0.  0.
        254    2    1    2    0    0 -0.14627863800E+03  0.10846182905E+03  0.28966412608E+03  0.96861459191E+03  0.90617190060E+03 0.  0.
         23    2    4    4    0    0  0.26719894288E+02 -0.27214388755E+03  0.42987481625E+03  0.51783004248E+03  0.92624764338E+02 0.  0.
         23    2    4    4    0    0 -0.17299853229E+03  0.38060571660E+03 -0.14021069016E+03  0.45078454944E+03  0.93586690778E+02 0.  0.
          2    1    3    3  502    0  0.12647496287E+02 -0.20159035171E+02 -0.46725865732E+01  0.24252400430E+02  0.00000000000E+00 0. -1.
         -1    1    3    3    0  502  0.13363114172E+03 -0.88302793876E+02  0.19260809347E+03  0.25050457703E+03  0.00000000000E+00 0.  1.
         11    1    5    5    0    0 -0.83305925556E+01 -0.72362875611E+00  0.43824625135E+02  0.44615246040E+02  0.00000000000E+00 0. -1.
        -11    1    5    5    0    0  0.35050486843E+02 -0.27142025880E+03  0.38605019111E+03  0.47321479644E+03  0.00000000000E+00 0.  1.
          1    1    6    6  503    0 -0.64019772327E+02  0.58640388188E+02 -0.12676925641E+02  0.87737852831E+02  0.00000000000E+00 0. -1.
         -1    1    6    6    0  503 -0.10897875996E+03  0.32196532841E+03 -0.12753376452E+03  0.36304669660E+03  0.00000000000E+00 0.  1.
<mgrwt>
<rscale>  0 0.11479858E+04</rscale>
<asrwt>0</asrwt>
<pdfrwt beam="1">  1        2 0.13238240E+00 0.11479858E+04</pdfrwt>
<pdfrwt beam="2">  1       -1 0.58905534E-01 0.11479858E+04</pdfrwt>
<totfact> 0.10300059E+02</totfact>
</mgrwt>
</event>
<event>
12    6  0.1521603E-007  0.1202814E+04  0.7818608E-02  0.9110397E-01
         -1   -1    0    0    0  501 -0.00000000000E+00  0.00000000000E+00  0.94628815543E+03  0.94628815543E+03  0.00000000000E+00 0.  1.
          2   -1    0    0  501    0  0.00000000000E+00 -0.00000000000E+00 -0.38222009935E+03  0.38222009935E+03  0.00000000000E+00 0. -1.
         24    2    1    2    0    0 -0.17889666346E+03  0.13384511127E+03 -0.23268816996E+02  0.23820817072E+03  0.79266416258E+02 0.  0.
        254    2    1    2    0    0  0.17889666346E+03 -0.13384511127E+03  0.58733687308E+03  0.10903000841E+04  0.89099446733E+03 0.  0.
         23    2    4    4    0    0  0.15637514237E+03 -0.37288900099E+03  0.69683974790E+03  0.81076867105E+03  0.90889006461E+02 0.  0.
         23    2    4    4    0    0  0.22521521087E+02  0.23904388972E+03 -0.10950287482E+03  0.27953141300E+03  0.92183139108E+02 0.  0.
          2    1    3    3  502    0 -0.95538507432E+02  0.32123853540E+02 -0.33706547655E+02  0.10628113531E+03  0.00000000000E+00 0. -1.
         -1    1    3    3    0  502 -0.83358156028E+02  0.10172125773E+03  0.10437730660E+02  0.13192703541E+03  0.00000000000E+00 0.  1.
         11    1    5    5    0    0  0.40852134098E+02 -0.18114965826E+03  0.37854373817E+03  0.42163901297E+03  0.00000000000E+00 0. -1.
        -11    1    5    5    0    0  0.11552300828E+03 -0.19173934273E+03  0.31829600973E+03  0.38912965809E+03  0.00000000000E+00 0.  1.
          1    1    6    6  503    0  0.38116877228E+02  0.21022766132E+03 -0.12009698671E+03  0.24509559794E+03  0.00000000000E+00 0. -1.
         -1    1    6    6    0  503 -0.15595356141E+02  0.28816228405E+02  0.10594111884E+02  0.34435815066E+02  0.00000000000E+00 0.  1.
<mgrwt>
<rscale>  0 0.12028140E+04</rscale>
<asrwt>0</asrwt>
<pdfrwt beam="1">  1        2 0.58803093E-01 0.12028140E+04</pdfrwt>
<pdfrwt beam="2">  1       -1 0.14558279E+00 0.12028140E+04</pdfrwt>
<totfact> 0.35739255E+01</totfact>
</mgrwt>
</event>
<event>
12    6  0.1521603E-007  0.1310377E+04  0.7818608E-02  0.9021376E-01
          2   -1    0    0  501    0  0.00000000000E+00  0.00000000000E+00  0.12246286470E+03  0.12246286470E+03  0.00000000000E+00 0. -1.
         -1   -1    0    0    0  501 -0.00000000000E+00 -0.00000000000E+00 -0.35053253030E+04  0.35053253030E+04  0.00000000000E+00 0.  1.
         24    2    1    2    0    0  0.36502255826E+02  0.10315264754E+03 -0.83482871250E+01  0.13679492082E+03  0.81671739837E+02 0.  0.
        254    2    1    2    0    0 -0.36502255826E+02 -0.10315264754E+03 -0.33745141512E+04  0.34909932469E+04  0.88753321627E+03 0.  0.
         23    2    4    4    0    0 -0.17612930554E+03  0.18421615861E+03 -0.28951270502E+04  0.29077169598E+04  0.90000869279E+02 0.  0.
         23    2    4    4    0    0  0.13962704971E+03 -0.28736880615E+03 -0.47938710102E+03  0.58327628708E+03  0.91228782102E+02 0.  0.
          4    1    3    3  502    0  0.59147585451E+02  0.91584781279E+02  0.27290716704E+01  0.10905804353E+03  0.00000000000E+00 0. -1.
         -3    1    3    3    0  502 -0.22645329625E+02  0.11567866264E+02 -0.11077358795E+02  0.27736877286E+02  0.00000000000E+00 0.  1.
         11    1    5    5    0    0 -0.15397020946E+03  0.15923449333E+03 -0.27449352742E+04  0.27538576777E+04  0.00000000000E+00 0. -1.
        -11    1    5    5    0    0 -0.22159096075E+02  0.24981665282E+02 -0.15019177597E+03  0.15385928216E+03  0.00000000000E+00 0.  1.
          4    1    6    6  503    0  0.39390340037E+02 -0.24175065831E+02 -0.10554404392E+03  0.11521969408E+03  0.00000000000E+00 0.  1.
         -4    1    6    6    0  503  0.10023670967E+03 -0.26319374032E+03 -0.37384305710E+03  0.46805659300E+03  0.00000000000E+00 0. -1.
<mgrwt>
<rscale>  0 0.13103773E+04</rscale>
<asrwt>0</asrwt>
<pdfrwt beam="1">  1        2 0.18840442E-01 0.13103773E+04</pdfrwt>
<pdfrwt beam="2">  1       -1 0.53928077E+00 0.13103773E+04</pdfrwt>
<totfact> 0.29386051E-01</totfact>
</mgrwt>
</event>
<event>
12    6  0.1521603E-007  0.2938880E+04  0.7818608E-02  0.8261403E-01
          2   -1    0    0  501    0  0.00000000000E+00  0.00000000000E+00  0.24132570595E+04  0.24132570595E+04  0.00000000000E+00 0. -1.
         -1   -1    0    0    0  501 -0.00000000000E+00 -0.00000000000E+00 -0.89474652592E+03  0.89474652592E+03  0.00000000000E+00 0.  1.
         24    2    1    2    0    0  0.97988489798E+03 -0.74897482578E+03  0.13490821101E+03  0.12432357277E+04  0.79354561341E+02 0.  0.
        254    2    1    2    0    0 -0.97988489798E+03  0.74897482578E+03  0.13836023226E+04  0.20647678577E+04  0.90982043070E+03 0.  0.
         23    2    4    4    0    0 -0.18245505691E+03  0.40525202994E+03  0.31198276836E+02  0.45503313495E+03  0.92535214207E+02 0.  0.
         23    2    4    4    0    0 -0.79742984108E+03  0.34372279585E+03  0.13524040458E+04  0.16097347227E+04  0.90606085840E+02 0.  0.
          2    1    3    3  502    0  0.25160532395E+02 -0.71664955362E+01  0.89600311826E+01  0.27653086762E+02  0.00000000000E+00 0. -1.
         -1    1    3    3    0  502  0.95472436559E+03 -0.74180833025E+03  0.12594817983E+03  0.12155826410E+04  0.00000000000E+00 0.  1.
         11    1    5    5    0    0 -0.55413608800E+02  0.75650723951E+02  0.39363697771E+02  0.10170152790E+03  0.00000000000E+00 0.  1.
        -11    1    5    5    0    0 -0.12704144811E+03  0.32960130598E+03 -0.81654209352E+01  0.35333160705E+03  0.00000000000E+00 0. -1.
          3    1    6    6  503    0 -0.75731957829E+03  0.34637638607E+03  0.12849156733E+04  0.15311818416E+04  0.00000000000E+00 0. -1.
         -3    1    6    6    0  503 -0.40110262786E+02 -0.26535902208E+01  0.67488372488E+02  0.78552881188E+02  0.00000000000E+00 0.  1.
<mgrwt>
<rscale>  0 0.29388796E+04</rscale>
<asrwt>0</asrwt>
<pdfrwt beam="1">  1        2 0.37127031E+00 0.29388796E+04</pdfrwt>
<pdfrwt beam="2">  1       -1 0.13765331E+00 0.29388796E+04</pdfrwt>
<totfact> 0.16733524E+00</totfact>
</mgrwt>
</event>
<event>
12    6  0.1521603E-007  0.1535321E+04  0.7818608E-02  0.8861299E-01
         -1   -1    0    0    0  501 -0.00000000000E+00  0.00000000000E+00  0.26698022725E+03  0.26698022725E+03  0.00000000000E+00 0.  1.
          2   -1    0    0  501    0  0.00000000000E+00 -0.00000000000E+00 -0.22072886299E+04  0.22072886299E+04  0.00000000000E+00 0. -1.
         24    2    1    2    0    0  0.69270394991E+02 -0.21935536303E+03  0.81497403928E+02  0.25698694904E+03  0.80531374106E+02 0.  0.
        254    2    1    2    0    0 -0.69270394991E+02  0.21935536303E+03 -0.20218058066E+04  0.22172819081E+04  0.88075261997E+03 0.  0.
         23    2    4    4    0    0 -0.43924846322E+03  0.21200024580E+03 -0.14269709749E+04  0.15107935793E+04  0.91475456871E+02 0.  0.
         23    2    4    4    0    0  0.36997806823E+03  0.73551172292E+01 -0.59483483164E+03  0.70648832883E+03  0.91429826179E+02 0.  0.
          4    1    3    3  502    0 -0.28861224887E+01 -0.16070958276E+01 -0.96117971170E+01  0.10163616671E+02  0.00000000000E+00 0. -1.
         -3    1    3    3    0  502  0.72156517480E+02 -0.21774826720E+03  0.91109201045E+02  0.24682333237E+03  0.00000000000E+00 0.  1.
         11    1    5    5    0    0 -0.79945295183E+02  0.30583753553E+02 -0.16047796921E+03  0.18187851661E+03  0.00000000000E+00 0.  1.
        -11    1    5    5    0    0 -0.35930316804E+03  0.18141649225E+03 -0.12664930057E+04  0.13289150627E+04  0.00000000000E+00 0. -1.
          3    1    6    6  503    0  0.19775249656E+03  0.33812737008E+02 -0.25380015060E+03  0.32351795549E+03  0.00000000000E+00 0. -1.
         -3    1    6    6    0  503  0.17222557167E+03 -0.26457619779E+02 -0.34103468104E+03  0.38297037334E+03  0.00000000000E+00 0.  1.
<mgrwt>
<rscale>  0 0.15353207E+04</rscale>
<asrwt>0</asrwt>
<pdfrwt beam="1">  1        2 0.33958287E+00 0.15353207E+04</pdfrwt>
<pdfrwt beam="2">  1       -1 0.41073881E-01 0.15353207E+04</pdfrwt>
<totfact> 0.32602667E+01</totfact>
</mgrwt>
</event>
<event>
12    6  0.1521603E-007  0.1432358E+04  0.7818608E-02  0.8930724E-01
         -1   -1    0    0    0  501 -0.00000000000E+00  0.00000000000E+00  0.22248088692E+04  0.22248088692E+04  0.00000000000E+00 0.  1.
          2   -1    0    0  501    0  0.00000000000E+00 -0.00000000000E+00 -0.23054209270E+03  0.23054209270E+03  0.00000000000E+00 0. -1.
         24    2    1    2    0    0 -0.33704842980E+03 -0.37646633669E+02  0.99865701436E+03  0.10576407705E+04  0.79178621637E+02 0.  0.
        254    2    1    2    0    0  0.33704842980E+03  0.37646633669E+02  0.99560976213E+03  0.13977101913E+04  0.92050859175E+03 0.  0.
         23    2    4    4    0    0  0.13057697584E+03  0.46355605630E+03  0.59712031594E+03  0.77271717187E+03  0.92760940318E+02 0.  0.
         23    2    4    4    0    0  0.20647145396E+03 -0.42590942263E+03  0.39848944619E+03  0.62499301947E+03  0.88278752186E+02 0.  0.
          2    1    3    3  502    0 -0.12256117468E+02 -0.14794854901E+02  0.29069039541E+02  0.34844069894E+02  0.00000000000E+00 0. -1.
         -1    1    3    3    0  502 -0.32479231233E+03 -0.22851778769E+02  0.96958797482E+03  0.10227967006E+04  0.00000000000E+00 0.  1.
         11    1    5    5    0    0  0.29294923363E+02  0.19477096965E+03  0.18386433165E+03  0.26944390067E+03  0.00000000000E+00 0. -1.
        -11    1    5    5    0    0  0.10128205248E+03  0.26878508664E+03  0.41325598429E+03  0.50327327120E+03  0.00000000000E+00 0.  1.
          1    1    6    6  503    0  0.67925864395E+02 -0.65490370928E+02  0.94714220354E+02  0.13369254009E+03  0.00000000000E+00 0. -1.
         -1    1    6    6    0  503  0.13854558956E+03 -0.36041905170E+03  0.30377522583E+03  0.49130047939E+03  0.00000000000E+00 0.  1.
<mgrwt>
<rscale>  0 0.14323576E+04</rscale>
<asrwt>0</asrwt>
<pdfrwt beam="1">  1        2 0.35468016E-01 0.14323576E+04</pdfrwt>
<pdfrwt beam="2">  1       -1 0.34227827E+00 0.14323576E+04</pdfrwt>
<totfact> 0.28835656E+00</totfact>
</mgrwt>
</event>
<event>
12    6  0.1521603E-007  0.1454451E+04  0.7818608E-02  0.8915321E-01
          2   -1    0    0  501    0  0.00000000000E+00  0.00000000000E+00  0.26518162276E+03  0.26518162276E+03  0.00000000000E+00 0. -1.
         -1   -1    0    0    0  501 -0.00000000000E+00 -0.00000000000E+00 -0.19943188860E+04  0.19943188860E+04  0.00000000000E+00 0.  1.
         24    2    1    2    0    0 -0.86266936529E+02 -0.43206836324E+03 -0.61970265672E+03  0.76488073219E+03  0.82982509470E+02 0.  0.
        254    2    1    2    0    0  0.86266936529E+02  0.43206836324E+03 -0.11094346065E+04  0.14946197766E+04  0.89939873000E+03 0.  0.
         23    2    4    4    0    0 -0.28386410123E+03  0.24177882570E+03 -0.97498059584E+03  0.10478536149E+04  0.91510696212E+02 0.  0.
         23    2    4    4    0    0  0.37013103776E+03  0.19028953753E+03 -0.13445401070E+03  0.44676616166E+03  0.91186780842E+02 0.  0.
          2    1    3    3  502    0 -0.51127378136E+02 -0.92305147626E+02 -0.17141081142E+03  0.20128565608E+03  0.00000000000E+00 0. -1.
         -1    1    3    3    0  502 -0.35139558393E+02 -0.33976321561E+03 -0.44829184530E+03  0.56359507610E+03  0.00000000000E+00 0.  1.
         11    1    5    5    0    0 -0.27163755530E+03  0.24828451316E+03 -0.95576231655E+03  0.10241649118E+04  0.00000000000E+00 0. -1.
        -11    1    5    5    0    0 -0.12226545934E+02 -0.65056874534E+01 -0.19218279298E+02  0.23688703086E+02  0.00000000000E+00 0.  1.
          1    1    6    6  503    0  0.29535143588E+03  0.17401742127E+03 -0.77728466260E+02  0.35150568708E+03  0.00000000000E+00 0. -1.
         -1    1    6    6    0  503  0.74779601880E+02  0.16272116265E+02 -0.56725544436E+02  0.95260474577E+02  0.00000000000E+00 0.  1.
<mgrwt>
<rscale>  0 0.14544507E+04</rscale>
<asrwt>0</asrwt>
<pdfrwt beam="1">  1        2 0.40797174E-01 0.14544507E+04</pdfrwt>
<pdfrwt beam="2">  1       -1 0.30681828E+00 0.14544507E+04</pdfrwt>
<totfact> 0.41876184E+00</totfact>
</mgrwt>
</event>
<event>
12    6  0.1521603E-007  0.2297583E+04  0.7818608E-02  0.8478875E-01
         -1   -1    0    0    0  501 -0.00000000000E+00  0.00000000000E+00  0.47191982209E+03  0.47191982209E+03  0.00000000000E+00 0.  1.
          2   -1    0    0  501    0  0.00000000000E+00 -0.00000000000E+00 -0.27964971790E+04  0.27964971790E+04  0.00000000000E+00 0. -1.
         24    2    1    2    0    0 -0.20899636622E+03  0.92856081086E+01 -0.23254262515E+04  0.23362523426E+04  0.81866068024E+02 0.  0.
        254    2    1    2    0    0  0.20899636622E+03 -0.92856081086E+01  0.84889465193E+00  0.93216465853E+03  0.90838567050E+03 0.  0.
         23    2    4    4    0    0  0.36312167317E+03  0.29143755116E+03 -0.21648385665E+03  0.52104139426E+03  0.88462865610E+02 0.  0.
         23    2    4    4    0    0 -0.15412530696E+03 -0.30072315927E+03  0.21733275131E+03  0.41112326426E+03  0.87176744984E+02 0.  0.
          4    1    3    3  502    0 -0.12798504323E+03  0.31219668447E+02 -0.10807092772E+04  0.10887090432E+04  0.00000000000E+00 0. -1.
         -3    1    3    3    0  502 -0.81011322989E+02 -0.21934060338E+02 -0.12447169744E+04  0.12475432994E+04  0.00000000000E+00 0.  1.
         11    1    5    5    0    0  0.32032334098E+02  0.19352032915E+02  0.64533154376E+01  0.37976530725E+02  0.00000000000E+00 0. -1.
        -11    1    5    5    0    0  0.33108933908E+03  0.27208551824E+03 -0.22293717209E+03  0.48306486354E+03  0.00000000000E+00 0.  1.
          1    1    6    6  503    0 -0.19497444030E+02 -0.10907279191E+03  0.41754784145E+02  0.11840813426E+03  0.00000000000E+00 0. -1.
         -1    1    6    6    0  503 -0.13462786293E+03 -0.19165036735E+03  0.17557796716E+03  0.29271513001E+03  0.00000000000E+00 0.  1.
<mgrwt>
<rscale>  0 0.22975835E+04</rscale>
<asrwt>0</asrwt>
<pdfrwt beam="1">  1        2 0.43023034E+00 0.22975835E+04</pdfrwt>
<pdfrwt beam="2">  1       -1 0.72603049E-01 0.22975835E+04</pdfrwt>
<totfact> 0.45882833E+00</totfact>
</mgrwt>
</event>
<event>
12    6  0.1521603E-007  0.1630341E+04  0.7818608E-02  0.8802122E-01
          2   -1    0    0  501    0  0.00000000000E+00  0.00000000000E+00  0.18988637860E+04  0.18988637860E+04  0.00000000000E+00 0. -1.
         -1   -1    0    0    0  501 -0.00000000000E+00 -0.00000000000E+00 -0.34994758771E+03  0.34994758771E+03  0.00000000000E+00 0.  1.
         24    2    1    2    0    0  0.22059843546E+03  0.50517829308E+03  0.50708747958E+03  0.75333278579E+03  0.80646119932E+02 0.  0.
        254    2    1    2    0    0 -0.22059843546E+03 -0.50517829308E+03  0.10418287187E+04  0.14954785879E+04  0.92042400570E+03 0.  0.
         23    2    4    4    0    0 -0.15846194330E+03 -0.43345349990E+03  0.12002999538E+04  0.12891985952E+04  0.91219049026E+02 0.  0.
         23    2    4    4    0    0 -0.62136492153E+02 -0.71724793186E+02 -0.15847123508E+03  0.20627999267E+03  0.91830895757E+02 0.  0.
          4    1    3    3  502    0  0.22539113200E+03  0.49134415948E+03  0.48184212895E+03  0.72414921298E+03  0.00000000000E+00 0. -1.
         -3    1    3    3    0  502 -0.47926965397E+01  0.13834133606E+02  0.25245350638E+02  0.29183572804E+02  0.00000000000E+00 0.  1.
         11    1    5    5    0    0 -0.14025998377E+03 -0.35554383246E+03  0.88698291500E+03  0.96582760954E+03  0.00000000000E+00 0. -1.
        -11    1    5    5    0    0 -0.18201959535E+02 -0.77909667439E+02  0.31331703875E+03  0.32337098569E+03  0.00000000000E+00 0.  1.
          1    1    6    6  503    0 -0.70744518207E+02 -0.35326865590E+02 -0.14740502934E+03  0.16727527302E+03  0.00000000000E+00 0. -1.
         -1    1    6    6    0  503  0.86080260542E+01 -0.36397927596E+02 -0.11066205736E+02  0.39004719653E+02  0.00000000000E+00 0.  1.
<mgrwt>
<rscale>  0 0.16303408E+04</rscale>
<asrwt>0</asrwt>
<pdfrwt beam="1">  1        2 0.29213288E+00 0.16303408E+04</pdfrwt>
<pdfrwt beam="2">  1       -1 0.53838092E-01 0.16303408E+04</pdfrwt>
<totfact> 0.28859580E+01</totfact>
</mgrwt>
</event>
<event>
12    6  0.1521603E-007  0.1481906E+04  0.7818608E-02  0.8896575E-01
         -1   -1    0    0    0  501 -0.00000000000E+00  0.00000000000E+00  0.71700265998E+03  0.71700265998E+03  0.00000000000E+00 0.  1.
          2   -1    0    0  501    0  0.00000000000E+00 -0.00000000000E+00 -0.76570322968E+03  0.76570322968E+03  0.00000000000E+00 0. -1.
         24    2    1    2    0    0 -0.15750505233E+03  0.21422336063E+03  0.35760024087E+03  0.45313712849E+03  0.82193887800E+02 0.  0.
        254    2    1    2    0    0  0.15750505233E+03 -0.21422336063E+03 -0.40630081058E+03  0.10295687612E+04  0.90787223526E+03 0.  0.
         23    2    4    4    0    0  0.32375261765E+03 -0.25494177920E+02  0.18237815554E+03  0.38314563819E+03  0.89850308292E+02 0.  0.
         23    2    4    4    0    0 -0.16624756532E+03 -0.18872918271E+03 -0.58867896612E+03  0.64642312298E+03  0.89794049910E+02 0.  0.
          4    1    3    3  502    0 -0.64357849566E+02  0.29422199001E+02  0.78585304315E+02  0.10575088013E+03  0.00000000000E+00 0. -1.
         -3    1    3    3    0  502 -0.93147202766E+02  0.18480116163E+03  0.27901493656E+03  0.34738624836E+03  0.00000000000E+00 0.  1.
         11    1    5    5    0    0  0.64118418831E+02 -0.11559955787E+02 -0.68865347530E+00  0.65155801390E+02  0.00000000000E+00 0. -1.
        -11    1    5    5    0    0  0.25963419882E+03 -0.13934222133E+02  0.18306680901E+03  0.31798983680E+03  0.00000000000E+00 0.  1.
          1    1    6    6  503    0 -0.13936321785E+01 -0.29770507024E+02 -0.28481309825E+02  0.41223904576E+02  0.00000000000E+00 0. -1.
         -1    1    6    6    0  503 -0.16485393314E+03 -0.15895867569E+03 -0.56019765629E+03  0.60519921841E+03  0.00000000000E+00 0.  1.
<mgrwt>
<rscale>  0 0.14819059E+04</rscale>
<asrwt>0</asrwt>
<pdfrwt beam="1">  1        2 0.11780050E+00 0.14819059E+04</pdfrwt>
<pdfrwt beam="2">  1       -1 0.11030810E+00 0.14819059E+04</pdfrwt>
<totfact> 0.30581460E+01</totfact>
</mgrwt>
</event>
<event>
12    6  0.1521603E-007  0.2518203E+04  0.7818608E-02  0.8396529E-01
         -1   -1    0    0    0  501 -0.00000000000E+00  0.00000000000E+00  0.14323396340E+04  0.14323396340E+04  0.00000000000E+00 0.  1.
          2   -1    0    0  501    0  0.00000000000E+00 -0.00000000000E+00 -0.11068160973E+04  0.11068160973E+04  0.00000000000E+00 0. -1.
         24    2    1    2    0    0 -0.17787026145E+03 -0.43559587091E+02 -0.94565319690E+03  0.96651557742E+03  0.79731581368E+02 0.  0.
        254    2    1    2    0    0  0.17787026145E+03  0.43559587091E+02  0.12711767337E+04  0.15726401539E+04  0.90761858612E+03 0.  0.
         23    2    4    4    0    0 -0.69340769027E+02 -0.30899221983E+03  0.10058745612E+04  0.10582916872E+04  0.88956890198E+02 0.  0.
         23    2    4    4    0    0  0.24721103048E+03  0.35255180692E+03  0.26530217250E+03  0.51434846665E+03  0.93611069092E+02 0.  0.
          2    1    3    3  502    0 -0.17654497405E+03 -0.39901997165E+02 -0.94545069021E+03  0.96262002102E+03  0.00000000000E+00 0. -1.
         -1    1    3    3    0  502 -0.13252874032E+01 -0.36575899260E+01 -0.20250668403E+00  0.38955564076E+01  0.00000000000E+00 0.  1.
         11    1    5    5    0    0 -0.91055404306E+02 -0.24714706624E+03  0.80469242713E+03  0.84670104600E+03  0.00000000000E+00 0. -1.
        -11    1    5    5    0    0  0.21714635279E+02 -0.61845153592E+02  0.20118213404E+03  0.21159064125E+03  0.00000000000E+00 0.  1.
          3    1    6    6  503    0  0.24758493181E+03  0.32935009697E+03  0.22936256344E+03  0.47156862740E+03  0.00000000000E+00 0. -1.
         -3    1    6    6    0  503 -0.37390133840E+00  0.23201709947E+02  0.35939609064E+02  0.42779839251E+02  0.00000000000E+00 0.  1.
<mgrwt>
<rscale>  0 0.25182030E+04</rscale>
<asrwt>0</asrwt>
<pdfrwt beam="1">  1        2 0.17027940E+00 0.25182030E+04</pdfrwt>
<pdfrwt beam="2">  1       -1 0.22035995E+00 0.25182030E+04</pdfrwt>
<totfact> 0.23969037E+00</totfact>
</mgrwt>
</event>
<event>
12    6  0.1521603E-007  0.2059891E+04  0.7818608E-02  0.8579120E-01
          2   -1    0    0  501    0  0.00000000000E+00  0.00000000000E+00  0.27816436285E+04  0.27816436285E+04  0.00000000000E+00 0. -1.
         -1   -1    0    0    0  501 -0.00000000000E+00 -0.00000000000E+00 -0.38135290300E+03  0.38135290300E+03  0.00000000000E+00 0.  1.
         24    2    1    2    0    0 -0.75482445928E+03 -0.35893406848E+03  0.86471857520E+03  0.12051830504E+04  0.78322033188E+02 0.  0.
        254    2    1    2    0    0  0.75482445928E+03  0.35893406848E+03  0.15355721503E+04  0.19578134810E+04  0.88116863770E+03 0.  0.
         23    2    4    4    0    0  0.72747352000E+03  0.36517267310E+03  0.16249410778E+04  0.18195274092E+04  0.87622387085E+02 0.  0.
         23    2    4    4    0    0  0.27350939281E+02 -0.62386046272E+01 -0.89368927594E+02  0.13828607188E+03  0.10173120657E+03 0.  0.
          2    1    3    3  502    0 -0.21804838184E+02  0.41062100678E+00  0.34640862625E+02  0.40934202585E+02  0.00000000000E+00 0. -1.
         -1    1    3    3    0  502 -0.73301962110E+03 -0.35934468948E+03  0.83007771257E+03  0.11642488478E+04  0.00000000000E+00 0.  1.
         11    1    5    5    0    0  0.18703911013E+03  0.12947213550E+03  0.40265773769E+03  0.46247153027E+03  0.00000000000E+00 0.  1.
        -11    1    5    5    0    0  0.54043440987E+03  0.23570053761E+03  0.12222833402E+04  0.13570558789E+04  0.00000000000E+00 0. -1.
          1    1    6    6  503    0  0.59163626343E+02  0.19486764302E+02 -0.67673318897E+02  0.91976881636E+02  0.00000000000E+00 0. -1.
         -1    1    6    6    0  503 -0.31812687061E+02 -0.25725368930E+02 -0.21695608697E+02  0.46309190247E+02  0.00000000000E+00 0.  1.
<mgrwt>
<rscale>  0 0.20598911E+04</rscale>
<asrwt>0</asrwt>
<pdfrwt beam="1">  1        2 0.42794516E+00 0.20598911E+04</pdfrwt>
<pdfrwt beam="2">  1       -1 0.58669679E-01 0.20598911E+04</pdfrwt>
<totfact> 0.73583614E+00</totfact>
</mgrwt>
</event>
<event>
12    6  0.1521603E-007  0.2186363E+04  0.7818608E-02  0.8524126E-01
         -1   -1    0    0    0  501 -0.00000000000E+00  0.00000000000E+00  0.43998874754E+03  0.43998874754E+03  0.00000000000E+00 0.  1.
          2   -1    0    0  501    0  0.00000000000E+00 -0.00000000000E+00 -0.27160826613E+04  0.27160826613E+04  0.00000000000E+00 0. -1.
         24    2    1    2    0    0  0.27727713358E+03 -0.13398380014E+03  0.28081802504E+03  0.42435369948E+03  0.79893876950E+02 0.  0.
        254    2    1    2    0    0 -0.27727713358E+03  0.13398380014E+03 -0.25569119388E+04  0.27317177094E+04  0.91085054394E+03 0.  0.
         23    2    4    4    0    0 -0.49361977571E+03 -0.67071804986E+02 -0.22095683293E+04  0.22668482875E+04  0.90828666564E+02 0.  0.
         23    2    4    4    0    0  0.21634264213E+03  0.20105560512E+03 -0.34734360952E+03  0.46486942189E+03  0.90711086332E+02 0.  0.
          4    1    3    3  502    0  0.51337545982E+02  0.62570392499E+01  0.37194258698E+02  0.63703273446E+02  0.00000000000E+00 0. -1.
         -3    1    3    3    0  502  0.22593958760E+03 -0.14024083939E+03  0.24362376634E+03  0.36065042604E+03  0.00000000000E+00 0.  1.
         11    1    5    5    0    0 -0.12420298243E+03 -0.46764807205E+02 -0.47042011817E+03  0.48878258522E+03  0.00000000000E+00 0.  1.
        -11    1    5    5    0    0 -0.36941679328E+03 -0.20306997780E+02 -0.17391482111E+04  0.17780657023E+04  0.00000000000E+00 0. -1.
          1    1    6    6  503    0  0.12538756682E+03  0.17278480809E+03 -0.24828749010E+03  0.32744970539E+03  0.00000000000E+00 0. -1.
         -1    1    6    6    0  503  0.90955075313E+02  0.28270797032E+02 -0.99056119417E+02  0.13741971650E+03  0.00000000000E+00 0.  1.
<mgrwt>
<rscale>  0 0.21863630E+04</rscale>
<asrwt>0</asrwt>
<pdfrwt beam="1">  1        2 0.41785887E+00 0.21863630E+04</pdfrwt>
<pdfrwt beam="2">  1       -1 0.67690577E-01 0.21863630E+04</pdfrwt>
<totfact> 0.59804742E+00</totfact>
</mgrwt>
</event>
<event>
12    6  0.1521603E-007  0.2375744E+04  0.7818608E-02  0.8448641E-01
         -1   -1    0    0    0  501 -0.00000000000E+00  0.00000000000E+00  0.51908142165E+03  0.51908142165E+03  0.00000000000E+00 0.  1.
          2   -1    0    0  501    0  0.00000000000E+00 -0.00000000000E+00 -0.27183402819E+04  0.27183402819E+04  0.00000000000E+00 0. -1.
         24    2    1    2    0    0  0.29541506376E+03 -0.28551090451E+03  0.31685289752E+03  0.52506665129E+03  0.80701258548E+02 0.  0.
        254    2    1    2    0    0 -0.29541506376E+03  0.28551090451E+03 -0.25161117578E+04  0.27123550522E+04  0.92588607043E+03 0.  0.
         23    2    4    4    0    0 -0.50900720956E+03  0.47747966863E+03 -0.15995476692E+04  0.17474618253E+04  0.89414268164E+02 0.  0.
         23    2    4    4    0    0  0.21359214580E+03 -0.19196876412E+03 -0.91656408855E+03  0.96489322698E+03  0.91954335969E+02 0.  0.
          4    1    3    3  502    0  0.24811803425E+02 -0.33630740660E+02  0.63326087504E+01  0.42270015852E+02  0.00000000000E+00 0. -1.
         -3    1    3    3    0  502  0.27060326034E+03 -0.25188016385E+03  0.31052028877E+03  0.48279663543E+03  0.00000000000E+00 0.  1.
         11    1    5    5    0    0 -0.30060761396E+02  0.45877734746E+01 -0.76485087071E+02  0.82308356717E+02  0.00000000000E+00 0.  1.
        -11    1    5    5    0    0 -0.47894644816E+03  0.47289189516E+03 -0.15230625821E+04  0.16651534686E+04  0.00000000000E+00 0. -1.
          4    1    6    6  503    0  0.24332517425E+02 -0.63393177022E+02 -0.14486889400E+03  0.15999300843E+03  0.00000000000E+00 0. -1.
         -4    1    6    6    0  503  0.18925962837E+03 -0.12857558710E+03 -0.77169519455E+03  0.80490021855E+03  0.00000000000E+00 0.  1.
<mgrwt>
<rscale>  0 0.23757440E+04</rscale>
<asrwt>0</asrwt>
<pdfrwt beam="1">  1        2 0.41820618E+00 0.23757440E+04</pdfrwt>
<pdfrwt beam="2">  1       -1 0.79858683E-01 0.23757440E+04</pdfrwt>
<totfact> 0.41559949E+00</totfact>
</mgrwt>
</event>
<event>
12    6  0.1533000E-007  0.2616337E+04  0.7818608E-02  0.8362673E-01
          4   -1    0    0  501    0  0.00000000000E+00  0.00000000000E+00  0.15847848282E+04  0.15847848282E+04  0.00000000000E+00 0. -1.
         -1   -1    0    0    0  501 -0.00000000000E+00 -0.00000000000E+00 -0.10798343220E+04  0.10798343220E+04  0.00000000000E+00 0.  1.
         24    2    1    2    0    0 -0.84912489408E+03 -0.71321638244E+03  0.53518329051E+03  0.12340204914E+04  0.81821298367E+02 0.  0.
        254    2    1    2    0    0  0.84912489408E+03  0.71321638244E+03 -0.30232784385E+02  0.14305986588E+04  0.90333150465E+03 0.  0.
         23    2    4    4    0    0 -0.18134346994E+03  0.15206669200E+03 -0.12061420426E+02  0.25357843141E+03  0.90259681529E+02 0.  0.
         23    2    4    4    0    0  0.10304683640E+04  0.56114969044E+03 -0.18171363959E+02  0.11770202274E+04  0.91062576421E+02 0.  0.
          2    1    3    3  502    0 -0.79189203918E+03 -0.63823574508E+03  0.47894254015E+03  0.11241991927E+04  0.00000000000E+00 0. -1.
         -1    1    3    3    0  502 -0.57232854895E+02 -0.74980637359E+02  0.56240750365E+02  0.10982129875E+03  0.00000000000E+00 0.  1.
         11    1    5    5    0    0 -0.14888439146E+02  0.58191931656E+02  0.11084118647E+02  0.61080473281E+02  0.00000000000E+00 0. -1.
        -11    1    5    5    0    0 -0.16645503079E+03  0.93874760345E+02 -0.23145539073E+02  0.19249795813E+03  0.00000000000E+00 0.  1.
          3    1    6    6  503    0  0.16652915474E+02  0.17562478136E+02 -0.11149549738E+02  0.26647189185E+02  0.00000000000E+00 0. -1.
         -3    1    6    6    0  503  0.10138154485E+04  0.54358721230E+03 -0.70218142209E+01  0.11503730382E+04  0.00000000000E+00 0.  1.
<mgrwt>
<rscale>  0 0.26163372E+04</rscale>
<asrwt>0</asrwt>
<pdfrwt beam="1">  1        4 0.24381305E+00 0.26163372E+04</pdfrwt>
<pdfrwt beam="2">  1       -1 0.16612836E+00 0.26163372E+04</pdfrwt>
<totfact> 0.65517662E-02</totfact>
</mgrwt>
</event>
<event>
12    6  0.1521603E-007  0.1499137E+04  0.7818608E-02  0.8885027E-01
         -1   -1    0    0    0  501 -0.00000000000E+00  0.00000000000E+00  0.29902791513E+03  0.29902791513E+03  0.00000000000E+00 0.  1.
          2   -1    0    0  501    0  0.00000000000E+00 -0.00000000000E+00 -0.18789315438E+04  0.18789315438E+04  0.00000000000E+00 0. -1.
         24    2    1    2    0    0 -0.33484337066E+03  0.32746387729E+02 -0.99239097971E+03  0.10512127079E+04  0.83760921351E+02 0.  0.
        254    2    1    2    0    0  0.33484337066E+03 -0.32746387729E+02 -0.58751264892E+03  0.11267467510E+04  0.90066348841E+03 0.  0.
         23    2    4    4    0    0  0.51730970530E+03  0.25353942934E+02 -0.71005373430E+03  0.88350220959E+03  0.90264584022E+02 0.  0.
         23    2    4    4    0    0 -0.18246633463E+03 -0.58100330664E+02  0.12254108538E+03  0.24324454137E+03  0.86498425439E+02 0.  0.
          4    1    3    3  502    0 -0.29669728263E+03  0.52537949199E+02 -0.82196240682E+03  0.87544943420E+03  0.00000000000E+00 0. -1.
         -3    1    3    3    0  502 -0.38146088035E+02 -0.19791561470E+02 -0.17042857289E+03  0.17576327374E+03  0.00000000000E+00 0.  1.
         11    1    5    5    0    0  0.28274436416E+03  0.47409312951E+02 -0.33904614829E+03  0.44400935698E+03  0.00000000000E+00 0.  1.
        -11    1    5    5    0    0  0.23456534114E+03 -0.22055370016E+02 -0.37100758602E+03  0.43949285261E+03  0.00000000000E+00 0. -1.
          3    1    6    6  503    0 -0.12678403838E+03 -0.21945929677E+02  0.12131630489E+03  0.17684304354E+03  0.00000000000E+00 0. -1.
         -3    1    6    6    0  503 -0.55682296253E+02 -0.36154400987E+02  0.12247804898E+01  0.66401497829E+02  0.00000000000E+00 0.  1.
<mgrwt>
<rscale>  0 0.14991371E+04</rscale>
<asrwt>0</asrwt>
<pdfrwt beam="1">  1        2 0.28906639E+00 0.14991371E+04</pdfrwt>
<pdfrwt beam="2">  1       -1 0.46004295E-01 0.14991371E+04</pdfrwt>
<totfact> 0.40352072E+01</totfact>
</mgrwt>
</event>
<event>
12    6  0.1521603E-007  0.3314635E+04  0.7818608E-02  0.8159181E-01
         -1   -1    0    0    0  501 -0.00000000000E+00  0.00000000000E+00  0.64247230748E+03  0.64247230748E+03  0.00000000000E+00 0.  1.
          2   -1    0    0  501    0  0.00000000000E+00 -0.00000000000E+00 -0.42752069964E+04  0.42752069964E+04  0.00000000000E+00 0. -1.
         24    2    1    2    0    0  0.30658982385E+03 -0.14658725290E+04 -0.21676205174E+04  0.26359336259E+04  0.82387992840E+02 0.  0.
        254    2    1    2    0    0 -0.30658982385E+03  0.14658725290E+04 -0.14651141715E+04  0.22817456779E+04  0.90389391625E+03 0.  0.
         23    2    4    4    0    0  0.20837048901E+03  0.44619860963E+02 -0.23890818297E+03  0.33318788990E+03  0.92346398952E+02 0.  0.
         23    2    4    4    0    0 -0.51496031286E+03  0.14212526681E+04 -0.12262059885E+04  0.19485577880E+04  0.90294278668E+02 0.  0.
          2    1    3    3  502    0  0.27727255173E+03 -0.13589832545E+04 -0.20407995531E+04  0.24675044822E+04  0.00000000000E+00 0. -1.
         -1    1    3    3    0  502  0.29317272116E+02 -0.10688927455E+03 -0.12682096429E+03  0.16842914369E+03  0.00000000000E+00 0.  1.
         11    1    5    5    0    0  0.20356681462E+03  0.21499931465E+02 -0.19190871497E+03  0.28058982510E+03  0.00000000000E+00 0.  1.
        -11    1    5    5    0    0  0.48036743882E+01  0.23119929498E+02 -0.46999468006E+02  0.52598064798E+02  0.00000000000E+00 0. -1.
          1    1    6    6  503    0 -0.16915781163E+03  0.38786692850E+03 -0.38250652799E+03  0.57040894402E+03  0.00000000000E+00 0. -1.
         -1    1    6    6    0  503 -0.34580250122E+03  0.10333857396E+04 -0.84369946053E+03  0.13781488440E+04  0.00000000000E+00 0.  1.
<mgrwt>
<rscale>  0 0.33146355E+04</rscale>
<asrwt>0</asrwt>
<pdfrwt beam="1">  1        2 0.65772413E+00 0.33146355E+04</pdfrwt>
<pdfrwt beam="2">  1       -1 0.98841897E-01 0.33146355E+04</pdfrwt>
<totfact> 0.18455810E-01</totfact>
</mgrwt>
</event>
<event>
12    6  0.1521603E-007  0.1348689E+04  0.7818608E-02  0.8991821E-01
         -1   -1    0    0    0  501 -0.00000000000E+00  0.00000000000E+00  0.17915689544E+03  0.17915689544E+03  0.00000000000E+00 0.  1.
          2   -1    0    0  501    0  0.00000000000E+00 -0.00000000000E+00 -0.25382249741E+04  0.25382249741E+04  0.00000000000E+00 0. -1.
         24    2    1    2    0    0  0.11420129029E+03  0.33540897624E+03 -0.56147833791E+03  0.66787520248E+03  0.72513764841E+02 0.  0.
        254    2    1    2    0    0 -0.11420129029E+03 -0.33540897624E+03 -0.17975897408E+04  0.20495066671E+04  0.91848113006E+03 0.  0.
         23    2    4    4    0    0  0.12972311733E+03 -0.14562477054E+03 -0.16986155524E+04  0.17123686688E+04  0.94217843804E+02 0.  0.
         23    2    4    4    0    0 -0.24392440762E+03 -0.18978420570E+03 -0.98974188396E+02  0.33713799831E+03  0.91372745231E+02 0.  0.
          4    1    3    3  502    0  0.10243332878E+02  0.24938545818E+02 -0.89344652558E+02  0.93323758372E+02  0.00000000000E+00 0. -1.
         -3    1    3    3    0  502  0.10395795741E+03  0.31047043042E+03 -0.47213368535E+03  0.57455144410E+03  0.00000000000E+00 0.  1.
         11    1    5    5    0    0  0.67466130080E+02 -0.50721518219E+02 -0.10897785364E+04  0.10930423641E+04  0.00000000000E+00 0. -1.
        -11    1    5    5    0    0  0.62256987248E+02 -0.94903252324E+02 -0.60883701594E+03  0.61932630474E+03  0.00000000000E+00 0.  1.
          4    1    6    6  503    0 -0.38536557033E+01 -0.35826536471E+02 -0.27160813841E+01  0.36135418579E+02  0.00000000000E+00 0. -1.
         -4    1    6    6    0  503 -0.24007075191E+03 -0.15395766923E+03 -0.96258107012E+02  0.30100257973E+03  0.00000000000E+00 0.  1.
<mgrwt>
<rscale>  0 0.13486890E+04</rscale>
<asrwt>0</asrwt>
<pdfrwt beam="1">  1        2 0.39049617E+00 0.13486890E+04</pdfrwt>
<pdfrwt beam="2">  1       -1 0.27562598E-01 0.13486890E+04</pdfrwt>
<totfact> 0.43744308E+01</totfact>
</mgrwt>
</event>
<event>
12    6  0.1521603E-007  0.1027773E+04  0.7818608E-02  0.9278598E-01
         -1   -1    0    0    0  501 -0.00000000000E+00  0.00000000000E+00  0.30205657948E+03  0.30205657948E+03  0.00000000000E+00 0.  1.
          2   -1    0    0  501    0  0.00000000000E+00 -0.00000000000E+00 -0.87427123227E+03  0.87427123227E+03  0.00000000000E+00 0. -1.
         24    2    1    2    0    0 -0.45892596027E+02  0.79180286873E+02 -0.78937057353E+02  0.14444151310E+03  0.79098947418E+02 0.  0.
        254    2    1    2    0    0  0.45892596027E+02 -0.79180286873E+02 -0.49327759543E+03  0.10318862987E+04  0.90171553108E+03 0.  0.
         23    2    4    4    0    0  0.23391509409E+03  0.12355362314E+03  0.15568399691E+03  0.32021579175E+03  0.91207879888E+02 0.  0.
         23    2    4    4    0    0 -0.18802249806E+03 -0.20273391002E+03 -0.64896159234E+03  0.71167050691E+03  0.94182079043E+02 0.  0.
          4    1    3    3  502    0 -0.33147472912E+02  0.78892577147E+02 -0.92373783957E+02  0.12591945700E+03  0.00000000000E+00 0. -1.
         -3    1    3    3    0  502 -0.12745123115E+02  0.28770972634E+00  0.13436726604E+02  0.18522056094E+02  0.00000000000E+00 0.  1.
         11    1    5    5    0    0  0.65209273796E+02  0.17233740760E+02  0.36036921225E+00  0.67449099886E+02  0.00000000000E+00 0. -1.
        -11    1    5    5    0    0  0.16870582029E+03  0.10631988238E+03  0.15532362770E+03  0.25276669186E+03  0.00000000000E+00 0.  1.
          1    1    6    6  503    0 -0.22933296273E+02 -0.66110490491E+01 -0.15914584123E+02  0.28686513125E+02  0.00000000000E+00 0. -1.
         -1    1    6    6    0  503 -0.16508920179E+03 -0.19612286097E+03 -0.63304700822E+03  0.68298399378E+03  0.00000000000E+00 0.  1.
<mgrwt>
<rscale>  0 0.10277731E+04</rscale>
<asrwt>0</asrwt>
<pdfrwt beam="1">  1        2 0.13450327E+00 0.10277731E+04</pdfrwt>
<pdfrwt beam="2">  1       -1 0.46470242E-01 0.10277731E+04</pdfrwt>
<totfact> 0.16003083E+02</totfact>
</mgrwt>
</event>
<event>
12    6  0.1521603E-007  0.1544417E+04  0.7818608E-02  0.8855442E-01
          2   -1    0    0  501    0  0.00000000000E+00  0.00000000000E+00  0.96755968973E+03  0.96755968973E+03  0.00000000000E+00 0. -1.
         -1   -1    0    0    0  501 -0.00000000000E+00 -0.00000000000E+00 -0.61629908506E+03  0.61629908506E+03  0.00000000000E+00 0.  1.
         24    2    1    2    0    0  0.23278575301E+03  0.18384937723E+03  0.53237856567E+03  0.61477815266E+03  0.80842065085E+02 0.  0.
        254    2    1    2    0    0 -0.23278575301E+03 -0.18384937723E+03 -0.18111796101E+03  0.96908062213E+03  0.90461247840E+03 0.  0.
         23    2    4    4    0    0 -0.55320332183E+03 -0.24778430990E+03 -0.13123843522E+03  0.62715407664E+03  0.93100641508E+02 0.  0.
         23    2    4    4    0    0  0.32041756883E+03  0.63934932668E+02 -0.49879525786E+02  0.34192654549E+03  0.87582540445E+02 0.  0.
          2    1    3    3  502    0  0.95155632823E+02  0.56630192412E+02  0.27444547640E+03  0.29594238066E+03  0.00000000000E+00 0. -1.
         -1    1    3    3    0  502  0.13763012018E+03  0.12721918482E+03  0.25793308927E+03  0.31883577200E+03  0.00000000000E+00 0.  1.
         11    1    5    5    0    0 -0.73841617074E+02 -0.33567020818E+02  0.14170980421E+02  0.82341641864E+02  0.00000000000E+00 0. -1.
        -11    1    5    5    0    0 -0.47936170476E+03 -0.21421728908E+03 -0.14540941565E+03  0.54481243478E+03  0.00000000000E+00 0.  1.
          3    1    6    6  503    0  0.37891678335E+01  0.11535651630E+02 -0.14704655761E+02  0.19069765401E+02  0.00000000000E+00 0. -1.
         -3    1    6    6    0  503  0.31662840099E+03  0.52399281038E+02 -0.35174870024E+02  0.32285678009E+03  0.00000000000E+00 0.  1.
<mgrwt>
<rscale>  0 0.15444172E+04</rscale>
<asrwt>0</asrwt>
<pdfrwt beam="1">  1        2 0.14885534E+00 0.15444172E+04</pdfrwt>
<pdfrwt beam="2">  1       -1 0.94815244E-01 0.15444172E+04</pdfrwt>
<totfact> 0.31251013E+01</totfact>
</mgrwt>
</event>
<event>
12    6  0.1521603E-007  0.1454511E+04  0.7818608E-02  0.8915279E-01
          2   -1    0    0  501    0  0.00000000000E+00  0.00000000000E+00  0.12385027808E+04  0.12385027808E+04  0.00000000000E+00 0. -1.
         -1   -1    0    0    0  501 -0.00000000000E+00 -0.00000000000E+00 -0.42704857127E+03  0.42704857127E+03  0.00000000000E+00 0.  1.
         24    2    1    2    0    0 -0.26699972146E+03 -0.24593322673E+03 -0.68093175903E+02  0.37751909505E+03  0.78179174053E+02 0.  0.
        254    2    1    2    0    0  0.26699972146E+03  0.24593322673E+03  0.87954738547E+03  0.12880322571E+04  0.86813103196E+03 0.  0.
         23    2    4    4    0    0  0.29808862166E+03  0.51366303842E+03  0.37209587434E+03  0.70629613431E+03  0.87706021615E+02 0.  0.
         23    2    4    4    0    0 -0.31088900197E+02 -0.26772981170E+03  0.50745151113E+03  0.58173612275E+03  0.90907142606E+02 0.  0.
          4    1    3    3  502    0 -0.23509377416E+03 -0.17920114110E+03 -0.39563754741E+02  0.29824054438E+03  0.00000000000E+00 0. -1.
         -3    1    3    3    0  502 -0.31905947298E+02 -0.66732085627E+02 -0.28529421162E+02  0.79278550674E+02  0.00000000000E+00 0.  1.
         11    1    5    5    0    0  0.26482150098E+03  0.48587877046E+03  0.32270392949E+03  0.64058288540E+03  0.00000000000E+00 0. -1.
        -11    1    5    5    0    0  0.33267120680E+02  0.27784267962E+02  0.49391944859E+02  0.65713248904E+02  0.00000000000E+00 0.  1.
          2    1    6    6  503    0 -0.45808181129E+02 -0.19123273656E+03  0.28681834413E+03  0.34775438390E+03  0.00000000000E+00 0. -1.
         -2    1    6    6    0  503  0.14719280931E+02 -0.76497075135E+02  0.22063316700E+03  0.23398173885E+03  0.00000000000E+00 0.  1.
<mgrwt>
<rscale>  0 0.14545114E+04</rscale>
<asrwt>0</asrwt>
<pdfrwt beam="1">  1        2 0.19053889E+00 0.14545114E+04</pdfrwt>
<pdfrwt beam="2">  1       -1 0.65699781E-01 0.14545114E+04</pdfrwt>
<totfact> 0.46635010E+01</totfact>
</mgrwt>
</event>
<event>
12    6  0.1521603E-007  0.3707209E+04  0.7818608E-02  0.8066366E-01
          2   -1    0    0  501    0  0.00000000000E+00  0.00000000000E+00  0.34490115186E+04  0.34490115186E+04  0.00000000000E+00 0. -1.
         -1   -1    0    0    0  501 -0.00000000000E+00 -0.00000000000E+00 -0.99618370400E+03  0.99618370400E+03  0.00000000000E+00 0.  1.
         24    2    1    2    0    0 -0.16811312311E+04  0.45413382261E+03  0.10601273408E+04  0.20410752310E+04  0.98378731544E+02 0.  0.
        254    2    1    2    0    0  0.16811312311E+04 -0.45413382261E+03  0.13927004738E+04  0.24041199916E+04  0.89874277707E+03 0.  0.
         23    2    4    4    0    0  0.82876209205E+03  0.16455665158E+03  0.35003469744E+03  0.91920103155E+03  0.92090988632E+02 0.  0.
         23    2    4    4    0    0  0.85236913904E+03 -0.61869047420E+03  0.10426657763E+04  0.14849189600E+04  0.92311129959E+02 0.  0.
          4    1    3    3  502    0 -0.32537867555E+02  0.24547193578E+01  0.70650014684E+01  0.33386415170E+02  0.00000000000E+00 0. -1.
         -3    1    3    3    0  502 -0.16485933635E+04  0.45167910326E+03  0.10530623393E+04  0.20076888158E+04  0.00000000000E+00 0.  1.
         11    1    5    5    0    0  0.28958308916E+00  0.40628293685E+01 -0.23547756265E+01  0.47048282746E+01  0.00000000000E+00 0. -1.
        -11    1    5    5    0    0  0.82847250896E+03  0.16049382222E+03  0.35238947306E+03  0.91449620328E+03  0.00000000000E+00 0.  1.
          2    1    6    6  503    0  0.23727366859E+03 -0.21064266958E+03  0.35451265462E+03  0.47576081211E+03  0.00000000000E+00 0. -1.
         -2    1    6    6    0  503  0.61509547045E+03 -0.40804780462E+03  0.68815312171E+03  0.10091581479E+04  0.00000000000E+00 0.  1.
<mgrwt>
<rscale>  0 0.37072087E+04</rscale>
<asrwt>0</asrwt>
<pdfrwt beam="1">  1        2 0.53061715E+00 0.37072087E+04</pdfrwt>
<pdfrwt beam="2">  1       -1 0.15325903E+00 0.37072087E+04</pdfrwt>
<totfact> 0.26584418E-01</totfact>
</mgrwt>
</event>
<event>
12    6  0.1521603E-007  0.2738892E+04  0.7818608E-02  0.8322495E-01
         -1   -1    0    0    0  501 -0.00000000000E+00  0.00000000000E+00  0.90185272576E+03  0.90185272576E+03  0.00000000000E+00 0.  1.
          2   -1    0    0  501    0  0.00000000000E+00 -0.00000000000E+00 -0.20794774563E+04  0.20794774563E+04  0.00000000000E+00 0. -1.
         24    2    1    2    0    0 -0.17539429401E+03  0.83786394199E+02 -0.18502891305E+04  0.18624832468E+04  0.86548599089E+02 0.  0.
        254    2    1    2    0    0  0.17539429401E+03 -0.83786394199E+02  0.67266439998E+03  0.11188469352E+04  0.87267276297E+03 0.  0.
         23    2    4    4    0    0 -0.11375347742E+03 -0.39668729620E+03  0.48785524809E+03  0.64540039720E+03  0.90764888741E+02 0.  0.
         23    2    4    4    0    0  0.28914777143E+03  0.31290090200E+03  0.18480915189E+03  0.47344653803E+03  0.92107510845E+02 0.  0.
          4    1    3    3  502    0 -0.17453957717E+03  0.86388256905E+02 -0.18493680914E+04  0.18595938622E+04  0.00000000000E+00 0. -1.
         -3    1    3    3    0  502 -0.85471683839E+00 -0.26018627062E+01 -0.92103912781E+00  0.28893846215E+01  0.00000000000E+00 0.  1.
         11    1    5    5    0    0 -0.97890122999E+02 -0.24620186630E+03  0.25520301664E+03  0.36786738759E+03  0.00000000000E+00 0.  1.
        -11    1    5    5    0    0 -0.15863354416E+02 -0.15048542990E+03  0.23265223145E+03  0.27753300961E+03  0.00000000000E+00 0. -1.
          3    1    6    6  503    0  0.21636588966E+03  0.28359098871E+03  0.14082078533E+03  0.38349516381E+03  0.00000000000E+00 0. -1.
         -3    1    6    6    0  503  0.72781881767E+02  0.29309913290E+02  0.43988366566E+02  0.89951374219E+02  0.00000000000E+00 0.  1.
<mgrwt>
<rscale>  0 0.27388920E+04</rscale>
<asrwt>0</asrwt>
<pdfrwt beam="1">  1        2 0.31991961E+00 0.27388920E+04</pdfrwt>
<pdfrwt beam="2">  1       -1 0.13874657E+00 0.27388920E+04</pdfrwt>
<totfact> 0.25753396E+00</totfact>
</mgrwt>
</event>
<event>
12    6  0.1521603E-007  0.1068884E+04  0.7818608E-02  0.9236062E-01
         -1   -1    0    0    0  501 -0.00000000000E+00  0.00000000000E+00  0.32605957001E+03  0.32605957001E+03  0.00000000000E+00 0.  1.
          2   -1    0    0  501    0  0.00000000000E+00 -0.00000000000E+00 -0.87599963533E+03  0.87599963533E+03  0.00000000000E+00 0. -1.
         24    2    1    2    0    0  0.10471445436E+03 -0.41715499360E+02 -0.19004450950E+03  0.23557251626E+03  0.81683504973E+02 0.  0.
        254    2    1    2    0    0 -0.10471445436E+03  0.41715499360E+02 -0.35989555581E+03  0.96648668908E+03  0.88986875956E+03 0.  0.
         23    2    4    4    0    0 -0.15463221773E+03 -0.12753641880E+03 -0.60725360682E+03  0.64561569634E+03  0.88803285314E+02 0.  0.
         23    2    4    4    0    0  0.49917763375E+02  0.16925191816E+03  0.24735805101E+03  0.32087099274E+03  0.10312222692E+03 0.  0.
          2    1    3    3  502    0  0.35880188856E+02 -0.52195318891E+02 -0.12574887639E+03  0.14079957095E+03  0.00000000000E+00 0. -1.
         -3    1    3    3    0  502  0.68834265503E+02  0.10479819531E+02 -0.64295633116E+02  0.94772945309E+02  0.00000000000E+00 0.  1.
         11    1    5    5    0    0 -0.10312723998E+03 -0.53586994846E+02 -0.22934625963E+03  0.25711184424E+03  0.00000000000E+00 0. -1.
        -11    1    5    5    0    0 -0.51504977758E+02 -0.73949423955E+02 -0.37790734719E+03  0.38850385210E+03  0.00000000000E+00 0.  1.
          2    1    6    6  503    0  0.79038644324E+02  0.13574254474E+03  0.21340486022E+03  0.26498071650E+03  0.00000000000E+00 0. -1.
         -2    1    6    6    0  503 -0.29120880950E+02  0.33509373420E+02  0.33953190788E+02  0.55890276247E+02  0.00000000000E+00 0.  1.
<mgrwt>
<rscale>  0 0.10688837E+04</rscale>
<asrwt>0</asrwt>
<pdfrwt beam="1">  1        2 0.13476917E+00 0.10688837E+04</pdfrwt>
<pdfrwt beam="2">  1       -1 0.50163012E-01 0.10688837E+04</pdfrwt>
<totfact> 0.13779988E+02</totfact>
</mgrwt>
</event>
<event>
12    6  0.1521603E-007  0.2642892E+04  0.7818608E-02  0.8353776E-01
          2   -1    0    0  501    0  0.00000000000E+00  0.00000000000E+00  0.22283135710E+04  0.22283135710E+04  0.00000000000E+00 0. -1.
         -1   -1    0    0    0  501 -0.00000000000E+00 -0.00000000000E+00 -0.78365073089E+03  0.78365073089E+03  0.00000000000E+00 0.  1.
         24    2    1    2    0    0  0.94147348466E+03  0.49155094692E+03  0.93587784873E+02  0.10691298317E+04  0.79279681193E+02 0.  0.
        254    2    1    2    0    0 -0.94147348466E+03 -0.49155094692E+03  0.13510750553E+04  0.19428344702E+04  0.90620489843E+03 0.  0.
         23    2    4    4    0    0 -0.10301378494E+04 -0.59794010302E+03  0.10130508196E+04  0.15664143270E+04  0.93088802082E+02 0.  0.
         23    2    4    4    0    0  0.88664364738E+02  0.10638915610E+03  0.33802423563E+03  0.37642014322E+03  0.90838968721E+02 0.  0.
          4    1    3    3  502    0  0.21569540601E+02  0.14906748886E+02 -0.96582986079E+01  0.27941706750E+02  0.00000000000E+00 0. -1.
         -3    1    3    3    0  502  0.91990394406E+03  0.47664419803E+03  0.10324608348E+03  0.10411881250E+04  0.00000000000E+00 0.  1.
         11    1    5    5    0    0 -0.88691361206E+02 -0.26458546437E+02  0.95009979480E+02  0.13263901550E+03  0.00000000000E+00 0. -1.
        -11    1    5    5    0    0 -0.94144648819E+03 -0.57148155658E+03  0.91804084016E+03  0.14337753115E+04  0.00000000000E+00 0.  1.
          3    1    6    6  503    0  0.47393416215E+02  0.41125894176E+01  0.55302942158E+02  0.72948370123E+02  0.00000000000E+00 0. -1.
         -3    1    6    6    0  503  0.41270948524E+02  0.10227656668E+03  0.28272129347E+03  0.30347177310E+03  0.00000000000E+00 0.  1.
<mgrwt>
<rscale>  0 0.26428920E+04</rscale>
<asrwt>0</asrwt>
<pdfrwt beam="1">  1        2 0.34281747E+00 0.26428920E+04</pdfrwt>
<pdfrwt beam="2">  1       -1 0.12056165E+00 0.26428920E+04</pdfrwt>
<totfact> 0.30536204E+00</totfact>
</mgrwt>
</event>
<event>
12    6  0.1521603E-007  0.2907106E+04  0.7818608E-02  0.8270766E-01
          2   -1    0    0  501    0  0.00000000000E+00  0.00000000000E+00  0.13783692473E+04  0.13783692473E+04  0.00000000000E+00 0. -1.
         -1   -1    0    0    0  501 -0.00000000000E+00 -0.00000000000E+00 -0.15328375714E+04  0.15328375714E+04  0.00000000000E+00 0.  1.
         24    2    1    2    0    0 -0.86914362785E+03 -0.57043453639E+03 -0.87350366117E+03  0.13601982747E+04  0.79526689465E+02 0.  0.
        254    2    1    2    0    0  0.86914362785E+03  0.57043453639E+03  0.71903533703E+03  0.15510085440E+04  0.89878222135E+03 0.  0.
         23    2    4    4    0    0  0.92353765176E+03  0.44409831422E+03  0.85430112738E+03  0.13373208448E+04  0.91932142707E+02 0.  0.
         23    2    4    4    0    0 -0.54394023905E+02  0.12633622217E+03 -0.13526579035E+03  0.21368769913E+03  0.91902382197E+02 0.  0.
          4    1    3    3  502    0 -0.51290341445E+02 -0.33503870044E+02 -0.78394630914E+02  0.99493349475E+02  0.00000000000E+00 0. -1.
         -1    1    3    3    0  502 -0.81785328640E+03 -0.53693066635E+03 -0.79510903026E+03  0.12607049252E+04  0.00000000000E+00 0.  1.
         11    1    5    5    0    0  0.75797985019E+03  0.36897965586E+03  0.74604691735E+03  0.11257288495E+04  0.00000000000E+00 0. -1.
        -11    1    5    5    0    0  0.16555780156E+03  0.75118658359E+02  0.10825421003E+03  0.21159199532E+03  0.00000000000E+00 0.  1.
          4    1    6    6  503    0 -0.11947001797E+02  0.12109892569E+03 -0.10986160419E+03  0.16394283372E+03  0.00000000000E+00 0. -1.
         -4    1    6    6    0  503 -0.42447022108E+02  0.52372964847E+01 -0.25404186161E+02  0.49744865411E+02  0.00000000000E+00 0.  1.
<mgrwt>
<rscale>  0 0.29071059E+04</rscale>
<asrwt>0</asrwt>
<pdfrwt beam="1">  1        2 0.21205681E+00 0.29071059E+04</pdfrwt>
<pdfrwt beam="2">  1       -1 0.23582116E+00 0.29071059E+04</pdfrwt>
<totfact> 0.12636068E+00</totfact>
</mgrwt>
</event>
<event>
12    6  0.1521603E-007  0.2291964E+04  0.7818608E-02  0.8481096E-01
         -1   -1    0    0    0  501 -0.00000000000E+00  0.00000000000E+00  0.30619993761E+03  0.30619993761E+03  0.00000000000E+00 0.  1.
          2   -1    0    0  501    0  0.00000000000E+00 -0.00000000000E+00 -0.42889460967E+04  0.42889460967E+04  0.00000000000E+00 0. -1.
         24    2    1    2    0    0  0.82488608531E+03 -0.20072110265E+03 -0.26331259653E+04  0.27677659766E+04  0.80312745762E+02 0.  0.
        254    2    1    2    0    0 -0.82488608531E+03  0.20072110265E+03 -0.13496201937E+04  0.18273800577E+04  0.89281419855E+03 0.  0.
         23    2    4    4    0    0 -0.81173403815E+03 -0.17128066750E+03 -0.79658715011E+03  0.11540768869E+04  0.95358047967E+02 0.  0.
         23    2    4    4    0    0 -0.13152047155E+02  0.37200177016E+03 -0.55303304363E+03  0.67330317084E+03  0.94516237573E+02 0.  0.
          2    1    3    3  502    0  0.49156283507E+03 -0.95407013624E+02 -0.16523633289E+04  0.17265691674E+04  0.00000000000E+00 0. -1.
         -1    1    3    3    0  502  0.33332325024E+03 -0.10531408903E+03 -0.98076263640E+03  0.10411968092E+04  0.00000000000E+00 0.  1.
         11    1    5    5    0    0 -0.59760728662E+03 -0.10070678317E+03 -0.62654247727E+03  0.87168331464E+03  0.00000000000E+00 0.  1.
        -11    1    5    5    0    0 -0.21412675153E+03 -0.70573884330E+02 -0.17004467285E+03  0.28239357222E+03  0.00000000000E+00 0. -1.
          1    1    6    6  503    0 -0.27415409704E+02  0.35788838297E+03 -0.54289171354E+03  0.65082033771E+03  0.00000000000E+00 0. -1.
         -1    1    6    6    0  503  0.14263362549E+02  0.14113387190E+02 -0.10141330093E+02  0.22482833123E+02  0.00000000000E+00 0.  1.
<mgrwt>
<rscale>  0 0.22919642E+04</rscale>
<asrwt>0</asrwt>
<pdfrwt beam="1">  1        2 0.65983776E+00 0.22919642E+04</pdfrwt>
<pdfrwt beam="2">  1       -1 0.47107690E-01 0.22919642E+04</pdfrwt>
<totfact> 0.90745928E-01</totfact>
</mgrwt>
</event>
<event>
12    6  0.1521603E-007  0.2193344E+04  0.7818608E-02  0.8521204E-01
          2   -1    0    0  501    0  0.00000000000E+00  0.00000000000E+00  0.11282410506E+04  0.11282410506E+04  0.00000000000E+00 0. -1.
         -1   -1    0    0    0  501 -0.00000000000E+00 -0.00000000000E+00 -0.10659861691E+04  0.10659861691E+04  0.00000000000E+00 0.  1.
         24    2    1    2    0    0  0.57273715279E+03 -0.15596852216E+03  0.71414592043E+03  0.93445756172E+03  0.10417539487E+03 0.  0.
        254    2    1    2    0    0 -0.57273715279E+03  0.15596852216E+03 -0.65189103894E+03  0.12597696579E+04  0.89983533954E+03 0.  0.
         23    2    4    4    0    0  0.11151444630E+02 -0.24836509192E+03  0.35581389883E+02  0.26719659646E+03  0.91205330174E+02 0.  0.
         23    2    4    4    0    0 -0.58388859742E+03  0.40433361408E+03 -0.68747242882E+03  0.99257306146E+03  0.90395665119E+02 0.  0.
          4    1    3    3  502    0  0.48913163558E+03 -0.12983937764E+03  0.65920720315E+03  0.83106086275E+03  0.00000000000E+00 0. -1.
         -3    1    3    3    0  502  0.83605517204E+02 -0.26129144523E+02  0.54938717277E+02  0.10339669896E+03  0.00000000000E+00 0.  1.
         11    1    5    5    0    0 -0.37081925001E+02 -0.95607153784E+02  0.30253216214E+02  0.10691610780E+03  0.00000000000E+00 0. -1.
        -11    1    5    5    0    0  0.48233369631E+02 -0.15275793814E+03  0.53281736693E+01  0.16028048866E+03  0.00000000000E+00 0.  1.
          3    1    6    6  503    0 -0.80844949120E+02  0.21401489234E+02 -0.85958020436E+02  0.11992794010E+03  0.00000000000E+00 0. -1.
         -3    1    6    6    0  503 -0.50304364830E+03  0.38293212485E+03 -0.60151440839E+03  0.87264512136E+03  0.00000000000E+00 0.  1.
<mgrwt>
<rscale>  0 0.21933439E+04</rscale>
<asrwt>0</asrwt>
<pdfrwt beam="1">  1        2 0.17357555E+00 0.21933439E+04</pdfrwt>
<pdfrwt beam="2">  1       -1 0.16399787E+00 0.21933439E+04</pdfrwt>
<totfact> 0.59512998E+00</totfact>
</mgrwt>
</event>
<event>
12    6  0.1521603E-007  0.3176641E+04  0.7818608E-02  0.8195014E-01
         -1   -1    0    0    0  501 -0.00000000000E+00  0.00000000000E+00  0.10117378620E+04  0.10117378620E+04  0.00000000000E+00 0.  1.
          2   -1    0    0  501    0  0.00000000000E+00 -0.00000000000E+00 -0.24934933622E+04  0.24934933622E+04  0.00000000000E+00 0. -1.
         24    2    1    2    0    0  0.13942267013E+04 -0.24254205393E+03 -0.29920416669E+03  0.14486565834E+04  0.79925094223E+02 0.  0.
        254    2    1    2    0    0 -0.13942267013E+04  0.24254205393E+03 -0.11825513335E+04  0.20565746407E+04  0.91015210480E+03 0.  0.
         23    2    4    4    0    0 -0.13376798509E+03  0.37831999153E+03 -0.27000345502E+03  0.49185541228E+03  0.89442669004E+02 0.  0.
         23    2    4    4    0    0 -0.12604587162E+04 -0.13577793760E+03 -0.91254787848E+03  0.15647192285E+04  0.91710466507E+02 0.  0.
          4    1    3    3  502    0  0.18146090678E+03 -0.50947416198E+01 -0.43991659122E+02  0.18678673174E+03  0.00000000000E+00 0. -1.
         -3    1    3    3    0  502  0.12127657946E+04 -0.23744731231E+03 -0.25521250757E+03  0.12618698517E+04  0.00000000000E+00 0.  1.
         11    1    5    5    0    0 -0.64844628533E+02  0.72796269852E+02 -0.73810495894E+02  0.12227882915E+03  0.00000000000E+00 0. -1.
        -11    1    5    5    0    0 -0.68923356556E+02  0.30552372167E+03 -0.19619295913E+03  0.36957658313E+03  0.00000000000E+00 0.  1.
          3    1    6    6  503    0 -0.19213222033E+03  0.85985135378E+01 -0.11987088338E+03  0.22662249052E+03  0.00000000000E+00 0.  1.
         -3    1    6    6    0  503 -0.10683264959E+04 -0.14437645114E+03 -0.79267699510E+03  0.13380967379E+04  0.00000000000E+00 0. -1.
<mgrwt>
<rscale>  0 0.31766408E+04</rscale>
<asrwt>0</asrwt>
<pdfrwt beam="1">  1        2 0.38361436E+00 0.31766408E+04</pdfrwt>
<pdfrwt beam="2">  1       -1 0.15565198E+00 0.31766408E+04</pdfrwt>
<totfact> 0.10619293E+00</totfact>
</mgrwt>
</event>
<event>
12    6  0.1521603E-007  0.2909855E+04  0.7818608E-02  0.8269951E-01
         -1   -1    0    0    0  501 -0.00000000000E+00  0.00000000000E+00  0.11300353982E+04  0.11300353982E+04  0.00000000000E+00 0.  1.
          2   -1    0    0  501    0  0.00000000000E+00 -0.00000000000E+00 -0.18732278956E+04  0.18732278956E+04  0.00000000000E+00 0. -1.
         24    2    1    2    0    0 -0.38018578557E+03  0.15755962657E+03 -0.16240554218E+04  0.16772265583E+04  0.78528003109E+02 0.  0.
        254    2    1    2    0    0  0.38018578557E+03 -0.15755962657E+03  0.88086292434E+03  0.13260367355E+04  0.90171373787E+03 0.  0.
         23    2    4    4    0    0  0.29455291768E+02 -0.13113297438E+03 -0.15737298137E+03  0.22607190038E+03  0.90987788709E+02 0.  0.
         23    2    4    4    0    0  0.35073049380E+03 -0.26426652199E+02  0.10382359057E+04  0.10999648352E+04  0.90986787318E+02 0.  0.
          2    1    3    3  502    0 -0.30847479662E+03  0.10999119908E+03 -0.13837733399E+04  0.14219997961E+04  0.00000000000E+00 0. -1.
         -1    1    3    3    0  502 -0.71710988952E+02  0.47568427490E+02 -0.24028208188E+03  0.25522676212E+03  0.00000000000E+00 0.  1.
         11    1    5    5    0    0  0.30739786101E+02 -0.41350357379E+01 -0.12579452277E+02  0.33470518216E+02  0.00000000000E+00 0.  1.
        -11    1    5    5    0    0 -0.12844943329E+01 -0.12699793864E+03 -0.14479352909E+03  0.19260138216E+03  0.00000000000E+00 0. -1.
          1    1    6    6  503    0  0.31000792664E+03  0.74645326768E+01  0.89993513519E+03  0.95186337327E+03  0.00000000000E+00 0. -1.
         -1    1    6    6    0  503  0.40722567162E+02 -0.33891184876E+02  0.13830077052E+03  0.14810146189E+03  0.00000000000E+00 0.  1.
<mgrwt>
<rscale>  0 0.29098549E+04</rscale>
<asrwt>0</asrwt>
<pdfrwt beam="1">  1        2 0.28818891E+00 0.29098549E+04</pdfrwt>
<pdfrwt beam="2">  1       -1 0.17385160E+00 0.29098549E+04</pdfrwt>
<totfact> 0.17780148E+00</totfact>
</mgrwt>
</event>
<event>
12    6  0.1521603E-007  0.1514599E+04  0.7818608E-02  0.8874802E-01
          2   -1    0    0  501    0  0.00000000000E+00  0.00000000000E+00  0.11732981433E+04  0.11732981433E+04  0.00000000000E+00 0. -1.
         -1   -1    0    0    0  501 -0.00000000000E+00 -0.00000000000E+00 -0.48879527597E+03  0.48879527597E+03  0.00000000000E+00 0.  1.
         24    2    1    2    0    0 -0.29769660933E+03  0.38494843698E+03  0.20829799283E+03  0.53978533197E+03  0.10569569740E+03 0.  0.
        254    2    1    2    0    0  0.29769660933E+03 -0.38494843698E+03  0.47620487446E+03  0.11223080873E+04  0.89218596151E+03 0.  0.
         23    2    4    4    0    0 -0.83387783620E+02  0.11515202178E+03  0.45664016926E+03  0.48701841217E+03  0.91941171596E+02 0.  0.
         23    2    4    4    0    0  0.38108439295E+03 -0.50010045876E+03  0.19564705196E+02  0.63528967508E+03  0.88794201216E+02 0.  0.
          4    1    3    3  502    0  0.93693881656E+00  0.45023072741E+02  0.12269389325E+02  0.46674327503E+02  0.00000000000E+00 0. -1.
         -3    1    3    3    0  502 -0.29863354815E+03  0.33992536424E+03  0.19602860351E+03  0.49311100447E+03  0.00000000000E+00 0.  1.
         11    1    5    5    0    0 -0.14803909662E+02  0.68042087070E+02  0.31623521384E+03  0.32381104339E+03  0.00000000000E+00 0. -1.
        -11    1    5    5    0    0 -0.68583873958E+02  0.47109934706E+02  0.14040495543E+03  0.16320736878E+03  0.00000000000E+00 0.  1.
          4    1    6    6  503    0 -0.50105366065E+01 -0.88496043020E+01  0.14588302099E+00  0.10170656579E+02  0.00000000000E+00 0. -1.
         -4    1    6    6    0  503  0.38609492956E+03 -0.49125085446E+03  0.19418822175E+02  0.62511901850E+03  0.00000000000E+00 0.  1.
<mgrwt>
<rscale>  0 0.15145991E+04</rscale>
<asrwt>0</asrwt>
<pdfrwt beam="1">  1        2 0.18050741E+00 0.15145991E+04</pdfrwt>
<pdfrwt beam="2">  1       -1 0.75199274E-01 0.15145991E+04</pdfrwt>
<totfact> 0.38462994E+01</totfact>
</mgrwt>
</event>
<event>
12    6  0.1521603E-007  0.1471447E+04  0.7818608E-02  0.8903666E-01
         -1   -1    0    0    0  501 -0.00000000000E+00  0.00000000000E+00  0.46677699359E+03  0.46677699359E+03  0.00000000000E+00 0.  1.
          2   -1    0    0  501    0  0.00000000000E+00 -0.00000000000E+00 -0.11596307525E+04  0.11596307525E+04  0.00000000000E+00 0. -1.
         24    2    1    2    0    0 -0.14835585184E+03 -0.16459814305E+03  0.23088587171E+03  0.32951355125E+03  0.78542263986E+02 0.  0.
        254    2    1    2    0    0  0.14835585184E+03  0.16459814305E+03 -0.92373963057E+03  0.12968941948E+04  0.88291428799E+03 0.  0.
         23    2    4    4    0    0  0.25582635214E+03 -0.73914058705E+02  0.49130791081E+02  0.28548735577E+03  0.90436636097E+02 0.  0.
         23    2    4    4    0    0 -0.10747050030E+03  0.23851220175E+03 -0.97287042165E+03  0.10114068390E+04  0.89604452375E+02 0.  0.
          4    1    3    3  502    0 -0.67601640521E+02 -0.22254050739E+02  0.62799058891E+02  0.94915469619E+02  0.00000000000E+00 0. -1.
         -3    1    3    3    0  502 -0.80754211314E+02 -0.14234409231E+03  0.16808681282E+03  0.23459808163E+03  0.00000000000E+00 0.  1.
         11    1    5    5    0    0  0.20385023877E+03 -0.57492883883E+02  0.75602086013E+02  0.22489114468E+03  0.00000000000E+00 0. -1.
        -11    1    5    5    0    0  0.51976113366E+02 -0.16421174821E+02 -0.26471294932E+02  0.60596211091E+02  0.00000000000E+00 0.  1.
          3    1    6    6  503    0 -0.10026530111E+03  0.22742071951E+03 -0.79267752047E+03  0.83072917713E+03  0.00000000000E+00 0. -1.
         -3    1    6    6    0  503 -0.72051991946E+01  0.11091482240E+02 -0.18019290118E+03  0.18067766190E+03  0.00000000000E+00 0.  1.
<mgrwt>
<rscale>  0 0.14714468E+04</rscale>
<asrwt>0</asrwt>
<pdfrwt beam="1">  1        2 0.17840473E+00 0.14714468E+04</pdfrwt>
<pdfrwt beam="2">  1       -1 0.71811846E-01 0.14714468E+04</pdfrwt>
<totfact> 0.43293224E+01</totfact>
</mgrwt>
</event>
<event>
12    6  0.1521603E-007  0.1851882E+04  0.7818608E-02  0.8679186E-01
         -1   -1    0    0    0  501 -0.00000000000E+00  0.00000000000E+00  0.51439384846E+03  0.51439384846E+03  0.00000000000E+00 0.  1.
          2   -1    0    0  501    0  0.00000000000E+00 -0.00000000000E+00 -0.16667508966E+04  0.16667508966E+04  0.00000000000E+00 0. -1.
         24    2    1    2    0    0  0.24715484436E+03  0.41854010773E+03 -0.98345882530E+03  0.10998879936E+04  0.79378829151E+02 0.  0.
        254    2    1    2    0    0 -0.24715484436E+03 -0.41854010773E+03 -0.16889822288E+03  0.10812567515E+04  0.95096173116E+03 0.  0.
         23    2    4    4    0    0 -0.34485722929E+03 -0.68017935470E+03 -0.68696015300E+02  0.77056811115E+03  0.86519409681E+02 0.  0.
         23    2    4    4    0    0  0.97702384938E+02  0.26163924697E+03 -0.10020220758E+03  0.31068864036E+03  0.92120015574E+02 0.  0.
          4    1    3    3  502    0  0.13395066646E+03  0.19170744637E+03 -0.39324836821E+03  0.45753557800E+03  0.00000000000E+00 0. -1.
         -3    1    3    3    0  502  0.11320417789E+03  0.22683266136E+03 -0.59021045709E+03  0.64235241558E+03  0.00000000000E+00 0.  1.
         11    1    5    5    0    0 -0.89384105814E+02 -0.13825030373E+03 -0.46328399709E+02  0.17102334775E+03  0.00000000000E+00 0. -1.
        -11    1    5    5    0    0 -0.25547312348E+03 -0.54192905096E+03 -0.22367615591E+02  0.59954476340E+03  0.00000000000E+00 0.  1.
          3    1    6    6  503    0 -0.32647653428E+01  0.68831974001E+02 -0.55549005304E+02  0.88510967274E+02  0.00000000000E+00 0. -1.
         -3    1    6    6    0  503  0.10096715028E+03  0.19280727297E+03 -0.44653202274E+02  0.22217767309E+03  0.00000000000E+00 0.  1.
<mgrwt>
<rscale>  0 0.18518816E+04</rscale>
<asrwt>0</asrwt>
<pdfrwt beam="1">  1        2 0.25642321E+00 0.18518816E+04</pdfrwt>
<pdfrwt beam="2">  1       -1 0.79137515E-01 0.18518816E+04</pdfrwt>
<totfact> 0.17495738E+01</totfact>
</mgrwt>
</event>
<event>
12    6  0.1521603E-007  0.2727837E+04  0.7818608E-02  0.8326029E-01
         -1   -1    0    0    0  501 -0.00000000000E+00  0.00000000000E+00  0.71127802212E+03  0.71127802212E+03  0.00000000000E+00 0.  1.
          2   -1    0    0  501    0  0.00000000000E+00 -0.00000000000E+00 -0.26153968307E+04  0.26153968307E+04  0.00000000000E+00 0. -1.
         24    2    1    2    0    0  0.55623029802E+03 -0.10355801929E+04 -0.12038754047E+04  0.16845980686E+04  0.82074247451E+02 0.  0.
        254    2    1    2    0    0 -0.55623029802E+03  0.10355801929E+04 -0.70024340387E+03  0.16420767843E+04  0.90788592911E+03 0.  0.
         23    2    4    4    0    0 -0.32045809786E+03  0.42354742536E+03  0.15517679289E+03  0.56047026752E+03  0.89225947529E+02 0.  0.
         23    2    4    4    0    0 -0.23577220017E+03  0.61203276758E+03 -0.85542019676E+03  0.10816065167E+04  0.89198122491E+02 0.  0.
          4    1    3    3  502    0  0.47210875488E+03 -0.93216769242E+03 -0.10587526927E+04  0.14875417801E+04  0.00000000000E+00 0. -1.
         -3    1    3    3    0  502  0.84121543137E+02 -0.10341250052E+03 -0.14512271202E+03  0.19705628848E+03  0.00000000000E+00 0.  1.
         11    1    5    5    0    0 -0.20219958638E+01  0.37418246232E+02  0.42560333218E+01  0.37713756615E+02  0.00000000000E+00 0.  1.
        -11    1    5    5    0    0 -0.31843610199E+03  0.38612917913E+03  0.15092075957E+03  0.52275651091E+03  0.00000000000E+00 0. -1.
          3    1    6    6  503    0 -0.13635267499E+03  0.46032151655E+03 -0.63812074855E+03  0.79855246559E+03  0.00000000000E+00 0. -1.
         -3    1    6    6    0  503 -0.99419525174E+02  0.15171125103E+03 -0.21729944821E+03  0.28305405114E+03  0.00000000000E+00 0.  1.
<mgrwt>
<rscale>  0 0.27278374E+04</rscale>
<asrwt>0</asrwt>
<pdfrwt beam="1">  1        2 0.40236875E+00 0.27278374E+04</pdfrwt>
<pdfrwt beam="2">  1       -1 0.10942739E+00 0.27278374E+04</pdfrwt>
<totfact> 0.22909127E+00</totfact>
</mgrwt>
</event>
<event>
12    6  0.1521603E-007  0.1658962E+04  0.7818608E-02  0.8785122E-01
          2   -1    0    0  501    0  0.00000000000E+00  0.00000000000E+00  0.39094376641E+04  0.39094376641E+04  0.00000000000E+00 0. -1.
         -1   -1    0    0    0  501 -0.00000000000E+00 -0.00000000000E+00 -0.17599429262E+03  0.17599429262E+03  0.00000000000E+00 0.  1.
         24    2    1    2    0    0 -0.27889751837E+03 -0.12039800703E+03  0.25148838344E+04  0.25343875975E+04  0.78741906638E+02 0.  0.
        254    2    1    2    0    0  0.27889751837E+03  0.12039800703E+03  0.12185595370E+04  0.15510443592E+04  0.91025916807E+03 0.  0.
         23    2    4    4    0    0  0.32179970497E+03  0.41614774684E+03  0.37501943130E+03  0.65145571872E+03  0.83791301957E+02 0.  0.
         23    2    4    4    0    0 -0.42902186605E+02 -0.29574973981E+03  0.84354010572E+03  0.89958864047E+03  0.91604071283E+02 0.  0.
          4    1    3    3  502    0 -0.27738538995E+03 -0.12840585873E+03  0.24506552582E+04  0.24696440864E+04  0.00000000000E+00 0. -1.
         -3    1    3    3    0  502 -0.15121284152E+01  0.80078517027E+01  0.64228576213E+02  0.64743511054E+02  0.00000000000E+00 0.  1.
         11    1    5    5    0    0  0.22035004665E+02  0.33426856686E+02  0.60136510302E+02  0.72244695651E+02  0.00000000000E+00 0.  1.
        -11    1    5    5    0    0  0.29976470031E+03  0.38272089015E+03  0.31488292100E+03  0.57921102307E+03  0.00000000000E+00 0. -1.
          2    1    6    6  503    0  0.23933635736E+02 -0.11462200990E+03  0.26597032270E+03  0.29060494943E+03  0.00000000000E+00 0.  1.
         -2    1    6    6    0  503 -0.66835822341E+02 -0.18112772991E+03  0.57756978302E+03  0.60898369104E+03  0.00000000000E+00 0. -1.
<mgrwt>
<rscale>  0 0.16589620E+04</rscale>
<asrwt>0</asrwt>
<pdfrwt beam="1">  1        2 0.60145188E+00 0.16589620E+04</pdfrwt>
<pdfrwt beam="2">  1       -1 0.27076048E-01 0.16589620E+04</pdfrwt>
<totfact> 0.54519066E+00</totfact>
</mgrwt>
</event>
<event>
12    6  0.1521603E-007  0.2484927E+04  0.7818608E-02  0.8408375E-01
          2   -1    0    0  501    0  0.00000000000E+00  0.00000000000E+00  0.26363198880E+04  0.26363198880E+04  0.00000000000E+00 0. -1.
         -1   -1    0    0    0  501 -0.00000000000E+00 -0.00000000000E+00 -0.58555690177E+03  0.58555690177E+03  0.00000000000E+00 0.  1.
         24    2    1    2    0    0 -0.33802158594E+03  0.21841420271E+03 -0.40641375761E+03  0.57748604836E+03  0.79715978117E+02 0.  0.
        254    2    1    2    0    0  0.33802158594E+03 -0.21841420271E+03  0.24571767439E+04  0.26443907415E+04  0.89057368381E+03 0.  0.
         23    2    4    4    0    0 -0.98054444909E+02 -0.59582005895E+02  0.82355612331E+01  0.15026390813E+03  0.96678477568E+02 0.  0.
         23    2    4    4    0    0  0.43607603085E+03 -0.15883219682E+03  0.24489411827E+04  0.24941268333E+04  0.89251180295E+02 0.  0.
          2    1    3    3  502    0 -0.58996607232E+01 -0.12649777476E+00  0.31512059433E+01  0.66897008329E+01  0.00000000000E+00 0. -1.
         -1    1    3    3    0  502 -0.33212192522E+03  0.21854070049E+03 -0.40956496356E+03  0.57079634753E+03  0.00000000000E+00 0.  1.
         11    1    5    5    0    0 -0.89281768598E+02 -0.83048400112E+02 -0.47858001885E+01  0.12202940157E+03  0.00000000000E+00 0.  1.
        -11    1    5    5    0    0 -0.87726763109E+01  0.23466394217E+02  0.13021361422E+02  0.28234506556E+02  0.00000000000E+00 0. -1.
          3    1    6    6  503    0  0.19449614521E+03 -0.63511826360E+02  0.85315510838E+03  0.87734607855E+03  0.00000000000E+00 0. -1.
         -3    1    6    6    0  503  0.24157988565E+03 -0.95320370459E+02  0.15957860743E+04  0.16167807548E+04  0.00000000000E+00 0.  1.
<mgrwt>
<rscale>  0 0.24849268E+04</rscale>
<asrwt>0</asrwt>
<pdfrwt beam="1">  1        2 0.40558767E+00 0.24849268E+04</pdfrwt>
<pdfrwt beam="2">  1       -1 0.90085678E-01 0.24849268E+04</pdfrwt>
<totfact> 0.35460835E+00</totfact>
</mgrwt>
</event>
<event>
12    6  0.1521603E-007  0.1497111E+04  0.7818608E-02  0.8886376E-01
         -1   -1    0    0    0  501 -0.00000000000E+00  0.00000000000E+00  0.69045773660E+03  0.69045773660E+03  0.00000000000E+00 0.  1.
          2   -1    0    0  501    0  0.00000000000E+00 -0.00000000000E+00 -0.81154180454E+03  0.81154180454E+03  0.00000000000E+00 0. -1.
         24    2    1    2    0    0  0.66860278190E+01 -0.35968702034E+02  0.38532453403E+03  0.39521044227E+03  0.79861421611E+02 0.  0.
        254    2    1    2    0    0 -0.66860278190E+01  0.35968702034E+02 -0.50640860198E+03  0.11067890989E+04  0.98346021105E+03 0.  0.
         23    2    4    4    0    0 -0.28710346476E+03 -0.24331635710E+03  0.77183401056E+02  0.39453314032E+03  0.89821335467E+02 0.  0.
         23    2    4    4    0    0  0.28041743694E+03  0.27928505913E+03 -0.58359200303E+03  0.71225595854E+03  0.10047308734E+03 0.  0.
          2    1    3    3  502    0  0.12110594879E+02 -0.38892127188E+02  0.79539109382E+02  0.89362934077E+02  0.00000000000E+00 0. -1.
         -1    1    3    3    0  502 -0.54245670597E+01  0.29234251541E+01  0.30578542465E+03  0.30584750820E+03  0.00000000000E+00 0.  1.
         11    1    5    5    0    0 -0.27761658241E+03 -0.20839664066E+03  0.85279350274E+02  0.35745306581E+03  0.00000000000E+00 0.  1.
        -11    1    5    5    0    0 -0.94868823504E+01 -0.34919716434E+02 -0.80959492183E+01  0.37080074519E+02  0.00000000000E+00 0. -1.
          3    1    6    6  503    0  0.36741550950E+01  0.46513037814E+02 -0.70134975911E+02  0.84237028368E+02  0.00000000000E+00 0. -1.
         -3    1    6    6    0  503  0.27674328185E+03  0.23277202132E+03 -0.51345702712E+03  0.62801893017E+03  0.00000000000E+00 0.  1.
<mgrwt>
<rscale>  0 0.14971110E+04</rscale>
<asrwt>0</asrwt>
<pdfrwt beam="1">  1        2 0.12485258E+00 0.14971110E+04</pdfrwt>
<pdfrwt beam="2">  1       -1 0.10622427E+00 0.14971110E+04</pdfrwt>
<totfact> 0.30903982E+01</totfact>
</mgrwt>
</event>
<event>
12    6  0.1521603E-007  0.2121170E+04  0.7818608E-02  0.8551975E-01
         -1   -1    0    0    0  501 -0.00000000000E+00  0.00000000000E+00  0.11029883789E+04  0.11029883789E+04  0.00000000000E+00 0.  1.
          2   -1    0    0  501    0  0.00000000000E+00 -0.00000000000E+00 -0.10198118904E+04  0.10198118904E+04  0.00000000000E+00 0. -1.
         24    2    1    2    0    0 -0.63291719250E+03 -0.58832740856E+03  0.14979621133E+03  0.88242704928E+03  0.97597541645E+02 0.  0.
        254    2    1    2    0    0  0.63291719250E+03  0.58832740856E+03 -0.66619722897E+02  0.12403732200E+04  0.88734109856E+03 0.  0.
         23    2    4    4    0    0  0.48568855241E+03  0.11906350878E+03  0.32609660831E+03  0.60407679159E+03  0.92196980027E+02 0.  0.
         23    2    4    4    0    0  0.14722864009E+03  0.46926389978E+03 -0.39271633120E+03  0.63629642841E+03  0.93606345459E+02 0.  0.
          2    1    3    3  502    0 -0.60881648824E+03 -0.58609465469E+03  0.14153889321E+03  0.85685338238E+03  0.00000000000E+00 0. -1.
         -1    1    3    3    0  502 -0.24100704264E+02 -0.22327538711E+01  0.82573181233E+01  0.25573666895E+02  0.00000000000E+00 0.  1.
         11    1    5    5    0    0  0.92308454148E+01 -0.32114454832E+01  0.26211138500E+02  0.27974017778E+02  0.00000000000E+00 0. -1.
        -11    1    5    5    0    0  0.47645770700E+03  0.12227495426E+03  0.29988546980E+03  0.57610277381E+03  0.00000000000E+00 0.  1.
          1    1    6    6  503    0  0.48968426640E+02  0.12355519689E+03 -0.16057562063E+03  0.20844261423E+03  0.00000000000E+00 0. -1.
         -1    1    6    6    0  503  0.98260213450E+02  0.34570870289E+03 -0.23214071057E+03  0.42785381418E+03  0.00000000000E+00 0.  1.
<mgrwt>
<rscale>  0 0.21211701E+04</rscale>
<asrwt>0</asrwt>
<pdfrwt beam="1">  1        2 0.15689414E+00 0.21211701E+04</pdfrwt>
<pdfrwt beam="2">  1       -1 0.16969052E+00 0.21211701E+04</pdfrwt>
<totfact> 0.63490627E+00</totfact>
</mgrwt>
</event>
<event>
12    6  0.1521603E-007  0.1414151E+04  0.7818608E-02  0.8943639E-01
         -1   -1    0    0    0  501 -0.00000000000E+00  0.00000000000E+00  0.26294506747E+03  0.26294506747E+03  0.00000000000E+00 0.  1.
          2   -1    0    0  501    0  0.00000000000E+00 -0.00000000000E+00 -0.19013684969E+04  0.19013684969E+04  0.00000000000E+00 0. -1.
         24    2    1    2    0    0 -0.23181518233E+03  0.33598628257E+03 -0.36365060900E+03  0.55275889038E+03  0.81704128628E+02 0.  0.
        254    2    1    2    0    0  0.23181518233E+03 -0.33598628257E+03 -0.12747728205E+04  0.16115546740E+04  0.89746178900E+03 0.  0.
         23    2    4    4    0    0  0.19782830938E+02 -0.29083973758E+02  0.12566304705E+03  0.15934665769E+03  0.91448991225E+02 0.  0.
         23    2    4    4    0    0  0.21203235139E+03 -0.30690230881E+03 -0.14004358675E+04  0.14522080163E+04  0.92416224090E+02 0.  0.
          4    1    3    3  502    0 -0.13648741172E+03  0.17784905633E+03 -0.14692963168E+03  0.26804368498E+03  0.00000000000E+00 0. -1.
         -3    1    3    3    0  502 -0.95327770617E+02  0.15813722624E+03 -0.21672097732E+03  0.28471520540E+03  0.00000000000E+00 0.  1.
         11    1    5    5    0    0 -0.30124524232E+02 -0.44528275579E+01  0.11890228443E+02  0.32690857527E+02  0.00000000000E+00 0.  1.
        -11    1    5    5    0    0  0.49907355170E+02 -0.24631146200E+02  0.11377281860E+03  0.12665580017E+03  0.00000000000E+00 0. -1.
          2    1    6    6  503    0  0.13064436144E+03 -0.24960204772E+03 -0.11098131163E+04  0.11450127879E+04  0.00000000000E+00 0. -1.
         -2    1    6    6    0  503  0.81387989953E+02 -0.57300261093E+02 -0.29062275122E+03  0.30719522841E+03  0.00000000000E+00 0.  1.
<mgrwt>
<rscale>  0 0.14141506E+04</rscale>
<asrwt>0</asrwt>
<pdfrwt beam="1">  1        2 0.29251823E+00 0.14141506E+04</pdfrwt>
<pdfrwt beam="2">  1       -1 0.40453088E-01 0.14141506E+04</pdfrwt>
<totfact> 0.50107114E+01</totfact>
</mgrwt>
</event>
<event>
12    6  0.1521603E-007  0.3780609E+04  0.7818608E-02  0.8050329E-01
         -1   -1    0    0    0  501 -0.00000000000E+00  0.00000000000E+00  0.14882315943E+04  0.14882315943E+04  0.00000000000E+00 0.  1.
          2   -1    0    0  501    0  0.00000000000E+00 -0.00000000000E+00 -0.24010050483E+04  0.24010050483E+04  0.00000000000E+00 0. -1.
         24    2    1    2    0    0 -0.14805880845E+04  0.74319537905E+03  0.24252558554E+03  0.16762392939E+04  0.80492630013E+02 0.  0.
        254    2    1    2    0    0  0.14805880845E+04 -0.74319537905E+03 -0.11552990395E+04  0.22129973487E+04  0.90452249687E+03 0.  0.
         23    2    4    4    0    0 -0.53764267481E+02  0.59897616796E+02  0.12746646813E+02  0.12235414960E+03  0.91267409105E+02 0.  0.
         23    2    4    4    0    0  0.15343523519E+04 -0.80309299584E+03 -0.11680456863E+04  0.20906431991E+04  0.85221832178E+02 0.  0.
          2    1    3    3  502    0 -0.30855008676E+03  0.15223438441E+03  0.83467258058E+02  0.35404130692E+03  0.00000000000E+00 0. -1.
         -1    1    3    3    0  502 -0.11720379977E+04  0.59096099464E+03  0.15905832748E+03  0.13221979870E+04  0.00000000000E+00 0.  1.
         11    1    5    5    0    0 -0.34262460617E+02  0.66753720883E+02  0.42416954713E+02  0.86192653436E+02  0.00000000000E+00 0.  1.
        -11    1    5    5    0    0 -0.19501806864E+02 -0.68561040874E+01 -0.29670307900E+02  0.36161496168E+02  0.00000000000E+00 0. -1.
          2    1    6    6  503    0  0.99516795472E+03 -0.47621484860E+03 -0.75613215769E+03  0.13374885719E+04  0.00000000000E+00 0. -1.
         -2    1    6    6    0  503  0.53918439722E+03 -0.32687814725E+03 -0.41191352863E+03  0.75315462717E+03  0.00000000000E+00 0.  1.
<mgrwt>
<rscale>  0 0.37806092E+04</rscale>
<asrwt>0</asrwt>
<pdfrwt beam="1">  1        2 0.36938538E+00 0.37806092E+04</pdfrwt>
<pdfrwt beam="2">  1       -1 0.22895871E+00 0.37806092E+04</pdfrwt>
<totfact> 0.34759497E-01</totfact>
</mgrwt>
</event>
<event>
12    6  0.1521603E-007  0.1471375E+04  0.7818608E-02  0.8903715E-01
         -1   -1    0    0    0  501 -0.00000000000E+00  0.00000000000E+00  0.68140518301E+03  0.68140518301E+03  0.00000000000E+00 0.  1.
          2   -1    0    0  501    0  0.00000000000E+00 -0.00000000000E+00 -0.79429375102E+03  0.79429375102E+03  0.00000000000E+00 0. -1.
         24    2    1    2    0    0 -0.35103442830E+03  0.27527844088E+03 -0.85190903254E+02  0.46155693478E+03  0.82303852764E+02 0.  0.
        254    2    1    2    0    0  0.35103442830E+03 -0.27527844088E+03 -0.27697664757E+02  0.10141419993E+04  0.91033699483E+03 0.  0.
         23    2    4    4    0    0 -0.15024617413E+03  0.17082433460E+03  0.18275432846E+03  0.30499361276E+03  0.88696635338E+02 0.  0.
         23    2    4    4    0    0  0.50128060243E+03 -0.44610277548E+03 -0.21045199322E+03  0.70914838650E+03  0.91167230784E+02 0.  0.
          2    1    3    3  502    0 -0.18529321968E+02  0.39544215945E+02  0.54511147658E+01  0.44009038157E+02  0.00000000000E+00 0. -1.
         -1    1    3    3    0  502 -0.33250510633E+03  0.23573422494E+03 -0.90642018020E+02  0.41754789662E+03  0.00000000000E+00 0.  1.
         11    1    5    5    0    0 -0.10385432193E+03  0.13596231580E+03  0.84348654182E+02  0.19075158443E+03  0.00000000000E+00 0.  1.
        -11    1    5    5    0    0 -0.46391852199E+02  0.34862018794E+02  0.98405674279E+02  0.11424202832E+03  0.00000000000E+00 0. -1.
          1    1    6    6  503    0  0.24792229808E+03 -0.22790103719E+03 -0.15298745067E+03  0.36987769425E+03  0.00000000000E+00 0. -1.
         -1    1    6    6    0  503  0.25335830435E+03 -0.21820173829E+03 -0.57464542547E+02  0.33927069225E+03  0.00000000000E+00 0.  1.
<mgrwt>
<rscale>  0 0.14713747E+04</rscale>
<asrwt>0</asrwt>
<pdfrwt beam="1">  1        2 0.12219904E+00 0.14713747E+04</pdfrwt>
<pdfrwt beam="2">  1       -1 0.10483157E+00 0.14713747E+04</pdfrwt>
<totfact> 0.32865149E+01</totfact>
</mgrwt>
</event>
<event>
12    6  0.1521603E-007  0.1259977E+04  0.7818608E-02  0.9061920E-01
         -1   -1    0    0    0  501 -0.00000000000E+00  0.00000000000E+00  0.19288978924E+03  0.19288978924E+03  0.00000000000E+00 0.  1.
          2   -1    0    0  501    0  0.00000000000E+00 -0.00000000000E+00 -0.20575754317E+04  0.20575754317E+04  0.00000000000E+00 0. -1.
         24    2    1    2    0    0 -0.16019624909E+02 -0.28722455268E+03 -0.30328635462E+03  0.42578504667E+03  0.80967407186E+02 0.  0.
        254    2    1    2    0    0  0.16019624909E+02  0.28722455268E+03 -0.15613992878E+04  0.18246801743E+04  0.89929718682E+03 0.  0.
         23    2    4    4    0    0 -0.33932527287E+03  0.25875072756E+03 -0.35282192984E+03  0.56147434229E+03  0.93147963182E+02 0.  0.
         23    2    4    4    0    0  0.35534489778E+03  0.28473825120E+02 -0.12085773580E+04  0.12632058320E+04  0.89157100530E+02 0.  0.
          4    1    3    3  502    0 -0.28654538943E+02 -0.28267463289E+03 -0.29679606438E+03  0.41086972938E+03  0.00000000000E+00 0. -1.
         -3    1    3    3    0  502  0.12634914034E+02 -0.45499197871E+01 -0.64902902370E+01  0.14915317297E+02  0.00000000000E+00 0.  1.
         11    1    5    5    0    0 -0.26762902161E+03  0.15792792298E+03 -0.27758508822E+03  0.41667733712E+03  0.00000000000E+00 0. -1.
        -11    1    5    5    0    0 -0.71696251262E+02  0.10082280458E+03 -0.75236841620E+02  0.14479700517E+03  0.00000000000E+00 0.  1.
          3    1    6    6  503    0  0.33897170387E+03  0.41458822357E+02 -0.10731487066E+04  0.11261744076E+04  0.00000000000E+00 0. -1.
         -3    1    6    6    0  503  0.16373193910E+02 -0.12984997237E+02 -0.13542865141E+03  0.13703142433E+03  0.00000000000E+00 0.  1.
<mgrwt>
<rscale>  0 0.12599767E+04</rscale>
<asrwt>0</asrwt>
<pdfrwt beam="1">  1        2 0.31655006E+00 0.12599767E+04</pdfrwt>
<pdfrwt beam="2">  1       -1 0.29675353E-01 0.12599767E+04</pdfrwt>
<totfact> 0.72357668E+01</totfact>
</mgrwt>
</event>
<event>
12    6  0.1521603E-007  0.2488548E+04  0.7818608E-02  0.8407077E-01
          2   -1    0    0  501    0  0.00000000000E+00  0.00000000000E+00  0.81698441311E+03  0.81698441311E+03  0.00000000000E+00 0. -1.
         -1   -1    0    0    0  501 -0.00000000000E+00 -0.00000000000E+00 -0.18950398571E+04  0.18950398571E+04  0.00000000000E+00 0.  1.
         24    2    1    2    0    0 -0.62880856859E+03 -0.81164845342E+03 -0.82228926586E+03  0.13178858771E+04  0.80561284268E+02 0.  0.
        254    2    1    2    0    0  0.62880856859E+03  0.81164845342E+03 -0.25576617807E+03  0.13941383930E+04  0.90776213470E+03 0.  0.
         23    2    4    4    0    0  0.44595745742E+03  0.70349394057E+03 -0.56285740755E+03  0.10096360990E+04  0.93673971345E+02 0.  0.
         23    2    4    4    0    0  0.18285111117E+03  0.10815451285E+03  0.30709122947E+03  0.38450229404E+03  0.91679132805E+02 0.  0.
          4    1    3    3  502    0 -0.19901934835E+03 -0.24306270713E+03 -0.20620517960E+03  0.37577753620E+03  0.00000000000E+00 0. -1.
         -3    1    3    3    0  502 -0.42978922024E+03 -0.56858574629E+03 -0.61608408626E+03  0.94210834094E+03  0.00000000000E+00 0.  1.
         11    1    5    5    0    0  0.22567141205E+03  0.42964701872E+03 -0.29723113417E+03  0.56909620806E+03  0.00000000000E+00 0. -1.
        -11    1    5    5    0    0  0.22028604536E+03  0.27384692185E+03 -0.26562627337E+03  0.44053989093E+03  0.00000000000E+00 0.  1.
          2    1    6    6  503    0  0.16337884495E+03  0.64867172916E+02  0.27774227605E+03  0.32869616519E+03  0.00000000000E+00 0. -1.
         -2    1    6    6    0  503  0.19472266220E+02  0.43287339936E+02  0.29348953422E+02  0.55806128852E+02  0.00000000000E+00 0.  1.
<mgrwt>
<rscale>  0 0.24885482E+04</rscale>
<asrwt>0</asrwt>
<pdfrwt beam="1">  1        2 0.12568991E+00 0.24885482E+04</pdfrwt>
<pdfrwt beam="2">  1       -1 0.29154459E+00 0.24885482E+04</pdfrwt>
<totfact> 0.12776869E+00</totfact>
</mgrwt>
</event>
<event>
12    6  0.1521603E-007  0.2807927E+04  0.7818608E-02  0.8300811E-01
         -1   -1    0    0    0  501 -0.00000000000E+00  0.00000000000E+00  0.96980038139E+03  0.96980038139E+03  0.00000000000E+00 0.  1.
          2   -1    0    0  501    0  0.00000000000E+00 -0.00000000000E+00 -0.20324944848E+04  0.20324944848E+04  0.00000000000E+00 0. -1.
         24    2    1    2    0    0  0.30086633214E+03 -0.14034738115E+03  0.81940908733E+03  0.88758390830E+03  0.78460210715E+02 0.  0.
        254    2    1    2    0    0 -0.30086633214E+03  0.14034738115E+03 -0.18821031907E+04  0.21147109578E+04  0.90524697049E+03 0.  0.
         23    2    4    4    0    0 -0.19179912603E+03  0.49082669248E+03 -0.74804677345E+03  0.91928771865E+03  0.88420515761E+02 0.  0.
         23    2    4    4    0    0 -0.10906720611E+03 -0.35047931133E+03 -0.11340564172E+04  0.11954232392E+04  0.90671716472E+02 0.  0.
          2    1    3    3  502    0  0.13407930097E+03 -0.66921139122E+02  0.27076123764E+03  0.30946299556E+03  0.00000000000E+00 0. -1.
         -1    1    3    3    0  502  0.16678703117E+03 -0.73426242029E+02  0.54864784969E+03  0.57812091274E+03  0.00000000000E+00 0.  1.
         11    1    5    5    0    0 -0.93954610717E+02  0.18713903080E+03 -0.36463878718E+03  0.42048772971E+03  0.00000000000E+00 0.  1.
        -11    1    5    5    0    0 -0.97844515314E+02  0.30368766168E+03 -0.38340798627E+03  0.49879998895E+03  0.00000000000E+00 0. -1.
          1    1    6    6  503    0 -0.12349601560E+03 -0.29014539689E+03 -0.91877693145E+03  0.97138389269E+03  0.00000000000E+00 0. -1.
         -1    1    6    6    0  503  0.14428809491E+02 -0.60333914438E+02 -0.21527948579E+03  0.22403934650E+03  0.00000000000E+00 0.  1.
<mgrwt>
<rscale>  0 0.28079273E+04</rscale>
<asrwt>0</asrwt>
<pdfrwt beam="1">  1        2 0.31269146E+00 0.28079273E+04</pdfrwt>
<pdfrwt beam="2">  1       -1 0.14920006E+00 0.28079273E+04</pdfrwt>
<totfact> 0.22438830E+00</totfact>
</mgrwt>
</event>
<event>
12    6  0.1521603E-007  0.1898345E+04  0.7818608E-02  0.8655681E-01
          2   -1    0    0  501    0  0.00000000000E+00  0.00000000000E+00  0.95031322621E+03  0.95031322621E+03  0.00000000000E+00 0. -1.
         -1   -1    0    0    0  501 -0.00000000000E+00 -0.00000000000E+00 -0.94803316733E+03  0.94803316733E+03  0.00000000000E+00 0.  1.
         24    2    1    2    0    0 -0.78736930624E+02  0.64915190925E+03  0.31744189017E+03  0.73302660487E+03  0.94662264269E+02 0.  0.
        254    2    1    2    0    0  0.78736930624E+02 -0.64915190925E+03 -0.31516183129E+03  0.11653197887E+04  0.91161698341E+03 0.  0.
         23    2    4    4    0    0  0.36812561915E+03  0.11665398987E+02 -0.18866918960E+02  0.38041762396E+03  0.93322317712E+02 0.  0.
         23    2    4    4    0    0 -0.28938868852E+03 -0.66081730824E+03 -0.29629491233E+03  0.78490216471E+03  0.88630723709E+02 0.  0.
          4    1    3    3  502    0 -0.59589434612E+02  0.62409649873E+03  0.28813849016E+03  0.68997907936E+03  0.00000000000E+00 0. -1.
         -1    1    3    3    0  502 -0.19147496012E+02  0.25055410524E+02  0.29303400011E+02  0.43047525507E+02  0.00000000000E+00 0.  1.
         11    1    5    5    0    0  0.22007930951E+03 -0.68966649504E+01  0.32594784468E+02  0.22258680652E+03  0.00000000000E+00 0. -1.
        -11    1    5    5    0    0  0.14804630964E+03  0.18562063937E+02 -0.51461703428E+02  0.15783081745E+03  0.00000000000E+00 0.  1.
          4    1    6    6  503    0 -0.62756212419E+02 -0.15669247076E+03 -0.11067994606E+03  0.20184380855E+03  0.00000000000E+00 0. -1.
         -4    1    6    6    0  503 -0.22663247611E+03 -0.50412483747E+03 -0.18561496627E+03  0.58305835616E+03  0.00000000000E+00 0.  1.
<mgrwt>
<rscale>  0 0.18983450E+04</rscale>
<asrwt>0</asrwt>
<pdfrwt beam="1">  1        2 0.14620204E+00 0.18983450E+04</pdfrwt>
<pdfrwt beam="2">  1       -1 0.14585126E+00 0.18983450E+04</pdfrwt>
<totfact> 0.10910229E+01</totfact>
</mgrwt>
</event>
<event>
12    6  0.1521603E-007  0.1987936E+04  0.7818608E-02  0.8612282E-01
         -1   -1    0    0    0  501 -0.00000000000E+00  0.00000000000E+00  0.15220666607E+04  0.15220666607E+04  0.00000000000E+00 0.  1.
          2   -1    0    0  501    0  0.00000000000E+00 -0.00000000000E+00 -0.64909923818E+03  0.64909923818E+03  0.00000000000E+00 0. -1.
         24    2    1    2    0    0 -0.65177807898E+03 -0.51107358366E+02 -0.13500491595E+03  0.67228244567E+03  0.79440122837E+02 0.  0.
        254    2    1    2    0    0  0.65177807898E+03  0.51107358366E+02  0.10079723385E+04  0.14988834532E+04  0.89622360205E+03 0.  0.
         23    2    4    4    0    0 -0.11996231360E+03  0.19958810881E+02  0.60429247067E+03  0.62266172366E+03  0.88027956834E+02 0.  0.
         23    2    4    4    0    0  0.77174039258E+03  0.31148547484E+02  0.40367986783E+03  0.87622172957E+03  0.90849425616E+02 0.  0.
          4    1    3    3  502    0 -0.38799201730E+03 -0.69404702526E+02 -0.83149354689E+02  0.40282581026E+03  0.00000000000E+00 0. -1.
         -3    1    3    3    0  502 -0.26378606167E+03  0.18297344160E+02 -0.51855561264E+02  0.26945663542E+03  0.00000000000E+00 0.  1.
         11    1    5    5    0    0 -0.87423465712E+02  0.22732030964E+02  0.56207775948E+03  0.56928992200E+03  0.00000000000E+00 0. -1.
        -11    1    5    5    0    0 -0.32538847889E+02 -0.27732200822E+01  0.42214711199E+02  0.53371801667E+02  0.00000000000E+00 0.  1.
          3    1    6    6  503    0  0.54743293052E+03  0.60714531919E+02  0.30235293564E+03  0.62832027302E+03  0.00000000000E+00 0. -1.
         -3    1    6    6    0  503  0.22430746206E+03 -0.29565984435E+02  0.10132693218E+03  0.24790145655E+03  0.00000000000E+00 0.  1.
<mgrwt>
<rscale>  0 0.19879359E+04</rscale>
<asrwt>0</asrwt>
<pdfrwt beam="1">  1        2 0.99861421E-01 0.19879359E+04</pdfrwt>
<pdfrwt beam="2">  1       -1 0.23416410E+00 0.19879359E+04</pdfrwt>
<totfact> 0.42360342E+00</totfact>
</mgrwt>
</event>
<event>
12    6  0.1521603E-007  0.1944324E+04  0.7818608E-02  0.8633103E-01
          2   -1    0    0  501    0  0.00000000000E+00  0.00000000000E+00  0.95911980851E+03  0.95911980851E+03  0.00000000000E+00 0. -1.
         -1   -1    0    0    0  501 -0.00000000000E+00 -0.00000000000E+00 -0.98538116882E+03  0.98538116882E+03  0.00000000000E+00 0.  1.
         24    2    1    2    0    0  0.65733800429E+03  0.61596947042E+00  0.36234594704E+03  0.75479760635E+03  0.79568900363E+02 0.  0.
        254    2    1    2    0    0 -0.65733800429E+03 -0.61596947042E+00 -0.38860730735E+03  0.11897033710E+04  0.91229646514E+03 0.  0.
         23    2    4    4    0    0 -0.37946061354E+03  0.44197968176E+03 -0.25778390519E+03  0.64323926724E+03  0.89262628393E+02 0.  0.
         23    2    4    4    0    0 -0.27787739075E+03 -0.44259565123E+03 -0.13082340216E+03  0.54646410375E+03  0.91659693198E+02 0.  0.
          2    1    3    3  502    0  0.55543573626E+03  0.22383849807E+02  0.32607109322E+03  0.64446276206E+03  0.00000000000E+00 0. -1.
         -1    1    3    3    0  502  0.10190226803E+03 -0.21767880337E+02  0.36274853822E+02  0.11033484429E+03  0.00000000000E+00 0.  1.
         11    1    5    5    0    0 -0.31006459147E+03  0.40449547204E+03 -0.23434047558E+03  0.56095641210E+03  0.00000000000E+00 0.  1.
        -11    1    5    5    0    0 -0.69396022074E+02  0.37484209719E+02 -0.23443429610E+02  0.82282855139E+02  0.00000000000E+00 0. -1.
          3    1    6    6  503    0 -0.77940228567E+02 -0.14317524748E+03  0.10973158750E+01  0.16301851067E+03  0.00000000000E+00 0. -1.
         -3    1    6    6    0  503 -0.19993716218E+03 -0.29942040375E+03 -0.13192071803E+03  0.38344559308E+03  0.00000000000E+00 0.  1.
<mgrwt>
<rscale>  0 0.19443236E+04</rscale>
<asrwt>0</asrwt>
<pdfrwt beam="1">  1        2 0.14755689E+00 0.19443236E+04</pdfrwt>
<pdfrwt beam="2">  1       -1 0.15159710E+00 0.19443236E+04</pdfrwt>
<totfact> 0.96666031E+00</totfact>
</mgrwt>
</event>
<event>
12    6  0.1521603E-007  0.1611694E+04  0.7818608E-02  0.8813396E-01
          2   -1    0    0  501    0  0.00000000000E+00  0.00000000000E+00  0.12457817505E+04  0.12457817505E+04  0.00000000000E+00 0. -1.
         -1   -1    0    0    0  501 -0.00000000000E+00 -0.00000000000E+00 -0.52127086707E+03  0.52127086707E+03  0.00000000000E+00 0.  1.
         24    2    1    2    0    0  0.32222627334E+03 -0.32897151123E+03  0.10080263030E+03  0.47827361015E+03  0.80823569949E+02 0.  0.
        254    2    1    2    0    0 -0.32222627334E+03  0.32897151123E+03  0.62370825309E+03  0.12887790074E+04  0.10295082897E+04 0.  0.
         23    2    4    4    0    0 -0.13960517991E+03  0.67727209921E+03  0.52617169101E+03  0.87349677481E+03  0.89178834705E+02 0.  0.
         23    2    4    4    0    0 -0.18262109343E+03 -0.34830058798E+03  0.97536562077E+02  0.41528223257E+03  0.91006529410E+02 0.  0.
          4    1    3    3  502    0  0.17409408873E+03 -0.22427510821E+03  0.84103903573E+02  0.29611069296E+03  0.00000000000E+00 0. -1.
         -3    1    3    3    0  502  0.14813218461E+03 -0.10469640302E+03  0.16698726728E+02  0.18216291718E+03  0.00000000000E+00 0.  1.
         11    1    5    5    0    0 -0.81394713816E+01  0.30640089625E+01  0.14714360543E+02  0.17092441355E+02  0.00000000000E+00 0.  1.
        -11    1    5    5    0    0 -0.13146570853E+03  0.67420809025E+03  0.51145733047E+03  0.85640433345E+03  0.00000000000E+00 0. -1.
          4    1    6    6  503    0 -0.18581595597E+03 -0.33499715326E+03  0.10805076878E+03  0.39802717347E+03  0.00000000000E+00 0. -1.
         -4    1    6    6    0  503  0.31948625447E+01 -0.13303434717E+02 -0.10514206702E+02  0.17255059099E+02  0.00000000000E+00 0.  1.
<mgrwt>
<rscale>  0 0.16116944E+04</rscale>
<asrwt>0</asrwt>
<pdfrwt beam="1">  1        2 0.19165873E+00 0.16116944E+04</pdfrwt>
<pdfrwt beam="2">  1       -1 0.80195519E-01 0.16116944E+04</pdfrwt>
<totfact> 0.30157550E+01</totfact>
</mgrwt>
</event>
<event>
12    6  0.1521603E-007  0.1814385E+04  0.7818608E-02  0.8698687E-01
          2   -1    0    0  501    0  0.00000000000E+00  0.00000000000E+00  0.56996198164E+03  0.56996198164E+03  0.00000000000E+00 0. -1.
         -1   -1    0    0    0  501 -0.00000000000E+00 -0.00000000000E+00 -0.14439527236E+04  0.14439527236E+04  0.00000000000E+00 0.  1.
         24    2    1    2    0    0 -0.46468160222E+03 -0.23736441636E+03  0.16142006129E+03  0.55222081781E+03  0.81366687544E+02 0.  0.
        254    2    1    2    0    0  0.46468160222E+03  0.23736441636E+03 -0.10354108033E+04  0.14616938875E+04  0.89005765628E+03 0.  0.
         23    2    4    4    0    0 -0.18941933866E+03  0.29755583715E+03 -0.43650808481E+03  0.56817560613E+03  0.88685112728E+02 0.  0.
         23    2    4    4    0    0  0.65410094088E+03 -0.60191420784E+02 -0.59890271849E+03  0.89351828135E+03  0.90660933670E+02 0.  0.
          4    1    3    3  502    0 -0.46728605702E+03 -0.23757403367E+03  0.15723074724E+03  0.54728346261E+03  0.00000000000E+00 0. -1.
         -3    1    3    3    0  502  0.26044548017E+01  0.20961731120E+00  0.41893140516E+01  0.49373552084E+01  0.00000000000E+00 0.  1.
         11    1    5    5    0    0 -0.14624496682E+03  0.14902650767E+03 -0.24063011531E+03  0.31858961487E+03  0.00000000000E+00 0. -1.
        -11    1    5    5    0    0 -0.43174371838E+02  0.14852932948E+03 -0.19587796950E+03  0.24958599126E+03  0.00000000000E+00 0.  1.
          1    1    6    6  503    0  0.30488300625E+03  0.54235410034E+01 -0.23566481641E+03  0.38538418233E+03  0.00000000000E+00 0. -1.
         -1    1    6    6    0  503  0.34921793463E+03 -0.65614961787E+02 -0.36323790208E+03  0.50813409902E+03  0.00000000000E+00 0.  1.
<mgrwt>
<rscale>  0 0.18143849E+04</rscale>
<asrwt>0</asrwt>
<pdfrwt beam="1">  1        2 0.87686459E-01 0.18143849E+04</pdfrwt>
<pdfrwt beam="2">  1       -1 0.22214657E+00 0.18143849E+04</pdfrwt>
<totfact> 0.60504539E+00</totfact>
</mgrwt>
</event>
<event>
12    6  0.1521603E-007  0.1319651E+04  0.7818608E-02  0.9014125E-01
          2   -1    0    0  501    0  0.00000000000E+00  0.00000000000E+00  0.47823857941E+03  0.47823857941E+03  0.00000000000E+00 0. -1.
         -1   -1    0    0    0  501 -0.00000000000E+00 -0.00000000000E+00 -0.91036051305E+03  0.91036051305E+03  0.00000000000E+00 0.  1.
         24    2    1    2    0    0  0.30980658508E+03 -0.99911110307E+02  0.13861164971E+02  0.33546489613E+03  0.79888763403E+02 0.  0.
        254    2    1    2    0    0 -0.30980658508E+03  0.99911110307E+02 -0.44598309861E+03  0.10531341963E+04  0.89678780161E+03 0.  0.
         23    2    4    4    0    0 -0.29783180165E+03 -0.33634168376E+03 -0.58302540083E+02  0.46155593266E+03  0.88346943815E+02 0.  0.
         23    2    4    4    0    0 -0.11974783426E+02  0.43625279407E+03 -0.38768055852E+03  0.59157826367E+03  0.95962132208E+02 0.  0.
          2    1    3    3  502    0  0.72654627647E+02 -0.47357326074E+02  0.30643461440E+02  0.91980611981E+02  0.00000000000E+00 0. -1.
         -1    1    3    3    0  502  0.23715195743E+03 -0.52553784232E+02 -0.16782296469E+02  0.24348428415E+03  0.00000000000E+00 0.  1.
         11    1    5    5    0    0 -0.84655718007E+02 -0.12908091123E+03 -0.56045632744E+02  0.16422419184E+03  0.00000000000E+00 0.  1.
        -11    1    5    5    0    0 -0.21317608365E+03 -0.20726077253E+03 -0.22569073389E+01  0.29733174082E+03  0.00000000000E+00 0. -1.
          2    1    6    6  503    0 -0.46349209640E+02  0.21707916310E+03 -0.22821157828E+03  0.31835850350E+03  0.00000000000E+00 0. -1.
         -2    1    6    6    0  503  0.34374426214E+02  0.21917363097E+03 -0.15946898024E+03  0.27321976017E+03  0.00000000000E+00 0.  1.
<mgrwt>
<rscale>  0 0.13196507E+04</rscale>
<asrwt>0</asrwt>
<pdfrwt beam="1">  1        2 0.73575167E-01 0.13196507E+04</pdfrwt>
<pdfrwt beam="2">  1       -1 0.14005546E+00 0.13196507E+04</pdfrwt>
<totfact> 0.30401401E+01</totfact>
</mgrwt>
</event>
<event>
12    6  0.1521603E-007  0.1314112E+04  0.7818608E-02  0.9018449E-01
          2   -1    0    0  501    0  0.00000000000E+00  0.00000000000E+00  0.11327270582E+04  0.11327270582E+04  0.00000000000E+00 0. -1.
         -1   -1    0    0    0  501 -0.00000000000E+00 -0.00000000000E+00 -0.38113534054E+03  0.38113534054E+03  0.00000000000E+00 0.  1.
         24    2    1    2    0    0  0.20222791947E+03 -0.15075557363E+03 -0.66351643363E+02  0.27316029711E+03  0.81182713347E+02 0.  0.
        254    2    1    2    0    0 -0.20222791947E+03  0.15075557363E+03  0.81794336106E+03  0.12407021017E+04  0.89815755230E+03 0.  0.
         23    2    4    4    0    0 -0.12789769424E+03  0.51998250352E+03  0.51517276170E+03  0.74886239954E+03  0.93017712699E+02 0.  0.
         23    2    4    4    0    0 -0.74330225226E+02 -0.36922692989E+03  0.30277059935E+03  0.49183970212E+03  0.91557351493E+02 0.  0.
          4    1    3    3  502    0  0.44884218584E+02 -0.59338014521E+01  0.94982275914E+01  0.46260343762E+02  0.00000000000E+00 0. -1.
         -3    1    3    3    0  502  0.15734370088E+03 -0.14482177218E+03 -0.75849870955E+02  0.22689995335E+03  0.00000000000E+00 0.  1.
         11    1    5    5    0    0 -0.60681995687E+02  0.37370953562E+03  0.31886103169E+03  0.49498836264E+03  0.00000000000E+00 0. -1.
        -11    1    5    5    0    0 -0.67215698555E+02  0.14627296790E+03  0.19631173001E+03  0.25387403689E+03  0.00000000000E+00 0.  1.
          2    1    6    6  503    0 -0.91970348818E+02 -0.34402944421E+03  0.28643878803E+03  0.45701420419E+03  0.00000000000E+00 0. -1.
         -2    1    6    6    0  503  0.17640123592E+02 -0.25197485678E+02  0.16331811319E+02  0.34825497926E+02  0.00000000000E+00 0.  1.
<mgrwt>
<rscale>  0 0.13141116E+04</rscale>
<asrwt>0</asrwt>
<pdfrwt beam="1">  1        2 0.17426570E+00 0.13141116E+04</pdfrwt>
<pdfrwt beam="2">  1       -1 0.58636207E-01 0.13141116E+04</pdfrwt>
<totfact> 0.68458899E+01</totfact>
</mgrwt>
</event>
<event>
12    6  0.1521603E-007  0.1699551E+04  0.7818608E-02  0.8761620E-01
          2   -1    0    0  501    0  0.00000000000E+00  0.00000000000E+00  0.56769292978E+03  0.56769292978E+03  0.00000000000E+00 0. -1.
         -1   -1    0    0    0  501 -0.00000000000E+00 -0.00000000000E+00 -0.12720231347E+04  0.12720231347E+04  0.00000000000E+00 0.  1.
         24    2    1    2    0    0 -0.14915379562E+03  0.51518809908E+03  0.92479472891E+02  0.55385723225E+03  0.10266327792E+03 0.  0.
        254    2    1    2    0    0  0.14915379562E+03 -0.51518809908E+03 -0.79680967782E+03  0.12858588322E+04  0.85490446343E+03 0.  0.
         23    2    4    4    0    0 -0.55162344252E+02  0.16809339536E+03 -0.44503301699E+03  0.48549799883E+03  0.79722310994E+02 0.  0.
         23    2    4    4    0    0  0.20431613987E+03 -0.68328149443E+03 -0.35177666083E+03  0.80036083341E+03  0.90619859289E+02 0.  0.
          2    1    3    3  502    0 -0.11969797349E+03  0.49515134126E+03  0.94789283421E+02  0.51815775963E+03  0.00000000000E+00 0. -1.
         -1    1    3    3    0  502 -0.29455822126E+02  0.20036757816E+02 -0.23098105301E+01  0.35699472623E+02  0.00000000000E+00 0.  1.
         11    1    5    5    0    0 -0.51583696983E+02  0.14847354649E+03 -0.29606647583E+03  0.33520237158E+03  0.00000000000E+00 0. -1.
        -11    1    5    5    0    0 -0.35786472683E+01  0.19619848870E+02 -0.14896654115E+03  0.15029562725E+03  0.00000000000E+00 0.  1.
          1    1    6    6  503    0  0.11448554449E+03 -0.42576139075E+03 -0.26382027932E+03  0.51379065925E+03  0.00000000000E+00 0. -1.
         -1    1    6    6    0  503  0.89830595382E+02 -0.25752010369E+03 -0.87956381511E+02  0.28657017416E+03  0.00000000000E+00 0.  1.
<mgrwt>
<rscale>  0 0.16995512E+04</rscale>
<asrwt>0</asrwt>
<pdfrwt beam="1">  1        2 0.87337374E-01 0.16995512E+04</pdfrwt>
<pdfrwt beam="2">  1       -1 0.19569587E+00 0.16995512E+04</pdfrwt>
<totfact> 0.92903415E+00</totfact>
</mgrwt>
</event>
<event>
12    6  0.1521603E-007  0.1293105E+04  0.7818608E-02  0.9035051E-01
          2   -1    0    0  501    0  0.00000000000E+00  0.00000000000E+00  0.14360852045E+04  0.14360852045E+04  0.00000000000E+00 0. -1.
         -1   -1    0    0    0  501 -0.00000000000E+00 -0.00000000000E+00 -0.29109019746E+03  0.29109019746E+03  0.00000000000E+00 0.  1.
         24    2    1    2    0    0  0.30601883546E+03 -0.10626576944E+03  0.22040683230E+03  0.39924902140E+03  0.76685513355E+02 0.  0.
        254    2    1    2    0    0 -0.30601883546E+03  0.10626576944E+03  0.92458817471E+03  0.13279263805E+04  0.89642915943E+03 0.  0.
         23    2    4    4    0    0  0.16421176082E+03  0.36389650432E+03  0.38476176069E+03  0.56160130125E+03  0.89265003378E+02 0.  0.
         23    2    4    4    0    0 -0.47023059627E+03 -0.25763073488E+03  0.53982641402E+03  0.76632507928E+03  0.91384684872E+02 0.  0.
          2    1    3    3  502    0  0.24960171420E+03 -0.54502023677E+02  0.18129176187E+03  0.31327015376E+03  0.00000000000E+00 0. -1.
         -1    1    3    3    0  502  0.56417121258E+02 -0.51763745762E+02  0.39115070431E+02  0.85978867643E+02  0.00000000000E+00 0.  1.
         11    1    5    5    0    0 -0.60219222426E+01  0.12288459014E+01  0.15804875272E+02  0.16957820972E+02  0.00000000000E+00 0. -1.
        -11    1    5    5    0    0  0.17023368306E+03  0.36266765842E+03  0.36895688542E+03  0.54464348028E+03  0.00000000000E+00 0.  1.
          3    1    6    6  503    0 -0.70921207450E+02 -0.69932730377E+02  0.69621367363E+02  0.12152176446E+03  0.00000000000E+00 0. -1.
         -3    1    6    6    0  503 -0.39930938882E+03 -0.18769800451E+03  0.47020504665E+03  0.64480331482E+03  0.00000000000E+00 0.  1.
<mgrwt>
<rscale>  0 0.12931053E+04</rscale>
<asrwt>0</asrwt>
<pdfrwt beam="1">  1        2 0.22093618E+00 0.12931053E+04</pdfrwt>
<pdfrwt beam="2">  1       -1 0.44783108E-01 0.12931053E+04</pdfrwt>
<totfact> 0.76184863E+01</totfact>
</mgrwt>
</event>
<event>
12    6  0.1521603E-007  0.2270787E+04  0.7818608E-02  0.8489529E-01
         -1   -1    0    0    0  501 -0.00000000000E+00  0.00000000000E+00  0.75392406436E+03  0.75392406436E+03  0.00000000000E+00 0.  1.
          2   -1    0    0  501    0  0.00000000000E+00 -0.00000000000E+00 -0.17098781083E+04  0.17098781083E+04  0.00000000000E+00 0. -1.
         24    2    1    2    0    0  0.86332677444E+03 -0.28836348958E+03 -0.12072607564E+03  0.92170367740E+03  0.80475226107E+02 0.  0.
        254    2    1    2    0    0 -0.86332677444E+03  0.28836348958E+03 -0.83522796829E+03  0.15420984953E+04  0.92302512883E+03 0.  0.
         23    2    4    4    0    0 -0.16963637141E+03  0.50825212706E+03 -0.22306370793E+03  0.58683521170E+03  0.86726147914E+02 0.  0.
         23    2    4    4    0    0 -0.69369040303E+03 -0.21988863748E+03 -0.61216426037E+03  0.95526328355E+03  0.90694382851E+02 0.  0.
          2    1    3    3  502    0  0.36138867209E+02 -0.11648472602E+02  0.11086919754E+02  0.39555333733E+02  0.00000000000E+00 0. -1.
         -1    1    3    3    0  502  0.82718790723E+03 -0.27671501697E+03 -0.13181299539E+03  0.88214834367E+03  0.00000000000E+00 0.  1.
         11    1    5    5    0    0 -0.71789514325E+02  0.16715248105E+03 -0.11767878323E+03  0.21666098475E+03  0.00000000000E+00 0. -1.
        -11    1    5    5    0    0 -0.97846857085E+02  0.34109964601E+03 -0.10538492470E+03  0.37017422695E+03  0.00000000000E+00 0.  1.
          4    1    6    6  503    0 -0.52267449552E+02  0.65833446986E+01 -0.35880934930E+02  0.63739063388E+02  0.00000000000E+00 0. -1.
         -4    1    6    6    0  503 -0.64142295347E+03 -0.22647198218E+03 -0.57628332544E+03  0.89152422016E+03  0.00000000000E+00 0.  1.
<mgrwt>
<rscale>  0 0.22707869E+04</rscale>
<asrwt>0</asrwt>
<pdfrwt beam="1">  1        2 0.26305817E+00 0.22707869E+04</pdfrwt>
<pdfrwt beam="2">  1       -1 0.11598832E+00 0.22707869E+04</pdfrwt>
<totfact> 0.67378762E+00</totfact>
</mgrwt>
</event>
<event>
12    6  0.1521603E-007  0.2024589E+04  0.7818608E-02  0.8595210E-01
          2   -1    0    0  501    0  0.00000000000E+00  0.00000000000E+00  0.33446519225E+04  0.33446519225E+04  0.00000000000E+00 0. -1.
         -1   -1    0    0    0  501 -0.00000000000E+00 -0.00000000000E+00 -0.30638173647E+03  0.30638173647E+03  0.00000000000E+00 0.  1.
         24    2    1    2    0    0  0.35312196026E+03 -0.33486873133E+03  0.23830870989E+04  0.24335753996E+04  0.79705196591E+02 0.  0.
        254    2    1    2    0    0 -0.35312196026E+03  0.33486873133E+03  0.65518308717E+03  0.12174582594E+04  0.90338671107E+03 0.  0.
         23    2    4    4    0    0  0.65618631857E+02  0.35962819570E+03  0.69038948674E+03  0.78663035091E+03  0.92257365996E+02 0.  0.
         23    2    4    4    0    0 -0.41874059212E+03 -0.24759464370E+02 -0.35206399569E+02  0.43082790854E+03  0.91741384549E+02 0.  0.
          2    1    3    3  502    0  0.35693726326E+03 -0.32997252283E+03  0.23654240833E+04  0.24148534468E+04  0.00000000000E+00 0. -1.
         -1    1    3    3    0  502 -0.38153029964E+01 -0.48962085019E+01  0.17663015595E+02  0.18721952744E+02  0.00000000000E+00 0.  1.
         11    1    5    5    0    0  0.50986360885E+02  0.19332767195E+03  0.46487570283E+03  0.50604803805E+03  0.00000000000E+00 0.  1.
        -11    1    5    5    0    0  0.14632270972E+02  0.16630052375E+03  0.22551378391E+03  0.28058231285E+03  0.00000000000E+00 0. -1.
          3    1    6    6  503    0 -0.28657230601E+03 -0.13132554186E+02 -0.66563209833E+02  0.29449416200E+03  0.00000000000E+00 0.  1.
         -3    1    6    6    0  503 -0.13216828611E+03 -0.11626910184E+02  0.31356810264E+02  0.13633374653E+03  0.00000000000E+00 0. -1.
<mgrwt>
<rscale>  0 0.20245891E+04</rscale>
<asrwt>0</asrwt>
<pdfrwt beam="1">  1        2 0.51456181E+00 0.20245891E+04</pdfrwt>
<pdfrwt beam="2">  1       -1 0.47135654E-01 0.20245891E+04</pdfrwt>
<totfact> 0.49456999E+00</totfact>
</mgrwt>
</event>
<event>
12    6  0.1521603E-007  0.1284282E+04  0.7818608E-02  0.9042124E-01
         -3   -1    0    0    0  501 -0.00000000000E+00  0.00000000000E+00  0.17124369648E+03  0.17124369648E+03  0.00000000000E+00 0.  1.
          2   -1    0    0  501    0  0.00000000000E+00 -0.00000000000E+00 -0.24079412559E+04  0.24079412559E+04  0.00000000000E+00 0. -1.
         24    2    1    2    0    0 -0.22708099804E+03 -0.10617143942E+03 -0.17896597197E+03  0.31853332320E+03  0.81218868760E+02 0.  0.
        254    2    1    2    0    0  0.22708099804E+03  0.10617143942E+03 -0.20577315874E+04  0.22606516292E+04  0.90191371445E+03 0.  0.
         23    2    4    4    0    0  0.22874510920E+03 -0.23166655795E+03 -0.17867311046E+04  0.18183996399E+04  0.90418422382E+02 0.  0.
         23    2    4    4    0    0 -0.16641111550E+01  0.33783799737E+03 -0.27100048278E+03  0.44225198924E+03  0.89488985829E+02 0.  0.
          2    1    3    3  502    0 -0.11055858155E+03 -0.30844071251E+02 -0.12487464664E+03  0.16961201036E+03  0.00000000000E+00 0. -1.
         -1    1    3    3    0  502 -0.11652241650E+03 -0.75327368164E+02 -0.54091325334E+02  0.14892131284E+03  0.00000000000E+00 0.  1.
         11    1    5    5    0    0  0.59357552612E+02 -0.30202424977E+02 -0.22523552400E+03  0.23487559856E+03  0.00000000000E+00 0.  1.
        -11    1    5    5    0    0  0.16938755659E+03 -0.20146413298E+03 -0.15614955806E+04  0.15835240414E+04  0.00000000000E+00 0. -1.
          4    1    6    6  503    0  0.28996535945E+02  0.29458394458E+03 -0.23779532042E+03  0.37969344729E+03  0.00000000000E+00 0. -1.
         -4    1    6    6    0  503 -0.30660647100E+02  0.43254052792E+02 -0.33205162362E+02  0.62558541950E+02  0.00000000000E+00 0.  1.
<mgrwt>
<rscale>  0 0.12842815E+04</rscale>
<asrwt>0</asrwt>
<pdfrwt beam="1">  1        2 0.37045249E+00 0.12842815E+04</pdfrwt>
<pdfrwt beam="2">  1       -3 0.26345185E-01 0.12842815E+04</pdfrwt>
<totfact> 0.34848707E+01</totfact>
</mgrwt>
</event>
<event>
12    6  0.1521603E-007  0.1852570E+04  0.7818608E-02  0.8678832E-01
         -1   -1    0    0    0  501 -0.00000000000E+00  0.00000000000E+00  0.83693868007E+03  0.83693868007E+03  0.00000000000E+00 0.  1.
          2   -1    0    0  501    0  0.00000000000E+00 -0.00000000000E+00 -0.10251694237E+04  0.10251694237E+04  0.00000000000E+00 0. -1.
         24    2    1    2    0    0  0.20202507016E+03  0.32796640662E+03 -0.66759353604E+03  0.77455163493E+03  0.76635585493E+02 0.  0.
        254    2    1    2    0    0 -0.20202507016E+03 -0.32796640662E+03  0.47936279246E+03  0.10875564688E+04  0.89700295049E+03 0.  0.
         23    2    4    4    0    0 -0.10923387956E+03  0.37455314310E+02 -0.23409357595E+03  0.27550300834E+03  0.88131516998E+02 0.  0.
         23    2    4    4    0    0 -0.92791190596E+02 -0.36542172093E+03  0.71345636841E+03  0.81205346045E+03  0.90926309880E+02 0.  0.
          2    1    3    3  502    0  0.10833952607E+03  0.17241526627E+03 -0.42753621841E+03  0.47355220938E+03  0.00000000000E+00 0. -1.
         -1    1    3    3    0  502  0.93685544084E+02  0.15555114035E+03 -0.24005731763E+03  0.30099942555E+03  0.00000000000E+00 0.  1.
         11    1    5    5    0    0 -0.11230071147E+03  0.11906307334E+02 -0.21695142964E+03  0.24458359056E+03  0.00000000000E+00 0. -1.
        -11    1    5    5    0    0  0.30668319085E+01  0.25549006976E+02 -0.17142146316E+02  0.30919417778E+02  0.00000000000E+00 0.  1.
          4    1    6    6  503    0 -0.43877238031E+02 -0.18749177317E+03  0.45877728506E+03  0.49754896675E+03  0.00000000000E+00 0. -1.
         -4    1    6    6    0  503 -0.48913952566E+02 -0.17792994776E+03  0.25467908335E+03  0.31450449371E+03  0.00000000000E+00 0.  1.
<mgrwt>
<rscale>  0 0.18525700E+04</rscale>
<asrwt>0</asrwt>
<pdfrwt beam="1">  1        2 0.15771837E+00 0.18525700E+04</pdfrwt>
<pdfrwt beam="2">  1       -1 0.12875980E+00 0.18525700E+04</pdfrwt>
<totfact> 0.13525578E+01</totfact>
</mgrwt>
</event>
<event>
12    6  0.1521603E-007  0.1996130E+04  0.7818608E-02  0.8608432E-01
          2   -1    0    0  501    0  0.00000000000E+00  0.00000000000E+00  0.14329253328E+04  0.14329253328E+04  0.00000000000E+00 0. -1.
         -1   -1    0    0    0  501 -0.00000000000E+00 -0.00000000000E+00 -0.69517460252E+03  0.69517460252E+03  0.00000000000E+00 0.  1.
         24    2    1    2    0    0 -0.54016694624E+03 -0.33667009733E+03  0.79922817792E+03  0.10248285039E+04  0.79879269407E+02 0.  0.
        254    2    1    2    0    0  0.54016694624E+03  0.33667009733E+03 -0.61477447683E+02  0.11032714314E+04  0.89905577723E+03 0.  0.
         23    2    4    4    0    0  0.13700769508E+03 -0.15517127249E+03 -0.33412889167E+03  0.40515291236E+03  0.98272752243E+02 0.  0.
         23    2    4    4    0    0  0.40315925116E+03  0.49184136982E+03  0.27265144398E+03  0.69811851906E+03  0.92657120016E+02 0.  0.
          2    1    3    3  502    0 -0.27927746400E+03 -0.16690462782E+03  0.47137245694E+03  0.57275217141E+03  0.00000000000E+00 0. -1.
         -1    1    3    3    0  502 -0.26088948224E+03 -0.16976546951E+03  0.32785572098E+03  0.45207633245E+03  0.00000000000E+00 0.  1.
         11    1    5    5    0    0  0.14071215694E+03 -0.16585733839E+03 -0.31245430075E+03  0.38070494857E+03  0.00000000000E+00 0.  1.
        -11    1    5    5    0    0 -0.37044618658E+01  0.10686065901E+02 -0.21674590917E+02  0.24447963792E+02  0.00000000000E+00 0. -1.
          3    1    6    6  503    0  0.37458930972E+03  0.48437675570E+03  0.25234340622E+03  0.66228029345E+03  0.00000000000E+00 0.  1.
         -3    1    6    6    0  503  0.28569941441E+02  0.74646141189E+01  0.20308037759E+02  0.35838225619E+02  0.00000000000E+00 0. -1.
<mgrwt>
<rscale>  0 0.19961296E+04</rscale>
<asrwt>0</asrwt>
<pdfrwt beam="1">  1        2 0.22045005E+00 0.19961296E+04</pdfrwt>
<pdfrwt beam="2">  1       -1 0.10694994E+00 0.19961296E+04</pdfrwt>
<totfact> 0.11967623E+01</totfact>
</mgrwt>
</event>
<event>
12    6  0.1521603E-007  0.2226598E+04  0.7818608E-02  0.8507438E-01
          2   -1    0    0  501    0  0.00000000000E+00  0.00000000000E+00  0.74531431149E+03  0.74531431149E+03  0.00000000000E+00 0. -1.
         -1   -1    0    0    0  501 -0.00000000000E+00 -0.00000000000E+00 -0.16629695320E+04  0.16629695320E+04  0.00000000000E+00 0.  1.
         24    2    1    2    0    0 -0.18221097630E+02 -0.31843198767E+03 -0.13283827485E+04  0.13684698187E+04  0.79862250622E+02 0.  0.
        254    2    1    2    0    0  0.18221097630E+02  0.31843198767E+03  0.41072752798E+03  0.10398140248E+04  0.90043609696E+03 0.  0.
         23    2    4    4    0    0 -0.34969278009E+03 -0.83063517377E+02  0.29933112956E+03  0.47603941035E+03  0.88486195093E+02 0.  0.
         23    2    4    4    0    0  0.36791387772E+03  0.40149550505E+03  0.11139639842E+03  0.56377461442E+03  0.94198706413E+02 0.  0.
          4    1    3    3  502    0  0.10654106884E+02 -0.12267345970E+03 -0.37262714796E+03  0.39244525619E+03  0.00000000000E+00 0. -1.
         -3    1    3    3    0  502 -0.28875204514E+02 -0.19575852798E+03 -0.95575560053E+03  0.97602456253E+03  0.00000000000E+00 0.  1.
         11    1    5    5    0    0 -0.28845297903E+03 -0.80252908612E+02  0.20258566564E+03  0.36150601983E+03  0.00000000000E+00 0. -1.
        -11    1    5    5    0    0 -0.61239801056E+02 -0.28106087650E+01  0.96745463921E+02  0.11453339052E+03  0.00000000000E+00 0.  1.
          4    1    6    6  503    0  0.16318480343E+03  0.12533118744E+03  0.12879750675E+02  0.20616273813E+03  0.00000000000E+00 0.  1.
         -4    1    6    6    0  503  0.20472907429E+03  0.27616431761E+03  0.98516647743E+02  0.35761187629E+03  0.00000000000E+00 0. -1.
<mgrwt>
<rscale>  0 0.22265983E+04</rscale>
<asrwt>0</asrwt>
<pdfrwt beam="1">  1        2 0.11466374E+00 0.22265983E+04</pdfrwt>
<pdfrwt beam="2">  1       -1 0.25584146E+00 0.22265983E+04</pdfrwt>
<totfact> 0.25125637E+00</totfact>
</mgrwt>
</event>
<event>
12    6  0.1521603E-007  0.2159904E+04  0.7818608E-02  0.8535305E-01
         -1   -1    0    0    0  501 -0.00000000000E+00  0.00000000000E+00  0.22208427604E+04  0.22208427604E+04  0.00000000000E+00 0.  1.
          2   -1    0    0  501    0  0.00000000000E+00 -0.00000000000E+00 -0.52515932574E+03  0.52515932574E+03  0.00000000000E+00 0. -1.
         24    2    1    2    0    0 -0.33044005681E+03 -0.53081933229E+03  0.15122320872E+04  0.16383604851E+04  0.80121151673E+02 0.  0.
        254    2    1    2    0    0  0.33044005681E+03  0.53081933229E+03  0.18345134743E+03  0.11076416010E+04  0.89568729181E+03 0.  0.
         23    2    4    4    0    0  0.57950174487E+02  0.55615223349E+03  0.44440217860E+03  0.71862761593E+03  0.79175908531E+02 0.  0.
         23    2    4    4    0    0  0.27248988233E+03 -0.25332901202E+02 -0.26095083116E+03  0.38901398507E+03  0.91345785013E+02 0.  0.
          4    1    3    3  502    0 -0.12199379165E+03 -0.12814247081E+03  0.43089961356E+03  0.46580838871E+03  0.00000000000E+00 0. -1.
         -3    1    3    3    0  502 -0.20844626516E+03 -0.40267686148E+03  0.10813324737E+04  0.11725520964E+04  0.00000000000E+00 0.  1.
         11    1    5    5    0    0 -0.87760702011E+01  0.25838933935E+03  0.18201976824E+03  0.31618549323E+03  0.00000000000E+00 0. -1.
        -11    1    5    5    0    0  0.66726244688E+02  0.29776289414E+03  0.26238241036E+03  0.40244212270E+03  0.00000000000E+00 0.  1.
          3    1    6    6  503    0  0.23111809096E+03 -0.37200617212E+02 -0.17295046641E+03  0.29105209451E+03  0.00000000000E+00 0. -1.
         -3    1    6    6    0  503  0.41371791370E+02  0.11867716010E+02 -0.88000364755E+02  0.97961890557E+02  0.00000000000E+00 0.  1.
<mgrwt>
<rscale>  0 0.21599040E+04</rscale>
<asrwt>0</asrwt>
<pdfrwt beam="1">  1        2 0.80793744E-01 0.21599040E+04</pdfrwt>
<pdfrwt beam="2">  1       -1 0.34166811E+00 0.21599040E+04</pdfrwt>
<totfact> 0.10751012E+00</totfact>
</mgrwt>
</event>
<event>
12    6  0.1521603E-007  0.1651805E+04  0.7818608E-02  0.8789339E-01
          2   -1    0    0  501    0  0.00000000000E+00  0.00000000000E+00  0.25613669026E+04  0.25613669026E+04  0.00000000000E+00 0. -1.
         -1   -1    0    0    0  501 -0.00000000000E+00 -0.00000000000E+00 -0.26630892697E+03  0.26630892697E+03  0.00000000000E+00 0.  1.
         24    2    1    2    0    0 -0.12609960721E+03 -0.46322461885E+03  0.13315126072E+04  0.14176856504E+04  0.80178685988E+02 0.  0.
        254    2    1    2    0    0  0.12609960721E+03  0.46322461885E+03  0.96354536846E+03  0.14099901792E+04  0.91059017675E+03 0.  0.
         23    2    4    4    0    0  0.25753575240E+03  0.56329432721E+03  0.10344374934E+04  0.12090948266E+04  0.90687425765E+02 0.  0.
         23    2    4    4    0    0 -0.13143614519E+03 -0.10006970835E+03 -0.70892124944E+02  0.20089535260E+03  0.89687471405E+02 0.  0.
          4    1    3    3  502    0  0.90381885902E+01 -0.76976855089E+02  0.21665980943E+03  0.23010562378E+03  0.00000000000E+00 0. -1.
         -3    1    3    3    0  502 -0.13513779580E+03 -0.38624776376E+03  0.11148527978E+04  0.11875800266E+04  0.00000000000E+00 0.  1.
         11    1    5    5    0    0  0.41012718109E+02  0.12660585083E+03  0.16123620956E+03  0.20906506113E+03  0.00000000000E+00 0. -1.
        -11    1    5    5    0    0  0.21652303429E+03  0.43668847637E+03  0.87320128385E+03  0.10000297655E+04  0.00000000000E+00 0.  1.
          2    1    6    6  503    0 -0.12452404946E+03 -0.45313004016E+02 -0.45119743861E+02  0.13998320797E+03  0.00000000000E+00 0.  1.
         -2    1    6    6    0  503 -0.69120957253E+01 -0.54756704339E+02 -0.25772381083E+02  0.60912144635E+02  0.00000000000E+00 0. -1.
<mgrwt>
<rscale>  0 0.16518049E+04</rscale>
<asrwt>0</asrwt>
<pdfrwt beam="1">  1        2 0.39405643E+00 0.16518049E+04</pdfrwt>
<pdfrwt beam="2">  1       -1 0.40970606E-01 0.16518049E+04</pdfrwt>
<totfact> 0.20369191E+01</totfact>
</mgrwt>
</event>
<event>
12    6  0.1521603E-007  0.2413185E+04  0.7818608E-02  0.8434584E-01
         -1   -1    0    0    0  501 -0.00000000000E+00  0.00000000000E+00  0.71995571280E+03  0.71995571280E+03  0.00000000000E+00 0.  1.
          2   -1    0    0  501    0  0.00000000000E+00 -0.00000000000E+00 -0.20221592364E+04  0.20221592364E+04  0.00000000000E+00 0. -1.
         24    2    1    2    0    0 -0.22361028638E+03 -0.94765290942E+03 -0.16005752041E+03  0.99038569359E+03  0.84839939374E+02 0.  0.
        254    2    1    2    0    0  0.22361028638E+03  0.94765290942E+03 -0.11421460032E+04  0.17517292556E+04  0.90333288188E+03 0.  0.
         23    2    4    4    0    0  0.41038205423E+03  0.10207709568E+04 -0.97183711286E+03  0.14707400391E+04  0.90675862365E+02 0.  0.
         23    2    4    4    0    0 -0.18677176785E+03 -0.73118047392E+02 -0.17030889031E+03  0.28098921649E+03  0.98589449460E+02 0.  0.
          4    1    3    3  502    0  0.34807481463E+01 -0.81026328444E+00 -0.14538723193E+01  0.38582222550E+01  0.00000000000E+00 0. -1.
         -3    1    3    3    0  502 -0.22709103452E+03 -0.94684264614E+03 -0.15860364810E+03  0.98652747133E+03  0.00000000000E+00 0.  1.
         11    1    5    5    0    0  0.37680656293E+02  0.42049963585E+02 -0.44307950694E+02  0.71772040453E+02  0.00000000000E+00 0. -1.
        -11    1    5    5    0    0  0.37270139794E+03  0.97872099323E+03 -0.92752916216E+03  0.13989679987E+04  0.00000000000E+00 0.  1.
          3    1    6    6  503    0 -0.39849860096E+02  0.88832798014E+01 -0.80506757285E+02  0.90267723901E+02  0.00000000000E+00 0. -1.
         -3    1    6    6    0  503 -0.14692190776E+03 -0.82001327194E+02 -0.89802133027E+02  0.19072149259E+03  0.00000000000E+00 0.  1.
<mgrwt>
<rscale>  0 0.24131847E+04</rscale>
<asrwt>0</asrwt>
<pdfrwt beam="1">  1        2 0.31110142E+00 0.24131847E+04</pdfrwt>
<pdfrwt beam="2">  1       -1 0.11076242E+00 0.24131847E+04</pdfrwt>
<totfact> 0.49833663E+00</totfact>
</mgrwt>
</event>
<event>
12    6  0.1521603E-007  0.1735352E+04  0.7818608E-02  0.8741455E-01
          2   -1    0    0  501    0  0.00000000000E+00  0.00000000000E+00  0.22943992645E+04  0.22943992645E+04  0.00000000000E+00 0. -1.
         -1   -1    0    0    0  501 -0.00000000000E+00 -0.00000000000E+00 -0.32813029188E+03  0.32813029188E+03  0.00000000000E+00 0.  1.
         24    2    1    2    0    0  0.41629624037E+03 -0.47298868485E+03  0.80190828484E+03  0.10231007778E+04  0.81593189300E+02 0.  0.
        254    2    1    2    0    0 -0.41629624037E+03  0.47298868485E+03  0.11643606878E+04  0.15994287786E+04  0.89744958114E+03 0.  0.
         23    2    4    4    0    0  0.17268609730E+03  0.41337410507E+03  0.72289983328E+03  0.85554727457E+03  0.93157560791E+02 0.  0.
         23    2    4    4    0    0 -0.58898233767E+03  0.59614579775E+02  0.44146085450E+03  0.74388150398E+03  0.89542803728E+02 0.  0.
          2    1    3    3  502    0  0.39929408995E+03 -0.45857612621E+03  0.74284709880E+03  0.95997377360E+03  0.00000000000E+00 0. -1.
         -1    1    3    3    0  502  0.17002150416E+02 -0.14412558631E+02  0.59061186040E+02  0.63127004217E+02  0.00000000000E+00 0.  1.
         11    1    5    5    0    0 -0.66511678166E+00  0.68194538689E+02  0.76086221193E+02  0.10217656553E+03  0.00000000000E+00 0.  1.
        -11    1    5    5    0    0  0.17335121409E+03  0.34517956638E+03  0.64681361208E+03  0.75337070905E+03  0.00000000000E+00 0. -1.
          3    1    6    6  503    0 -0.51339255548E+03  0.38035433485E+02  0.41398848714E+03  0.66060962580E+03  0.00000000000E+00 0. -1.
         -3    1    6    6    0  503 -0.75589782194E+02  0.21579146290E+02  0.27472367355E+02  0.83271878175E+02  0.00000000000E+00 0.  1.
<mgrwt>
<rscale>  0 0.17353523E+04</rscale>
<asrwt>0</asrwt>
<pdfrwt beam="1">  1        2 0.35298449E+00 0.17353523E+04</pdfrwt>
<pdfrwt beam="2">  1       -1 0.50481585E-01 0.17353523E+04</pdfrwt>
<totfact> 0.19462606E+01</totfact>
</mgrwt>
</event>
<event>
12    6  0.1521603E-007  0.1768856E+04  0.7818608E-02  0.8723039E-01
          2   -1    0    0  501    0  0.00000000000E+00  0.00000000000E+00  0.15763904741E+04  0.15763904741E+04  0.00000000000E+00 0. -1.
         -1   -1    0    0    0  501 -0.00000000000E+00 -0.00000000000E+00 -0.49620478888E+03  0.49620478888E+03  0.00000000000E+00 0.  1.
         24    2    1    2    0    0 -0.46984151828E+03 -0.28459598783E+03 -0.80493395198E+00  0.55496312320E+03  0.78977791807E+02 0.  0.
        254    2    1    2    0    0  0.46984151828E+03  0.28459598783E+03  0.10809906191E+04  0.15176321398E+04  0.91264487308E+03 0.  0.
         23    2    4    4    0    0 -0.22490322106E+03 -0.97941967072E+02  0.19798224636E+03  0.32737045756E+03  0.88319640253E+02 0.  0.
         23    2    4    4    0    0  0.69474473934E+03  0.38253795490E+03  0.88300837278E+03  0.11902616822E+04  0.89518411078E+02 0.  0.
          2    1    3    3  502    0 -0.20525512423E+03 -0.88982278772E+02 -0.24584981768E+02  0.22505984379E+03  0.00000000000E+00 0. -1.
         -1    1    3    3    0  502 -0.26458639405E+03 -0.19561370906E+03  0.23780047816E+02  0.32990327940E+03  0.00000000000E+00 0.  1.
         11    1    5    5    0    0 -0.75941427127E+02 -0.80534448422E+02  0.87274146229E+02  0.14095983235E+03  0.00000000000E+00 0.  1.
        -11    1    5    5    0    0 -0.14896179393E+03 -0.17407518650E+02  0.11070810013E+03  0.18641062521E+03  0.00000000000E+00 0. -1.
          1    1    6    6  503    0  0.11881642199E+03  0.64356035718E+02  0.10368924854E+03  0.17032469501E+03  0.00000000000E+00 0. -1.
         -1    1    6    6    0  503  0.57592831735E+03  0.31818191918E+03  0.77931912424E+03  0.10199369872E+04  0.00000000000E+00 0.  1.
<mgrwt>
<rscale>  0 0.17688556E+04</rscale>
<asrwt>0</asrwt>
<pdfrwt beam="1">  1        2 0.24252161E+00 0.17688556E+04</pdfrwt>
<pdfrwt beam="2">  1       -1 0.76339199E-01 0.17688556E+04</pdfrwt>
<totfact> 0.21354978E+01</totfact>
</mgrwt>
</event>
<event>
12    6  0.1521603E-007  0.2729390E+04  0.7818608E-02  0.8325531E-01
         -1   -1    0    0    0  501 -0.00000000000E+00  0.00000000000E+00  0.51785193213E+03  0.51785193213E+03  0.00000000000E+00 0.  1.
          2   -1    0    0  501    0  0.00000000000E+00 -0.00000000000E+00 -0.35963805077E+04  0.35963805077E+04  0.00000000000E+00 0. -1.
         24    2    1    2    0    0  0.11898360512E+04  0.22971782547E+03 -0.14546151797E+04  0.18949145717E+04  0.79472040677E+02 0.  0.
        254    2    1    2    0    0 -0.11898360512E+04 -0.22971782547E+03 -0.16239133959E+04  0.22193178681E+04  0.90542640470E+03 0.  0.
         23    2    4    4    0    0 -0.44909028779E+03 -0.52664898672E+03 -0.89041076605E+03  0.11311965074E+04  0.87937275078E+02 0.  0.
         23    2    4    4    0    0 -0.74074576337E+03  0.29693116125E+03 -0.73350262987E+03  0.10881213607E+04  0.95444156777E+02 0.  0.
          2    1    3    3  502    0  0.14387823254E+03  0.36005019863E+02 -0.14139020892E+03  0.20491095245E+03  0.00000000000E+00 0. -1.
         -1    1    3    3    0  502  0.10459578186E+04  0.19371280561E+03 -0.13132249708E+04  0.16900036193E+04  0.00000000000E+00 0.  1.
         11    1    5    5    0    0 -0.35599473519E+03 -0.35753622974E+03 -0.65270646993E+03  0.82497887424E+03  0.00000000000E+00 0. -1.
        -11    1    5    5    0    0 -0.93095552604E+02 -0.16911275698E+03 -0.23770429612E+03  0.30621763320E+03  0.00000000000E+00 0.  1.
          4    1    6    6  503    0 -0.42880753980E+03  0.22217598818E+03 -0.43782390200E+03  0.65186489787E+03  0.00000000000E+00 0. -1.
         -4    1    6    6    0  503 -0.31193822357E+03  0.74755173066E+02 -0.29567872787E+03  0.43625646281E+03  0.00000000000E+00 0.  1.
<mgrwt>
<rscale>  0 0.27293901E+04</rscale>
<asrwt>0</asrwt>
<pdfrwt beam="1">  1        2 0.55328933E+00 0.27293901E+04</pdfrwt>
<pdfrwt beam="2">  1       -1 0.79669524E-01 0.27293901E+04</pdfrwt>
<totfact> 0.10876357E+00</totfact>
</mgrwt>
</event>
<event>
12    6  0.1521603E-007  0.2013296E+04  0.7818608E-02  0.8600429E-01
          2   -1    0    0  501    0  0.00000000000E+00  0.00000000000E+00  0.83643902164E+03  0.83643902164E+03  0.00000000000E+00 0. -1.
         -1   -1    0    0    0  501 -0.00000000000E+00 -0.00000000000E+00 -0.12114937769E+04  0.12114937769E+04  0.00000000000E+00 0.  1.
         24    2    1    2    0    0  0.35122079606E+03  0.40150047293E+03  0.45716566061E+03  0.70702406903E+03  0.79523050754E+02 0.  0.
        254    2    1    2    0    0 -0.35122079606E+03 -0.40150047293E+03 -0.83222041591E+03  0.13409087295E+04  0.90602799237E+03 0.  0.
         23    2    4    4    0    0 -0.32229033656E+03  0.22688411777E+03 -0.40599364916E+03  0.57476282520E+03  0.10086623884E+03 0.  0.
         23    2    4    4    0    0 -0.28930459492E+02 -0.62838459070E+03 -0.42622676675E+03  0.76614590434E+03  0.98010839856E+02 0.  0.
          4    1    3    3  502    0  0.25954952922E+03  0.26867744014E+03  0.35911755133E+03  0.51818813247E+03  0.00000000000E+00 0. -1.
         -3    1    3    3    0  502  0.91671266838E+02  0.13282303280E+03  0.98048109275E+02  0.18883593656E+03  0.00000000000E+00 0.  1.
         11    1    5    5    0    0 -0.17939147715E+03  0.72564757088E+02 -0.22954171055E+03  0.30022715222E+03  0.00000000000E+00 0. -1.
        -11    1    5    5    0    0 -0.14289885941E+03  0.15431936068E+03 -0.17645193861E+03  0.27453567299E+03  0.00000000000E+00 0.  1.
          1    1    6    6  503    0  0.12611155521E+02 -0.37876047685E+02 -0.64282073382E+01  0.40434614891E+02  0.00000000000E+00 0. -1.
         -1    1    6    6    0  503 -0.41541615013E+02 -0.59050854302E+03 -0.41979855941E+03  0.72571128945E+03  0.00000000000E+00 0.  1.
<mgrwt>
<rscale>  0 0.20132965E+04</rscale>
<asrwt>0</asrwt>
<pdfrwt beam="1">  1        2 0.12868293E+00 0.20132965E+04</pdfrwt>
<pdfrwt beam="2">  1       -1 0.18638366E+00 0.20132965E+04</pdfrwt>
<totfact> 0.64378389E+00</totfact>
</mgrwt>
</event>
<event>
12    6  0.1521603E-007  0.1534344E+04  0.7818608E-02  0.8861930E-01
         -1   -1    0    0    0  501 -0.00000000000E+00  0.00000000000E+00  0.29897892745E+03  0.29897892745E+03  0.00000000000E+00 0.  1.
          2   -1    0    0  501    0  0.00000000000E+00 -0.00000000000E+00 -0.19685437788E+04  0.19685437788E+04  0.00000000000E+00 0. -1.
         24    2    1    2    0    0  0.23074450133E+03  0.42979841241E+03 -0.34285992263E+03  0.60158217210E+03  0.79865405782E+02 0.  0.
        254    2    1    2    0    0 -0.23074450133E+03 -0.42979841241E+03 -0.13267049287E+04  0.16659405342E+04  0.88161340464E+03 0.  0.
         23    2    4    4    0    0 -0.33020773094E+03 -0.63404445682E+03 -0.11750243549E+04  0.13784367811E+04  0.91412285857E+02 0.  0.
         23    2    4    4    0    0  0.99463229617E+02  0.20424604441E+03 -0.15168057381E+03  0.28750375307E+03  0.89677370917E+02 0.  0.
          4    1    3    3  502    0  0.51605410656E+02  0.64809090380E+02 -0.28375372068E+02  0.87569962572E+02  0.00000000000E+00 0. -1.
         -3    1    3    3    0  502  0.17913909067E+03  0.36498932203E+03 -0.31448455056E+03  0.51401220953E+03  0.00000000000E+00 0.  1.
         11    1    5    5    0    0 -0.28536304652E+03 -0.50282220585E+03 -0.88731650848E+03  0.10590527962E+04  0.00000000000E+00 0.  1.
        -11    1    5    5    0    0 -0.44844684421E+02 -0.13122225097E+03 -0.28770784646E+03  0.31938398486E+03  0.00000000000E+00 0. -1.
          3    1    6    6  503    0  0.31349193656E+02  0.27888549081E+01 -0.22398205851E+02  0.38629383633E+02  0.00000000000E+00 0. -1.
         -3    1    6    6    0  503  0.68114035961E+02  0.20145718950E+03 -0.12928236796E+03  0.24887436943E+03  0.00000000000E+00 0.  1.
<mgrwt>
<rscale>  0 0.15343443E+04</rscale>
<asrwt>0</asrwt>
<pdfrwt beam="1">  1        2 0.30285288E+00 0.15343443E+04</pdfrwt>
<pdfrwt beam="2">  1       -1 0.45996760E-01 0.15343443E+04</pdfrwt>
<totfact> 0.35900467E+01</totfact>
</mgrwt>
</event>
<event>
12    6  0.1521603E-007  0.1884116E+04  0.7818608E-02  0.8662803E-01
          2   -1    0    0  501    0  0.00000000000E+00  0.00000000000E+00  0.12703978487E+04  0.12703978487E+04  0.00000000000E+00 0. -1.
         -1   -1    0    0    0  501 -0.00000000000E+00 -0.00000000000E+00 -0.69857934284E+03  0.69857934284E+03  0.00000000000E+00 0.  1.
         24    2    1    2    0    0 -0.71930222696E+03  0.68378103018E+02  0.18491404361E+03  0.75028280092E+03  0.81607715012E+02 0.  0.
        254    2    1    2    0    0  0.71930222696E+03 -0.68378103018E+02  0.38690446224E+03  0.12186943906E+04  0.90191446164E+03 0.  0.
         23    2    4    4    0    0  0.52728793029E+03 -0.16247049933E+03 -0.19494103731E+03  0.59229535805E+03  0.91556313557E+02 0.  0.
         23    2    4    4    0    0  0.19201429667E+03  0.94092396315E+02  0.58184549955E+03  0.62639903256E+03  0.90048284163E+02 0.  0.
          4    1    3    3  502    0 -0.54480241917E+03  0.27017067271E+02  0.16480193884E+03  0.56982389991E+03  0.00000000000E+00 0. -1.
         -3    1    3    3    0  502 -0.17449980779E+03  0.41361035747E+02  0.20112104764E+02  0.18045890101E+03  0.00000000000E+00 0.  1.
         11    1    5    5    0    0  0.17834288421E+03 -0.99798455010E+02 -0.82110253175E+02  0.22024533967E+03  0.00000000000E+00 0. -1.
        -11    1    5    5    0    0  0.34894504608E+03 -0.62672044323E+02 -0.11283078414E+03  0.37205001838E+03  0.00000000000E+00 0.  1.
          3    1    6    6  503    0  0.88814377431E+01  0.34051380931E+02  0.53840502330E+02  0.64320884407E+02  0.00000000000E+00 0. -1.
         -3    1    6    6    0  503  0.18313285893E+03  0.60041015385E+02  0.52800499722E+03  0.56207814816E+03  0.00000000000E+00 0.  1.
<mgrwt>
<rscale>  0 0.18841164E+04</rscale>
<asrwt>0</asrwt>
<pdfrwt beam="1">  1        2 0.19544582E+00 0.18841164E+04</pdfrwt>
<pdfrwt beam="2">  1       -1 0.10747375E+00 0.18841164E+04</pdfrwt>
<totfact> 0.14829367E+01</totfact>
</mgrwt>
</event>
<event>
12    6  0.1521603E-007  0.2579425E+04  0.7818608E-02  0.8375224E-01
          2   -1    0    0  501    0  0.00000000000E+00  0.00000000000E+00  0.31958556079E+04  0.31958556079E+04  0.00000000000E+00 0. -1.
         -1   -1    0    0    0  501 -0.00000000000E+00 -0.00000000000E+00 -0.52047341096E+03  0.52047341096E+03  0.00000000000E+00 0.  1.
         24    2    1    2    0    0 -0.97030018792E+03  0.53751177408E+03  0.81946186186E+03  0.13812451468E+04  0.76935366225E+02 0.  0.
        254    2    1    2    0    0  0.97030018792E+03 -0.53751177408E+03  0.18559203351E+04  0.23350838721E+04  0.88191555003E+03 0.  0.
         23    2    4    4    0    0  0.83413594778E+03 -0.23239510558E+02  0.13820029131E+04  0.16169313943E+04  0.90621343325E+02 0.  0.
         23    2    4    4    0    0  0.13616424015E+03 -0.51427226353E+03  0.47391742206E+03  0.71815247781E+03  0.90158732906E+02 0.  0.
          2    1    3    3  502    0 -0.70629068077E+02  0.49182130387E+02  0.41691949750E+02  0.95632452027E+02  0.00000000000E+00 0. -1.
         -1    1    3    3    0  502 -0.89967111984E+03  0.48832964370E+03  0.77776991211E+03  0.12856126948E+04  0.00000000000E+00 0.  1.
         11    1    5    5    0    0  0.69051357564E+03 -0.19127032962E+02  0.12049584797E+04  0.13889203646E+04  0.00000000000E+00 0. -1.
        -11    1    5    5    0    0  0.14362237213E+03 -0.41124775954E+01  0.17704443339E+03  0.22801102966E+03  0.00000000000E+00 0.  1.
          1    1    6    6  503    0  0.12752173659E+03 -0.36032995910E+03  0.37171158375E+03  0.53316880462E+03  0.00000000000E+00 0. -1.
         -1    1    6    6    0  503  0.86425035606E+01 -0.15394230443E+03  0.10220583831E+03  0.18498367318E+03  0.00000000000E+00 0.  1.
<mgrwt>
<rscale>  0 0.25794246E+04</rscale>
<asrwt>0</asrwt>
<pdfrwt beam="1">  1        2 0.49167008E+00 0.25794246E+04</pdfrwt>
<pdfrwt beam="2">  1       -1 0.80072834E-01 0.25794246E+04</pdfrwt>
<totfact> 0.20471495E+00</totfact>
</mgrwt>
</event>
<event>
12    6  0.1521603E-007  0.1601743E+04  0.7818608E-02  0.8819478E-01
          2   -1    0    0  501    0  0.00000000000E+00  0.00000000000E+00  0.13799295823E+04  0.13799295823E+04  0.00000000000E+00 0. -1.
         -1   -1    0    0    0  501 -0.00000000000E+00 -0.00000000000E+00 -0.46480262326E+03  0.46480262326E+03  0.00000000000E+00 0.  1.
         24    2    1    2    0    0  0.33557507392E+03  0.38808084828E+03  0.53247563659E+03  0.74375421532E+03  0.80141463689E+02 0.  0.
        254    2    1    2    0    0 -0.33557507392E+03 -0.38808084828E+03  0.38265132241E+03  0.11009779902E+04  0.89583096917E+03 0.  0.
         23    2    4    4    0    0 -0.20918320207E+02  0.26074084370E+03 -0.56173659345E+01  0.27700818436E+03  0.90986898549E+02 0.  0.
         23    2    4    4    0    0 -0.31465675371E+03 -0.64882169198E+03  0.38826868834E+03  0.82396980584E+03  0.90527376818E+02 0.  0.
          2    1    3    3  502    0  0.13155406305E+03  0.12396453981E+03  0.23658379023E+03  0.29773405655E+03  0.00000000000E+00 0. -1.
         -1    1    3    3    0  502  0.20402101087E+03  0.26411630848E+03  0.29589184636E+03  0.44602015876E+03  0.00000000000E+00 0.  1.
         11    1    5    5    0    0  0.27408610945E+02  0.11016417415E+03 -0.28946416303E+02  0.11715490701E+03  0.00000000000E+00 0.  1.
        -11    1    5    5    0    0 -0.48326931152E+02  0.15057666955E+03  0.23329050368E+02  0.15985327734E+03  0.00000000000E+00 0. -1.
          1    1    6    6  503    0 -0.10161339130E+03 -0.31256403610E+03  0.17232951731E+03  0.37110513402E+03  0.00000000000E+00 0. -1.
         -1    1    6    6    0  503 -0.21304336241E+03 -0.33625765588E+03  0.21593917104E+03  0.45286467183E+03  0.00000000000E+00 0.  1.
<mgrwt>
<rscale>  0 0.16017427E+04</rscale>
<asrwt>0</asrwt>
<pdfrwt beam="1">  1        2 0.21229686E+00 0.16017427E+04</pdfrwt>
<pdfrwt beam="2">  1       -1 0.71508097E-01 0.16017427E+04</pdfrwt>
<totfact> 0.32063868E+01</totfact>
</mgrwt>
</event>
<event>
12    6  0.1521603E-007  0.2103518E+04  0.7818608E-02  0.8559695E-01
         -1   -1    0    0    0  501 -0.00000000000E+00  0.00000000000E+00  0.30984395104E+03  0.30984395104E+03  0.00000000000E+00 0.  1.
          2   -1    0    0  501    0  0.00000000000E+00 -0.00000000000E+00 -0.35701759904E+04  0.35701759904E+04  0.00000000000E+00 0. -1.
         24    2    1    2    0    0  0.79985228017E+03 -0.30228400092E+03 -0.11947314914E+04  0.14714908434E+04  0.82235506145E+02 0.  0.
        254    2    1    2    0    0 -0.79985228017E+03  0.30228400092E+03 -0.20656005480E+04  0.24085290980E+04  0.89619613083E+03 0.  0.
         23    2    4    4    0    0 -0.52473947568E+03 -0.24918183131E+03 -0.75223423789E+03  0.95487739554E+03  0.92148735606E+02 0.  0.
         23    2    4    4    0    0 -0.27511280449E+03  0.55146583223E+03 -0.13133663101E+04  0.14536517025E+04  0.91490919475E+02 0.  0.
          2    1    3    3  502    0  0.69685449651E+02 -0.52693448244E+02 -0.12175480760E+03  0.14985624629E+03  0.00000000000E+00 0. -1.
         -1    1    3    3    0  502  0.73016683052E+03 -0.24959055267E+03 -0.10729766838E+04  0.13216345971E+04  0.00000000000E+00 0.  1.
         11    1    5    5    0    0 -0.11065745174E+03 -0.35290371604E+02 -0.20907498393E+03  0.23917113300E+03  0.00000000000E+00 0.  1.
        -11    1    5    5    0    0 -0.41408202394E+03 -0.21389145971E+03 -0.54315925396E+03  0.71570626254E+03  0.00000000000E+00 0. -1.
          3    1    6    6  503    0 -0.28065121246E+03  0.52069755390E+03 -0.12560658145E+04  0.13883776057E+04  0.00000000000E+00 0. -1.
         -3    1    6    6    0  503  0.55384079710E+01  0.30768278329E+02 -0.57300495552E+02  0.65274096736E+02  0.00000000000E+00 0.  1.
<mgrwt>
<rscale>  0 0.21035184E+04</rscale>
<asrwt>0</asrwt>
<pdfrwt beam="1">  1        2 0.54925782E+00 0.21035184E+04</pdfrwt>
<pdfrwt beam="2">  1       -1 0.47668302E-01 0.21035184E+04</pdfrwt>
<totfact> 0.33582624E+00</totfact>
</mgrwt>
</event>
<event>
12    6  0.1521603E-007  0.1836738E+04  0.7818608E-02  0.8687003E-01
         -1   -1    0    0    0  501 -0.00000000000E+00  0.00000000000E+00  0.71751538609E+03  0.71751538609E+03  0.00000000000E+00 0.  1.
          2   -1    0    0  501    0  0.00000000000E+00 -0.00000000000E+00 -0.11754476458E+04  0.11754476458E+04  0.00000000000E+00 0. -1.
         24    2    1    2    0    0 -0.65009800974E+03 -0.13702458574E+02  0.51612461805E+02  0.65720799284E+03  0.80270293391E+02 0.  0.
        254    2    1    2    0    0  0.65009800974E+03  0.13702458574E+02 -0.50954472151E+03  0.12357550391E+04  0.91904271593E+03 0.  0.
         23    2    4    4    0    0 -0.11676028980E+03 -0.21969995762E+03 -0.30398771486E+03  0.40324746020E+03  0.91098555006E+02 0.  0.
         23    2    4    4    0    0  0.76685829954E+03  0.23340241619E+03 -0.20555700666E+03  0.83250757885E+03  0.90922199733E+02 0.  0.
          4    1    3    3  502    0 -0.32482705236E+03 -0.19528274752E+02  0.64007594816E+02  0.33164881977E+03  0.00000000000E+00 0. -1.
         -3    1    3    3    0  502 -0.32527095738E+03  0.58258161778E+01 -0.12395133011E+02  0.32555917307E+03  0.00000000000E+00 0.  1.
         11    1    5    5    0    0 -0.41276023209E+02 -0.12623785550E+02 -0.66148102314E+02  0.78985071332E+02  0.00000000000E+00 0.  1.
        -11    1    5    5    0    0 -0.75484266592E+02 -0.20707617207E+03 -0.23783961254E+03  0.32426238887E+03  0.00000000000E+00 0. -1.
          4    1    6    6  503    0  0.31532052527E+03  0.87472738148E+02 -0.38772230691E+02  0.32951752526E+03  0.00000000000E+00 0.  1.
         -4    1    6    6    0  503  0.45153777426E+03  0.14592967805E+03 -0.16678477597E+03  0.50299005360E+03  0.00000000000E+00 0. -1.
<mgrwt>
<rscale>  0 0.18367382E+04</rscale>
<asrwt>0</asrwt>
<pdfrwt beam="1">  1        2 0.18083810E+00 0.18367382E+04</pdfrwt>
<pdfrwt beam="2">  1       -1 0.11038698E+00 0.18367382E+04</pdfrwt>
<totfact> 0.15920649E+01</totfact>
</mgrwt>
</event>
<event>
12    6  0.1521603E-007  0.2201644E+04  0.7818608E-02  0.8517744E-01
          2   -1    0    0  501    0  0.00000000000E+00  0.00000000000E+00  0.27574699751E+04  0.27574699751E+04  0.00000000000E+00 0. -1.
         -1   -1    0    0    0  501 -0.00000000000E+00 -0.00000000000E+00 -0.43946428961E+03  0.43946428961E+03  0.00000000000E+00 0.  1.
         24    2    1    2    0    0  0.29980590835E+03 -0.86593040712E+03  0.93585403089E+03  0.13122333916E+04  0.80091536437E+02 0.  0.
        254    2    1    2    0    0 -0.29980590835E+03  0.86593040712E+03  0.13821516546E+04  0.18847008731E+04  0.89556414185E+03 0.  0.
         23    2    4    4    0    0 -0.39958948476E+03  0.97628590264E+03  0.96482601658E+03  0.14324744809E+04  0.91038322724E+02 0.  0.
         23    2    4    4    0    0  0.99783576403E+02 -0.11035549552E+03  0.41732563806E+03  0.45222639223E+03  0.90625184870E+02 0.  0.
          2    1    3    3  502    0  0.17976161338E+03 -0.45257538571E+03  0.44881715492E+03  0.66225037255E+03  0.00000000000E+00 0. -1.
         -1    1    3    3    0  502  0.12004429497E+03 -0.41335502141E+03  0.48703687597E+03  0.64998301903E+03  0.00000000000E+00 0.  1.
         11    1    5    5    0    0 -0.37374284769E+03  0.95005247330E+03  0.94219305295E+03  0.13892484181E+04  0.00000000000E+00 0. -1.
        -11    1    5    5    0    0 -0.25846637071E+02  0.26233429345E+02  0.22632963625E+02  0.43226062804E+02  0.00000000000E+00 0.  1.
          3    1    6    6  503    0  0.10846232784E+03 -0.11504772106E+03  0.41135114247E+03  0.44069242913E+03  0.00000000000E+00 0. -1.
         -3    1    6    6    0  503 -0.86787514417E+01  0.46922255439E+01  0.59744955949E+01  0.11533963098E+02  0.00000000000E+00 0.  1.
<mgrwt>
<rscale>  0 0.22016445E+04</rscale>
<asrwt>0</asrwt>
<pdfrwt beam="1">  1        2 0.42422614E+00 0.22016445E+04</pdfrwt>
<pdfrwt beam="2">  1       -1 0.67609892E-01 0.22016445E+04</pdfrwt>
<totfact> 0.56550563E+00</totfact>
</mgrwt>
</event>
<event>
12    6  0.1521603E-007  0.2527571E+04  0.7818608E-02  0.8393229E-01
          2   -1    0    0  501    0  0.00000000000E+00  0.00000000000E+00  0.14134877915E+04  0.14134877915E+04  0.00000000000E+00 0. -1.
         -1   -1    0    0    0  501 -0.00000000000E+00 -0.00000000000E+00 -0.11299379379E+04  0.11299379379E+04  0.00000000000E+00 0.  1.
         24    2    1    2    0    0 -0.61820175344E+03  0.40340277708E+03  0.94030140417E+03  0.11978014147E+04  0.75195011690E+02 0.  0.
        254    2    1    2    0    0  0.61820175344E+03 -0.40340277708E+03 -0.65675155054E+03  0.13456243147E+04  0.91349602556E+03 0.  0.
         23    2    4    4    0    0  0.41263098534E+03  0.38183478165E+01 -0.75864953489E+03  0.86894551716E+03  0.96115998518E+02 0.  0.
         23    2    4    4    0    0  0.20557076809E+03 -0.40722112490E+03  0.10189798435E+03  0.47667879756E+03  0.93547269142E+02 0.  0.
          2    1    3    3  502    0 -0.49306722496E+03  0.29662982637E+03  0.76714642258E+03  0.95896724443E+03  0.00000000000E+00 0. -1.
         -1    1    3    3    0  502 -0.12513452848E+03  0.10677295071E+03  0.17315498159E+03  0.23883417023E+03  0.00000000000E+00 0.  1.
         11    1    5    5    0    0  0.31656526519E+01  0.76448143890E+01 -0.48462253664E+02  0.49163549241E+02  0.00000000000E+00 0. -1.
        -11    1    5    5    0    0  0.40946533269E+03 -0.38264665725E+01 -0.71018728122E+03  0.81978196792E+03  0.00000000000E+00 0.  1.
          3    1    6    6  503    0  0.17563316575E+03 -0.33797319089E+03  0.11953739822E+03  0.39920179890E+03  0.00000000000E+00 0.  1.
         -3    1    6    6    0  503  0.29937602345E+02 -0.69247934012E+02 -0.17639413871E+02  0.77476998656E+02  0.00000000000E+00 0. -1.
<mgrwt>
<rscale>  0 0.25275708E+04</rscale>
<asrwt>0</asrwt>
<pdfrwt beam="1">  1        2 0.21745966E+00 0.25275708E+04</pdfrwt>
<pdfrwt beam="2">  1       -1 0.17383661E+00 0.25275708E+04</pdfrwt>
<totfact> 0.33239219E+00</totfact>
</mgrwt>
</event>
<event>
12    6  0.1521603E-007  0.1874106E+04  0.7818608E-02  0.8667854E-01
          2   -1    0    0  501    0  0.00000000000E+00  0.00000000000E+00  0.86250917032E+03  0.86250917032E+03  0.00000000000E+00 0. -1.
         -1   -1    0    0    0  501 -0.00000000000E+00 -0.00000000000E+00 -0.10180389194E+04  0.10180389194E+04  0.00000000000E+00 0.  1.
         24    2    1    2    0    0 -0.24668899116E+03  0.61772744150E+03 -0.31365107828E+03  0.73970284406E+03  0.79628187600E+02 0.  0.
        254    2    1    2    0    0  0.24668899116E+03 -0.61772744150E+03  0.15812132915E+03  0.11408452457E+04  0.91328137481E+03 0.  0.
         23    2    4    4    0    0  0.28904056115E+03  0.10229041385E+03  0.25361283960E+03  0.40764786530E+03  0.88597601088E+02 0.  0.
         23    2    4    4    0    0 -0.42351569995E+02 -0.72001785535E+03 -0.95491510446E+02  0.73319738040E+03  0.90776663041E+02 0.  0.
          4    1    3    3  502    0 -0.39842086359E+02  0.10009240023E+03 -0.84881421817E+02  0.13715223731E+03  0.00000000000E+00 0. -1.
         -3    1    3    3    0  502 -0.20684690480E+03  0.51763504127E+03 -0.22876965646E+03  0.60255060674E+03  0.00000000000E+00 0.  1.
         11    1    5    5    0    0  0.26295772943E+03  0.11851715425E+03  0.22939007102E+03  0.36852800165E+03  0.00000000000E+00 0. -1.
        -11    1    5    5    0    0  0.26082831718E+02 -0.16226740394E+02  0.24222768580E+02  0.39119863649E+02  0.00000000000E+00 0.  1.
          2    1    6    6  503    0 -0.36922538786E+02 -0.46303492438E+03 -0.18495454043E+02  0.46487277495E+03  0.00000000000E+00 0. -1.
         -2    1    6    6    0  503 -0.54290312090E+01 -0.25698293097E+03 -0.76996056403E+02  0.26832460546E+03  0.00000000000E+00 0.  1.
<mgrwt>
<rscale>  0 0.18741056E+04</rscale>
<asrwt>0</asrwt>
<pdfrwt beam="1">  1        2 0.13269372E+00 0.18741056E+04</pdfrwt>
<pdfrwt beam="2">  1       -1 0.15662137E+00 0.18741056E+04</pdfrwt>
<totfact> 0.10332427E+01</totfact>
</mgrwt>
</event>
<event>
12    6  0.1521603E-007  0.2545685E+04  0.7818608E-02  0.8386889E-01
         -1   -1    0    0    0  501 -0.00000000000E+00  0.00000000000E+00  0.14521102087E+04  0.14521102087E+04  0.00000000000E+00 0.  1.
          2   -1    0    0  501    0  0.00000000000E+00 -0.00000000000E+00 -0.11157056222E+04  0.11157056222E+04  0.00000000000E+00 0. -1.
         24    2    1    2    0    0  0.10872255008E+04 -0.33368294331E+02 -0.92590479558E+02  0.10946498898E+04  0.80701001598E+02 0.  0.
        254    2    1    2    0    0 -0.10872255008E+04  0.33368294331E+02  0.42899506606E+03  0.14731659411E+04  0.89610735438E+03 0.  0.
         23    2    4    4    0    0 -0.10819129081E+04 -0.24807680390E+03  0.33195589305E+03  0.11617933425E+04  0.86552957317E+02 0.  0.
         23    2    4    4    0    0 -0.53125926777E+01  0.28144509823E+03  0.97039173019E+02  0.31137259855E+03  0.91086371473E+02 0.  0.
          2    1    3    3  502    0  0.92675182626E+03 -0.22532512854E+02 -0.50528154874E+02  0.92840172126E+03  0.00000000000E+00 0. -1.
         -1    1    3    3    0  502  0.16047367453E+03 -0.10835781476E+02 -0.42062324684E+02  0.16624816851E+03  0.00000000000E+00 0.  1.
         11    1    5    5    0    0 -0.19622754982E+02 -0.15688947535E+02  0.14420482684E+02  0.28968015270E+02  0.00000000000E+00 0. -1.
        -11    1    5    5    0    0 -0.10622901531E+04 -0.23238785636E+03  0.31753541036E+03  0.11328253272E+04  0.00000000000E+00 0.  1.
          3    1    6    6  503    0 -0.39013553841E+02  0.62944210878E+02  0.15005041483E+02  0.75559131389E+02  0.00000000000E+00 0. -1.
         -3    1    6    6    0  503  0.33700961163E+02  0.21850088735E+03  0.82034131536E+02  0.23581346716E+03  0.00000000000E+00 0.  1.
<mgrwt>
<rscale>  0 0.25456846E+04</rscale>
<asrwt>0</asrwt>
<pdfrwt beam="1">  1        2 0.17164702E+00 0.25456846E+04</pdfrwt>
<pdfrwt beam="2">  1       -1 0.22340157E+00 0.25456846E+04</pdfrwt>
<totfact> 0.22533735E+00</totfact>
</mgrwt>
</event>
<event>
12    6  0.1521603E-007  0.1581281E+04  0.7818608E-02  0.8832131E-01
          2   -1    0    0  501    0  0.00000000000E+00  0.00000000000E+00  0.28993004275E+04  0.28993004275E+04  0.00000000000E+00 0. -1.
         -1   -1    0    0    0  501 -0.00000000000E+00 -0.00000000000E+00 -0.21560814493E+03  0.21560814493E+03  0.00000000000E+00 0.  1.
         24    2    1    2    0    0  0.85673629383E+02  0.78057332151E+02 -0.95668472339E+02  0.16911791772E+03  0.77559626227E+02 0.  0.
        254    2    1    2    0    0 -0.85673629383E+02 -0.78057332151E+02  0.27793607549E+04  0.29457906547E+04  0.96922827940E+03 0.  0.
         23    2    4    4    0    0  0.42061523060E+03 -0.11751594505E+03  0.15416321288E+04  0.16050095323E+04  0.93267404609E+02 0.  0.
         23    2    4    4    0    0 -0.50628885998E+03  0.39458612903E+02  0.12377286261E+04  0.13407811224E+04  0.88523863326E+02 0.  0.
          2    1    3    3  502    0  0.24468754289E+02  0.74057004168E+02 -0.49954164744E+02  0.92620615297E+02  0.00000000000E+00 0. -1.
         -1    1    3    3    0  502  0.61204875094E+02  0.40003279830E+01 -0.45714307594E+02  0.76497302424E+02  0.00000000000E+00 0.  1.
         11    1    5    5    0    0  0.33124984667E+03 -0.87108194452E+02  0.10517640694E+04  0.11061292674E+04  0.00000000000E+00 0. -1.
        -11    1    5    5    0    0  0.89365383931E+02 -0.30407750601E+02  0.48986805939E+03  0.49888026495E+03  0.00000000000E+00 0.  1.
          3    1    6    6  503    0 -0.30078430321E+03 -0.19303921960E+02  0.70011257994E+03  0.76223451972E+03  0.00000000000E+00 0. -1.
         -3    1    6    6    0  503 -0.20550455677E+03  0.58762534863E+02  0.53761604614E+03  0.57854660264E+03  0.00000000000E+00 0.  1.
<mgrwt>
<rscale>  0 0.15812815E+04</rscale>
<asrwt>0</asrwt>
<pdfrwt beam="1">  1        2 0.44604619E+00 0.15812815E+04</pdfrwt>
<pdfrwt beam="2">  1       -1 0.33170486E-01 0.15812815E+04</pdfrwt>
<totfact> 0.18883162E+01</totfact>
</mgrwt>
</event>
<event>
12    6  0.1521603E-007  0.3291168E+04  0.7818608E-02  0.8165146E-01
         -1   -1    0    0    0  501 -0.00000000000E+00  0.00000000000E+00  0.29924400587E+04  0.29924400587E+04  0.00000000000E+00 0.  1.
          2   -1    0    0  501    0  0.00000000000E+00 -0.00000000000E+00 -0.90492931278E+03  0.90492931278E+03  0.00000000000E+00 0. -1.
         24    2    1    2    0    0 -0.13327931077E+04  0.70688715901E+03  0.11847165986E+04  0.19199444693E+04  0.81279903473E+02 0.  0.
        254    2    1    2    0    0  0.13327931077E+04 -0.70688715901E+03  0.90279414729E+03  0.19774249022E+04  0.90506632247E+03 0.  0.
         23    2    4    4    0    0  0.12543764725E+04 -0.36119844159E+03  0.93777296997E+03  0.16098149749E+04  0.90340806825E+02 0.  0.
         23    2    4    4    0    0  0.78416635196E+02 -0.34568871742E+03 -0.34978822674E+02  0.36760992729E+03  0.90904799547E+02 0.  0.
          2    1    3    3  502    0 -0.24879626157E+03  0.16267088380E+03  0.25577868525E+03  0.39215319970E+03  0.00000000000E+00 0. -1.
         -1    1    3    3    0  502 -0.10839968461E+04  0.54421627521E+03  0.92893791340E+03  0.15277912696E+04  0.00000000000E+00 0.  1.
         11    1    5    5    0    0  0.39237065295E+03 -0.69797068624E+02  0.28836647638E+03  0.49191623757E+03  0.00000000000E+00 0.  1.
        -11    1    5    5    0    0  0.86200581951E+03 -0.29140137297E+03  0.64940649359E+03  0.11178987373E+04  0.00000000000E+00 0. -1.
          2    1    6    6  503    0  0.91637362438E+02 -0.30540296347E+03 -0.49746551746E+02  0.32271209414E+03  0.00000000000E+00 0. -1.
         -2    1    6    6    0  503 -0.13220727242E+02 -0.40285753946E+02  0.14767729072E+02  0.44897833152E+02  0.00000000000E+00 0.  1.
<mgrwt>
<rscale>  0 0.32911680E+04</rscale>
<asrwt>0</asrwt>
<pdfrwt beam="1">  1        2 0.13921990E+00 0.32911680E+04</pdfrwt>
<pdfrwt beam="2">  1       -1 0.46037539E+00 0.32911680E+04</pdfrwt>
<totfact> 0.76008223E-02</totfact>
</mgrwt>
</event>
<event>
12    6  0.1521603E-007  0.2313744E+04  0.7818608E-02  0.8472522E-01
          2   -1    0    0  501    0  0.00000000000E+00  0.00000000000E+00  0.32056737489E+04  0.32056737489E+04  0.00000000000E+00 0. -1.
         -1   -1    0    0    0  501 -0.00000000000E+00 -0.00000000000E+00 -0.41749488286E+03  0.41749488286E+03  0.00000000000E+00 0.  1.
         24    2    1    2    0    0  0.32803117329E+03  0.24008133144E+03 -0.20982226105E+03  0.46425811790E+03  0.79162632901E+02 0.  0.
        254    2    1    2    0    0 -0.32803117329E+03 -0.24008133144E+03  0.29980011271E+04  0.31589105138E+04  0.90854905215E+03 0.  0.
         23    2    4    4    0    0 -0.43916365437E+03 -0.38209245599E+03  0.10807884042E+04  0.12310254080E+04  0.91981629239E+02 0.  0.
         23    2    4    4    0    0  0.11113248108E+03  0.14201112454E+03  0.19172127228E+04  0.19278851059E+04  0.92297177395E+02 0.  0.
          2    1    3    3  502    0  0.14606047722E+03  0.88153117017E+02 -0.12871639376E+03  0.21371135924E+03  0.00000000000E+00 0. -1.
         -1    1    3    3    0  502  0.18197069607E+03  0.15192821443E+03 -0.81105867291E+02  0.25054675866E+03  0.00000000000E+00 0.  1.
         11    1    5    5    0    0 -0.32109700617E+03 -0.22984197027E+03  0.68019101902E+03  0.78650520725E+03  0.00000000000E+00 0.  1.
        -11    1    5    5    0    0 -0.11806664820E+03 -0.15225048572E+03  0.40059738522E+03  0.44452020074E+03  0.00000000000E+00 0. -1.
          3    1    6    6  503    0  0.74151648166E+02  0.10427820402E+03  0.87199171400E+03  0.88132965458E+03  0.00000000000E+00 0. -1.
         -3    1    6    6    0  503  0.36980832912E+02  0.37732920526E+02  0.10452210088E+04  0.10465554513E+04  0.00000000000E+00 0.  1.
<mgrwt>
<rscale>  0 0.23137436E+04</rscale>
<asrwt>0</asrwt>
<pdfrwt beam="1">  1        2 0.49318056E+00 0.23137436E+04</pdfrwt>
<pdfrwt beam="2">  1       -1 0.64229984E-01 0.23137436E+04</pdfrwt>
<totfact> 0.32604749E+00</totfact>
</mgrwt>
</event>
<event>
12    6  0.1521603E-007  0.9996849E+03  0.7818608E-02  0.9308890E-01
         -3   -1    0    0    0  501 -0.00000000000E+00  0.00000000000E+00  0.70541714099E+03  0.70541714099E+03  0.00000000000E+00 0.  1.
          4   -1    0    0  501    0  0.00000000000E+00 -0.00000000000E+00 -0.35417694102E+03  0.35417694102E+03  0.00000000000E+00 0. -1.
         24    2    1    2    0    0 -0.26087921507E+01  0.13997327922E+01  0.96909048504E+02  0.12471391210E+03  0.78443808813E+02 0.  0.
        254    2    1    2    0    0  0.26087921507E+01 -0.13997327922E+01  0.25433115147E+03  0.93488016991E+03  0.89961538027E+03 0.  0.
         23    2    4    4    0    0 -0.42700072213E+03 -0.10021666624E+03  0.10137221464E+03  0.46010787489E+03  0.95131139717E+02 0.  0.
         23    2    4    4    0    0  0.42960951428E+03  0.98816933449E+02  0.15295893683E+03  0.47477229502E+03  0.87653720189E+02 0.  0.
          2    1    3    3  502    0 -0.12950897152E+02  0.36206179254E+02  0.30711678596E+02  0.49211994020E+02  0.00000000000E+00 0. -1.
         -1    1    3    3    0  502  0.10342105002E+02 -0.34806446462E+02  0.66197369908E+02  0.75501918081E+02  0.00000000000E+00 0.  1.
         11    1    5    5    0    0 -0.35137460408E+03 -0.11881180687E+03  0.84579469565E+02  0.38043927835E+03  0.00000000000E+00 0.  1.
        -11    1    5    5    0    0 -0.75626118053E+02  0.18595140634E+02  0.16792745077E+02  0.79668596537E+02  0.00000000000E+00 0. -1.
          1    1    6    6  503    0  0.17128660661E+03  0.67160956251E+02  0.99201337392E+02  0.20902296761E+03  0.00000000000E+00 0. -1.
         -1    1    6    6    0  503  0.25832290767E+03  0.31655977198E+02  0.53757599437E+02  0.26574932740E+03  0.00000000000E+00 0.  1.
<mgrwt>
<rscale>  0 0.99968492E+03</rscale>
<asrwt>0</asrwt>
<pdfrwt beam="1">  1        4 0.54488760E-01 0.99968492E+03</pdfrwt>
<pdfrwt beam="2">  1       -3 0.10852571E+00 0.99968492E+03</pdfrwt>
<totfact> 0.52843905E+00</totfact>
</mgrwt>
</event>
<event>
12    6  0.1521603E-007  0.1769630E+04  0.7818608E-02  0.8722618E-01
          2   -1    0    0  501    0  0.00000000000E+00  0.00000000000E+00  0.18835549139E+04  0.18835549139E+04  0.00000000000E+00 0. -1.
         -1   -1    0    0    0  501 -0.00000000000E+00 -0.00000000000E+00 -0.41564909998E+03  0.41564909998E+03  0.00000000000E+00 0.  1.
         24    2    1    2    0    0  0.80590674377E+02  0.64380099474E+03  0.62974416059E+03  0.90772231146E+03  0.80046919380E+02 0.  0.
        254    2    1    2    0    0 -0.80590674377E+02 -0.64380099474E+03  0.83816165328E+03  0.13914817024E+04  0.90151638554E+03 0.  0.
         23    2    4    4    0    0 -0.33590808128E+03 -0.64381704801E+03  0.84747294745E+03  0.11197921347E+04  0.91593656062E+02 0.  0.
         23    2    4    4    0    0  0.25531740691E+03  0.16053272537E-01 -0.93112941735E+01  0.27168956770E+03  0.92420465652E+02 0.  0.
          4    1    3    3  502    0  0.29201686590E+02  0.36698969759E+03  0.40634953540E+03  0.54831936092E+03  0.00000000000E+00 0. -1.
         -3    1    3    3    0  502  0.51388987787E+02  0.27681129715E+03  0.22339462519E+03  0.35940295054E+03  0.00000000000E+00 0.  1.
         11    1    5    5    0    0 -0.15874712706E+03 -0.39015207394E+03  0.45520389688E+03  0.62018535849E+03  0.00000000000E+00 0. -1.
        -11    1    5    5    0    0 -0.17716095422E+03 -0.25366497406E+03  0.39226905057E+03  0.49960677618E+03  0.00000000000E+00 0.  1.
          1    1    6    6  503    0  0.12482642483E+03  0.43509468799E+02  0.11003241555E+02  0.13264909173E+03  0.00000000000E+00 0. -1.
         -1    1    6    6    0  503  0.13049098208E+03 -0.43493415527E+02 -0.20314535729E+02  0.13904047598E+03  0.00000000000E+00 0.  1.
<mgrwt>
<rscale>  0 0.17696304E+04</rscale>
<asrwt>0</asrwt>
<pdfrwt beam="1">  1        2 0.28977767E+00 0.17696304E+04</pdfrwt>
<pdfrwt beam="2">  1       -1 0.63946017E-01 0.17696304E+04</pdfrwt>
<totfact> 0.20728979E+01</totfact>
</mgrwt>
</event>
<event>
12    6  0.1521603E-007  0.1165118E+04  0.7818608E-02  0.9143949E-01
          2   -1    0    0  501    0  0.00000000000E+00  0.00000000000E+00  0.27417923710E+04  0.27417923710E+04  0.00000000000E+00 0. -1.
         -1   -1    0    0    0  501 -0.00000000000E+00 -0.00000000000E+00 -0.12377847624E+03  0.12377847624E+03  0.00000000000E+00 0.  1.
         24    2    1    2    0    0 -0.16934091134E+03  0.14390946009E+03  0.59145185171E+03  0.63675941766E+03  0.79126393389E+02 0.  0.
        254    2    1    2    0    0  0.16934091134E+03 -0.14390946009E+03  0.20265620431E+04  0.22288114296E+04  0.90069994858E+03 0.  0.
         23    2    4    4    0    0  0.84429465775E+02 -0.41376469667E+03  0.18088975739E+04  0.18599233186E+04  0.94205940121E+02 0.  0.
         23    2    4    4    0    0  0.84911445565E+02  0.26985523659E+03  0.21766446916E+03  0.36888811104E+03  0.93106471471E+02 0.  0.
          4    1    3    3  502    0 -0.43528841238E+02  0.97844867748E+01  0.19037437160E+03  0.19553234403E+03  0.00000000000E+00 0. -1.
         -3    1    3    3    0  502 -0.12581207010E+03  0.13412497331E+03  0.40107748010E+03  0.44122707362E+03  0.00000000000E+00 0.  1.
         11    1    5    5    0    0 -0.61254054086E+01 -0.81336920157E+02  0.49120812184E+03  0.49793436730E+03  0.00000000000E+00 0. -1.
        -11    1    5    5    0    0  0.90554871183E+02 -0.33242777652E+03  0.13176894521E+04  0.13619889513E+04  0.00000000000E+00 0.  1.
          2    1    6    6  503    0  0.58346478174E+02  0.68168194675E+02  0.37867911891E+02  0.97391955682E+02  0.00000000000E+00 0. -1.
         -2    1    6    6    0  503  0.26564967392E+02  0.20168704191E+03  0.17979655727E+03  0.27149615536E+03  0.00000000000E+00 0.  1.
<mgrwt>
<rscale>  0 0.11651178E+04</rscale>
<asrwt>0</asrwt>
<pdfrwt beam="1">  1        2 0.42181416E+00 0.11651178E+04</pdfrwt>
<pdfrwt beam="2">  1       -1 0.19042845E-01 0.11651178E+04</pdfrwt>
<totfact> 0.63391612E+01</totfact>
</mgrwt>
</event>
<event>
12    6  0.1521603E-007  0.1943558E+04  0.7818608E-02  0.8633473E-01
          2   -1    0    0  501    0  0.00000000000E+00  0.00000000000E+00  0.10050568238E+04  0.10050568238E+04  0.00000000000E+00 0. -1.
         -1   -1    0    0    0  501 -0.00000000000E+00 -0.00000000000E+00 -0.93960330304E+03  0.93960330304E+03  0.00000000000E+00 0.  1.
         24    2    1    2    0    0 -0.75934054442E+03  0.49980396196E+02  0.76200651684E+02  0.76898921661E+03  0.80260659984E+02 0.  0.
        254    2    1    2    0    0  0.75934054442E+03 -0.49980396196E+02 -0.10747130887E+02  0.11756709103E+04  0.89609736412E+03 0.  0.
         23    2    4    4    0    0 -0.51891297224E+02 -0.29242792935E+03  0.76156812037E+02  0.31969286601E+03  0.90536555952E+02 0.  0.
         23    2    4    4    0    0  0.81123184165E+03  0.24244753316E+03 -0.86903942924E+02  0.85597804425E+03  0.90929696462E+02 0.  0.
          2    1    3    3  502    0 -0.10912803143E+03  0.87026234156E+01  0.39684192474E+02  0.11644525766E+03  0.00000000000E+00 0. -1.
         -1    1    3    3    0  502 -0.65021251299E+03  0.41277772781E+02  0.36516459209E+02  0.65254395896E+03  0.00000000000E+00 0.  1.
         11    1    5    5    0    0  0.10294446108E+02 -0.46240390193E+00  0.90811198781E+01  0.13735216645E+02  0.00000000000E+00 0. -1.
        -11    1    5    5    0    0 -0.62185743332E+02 -0.29196552545E+03  0.67075692159E+02  0.30595764936E+03  0.00000000000E+00 0.  1.
          2    1    6    6  503    0  0.60760841438E+01  0.11864244784E+02 -0.58020408495E+01  0.14537633261E+02  0.00000000000E+00 0. -1.
         -2    1    6    6    0  503  0.80515575751E+03  0.23058328837E+03 -0.81101902074E+02  0.84144041099E+03  0.00000000000E+00 0.  1.
<mgrwt>
<rscale>  0 0.19435583E+04</rscale>
<asrwt>0</asrwt>
<pdfrwt beam="1">  1        2 0.15462413E+00 0.19435583E+04</pdfrwt>
<pdfrwt beam="2">  1       -1 0.14455435E+00 0.19435583E+04</pdfrwt>
<totfact> 0.10254089E+01</totfact>
</mgrwt>
</event>
<event>
12    6  0.1521603E-007  0.2144684E+04  0.7818608E-02  0.8541811E-01
         -1   -1    0    0    0  501 -0.00000000000E+00  0.00000000000E+00  0.54722057442E+03  0.54722057442E+03  0.00000000000E+00 0.  1.
          2   -1    0    0  501    0  0.00000000000E+00 -0.00000000000E+00 -0.21013790111E+04  0.21013790111E+04  0.00000000000E+00 0. -1.
         24    2    1    2    0    0 -0.20796049065E+03 -0.61571800103E+03 -0.13618954136E+04  0.15111211465E+04  0.79823426319E+02 0.  0.
        254    2    1    2    0    0  0.20796049065E+03  0.61571800103E+03 -0.19226302312E+03  0.11374784390E+04  0.91352936831E+03 0.  0.
         23    2    4    4    0    0  0.15228801531E+02 -0.11893648810E+03  0.22175902405E+03  0.26826086946E+03  0.91700734675E+02 0.  0.
         23    2    4    4    0    0  0.19273168912E+03  0.73465448913E+03 -0.41402204717E+03  0.86921756958E+03  0.85218573950E+02 0.  0.
          2    1    3    3  502    0 -0.97931216253E+02 -0.40383654826E+03 -0.89266649600E+03  0.98464610592E+03  0.00000000000E+00 0. -1.
         -1    1    3    3    0  502 -0.11002927440E+03 -0.21188145277E+03 -0.46922891758E+03  0.52647504057E+03  0.00000000000E+00 0.  1.
         11    1    5    5    0    0  0.22945280698E+01 -0.50331122440E+02  0.19046675367E+02  0.53863369627E+02  0.00000000000E+00 0. -1.
        -11    1    5    5    0    0  0.12934273461E+02 -0.68605365657E+02  0.20271234868E+03  0.21439749983E+03  0.00000000000E+00 0.  1.
          1    1    6    6  503    0  0.17921541479E+02  0.22014452131E+03 -0.11744915291E+03  0.25015814085E+03  0.00000000000E+00 0. -1.
         -1    1    6    6    0  503  0.17481014764E+03  0.51450996781E+03 -0.29657289426E+03  0.61905942873E+03  0.00000000000E+00 0.  1.
<mgrwt>
<rscale>  0 0.21446844E+04</rscale>
<asrwt>0</asrwt>
<pdfrwt beam="1">  1        2 0.32328908E+00 0.21446844E+04</pdfrwt>
<pdfrwt beam="2">  1       -1 0.84187780E-01 0.21446844E+04</pdfrwt>
<totfact> 0.85686766E+00</totfact>
</mgrwt>
</event>
<event>
12    6  0.1521603E-007  0.3005479E+04  0.7818608E-02  0.8242168E-01
         -1   -1    0    0    0  501 -0.00000000000E+00  0.00000000000E+00  0.11866342132E+04  0.11866342132E+04  0.00000000000E+00 0.  1.
          2   -1    0    0  501    0  0.00000000000E+00 -0.00000000000E+00 -0.19030516397E+04  0.19030516397E+04  0.00000000000E+00 0. -1.
         24    2    1    2    0    0  0.12642893781E+04  0.18889156256E+03  0.18495772508E+03  0.12940316301E+04  0.78745449582E+02 0.  0.
        254    2    1    2    0    0 -0.12642893781E+04 -0.18889156256E+03 -0.90137515160E+03  0.17956542228E+04  0.88192361909E+03 0.  0.
         23    2    4    4    0    0 -0.60731822431E+03 -0.28101442614E+03 -0.27853841151E+01  0.67508787295E+03  0.89058096523E+02 0.  0.
         23    2    4    4    0    0 -0.65697115376E+03  0.92122863582E+02 -0.89858976748E+03  0.11205663498E+04  0.90042519150E+02 0.  0.
          2    1    3    3  502    0  0.40365251090E+03  0.36439912419E+02  0.30361445155E+02  0.40642961768E+03  0.00000000000E+00 0. -1.
         -1    1    3    3    0  502  0.86063686717E+03  0.15245165014E+03  0.15459627992E+03  0.88760201247E+03  0.00000000000E+00 0.  1.
         11    1    5    5    0    0 -0.57894895146E+03 -0.26136915510E+03  0.16751244378E+02  0.63543396810E+03  0.00000000000E+00 0. -1.
        -11    1    5    5    0    0 -0.28369272856E+02 -0.19645271045E+02 -0.19536628493E+02  0.39653904848E+02  0.00000000000E+00 0.  1.
          4    1    6    6  503    0 -0.64409311117E+03  0.75637264424E+02 -0.86824350430E+03  0.10837083161E+04  0.00000000000E+00 0. -1.
         -4    1    6    6    0  503 -0.12878042596E+02  0.16485599158E+02 -0.30346263184E+02  0.36858033723E+02  0.00000000000E+00 0.  1.
<mgrwt>
<rscale>  0 0.30054791E+04</rscale>
<asrwt>0</asrwt>
<pdfrwt beam="1">  1        2 0.29277717E+00 0.30054791E+04</pdfrwt>
<pdfrwt beam="2">  1       -1 0.18255911E+00 0.30054791E+04</pdfrwt>
<totfact> 0.14690518E+00</totfact>
</mgrwt>
</event>
<event>
12    6  0.1521603E-007  0.3372644E+04  0.7818608E-02  0.8144653E-01
         -1   -1    0    0    0  501 -0.00000000000E+00  0.00000000000E+00  0.16843748698E+04  0.16843748698E+04  0.00000000000E+00 0.  1.
          2   -1    0    0  501    0  0.00000000000E+00 -0.00000000000E+00 -0.16882714528E+04  0.16882714528E+04  0.00000000000E+00 0. -1.
         24    2    1    2    0    0  0.12767109349E+04  0.46711042077E+03 -0.77459785994E+03  0.15667870919E+04  0.81467723698E+02 0.  0.
        254    2    1    2    0    0 -0.12767109349E+04 -0.46711042077E+03  0.77070127694E+03  0.18058592308E+04  0.90496637869E+03 0.  0.
         23    2    4    4    0    0 -0.60048878160E+03 -0.39651560562E+03 -0.60941434157E+02  0.72761647594E+03  0.88884618117E+02 0.  0.
         23    2    4    4    0    0 -0.67622215335E+03 -0.70594815154E+02  0.83164271110E+03  0.10782427548E+04  0.93369217953E+02 0.  0.
          4    1    3    3  502    0  0.97687927047E+03  0.39306991782E+03 -0.59156696060E+03  0.12077866278E+04  0.00000000000E+00 0. -1.
         -3    1    3    3    0  502  0.29983166448E+03  0.74040502951E+02 -0.18303089934E+03  0.35900046409E+03  0.00000000000E+00 0.  1.
         11    1    5    5    0    0 -0.47536090590E+03 -0.35384094483E+03 -0.57307947865E+02  0.59536174380E+03  0.00000000000E+00 0. -1.
        -11    1    5    5    0    0 -0.12512787570E+03 -0.42674660792E+02 -0.36334862921E+01  0.13225473214E+03  0.00000000000E+00 0.  1.
          4    1    6    6  503    0 -0.45993950704E+03 -0.70428293199E+02  0.62433528529E+03  0.77865206805E+03  0.00000000000E+00 0. -1.
         -4    1    6    6    0  503 -0.21628264631E+03 -0.16652195482E+00  0.20730742581E+03  0.29959068680E+03  0.00000000000E+00 0.  1.
<mgrwt>
<rscale>  0 0.33726441E+04</rscale>
<asrwt>0</asrwt>
<pdfrwt beam="1">  1        2 0.25973407E+00 0.33726441E+04</pdfrwt>
<pdfrwt beam="2">  1       -1 0.25913460E+00 0.33726441E+04</pdfrwt>
<totfact> 0.57183153E-01</totfact>
</mgrwt>
</event>
<event>
12    6  0.1521603E-007  0.2214387E+04  0.7818608E-02  0.8512464E-01
         -1   -1    0    0    0  501 -0.00000000000E+00  0.00000000000E+00  0.20846608580E+04  0.20846608580E+04  0.00000000000E+00 0.  1.
          2   -1    0    0  501    0  0.00000000000E+00 -0.00000000000E+00 -0.58804642147E+03  0.58804642147E+03  0.00000000000E+00 0. -1.
         24    2    1    2    0    0 -0.84852133577E+03  0.91694130550E+02  0.18136887667E+03  0.87621103705E+03  0.80342026338E+02 0.  0.
        254    2    1    2    0    0  0.84852133577E+03 -0.91694130550E+02  0.13152455599E+04  0.17964962425E+04  0.87700147974E+03 0.  0.
         23    2    4    4    0    0  0.95848956665E+03 -0.11926598513E+03  0.78907094182E+03  0.12506648488E+04  0.92752294567E+02 0.  0.
         23    2    4    4    0    0 -0.10996823088E+03  0.27571854577E+02  0.52617461808E+03  0.54583139368E+03  0.90658494631E+02 0.  0.
          4    1    3    3  502    0 -0.10824373322E+03  0.82807062872E+00  0.48582583714E+02  0.11864931067E+03  0.00000000000E+00 0. -1.
         -3    1    3    3    0  502 -0.74027760255E+03  0.90866059921E+02  0.13278629295E+03  0.75756172638E+03  0.00000000000E+00 0.  1.
         11    1    5    5    0    0  0.75643127331E+03 -0.12301918585E+03  0.65503122736E+03  0.10081606520E+04  0.00000000000E+00 0.  1.
        -11    1    5    5    0    0  0.20205829333E+03  0.37532007239E+01  0.13403971446E+03  0.24250419681E+03  0.00000000000E+00 0. -1.
          2    1    6    6  503    0 -0.52629339632E+02 -0.29836453388E+02  0.28576456050E+03  0.29209834882E+03  0.00000000000E+00 0.  1.
         -2    1    6    6    0  503 -0.57338891245E+02  0.57408307966E+02  0.24041005757E+03  0.25373304486E+03  0.00000000000E+00 0. -1.
<mgrwt>
<rscale>  0 0.22143869E+04</rscale>
<asrwt>0</asrwt>
<pdfrwt beam="1">  1        2 0.90468681E-01 0.22143869E+04</pdfrwt>
<pdfrwt beam="2">  1       -1 0.32071705E+00 0.22143869E+04</pdfrwt>
<totfact> 0.12831393E+00</totfact>
</mgrwt>
</event>
<event>
12    6  0.1521603E-007  0.1337109E+04  0.7818608E-02  0.9000644E-01
         -1   -1    0    0    0  501 -0.00000000000E+00  0.00000000000E+00  0.45357981882E+03  0.45357981882E+03  0.00000000000E+00 0.  1.
          2   -1    0    0  501    0  0.00000000000E+00 -0.00000000000E+00 -0.98541633359E+03  0.98541633359E+03  0.00000000000E+00 0. -1.
         24    2    1    2    0    0 -0.34080423067E+03 -0.12077540053E+03 -0.15516376361E+03  0.40148214520E+03  0.79861745259E+02 0.  0.
        254    2    1    2    0    0  0.34080423067E+03  0.12077540053E+03 -0.37667275116E+03  0.10375140072E+04  0.89655938604E+03 0.  0.
         23    2    4    4    0    0  0.13266263410E+03 -0.22709390563E+03  0.18962143368E+03  0.33558263342E+03  0.86535537686E+02 0.  0.
         23    2    4    4    0    0  0.20814159657E+03  0.34786930616E+03 -0.56629418484E+03  0.70193137380E+03  0.87650278614E+02 0.  0.
          4    1    3    3  502    0 -0.30246418536E+03 -0.10811782468E+03 -0.16323943133E+03  0.36030703487E+03  0.00000000000E+00 0. -1.
         -3    1    3    3    0  502 -0.38340045313E+02 -0.12657575856E+02  0.80756677172E+01  0.41175110325E+02  0.00000000000E+00 0.  1.
         11    1    5    5    0    0  0.18085529870E+02 -0.28368451966E+01 -0.29733071070E+01  0.18546553224E+02  0.00000000000E+00 0. -1.
        -11    1    5    5    0    0  0.11457710423E+03 -0.22425706044E+03  0.19259474079E+03  0.31703608020E+03  0.00000000000E+00 0.  1.
          2    1    6    6  503    0 -0.48662091254E+01 -0.17373966226E+01 -0.48948285069E+01  0.71174352395E+01  0.00000000000E+00 0. -1.
         -2    1    6    6    0  503  0.21300780570E+03  0.34960670279E+03 -0.56139935633E+03  0.69481393856E+03  0.00000000000E+00 0.  1.
<mgrwt>
<rscale>  0 0.13371088E+04</rscale>
<asrwt>0</asrwt>
<pdfrwt beam="1">  1        2 0.15160251E+00 0.13371088E+04</pdfrwt>
<pdfrwt beam="2">  1       -1 0.69781511E-01 0.13371088E+04</pdfrwt>
<totfact> 0.59631558E+01</totfact>
</mgrwt>
</event>
<event>
12    6  0.1521603E-007  0.1668549E+04  0.7818608E-02  0.8779508E-01
         -1   -1    0    0    0  501 -0.00000000000E+00  0.00000000000E+00  0.27664111969E+03  0.27664111969E+03  0.00000000000E+00 0.  1.
          2   -1    0    0  501    0  0.00000000000E+00 -0.00000000000E+00 -0.25159439714E+04  0.25159439714E+04  0.00000000000E+00 0. -1.
         24    2    1    2    0    0 -0.24490892869E+03  0.53320825933E+03 -0.87816251248E+03  0.10590861575E+04  0.78756965240E+02 0.  0.
        254    2    1    2    0    0  0.24490892869E+03 -0.53320825933E+03 -0.13611403393E+04  0.17334989336E+04  0.89890160665E+03 0.  0.
         23    2    4    4    0    0 -0.25821023686E+03  0.64800253711E+02 -0.28650051470E+03  0.40159289373E+03  0.91228877379E+02 0.  0.
         23    2    4    4    0    0  0.50311916555E+03 -0.59800851304E+03 -0.10746398246E+04  0.13319060399E+04  0.91541630414E+02 0.  0.
          4    1    3    3  502    0 -0.12213033411E+03  0.25456968834E+03 -0.49269052012E+03  0.56786045236E+03  0.00000000000E+00 0. -1.
         -3    1    3    3    0  502 -0.12277859458E+03  0.27863857099E+03 -0.38547199236E+03  0.49122570517E+03  0.00000000000E+00 0.  1.
         11    1    5    5    0    0  0.64921877926E+01  0.80099679786E+01 -0.69223376442E+01  0.12418810241E+02  0.00000000000E+00 0.  1.
        -11    1    5    5    0    0 -0.26470242465E+03  0.56790285733E+02 -0.27957817706E+03  0.38917408349E+03  0.00000000000E+00 0. -1.
          1    1    6    6  503    0  0.41137243268E+03 -0.50867595639E+03 -0.94792191806E+03  0.11517527815E+04  0.00000000000E+00 0. -1.
         -1    1    6    6    0  503  0.91746732871E+02 -0.89332556654E+02 -0.12671790651E+03  0.18015325837E+03  0.00000000000E+00 0.  1.
<mgrwt>
<rscale>  0 0.16685485E+04</rscale>
<asrwt>0</asrwt>
<pdfrwt beam="1">  1        2 0.38706833E+00 0.16685485E+04</pdfrwt>
<pdfrwt beam="2">  1       -1 0.42560170E-01 0.16685485E+04</pdfrwt>
<totfact> 0.20147396E+01</totfact>
</mgrwt>
</event>
<event>
12    6  0.1521603E-007  0.3352293E+04  0.7818608E-02  0.8149716E-01
          2   -1    0    0  501    0  0.00000000000E+00  0.00000000000E+00  0.36578841739E+04  0.36578841739E+04  0.00000000000E+00 0. -1.
         -1   -1    0    0    0  501 -0.00000000000E+00 -0.00000000000E+00 -0.76805776843E+03  0.76805776843E+03  0.00000000000E+00 0.  1.
         24    2    1    2    0    0 -0.13560100399E+04 -0.75916936650E+03  0.14845523224E+04  0.21507064931E+04  0.80879331222E+02 0.  0.
        254    2    1    2    0    0  0.13560100399E+04  0.75916936650E+03  0.14052740831E+04  0.22752354493E+04  0.88701733095E+03 0.  0.
         23    2    4    4    0    0  0.10348800765E+04  0.21019536347E+03  0.51663899110E+03  0.11785739268E+04  0.83437343507E+02 0.  0.
         23    2    4    4    0    0  0.32112996345E+03  0.54897400303E+03  0.88863509204E+03  0.10966615225E+04  0.92180576105E+02 0.  0.
          2    1    3    3  502    0 -0.12901527279E+04 -0.70560985940E+03  0.13874516230E+04  0.20217322625E+04  0.00000000000E+00 0. -1.
         -1    1    3    3    0  502 -0.65857312034E+02 -0.53559507105E+02  0.97100699320E+02  0.12897423060E+03  0.00000000000E+00 0.  1.
         11    1    5    5    0    0  0.21803850113E+03  0.18168723181E+02  0.13178786649E+03  0.25541913051E+03  0.00000000000E+00 0. -1.
        -11    1    5    5    0    0  0.81684157534E+03  0.19202664029E+03  0.38485112461E+03  0.92315479628E+03  0.00000000000E+00 0.  1.
          2    1    6    6  503    0  0.27777133992E+03  0.51962755143E+03  0.83232590242E+03  0.10197725812E+04  0.00000000000E+00 0.  1.
         -2    1    6    6    0  503  0.43358623523E+02  0.29346451603E+02  0.56309189619E+02  0.76888941279E+02  0.00000000000E+00 0. -1.
<mgrwt>
<rscale>  0 0.33522926E+04</rscale>
<asrwt>0</asrwt>
<pdfrwt beam="1">  1        2 0.56275140E+00 0.33522926E+04</pdfrwt>
<pdfrwt beam="2">  1       -1 0.11816274E+00 0.33522926E+04</pdfrwt>
<totfact> 0.37982781E-01</totfact>
</mgrwt>
</event>
<event>
12    6  0.1521603E-007  0.1797336E+04  0.7818608E-02  0.8707717E-01
         -1   -1    0    0    0  501 -0.00000000000E+00  0.00000000000E+00  0.42731541581E+03  0.42731541581E+03  0.00000000000E+00 0.  1.
          2   -1    0    0  501    0  0.00000000000E+00 -0.00000000000E+00 -0.18899490530E+04  0.18899490530E+04  0.00000000000E+00 0. -1.
         24    2    1    2    0    0 -0.18201952122E+03  0.27592198145E+03  0.20232438656E+03  0.39589016678E+03  0.80807306631E+02 0.  0.
        254    2    1    2    0    0  0.18201952122E+03 -0.27592198145E+03 -0.16649580237E+04  0.19213743020E+04  0.90018328228E+03 0.  0.
         23    2    4    4    0    0  0.50799762213E+03 -0.31706284595E+03 -0.91203233604E+03  0.10946912286E+04  0.89193450878E+02 0.  0.
         23    2    4    4    0    0 -0.32597810091E+03  0.41140864503E+02 -0.75292568771E+03  0.82668307340E+03  0.92485240095E+02 0.  0.
          2    1    3    3  502    0 -0.95656355706E+01  0.69881007064E+02  0.55155197456E+02  0.89537435404E+02  0.00000000000E+00 0. -1.
         -1    1    3    3    0  502 -0.17245388565E+03  0.20604097438E+03  0.14716918910E+03  0.30635273137E+03  0.00000000000E+00 0.  1.
         11    1    5    5    0    0  0.34734475435E+03 -0.24907986136E+03 -0.69931572483E+03  0.81959236131E+03  0.00000000000E+00 0. -1.
        -11    1    5    5    0    0  0.16065286777E+03 -0.67982984591E+02 -0.21271661121E+03  0.27509886732E+03  0.00000000000E+00 0.  1.
          2    1    6    6  503    0 -0.19841781675E+03  0.69534669751E+02 -0.48359594265E+03  0.52732317989E+03  0.00000000000E+00 0. -1.
         -2    1    6    6    0  503 -0.12756028415E+03 -0.28393805248E+02 -0.26932974505E+03  0.29935989351E+03  0.00000000000E+00 0.  1.
<mgrwt>
<rscale>  0 0.17973362E+04</rscale>
<asrwt>0</asrwt>
<pdfrwt beam="1">  1        2 0.29076139E+00 0.17973362E+04</pdfrwt>
<pdfrwt beam="2">  1       -1 0.65740833E-01 0.17973362E+04</pdfrwt>
<totfact> 0.19399291E+01</totfact>
</mgrwt>
</event>
<event>
12    6  0.1521603E-007  0.1859425E+04  0.7818608E-02  0.8675321E-01
         -1   -1    0    0    0  501 -0.00000000000E+00  0.00000000000E+00  0.28917223530E+03  0.28917223530E+03  0.00000000000E+00 0.  1.
          2   -1    0    0  501    0  0.00000000000E+00 -0.00000000000E+00 -0.29891019516E+04  0.29891019516E+04  0.00000000000E+00 0. -1.
         24    2    1    2    0    0 -0.13033485153E+03 -0.49835362205E+03 -0.19049780135E+04  0.19749820788E+04  0.79180005544E+02 0.  0.
        254    2    1    2    0    0  0.13033485153E+03  0.49835362205E+03 -0.79495170281E+03  0.13032921082E+04  0.89514166661E+03 0.  0.
         23    2    4    4    0    0  0.23106866140E+03  0.40221277847E+03  0.18634314931E+02  0.47301673544E+03  0.90717963326E+02 0.  0.
         23    2    4    4    0    0 -0.10073380987E+03  0.96140843575E+02 -0.81358601774E+03  0.83027537274E+03  0.89691828260E+02 0.  0.
          2    1    3    3  502    0 -0.13687714189E+03 -0.43456170520E+03 -0.17142580396E+04  0.17737699552E+04  0.00000000000E+00 0. -1.
         -3    1    3    3    0  502  0.65422903631E+01 -0.63791916842E+02 -0.19071997396E+03  0.20121212361E+03  0.00000000000E+00 0.  1.
         11    1    5    5    0    0  0.21321933653E+03  0.29872531089E+03  0.24554478937E+02  0.36783449984E+03  0.00000000000E+00 0. -1.
        -11    1    5    5    0    0  0.17849324870E+02  0.10348746758E+03 -0.59201640066E+01  0.10518223561E+03  0.00000000000E+00 0.  1.
          2    1    6    6  503    0 -0.81409386794E+02  0.52786874899E+02 -0.31931437965E+03  0.33372985403E+03  0.00000000000E+00 0. -1.
         -2    1    6    6    0  503 -0.19324423075E+02  0.43353968676E+02 -0.49427163809E+03  0.49654551870E+03  0.00000000000E+00 0.  1.
<mgrwt>
<rscale>  0 0.18594250E+04</rscale>
<asrwt>0</asrwt>
<pdfrwt beam="1">  1        2 0.45986183E+00 0.18594250E+04</pdfrwt>
<pdfrwt beam="2">  1       -1 0.44488037E-01 0.18594250E+04</pdfrwt>
<totfact> 0.94970948E+00</totfact>
</mgrwt>
</event>
<event>
12    6  0.1521603E-007  0.1616937E+04  0.7818608E-02  0.8810210E-01
          2   -1    0    0  501    0  0.00000000000E+00  0.00000000000E+00  0.50427824776E+03  0.50427824776E+03  0.00000000000E+00 0. -1.
         -1   -1    0    0    0  501 -0.00000000000E+00 -0.00000000000E+00 -0.12961513232E+04  0.12961513232E+04  0.00000000000E+00 0.  1.
         24    2    1    2    0    0  0.25044364506E+03 -0.12519343231E+03  0.26088504485E+03  0.39104111173E+03  0.80353777703E+02 0.  0.
        254    2    1    2    0    0 -0.25044364506E+03  0.12519343231E+03 -0.10527581203E+04  0.14093884593E+04  0.89424870946E+03 0.  0.
         23    2    4    4    0    0 -0.94716903021E+02 -0.15527524015E+03  0.87372603706E+02  0.22162442495E+03  0.91660907341E+02 0.  0.
         23    2    4    4    0    0 -0.15572674204E+03  0.28046867246E+03 -0.11401307240E+04  0.11877640343E+04  0.89285155173E+02 0.  0.
          4    1    3    3  502    0  0.24527178854E+03 -0.12741626348E+03  0.26587866935E+03  0.38351612908E+03  0.00000000000E+00 0. -1.
         -3    1    3    3    0  502  0.51718565211E+01  0.22228311658E+01 -0.49936244955E+01  0.75249826491E+01  0.00000000000E+00 0.  1.
         11    1    5    5    0    0 -0.65886925293E+02 -0.14195517593E+03  0.34986245347E+02  0.16036332580E+03  0.00000000000E+00 0.  1.
        -11    1    5    5    0    0 -0.28829977728E+02 -0.13320064214E+02  0.52386358359E+02  0.61261099146E+02  0.00000000000E+00 0. -1.
          3    1    6    6  503    0 -0.99147034368E+02  0.24906722868E+03 -0.93466608435E+03  0.97235040394E+03  0.00000000000E+00 0. -1.
         -3    1    6    6    0  503 -0.56579707672E+02  0.31401443783E+02 -0.20546463969E+03  0.21541363039E+03  0.00000000000E+00 0.  1.
<mgrwt>
<rscale>  0 0.16169365E+04</rscale>
<asrwt>0</asrwt>
<pdfrwt beam="1">  1        2 0.77581268E-01 0.16169365E+04</pdfrwt>
<pdfrwt beam="2">  1       -1 0.19940790E+00 0.16169365E+04</pdfrwt>
<totfact> 0.10138710E+01</totfact>
</mgrwt>
</event>
<event>
12    6  0.1521603E-007  0.1329958E+04  0.7818608E-02  0.9006140E-01
          2   -1    0    0  501    0  0.00000000000E+00  0.00000000000E+00  0.14298372409E+04  0.14298372409E+04  0.00000000000E+00 0. -1.
         -1   -1    0    0    0  501 -0.00000000000E+00 -0.00000000000E+00 -0.30926389770E+03  0.30926389770E+03  0.00000000000E+00 0.  1.
         24    2    1    2    0    0  0.17466664467E+03  0.26062910711E+03  0.99948114130E+02  0.33842608282E+03  0.78144864084E+02 0.  0.
        254    2    1    2    0    0 -0.17466664467E+03 -0.26062910711E+03  0.10206252291E+04  0.14006750558E+04  0.90652015172E+03 0.  0.
         23    2    4    4    0    0  0.18167245379E+03 -0.43896186560E+03  0.80556445754E+03  0.93947654245E+03  0.89385002356E+02 0.  0.
         23    2    4    4    0    0 -0.35633909845E+03  0.17833275849E+03  0.21506077152E+03  0.46119851333E+03  0.87594562696E+02 0.  0.
          2    1    3    3  502    0  0.86294548612E+02  0.11063596367E+03  0.56210794197E+01  0.14042315376E+03  0.00000000000E+00 0. -1.
         -3    1    3    3    0  502  0.88372096055E+02  0.14999314344E+03  0.94327034711E+02  0.19800292906E+03  0.00000000000E+00 0.  1.
         11    1    5    5    0    0 -0.13495550745E+01 -0.65161172973E+02  0.81964788163E+02  0.10471879612E+03  0.00000000000E+00 0.  1.
        -11    1    5    5    0    0  0.18302200886E+03 -0.37380069263E+03  0.72359966938E+03  0.83475774633E+03  0.00000000000E+00 0. -1.
          4    1    6    6  503    0 -0.20629126943E+03  0.61795065429E+02  0.14036373608E+03  0.25705387832E+03  0.00000000000E+00 0. -1.
         -4    1    6    6    0  503 -0.15004782903E+03  0.11653769306E+03  0.74697035440E+02  0.20414463501E+03  0.00000000000E+00 0.  1.
<mgrwt>
<rscale>  0 0.13299580E+04</rscale>
<asrwt>0</asrwt>
<pdfrwt beam="1">  1        2 0.21997496E+00 0.13299580E+04</pdfrwt>
<pdfrwt beam="2">  1       -1 0.47579062E-01 0.13299580E+04</pdfrwt>
<totfact> 0.68383960E+01</totfact>
</mgrwt>
</event>
<event>
12    6  0.1521603E-007  0.2058531E+04  0.7818608E-02  0.8579734E-01
         -1   -1    0    0    0  501 -0.00000000000E+00  0.00000000000E+00  0.72208396150E+03  0.72208396150E+03  0.00000000000E+00 0.  1.
          2   -1    0    0  501    0  0.00000000000E+00 -0.00000000000E+00 -0.14671255349E+04  0.14671255349E+04  0.00000000000E+00 0. -1.
         24    2    1    2    0    0 -0.66242270526E+03 -0.46820679132E+03 -0.15674289851E+03  0.82998507734E+03  0.79280845740E+02 0.  0.
        254    2    1    2    0    0  0.66242270526E+03  0.46820679132E+03 -0.58829867492E+03  0.13592244191E+04  0.91835409871E+03 0.  0.
         23    2    4    4    0    0  0.31896855649E+03 -0.12874269842E+03  0.11154803174E+03  0.37313060165E+03  0.92020976293E+02 0.  0.
         23    2    4    4    0    0  0.34345414877E+03  0.59694948974E+03 -0.69984670666E+03  0.98609381742E+03  0.91028338095E+02 0.  0.
          2    1    3    3  502    0 -0.38010925557E+02 -0.20349206771E+02 -0.26498045359E+02  0.50606986531E+02  0.00000000000E+00 0. -1.
         -1    1    3    3    0  502 -0.62441177970E+03 -0.44785758454E+03 -0.13024485315E+03  0.77937809081E+03  0.00000000000E+00 0.  1.
         11    1    5    5    0    0  0.21661161310E+03 -0.12510837328E+03  0.10242810294E+03  0.27030392573E+03  0.00000000000E+00 0.  1.
        -11    1    5    5    0    0  0.10235694339E+03 -0.36343251433E+01  0.91199287985E+01  0.10282667592E+03  0.00000000000E+00 0. -1.
          4    1    6    6  503    0  0.95588720438E+00  0.22980817298E+02 -0.86168235340E+01  0.24561786007E+02  0.00000000000E+00 0. -1.
         -4    1    6    6    0  503  0.34249826156E+03  0.57396867244E+03 -0.69122988312E+03  0.96153203142E+03  0.00000000000E+00 0.  1.
<mgrwt>
<rscale>  0 0.20585313E+04</rscale>
<asrwt>0</asrwt>
<pdfrwt beam="1">  1        2 0.22571162E+00 0.20585313E+04</pdfrwt>
<pdfrwt beam="2">  1       -1 0.11108984E+00 0.20585313E+04</pdfrwt>
<totfact> 0.10407895E+01</totfact>
</mgrwt>
</event>
<event>
12    6  0.1521603E-007  0.1625957E+04  0.7818608E-02  0.8804759E-01
         -1   -1    0    0    0  501 -0.00000000000E+00  0.00000000000E+00  0.39554580911E+03  0.39554580911E+03  0.00000000000E+00 0.  1.
          2   -1    0    0  501    0  0.00000000000E+00 -0.00000000000E+00 -0.16709415312E+04  0.16709415312E+04  0.00000000000E+00 0. -1.
         24    2    1    2    0    0 -0.31467475891E+03  0.18902650025E+03 -0.98216429907E+03  0.10515764635E+04  0.80094484715E+02 0.  0.
        254    2    1    2    0    0  0.31467475891E+03 -0.18902650025E+03 -0.29323142299E+03  0.10149108768E+04  0.89961558386E+03 0.  0.
         23    2    4    4    0    0  0.11841198124E+02 -0.27670731505E+03 -0.53366440674E+03  0.60824405358E+03  0.91956389231E+02 0.  0.
         23    2    4    4    0    0  0.30283356079E+03  0.87680814797E+02  0.24043298375E+03  0.40666682322E+03  0.90409040522E+02 0.  0.
          2    1    3    3  502    0 -0.30441199333E+03  0.16823075904E+03 -0.95188883677E+03  0.10134399871E+04  0.00000000000E+00 0. -1.
         -1    1    3    3    0  502 -0.10262765578E+02  0.20795741211E+02 -0.30275462296E+02  0.38136476332E+02  0.00000000000E+00 0.  1.
         11    1    5    5    0    0  0.40520986418E+02 -0.85835022197E+02 -0.22496562764E+03  0.24417029916E+03  0.00000000000E+00 0. -1.
        -11    1    5    5    0    0 -0.28679788294E+02 -0.19087229285E+03 -0.30869877910E+03  0.36407375442E+03  0.00000000000E+00 0.  1.
          2    1    6    6  503    0  0.25661313094E+03  0.78369950133E+02  0.23927115607E+03  0.35950359411E+03  0.00000000000E+00 0. -1.
         -2    1    6    6    0  503  0.46220429848E+02  0.93108646642E+01  0.11618276856E+01  0.47163229106E+02  0.00000000000E+00 0.  1.
<mgrwt>
<rscale>  0 0.16259569E+04</rscale>
<asrwt>0</asrwt>
<pdfrwt beam="1">  1        2 0.25706793E+00 0.16259569E+04</pdfrwt>
<pdfrwt beam="2">  1       -1 0.60853201E-01 0.16259569E+04</pdfrwt>
<totfact> 0.30393328E+01</totfact>
</mgrwt>
</event>
<event>
12    6  0.1521603E-007  0.2463480E+04  0.7818608E-02  0.8416113E-01
          2   -1    0    0  501    0  0.00000000000E+00  0.00000000000E+00  0.13733421275E+04  0.13733421275E+04  0.00000000000E+00 0. -1.
         -1   -1    0    0    0  501 -0.00000000000E+00 -0.00000000000E+00 -0.11047377307E+04  0.11047377307E+04  0.00000000000E+00 0.  1.
         24    2    1    2    0    0 -0.29871680931E+03  0.45340188485E+03  0.10419497090E+04  0.11776775747E+04  0.80375820865E+02 0.  0.
        254    2    1    2    0    0  0.29871680931E+03 -0.45340188485E+03 -0.77334531219E+03  0.13004022834E+04  0.89340815170E+03 0.  0.
         23    2    4    4    0    0  0.65201463437E+02  0.24760840436E+03 -0.35120040971E+03  0.44469327060E+03  0.94070316221E+02 0.  0.
         23    2    4    4    0    0  0.23351534587E+03 -0.70101028921E+03 -0.42214490248E+03  0.85570901283E+03  0.89926378906E+02 0.  0.
          2    1    3    3  502    0 -0.26945015547E+03  0.42715840597E+03  0.99931354936E+03  0.11196853397E+04  0.00000000000E+00 0. -1.
         -1    1    3    3    0  502 -0.29266653839E+02  0.26243478886E+02  0.42636159624E+02  0.57992234984E+02  0.00000000000E+00 0.  1.
         11    1    5    5    0    0  0.12457017133E+02 -0.48420022105E+01 -0.29432153051E+02  0.32324509192E+02  0.00000000000E+00 0. -1.
        -11    1    5    5    0    0  0.52744446304E+02  0.25245040657E+03 -0.32176825666E+03  0.41236876141E+03  0.00000000000E+00 0.  1.
          3    1    6    6  503    0  0.57368757578E+02 -0.15909084802E+03 -0.14156209640E+03  0.22054681909E+03  0.00000000000E+00 0. -1.
         -3    1    6    6    0  503  0.17614658829E+03 -0.54191944118E+03 -0.28058280607E+03  0.63516219375E+03  0.00000000000E+00 0.  1.
<mgrwt>
<rscale>  0 0.24634795E+04</rscale>
<asrwt>0</asrwt>
<pdfrwt beam="1">  1        2 0.21128340E+00 0.24634795E+04</pdfrwt>
<pdfrwt beam="2">  1       -1 0.16995965E+00 0.24634795E+04</pdfrwt>
<totfact> 0.37620102E+00</totfact>
</mgrwt>
</event>
<event>
12    6  0.1521603E-007  0.3015618E+04  0.7818608E-02  0.8239285E-01
         -1   -1    0    0    0  501 -0.00000000000E+00  0.00000000000E+00  0.77577333429E+03  0.77577333429E+03  0.00000000000E+00 0.  1.
          2   -1    0    0  501    0  0.00000000000E+00 -0.00000000000E+00 -0.29306093575E+04  0.29306093575E+04  0.00000000000E+00 0. -1.
         24    2    1    2    0    0  0.56323026197E+03 -0.40176629711E+03  0.47673133102E+03  0.84421899515E+03  0.82392137454E+02 0.  0.
        254    2    1    2    0    0 -0.56323026197E+03  0.40176629711E+03 -0.26315673542E+04  0.28621636966E+04  0.88780054123E+03 0.  0.
         23    2    4    4    0    0 -0.72291278207E+03  0.34231620244E+03 -0.25046152089E+04  0.26308504657E+04  0.92160485746E+02 0.  0.
         23    2    4    4    0    0  0.15968252010E+03  0.59450094663E+02 -0.12695214529E+03  0.23131323092E+03  0.91411939184E+02 0.  0.
          2    1    3    3  502    0  0.38382671552E+02 -0.10149558146E+02  0.44228792345E+02  0.59434241631E+02  0.00000000000E+00 0. -1.
         -1    1    3    3    0  502  0.52484759042E+03 -0.39161673896E+03  0.43250253868E+03  0.78478475352E+03  0.00000000000E+00 0.  1.
         11    1    5    5    0    0 -0.52986126599E+03  0.27739014351E+03 -0.19684434466E+04  0.20572962488E+04  0.00000000000E+00 0. -1.
        -11    1    5    5    0    0 -0.19305151608E+03  0.64926058937E+02 -0.53617176232E+03  0.57355421688E+03  0.00000000000E+00 0.  1.
          1    1    6    6  503    0  0.14285913550E+03  0.82258052604E+02 -0.11170427113E+03  0.19913052002E+03  0.00000000000E+00 0.  1.
         -1    1    6    6    0  503  0.16823384606E+02 -0.22807957941E+02 -0.15247874158E+02  0.32182710909E+02  0.00000000000E+00 0. -1.
<mgrwt>
<rscale>  0 0.30156184E+04</rscale>
<asrwt>0</asrwt>
<pdfrwt beam="1">  1        2 0.45086297E+00 0.30156184E+04</pdfrwt>
<pdfrwt beam="2">  1       -1 0.11934975E+00 0.30156184E+04</pdfrwt>
<totfact> 0.11715453E+00</totfact>
</mgrwt>
</event>
<event>
12    6  0.1521603E-007  0.1939906E+04  0.7818608E-02  0.8635244E-01
          2   -1    0    0  501    0  0.00000000000E+00  0.00000000000E+00  0.16514120311E+04  0.16514120311E+04  0.00000000000E+00 0. -1.
         -1   -1    0    0    0  501 -0.00000000000E+00 -0.00000000000E+00 -0.56969956103E+03  0.56969956103E+03  0.00000000000E+00 0.  1.
         24    2    1    2    0    0  0.48839363093E+03  0.52683874721E+03  0.18481346816E+03  0.74589130772E+03  0.78169179540E+02 0.  0.
        254    2    1    2    0    0 -0.48839363093E+03 -0.52683874721E+03  0.89689900196E+03  0.14752202844E+04  0.92507278829E+03 0.  0.
         23    2    4    4    0    0 -0.54945188305E+03 -0.45998108874E+03  0.10479902294E+04  0.12728462034E+04  0.91509358866E+02 0.  0.
         23    2    4    4    0    0  0.61058252125E+02 -0.66857658474E+02 -0.15109122748E+03  0.20237408104E+03  0.99642626447E+02 0.  0.
          4    1    3    3  502    0  0.14252098666E+03  0.11775233312E+03  0.72244857868E+02  0.19848718620E+03  0.00000000000E+00 0. -1.
         -3    1    3    3    0  502  0.34587264426E+03  0.40908641409E+03  0.11256861029E+03  0.54740412153E+03  0.00000000000E+00 0.  1.
         11    1    5    5    0    0 -0.14706093524E+02 -0.21046025289E+02  0.72698664803E+02  0.77099288138E+02  0.00000000000E+00 0. -1.
        -11    1    5    5    0    0 -0.53474578953E+03 -0.43893506345E+03  0.97529156463E+03  0.11957469153E+04  0.00000000000E+00 0.  1.
          1    1    6    6  503    0 -0.11192459694E+02  0.91771221102E+01 -0.65254272061E+02  0.66840188109E+02  0.00000000000E+00 0. -1.
         -1    1    6    6    0  503  0.72250711819E+02 -0.76034780584E+02 -0.85836955418E+02  0.13553389293E+03  0.00000000000E+00 0.  1.
<mgrwt>
<rscale>  0 0.19399059E+04</rscale>
<asrwt>0</asrwt>
<pdfrwt beam="1">  1        2 0.25406339E+00 0.19399059E+04</pdfrwt>
<pdfrwt beam="2">  1       -1 0.87646087E-01 0.19399059E+04</pdfrwt>
<totfact> 0.14213055E+01</totfact>
</mgrwt>
</event>
<event>
12    6  0.1581742E-007  0.1936487E+04  0.7818608E-02  0.8636905E-01
          2   -1    0    0  501    0  0.00000000000E+00  0.00000000000E+00  0.18093456209E+04  0.18093456209E+04  0.00000000000E+00 0. -1.
         -1   -1    0    0    0  501 -0.00000000000E+00 -0.00000000000E+00 -0.51814076266E+03  0.51814076266E+03  0.00000000000E+00 0.  1.
         24    2    1    2    0    0  0.62371326015E+03 -0.13892280402E+03  0.66410350797E+02  0.64734317515E+03  0.79530342306E+02 0.  0.
        254    2    1    2    0    0 -0.62371326015E+03  0.13892280402E+03  0.12247945074E+04  0.16801432084E+04  0.95626452350E+03 0.  0.
         23    2    4    4    0    0  0.14933132642E+03  0.30718476598E+03  0.36352346820E+03  0.50713443864E+03  0.91507930968E+02 0.  0.
         23    2    4    4    0    0 -0.77304458657E+03 -0.16826196195E+03  0.86127103920E+03  0.11730087697E+04  0.90839144815E+02 0.  0.
          4    1    3    3  502    0  0.27995679056E+02  0.17432330255E+01 -0.11478197778E+02  0.30307522687E+02  0.00000000000E+00 0. -1.
         -3    1    3    3    0  502  0.59571758110E+03 -0.14066603705E+03  0.77888548575E+02  0.61703565246E+03  0.00000000000E+00 0.  1.
         11    1    5    5    0    0  0.94658220816E+02  0.25294726002E+03  0.23858808051E+03  0.36037031965E+03  0.00000000000E+00 0.  1.
        -11    1    5    5    0    0  0.54673105599E+02  0.54237505954E+02  0.12493538769E+03  0.14676411900E+03  0.00000000000E+00 0. -1.
          3    1    6    6  503    0 -0.58084974455E+03 -0.16594329667E+03  0.65868139740E+03  0.89374760796E+03  0.00000000000E+00 0. -1.
         -3    1    6    6    0  503 -0.19219484202E+03 -0.23186652822E+01  0.20258964180E+03  0.27926116177E+03  0.00000000000E+00 0.  1.
<mgrwt>
<rscale>  0 0.19364873E+04</rscale>
<asrwt>0</asrwt>
<pdfrwt beam="1">  1        2 0.27836086E+00 0.19364873E+04</pdfrwt>
<pdfrwt beam="2">  1       -1 0.79713964E-01 0.19364873E+04</pdfrwt>
<totfact> 0.14252142E+01</totfact>
</mgrwt>
</event>
<event>
12    6  0.1521603E-007  0.1850990E+04  0.7818608E-02  0.8679644E-01
         -1   -1    0    0    0  501 -0.00000000000E+00  0.00000000000E+00  0.62093588070E+03  0.62093588070E+03  0.00000000000E+00 0.  1.
          2   -1    0    0  501    0  0.00000000000E+00 -0.00000000000E+00 -0.13794348445E+04  0.13794348445E+04  0.00000000000E+00 0. -1.
         24    2    1    2    0    0  0.55674362286E+02  0.59519632602E+03  0.11264569751E+03  0.61333425208E+03  0.78304217483E+02 0.  0.
        254    2    1    2    0    0 -0.55674362286E+02 -0.59519632602E+03 -0.87114466127E+03  0.13870364731E+04  0.89867616841E+03 0.  0.
         23    2    4    4    0    0 -0.21053110233E+03  0.15558919805E+03 -0.38646844757E+03  0.47550817246E+03  0.90657694152E+02 0.  0.
         23    2    4    4    0    0  0.15485674005E+03 -0.75078552408E+03 -0.48467621369E+03  0.91152830061E+03  0.91177286641E+02 0.  0.
          2    1    3    3  502    0 -0.31849493357E+01  0.12123795535E+01 -0.38898658322E+01  0.51715396784E+01  0.00000000000E+00 0. -1.
         -1    1    3    3    0  502  0.58859311621E+02  0.59398394647E+03  0.11653556334E+03  0.60816271240E+03  0.00000000000E+00 0.  1.
         11    1    5    5    0    0 -0.14384724483E+03  0.55919184092E+02 -0.25035759430E+03  0.29410527030E+03  0.00000000000E+00 0. -1.
        -11    1    5    5    0    0 -0.66683857508E+02  0.99670013960E+02 -0.13611085327E+03  0.18140290216E+03  0.00000000000E+00 0.  1.
          2    1    6    6  503    0  0.12528734557E+03 -0.71336199742E+03 -0.45328043241E+03  0.85442694757E+03  0.00000000000E+00 0. -1.
         -2    1    6    6    0  503  0.29569394481E+02 -0.37423526653E+02 -0.31395781288E+02  0.57101353047E+02  0.00000000000E+00 0.  1.
<mgrwt>
<rscale>  0 0.18509896E+04</rscale>
<asrwt>0</asrwt>
<pdfrwt beam="1">  1        2 0.21222074E+00 0.18509896E+04</pdfrwt>
<pdfrwt beam="2">  1       -1 0.95528598E-01 0.18509896E+04</pdfrwt>
<totfact> 0.16850754E+01</totfact>
</mgrwt>
</event>
<event>
12    6  0.1521603E-007  0.1617714E+04  0.7818608E-02  0.8809739E-01
         -1   -1    0    0    0  501 -0.00000000000E+00  0.00000000000E+00  0.43319195614E+03  0.43319195614E+03  0.00000000000E+00 0.  1.
          2   -1    0    0  501    0  0.00000000000E+00 -0.00000000000E+00 -0.15102990677E+04  0.15102990677E+04  0.00000000000E+00 0. -1.
         24    2    1    2    0    0 -0.70086383376E+02 -0.48918965388E+03 -0.84098994583E+02  0.50768213009E+03  0.80311180612E+02 0.  0.
        254    2    1    2    0    0  0.70086383376E+02  0.48918965388E+03 -0.99300811699E+03  0.14358088938E+04  0.91173649723E+03 0.  0.
         23    2    4    4    0    0 -0.31785791823E+03  0.40582217043E+03 -0.23225086686E+03  0.57296115022E+03  0.92837084823E+02 0.  0.
         23    2    4    4    0    0  0.38794430160E+03  0.83367483449E+02 -0.76075725013E+03  0.86284774353E+03  0.91124730195E+02 0.  0.
          4    1    3    3  502    0 -0.55002936677E+02 -0.35768520543E+03 -0.25090576756E+02  0.36275827526E+03  0.00000000000E+00 0. -1.
         -3    1    3    3    0  502 -0.15083446699E+02 -0.13150444844E+03 -0.59008417827E+02  0.14492385483E+03  0.00000000000E+00 0.  1.
         11    1    5    5    0    0 -0.22489964234E+03  0.33800290832E+03 -0.15602924224E+03  0.43493785716E+03  0.00000000000E+00 0. -1.
        -11    1    5    5    0    0 -0.92958275883E+02  0.67819262110E+02 -0.76221624621E+02  0.13802329306E+03  0.00000000000E+00 0.  1.
          1    1    6    6  503    0  0.10798269268E+03  0.47216802072E+01 -0.29032863937E+03  0.30979553745E+03  0.00000000000E+00 0. -1.
         -1    1    6    6    0  503  0.27996160892E+03  0.78645803242E+02 -0.47042861075E+03  0.55305220608E+03  0.00000000000E+00 0.  1.
<mgrwt>
<rscale>  0 0.16177137E+04</rscale>
<asrwt>0</asrwt>
<pdfrwt beam="1">  1        2 0.23235370E+00 0.16177137E+04</pdfrwt>
<pdfrwt beam="2">  1       -1 0.66644917E-01 0.16177137E+04</pdfrwt>
<totfact> 0.31177206E+01</totfact>
</mgrwt>
</event>
<event>
12    6  0.1521603E-007  0.1524443E+04  0.7818608E-02  0.8868359E-01
          2   -1    0    0  501    0  0.00000000000E+00  0.00000000000E+00  0.22175335579E+04  0.22175335579E+04  0.00000000000E+00 0. -1.
         -1   -1    0    0    0  501 -0.00000000000E+00 -0.00000000000E+00 -0.26199449787E+03  0.26199449787E+03  0.00000000000E+00 0.  1.
         24    2    1    2    0    0  0.17582988506E+03  0.42055164723E+03  0.94807517966E+03  0.10550649793E+04  0.80843847851E+02 0.  0.
        254    2    1    2    0    0 -0.17582988506E+03 -0.42055164723E+03  0.10074638803E+04  0.14244630765E+04  0.89795977057E+03 0.  0.
         23    2    4    4    0    0  0.12763777843E+03 -0.33928377788E+03  0.89888848358E+01  0.37406578324E+03  0.91866891343E+02 0.  0.
         23    2    4    4    0    0 -0.30346766349E+03 -0.81267869352E+02  0.99847499550E+03  0.10503972932E+04  0.87664517436E+02 0.  0.
          4    1    3    3  502    0  0.16506302752E+02  0.43658882416E+02  0.51346463931E+02  0.69390312023E+02  0.00000000000E+00 0. -1.
         -3    1    3    3    0  502  0.15932358231E+03  0.37689276481E+03  0.89672871573E+03  0.98567466725E+03  0.00000000000E+00 0.  1.
         11    1    5    5    0    0 -0.12853193642E+02 -0.44782274556E+02 -0.82498491439E+01  0.47315079120E+02  0.00000000000E+00 0.  1.
        -11    1    5    5    0    0  0.14049097207E+03 -0.29450150332E+03  0.17238733980E+02  0.32675070412E+03  0.00000000000E+00 0. -1.
          1    1    6    6  503    0 -0.20706099118E+03 -0.95933589965E+02  0.72404759705E+03  0.75915902850E+03  0.00000000000E+00 0. -1.
         -1    1    6    6    0  503 -0.96406672304E+02  0.14665720613E+02  0.27442739845E+03  0.29123826474E+03  0.00000000000E+00 0.  1.
<mgrwt>
<rscale>  0 0.15244430E+04</rscale>
<asrwt>0</asrwt>
<pdfrwt beam="1">  1        2 0.34115900E+00 0.15244430E+04</pdfrwt>
<pdfrwt beam="2">  1       -1 0.40306847E-01 0.15244430E+04</pdfrwt>
<totfact> 0.33336639E+01</totfact>
</mgrwt>
</event>
<event>
12    6  0.1521603E-007  0.1370161E+04  0.7818608E-02  0.8975705E-01
         -1   -1    0    0    0  501 -0.00000000000E+00  0.00000000000E+00  0.69519818460E+03  0.69519818460E+03  0.00000000000E+00 0.  1.
          2   -1    0    0  501    0  0.00000000000E+00 -0.00000000000E+00 -0.67511025384E+03  0.67511025384E+03  0.00000000000E+00 0. -1.
         24    2    1    2    0    0 -0.30921776883E+03  0.13953908769E+03 -0.45448948185E+02  0.35157513148E+03  0.80328579137E+02 0.  0.
        254    2    1    2    0    0  0.30921776883E+03 -0.13953908769E+03  0.65536878946E+02  0.10187333070E+04  0.95835050094E+03 0.  0.
         23    2    4    4    0    0  0.62788895268E+03 -0.21973125046E+03  0.84806145266E+02  0.67670412852E+03  0.90609248686E+02 0.  0.
         23    2    4    4    0    0 -0.31867118385E+03  0.80192162771E+02 -0.19269266320E+02  0.34202917844E+03  0.92900742160E+02 0.  0.
          2    1    3    3  502    0 -0.31425387319E+03  0.13767169044E+03 -0.46075617483E+02  0.34616752258E+03  0.00000000000E+00 0. -1.
         -1    1    3    3    0  502  0.50361043557E+01  0.18673972541E+01  0.62666929817E+00  0.54076088981E+01  0.00000000000E+00 0.  1.
         11    1    5    5    0    0  0.25399749308E+03 -0.12577059150E+03  0.76026791104E+01  0.28353265933E+03  0.00000000000E+00 0.  1.
        -11    1    5    5    0    0  0.37389145961E+03 -0.93960658961E+02  0.77203466156E+02  0.39317146919E+03  0.00000000000E+00 0. -1.
          3    1    6    6  503    0 -0.15912899204E+02  0.30180964452E+02 -0.75500009959E+01  0.34944434341E+02  0.00000000000E+00 0. -1.
         -3    1    6    6    0  503 -0.30275828465E+03  0.50011198318E+02 -0.11719265324E+02  0.30708474410E+03  0.00000000000E+00 0.  1.
<mgrwt>
<rscale>  0 0.13701612E+04</rscale>
<asrwt>0</asrwt>
<pdfrwt beam="1">  1        2 0.10386312E+00 0.13701612E+04</pdfrwt>
<pdfrwt beam="2">  1       -1 0.10695357E+00 0.13701612E+04</pdfrwt>
<totfact> 0.38983659E+01</totfact>
</mgrwt>
</event>
<event>
12    6  0.1521603E-007  0.1336624E+04  0.7818608E-02  0.9001016E-01
          2   -1    0    0  501    0  0.00000000000E+00  0.00000000000E+00  0.13330199072E+04  0.13330199072E+04  0.00000000000E+00 0. -1.
         -1   -1    0    0    0  501 -0.00000000000E+00 -0.00000000000E+00 -0.33505946072E+03  0.33505946072E+03  0.00000000000E+00 0.  1.
         24    2    1    2    0    0 -0.28221054664E+03  0.95225144766E+02  0.52768364754E+03  0.61100977998E+03  0.78563977223E+02 0.  0.
        254    2    1    2    0    0  0.28221054664E+03 -0.95225144766E+02  0.47027679892E+03  0.10570695879E+04  0.89862407338E+03 0.  0.
         23    2    4    4    0    0  0.28821795030E+03 -0.28324014420E+03  0.65755824971E+03  0.77718071571E+03  0.91282237855E+02 0.  0.
         23    2    4    4    0    0 -0.60074036570E+01  0.18801499943E+03 -0.18728145079E+03  0.27988887221E+03  0.88756464906E+02 0.  0.
          2    1    3    3  502    0 -0.20622548212E+03  0.92635624885E+02  0.33780908503E+03  0.40647913403E+03  0.00000000000E+00 0. -1.
         -1    1    3    3    0  502 -0.75985064519E+02  0.25895198813E+01  0.18987456251E+03  0.20453064595E+03  0.00000000000E+00 0.  1.
         11    1    5    5    0    0  0.25507138440E+02 -0.27247347615E+02  0.21884256288E+02  0.43266069116E+02  0.00000000000E+00 0.  1.
        -11    1    5    5    0    0  0.26271081186E+03 -0.25599279658E+03  0.63567399343E+03  0.73391464660E+03  0.00000000000E+00 0. -1.
          3    1    6    6  503    0 -0.42286717890E+01  0.18151263914E+03 -0.13268499909E+03  0.22487780864E+03  0.00000000000E+00 0. -1.
         -3    1    6    6    0  503 -0.17787318680E+01  0.65023602906E+01 -0.54596451704E+02  0.55011063569E+02  0.00000000000E+00 0.  1.
<mgrwt>
<rscale>  0 0.13366240E+04</rscale>
<asrwt>0</asrwt>
<pdfrwt beam="1">  1        2 0.20507998E+00 0.13366240E+04</pdfrwt>
<pdfrwt beam="2">  1       -1 0.51547610E-01 0.13366240E+04</pdfrwt>
<totfact> 0.66725405E+01</totfact>
</mgrwt>
</event>
<event>
12    6  0.1521603E-007  0.3359763E+04  0.7818608E-02  0.8147853E-01
          2   -1    0    0  501    0  0.00000000000E+00  0.00000000000E+00  0.29591253844E+04  0.29591253844E+04  0.00000000000E+00 0. -1.
         -1   -1    0    0    0  501 -0.00000000000E+00 -0.00000000000E+00 -0.95366086193E+03  0.95366086193E+03  0.00000000000E+00 0.  1.
         24    2    1    2    0    0 -0.40344663415E+03  0.13959693792E+04  0.27249917124E+03  0.14807470352E+04  0.82802715868E+02 0.  0.
        254    2    1    2    0    0  0.40344663415E+03 -0.13959693792E+04  0.17329653512E+04  0.24320392111E+04  0.89450887171E+03 0.  0.
         23    2    4    4    0    0  0.19289606404E+03 -0.13960297598E+04  0.16809389352E+04  0.21954447888E+04  0.91181877393E+02 0.  0.
         23    2    4    4    0    0  0.21055057011E+03  0.60380641059E-01  0.52026415999E+02  0.23659442233E+03  0.94544309688E+02 0.  0.
          2    1    3    3  502    0 -0.65804611539E+02  0.20879710257E+03  0.11648836893E+02  0.21923086539E+03  0.00000000000E+00 0. -1.
         -1    1    3    3    0  502 -0.33764202261E+03  0.11871722766E+04  0.26085033435E+03  0.12615161698E+04  0.00000000000E+00 0.  1.
         11    1    5    5    0    0 -0.18365339876E+01 -0.12883026711E+03  0.12737630016E+03  0.18117762671E+03  0.00000000000E+00 0. -1.
        -11    1    5    5    0    0  0.19473259803E+03 -0.12671994927E+04  0.15535626351E+04  0.20142671621E+04  0.00000000000E+00 0.  1.
          3    1    6    6  503    0  0.74604425644E+02 -0.42067185264E+02  0.37613109244E+02  0.93542580618E+02  0.00000000000E+00 0. -1.
         -3    1    6    6    0  503  0.13594614447E+03  0.42127565905E+02  0.14413306755E+02  0.14305184171E+03  0.00000000000E+00 0.  1.
<mgrwt>
<rscale>  0 0.33597631E+04</rscale>
<asrwt>0</asrwt>
<pdfrwt beam="1">  1        2 0.45525006E+00 0.33597631E+04</pdfrwt>
<pdfrwt beam="2">  1       -1 0.14671706E+00 0.33597631E+04</pdfrwt>
<totfact> 0.64503025E-01</totfact>
</mgrwt>
</event>
<event>
12    6  0.1521603E-007  0.2641611E+04  0.7818608E-02  0.8354203E-01
         -1   -1    0    0    0  501 -0.00000000000E+00  0.00000000000E+00  0.55894009925E+03  0.55894009925E+03  0.00000000000E+00 0.  1.
          2   -1    0    0  501    0  0.00000000000E+00 -0.00000000000E+00 -0.31211333270E+04  0.31211333270E+04  0.00000000000E+00 0. -1.
         24    2    1    2    0    0 -0.19119032763E+03  0.11356092016E+04 -0.13943244386E+04  0.18100958181E+04  0.78385144464E+02 0.  0.
        254    2    1    2    0    0  0.19119032763E+03 -0.11356092016E+04 -0.11678687892E+04  0.18699776081E+04  0.89818525151E+03 0.  0.
         23    2    4    4    0    0 -0.20448920307E+03 -0.46686408335E+02 -0.44832534288E+03  0.50332166992E+03  0.91332554158E+02 0.  0.
         23    2    4    4    0    0  0.39567953070E+03 -0.10889227932E+04 -0.71954344632E+03  0.13666559382E+04  0.87695733368E+02 0.  0.
          2    1    3    3  502    0 -0.10547389686E+02  0.46432494929E+02 -0.84898849478E+02  0.97339810239E+02  0.00000000000E+00 0. -1.
         -1    1    3    3    0  502 -0.18064293794E+03  0.10891767066E+04 -0.13094255891E+04  0.17127560079E+04  0.00000000000E+00 0.  1.
         11    1    5    5    0    0 -0.98841698532E+02  0.13310330782E+02 -0.26734806209E+03  0.28534511136E+03  0.00000000000E+00 0.  1.
        -11    1    5    5    0    0 -0.10564750454E+03 -0.59996739116E+02 -0.18097728079E+03  0.21797655856E+03  0.00000000000E+00 0. -1.
          1    1    6    6  503    0  0.33605388045E+03 -0.99832411044E+03 -0.64794256040E+03  0.12366943040E+04  0.00000000000E+00 0. -1.
         -1    1    6    6    0  503  0.59625650250E+02 -0.90598682779E+02 -0.71600885925E+02  0.12996163416E+03  0.00000000000E+00 0.  1.
<mgrwt>
<rscale>  0 0.26416105E+04</rscale>
<asrwt>0</asrwt>
<pdfrwt beam="1">  1        2 0.48017435E+00 0.26416105E+04</pdfrwt>
<pdfrwt beam="2">  1       -1 0.85990786E-01 0.26416105E+04</pdfrwt>
<totfact> 0.19514047E+00</totfact>
</mgrwt>
</event>
<event>
12    6  0.1521603E-007  0.1542979E+04  0.7818608E-02  0.8856365E-01
         -1   -1    0    0    0  501 -0.00000000000E+00  0.00000000000E+00  0.10608334393E+04  0.10608334393E+04  0.00000000000E+00 0.  1.
          2   -1    0    0  501    0  0.00000000000E+00 -0.00000000000E+00 -0.56106486981E+03  0.56106486981E+03  0.00000000000E+00 0. -1.
         24    2    1    2    0    0  0.26521221202E+03  0.39822402909E+03  0.37024072025E+03  0.61005299016E+03  0.78527480080E+02 0.  0.
        254    2    1    2    0    0 -0.26521221202E+03 -0.39822402909E+03  0.12952784926E+03  0.10118453190E+04  0.88211880778E+03 0.  0.
         23    2    4    4    0    0 -0.25551687698E+03 -0.61674555433E+03 -0.10060629357E+03  0.68138900483E+03  0.92224705940E+02 0.  0.
         23    2    4    4    0    0 -0.96953350369E+01  0.21852152524E+03  0.23013414283E+03  0.33045631415E+03  0.91618749965E+02 0.  0.
          2    1    3    3  502    0  0.43425305902E+02  0.30449895880E+02  0.23199913469E+02  0.57889457907E+02  0.00000000000E+00 0. -1.
         -1    1    3    3    0  502  0.22178690612E+03  0.36777413321E+03  0.34704080678E+03  0.55216353226E+03  0.00000000000E+00 0.  1.
         11    1    5    5    0    0 -0.18014309288E+03 -0.52525717990E+03 -0.87206534108E+02  0.56209573788E+03  0.00000000000E+00 0. -1.
        -11    1    5    5    0    0 -0.75373784106E+02 -0.91488374429E+02 -0.13399759463E+02  0.11929326695E+03  0.00000000000E+00 0.  1.
          2    1    6    6  503    0 -0.37316643934E+02  0.15433535472E+03  0.11604316001E+03  0.19666710100E+03  0.00000000000E+00 0. -1.
         -2    1    6    6    0  503  0.27621308897E+02  0.64186170517E+02  0.11409098283E+03  0.13378921314E+03  0.00000000000E+00 0.  1.
<mgrwt>
<rscale>  0 0.15429794E+04</rscale>
<asrwt>0</asrwt>
<pdfrwt beam="1">  1        2 0.86317673E-01 0.15429794E+04</pdfrwt>
<pdfrwt beam="2">  1       -1 0.16320514E+00 0.15429794E+04</pdfrwt>
<totfact> 0.16355483E+01</totfact>
</mgrwt>
</event>
<event>
12    6  0.1521603E-007  0.1388839E+04  0.7818608E-02  0.8961937E-01
         -1   -1    0    0    0  501 -0.00000000000E+00  0.00000000000E+00  0.49827834034E+03  0.49827834034E+03  0.00000000000E+00 0.  1.
          2   -1    0    0  501    0  0.00000000000E+00 -0.00000000000E+00 -0.96776944272E+03  0.96776944272E+03  0.00000000000E+00 0. -1.
         24    2    1    2    0    0  0.19473037036E+02  0.25276791743E+03 -0.46115005930E+03  0.53225354303E+03  0.79772411414E+02 0.  0.
        254    2    1    2    0    0 -0.19473037036E+02 -0.25276791743E+03 -0.83410430801E+01  0.93379424003E+03  0.89868308678E+03 0.  0.
         23    2    4    4    0    0 -0.31025706567E+03  0.14822417441E+03  0.17628800589E+03  0.39740832441E+03  0.92876598828E+02 0.  0.
         23    2    4    4    0    0  0.29078402864E+03 -0.40099209184E+03 -0.18462904897E+03  0.53638591562E+03  0.90950292562E+02 0.  0.
          4    1    3    3  502    0  0.32140640185E+02  0.17722731111E+03 -0.25388175604E+03  0.31128521745E+03  0.00000000000E+00 0. -1.
         -3    1    3    3    0  502 -0.12667603149E+02  0.75540606322E+02 -0.20726830326E+03  0.22096832558E+03  0.00000000000E+00 0.  1.
         11    1    5    5    0    0 -0.14134626881E+03  0.18957618746E+02  0.84354178021E+02  0.16569184158E+03  0.00000000000E+00 0. -1.
        -11    1    5    5    0    0 -0.16891079686E+03  0.12926655567E+03  0.91933827871E+02  0.23171648283E+03  0.00000000000E+00 0.  1.
          3    1    6    6  503    0  0.15693147346E+03 -0.14540700811E+03 -0.60728786902E+02  0.22239305504E+03  0.00000000000E+00 0. -1.
         -3    1    6    6    0  503  0.13385255517E+03 -0.25558508373E+03 -0.12390026207E+03  0.31399286058E+03  0.00000000000E+00 0.  1.
<mgrwt>
<rscale>  0 0.13888392E+04</rscale>
<asrwt>0</asrwt>
<pdfrwt beam="1">  1        2 0.14888760E+00 0.13888392E+04</pdfrwt>
<pdfrwt beam="2">  1       -1 0.76658208E-01 0.13888392E+04</pdfrwt>
<totfact> 0.50174786E+01</totfact>
</mgrwt>
</event>
<event>
12    6  0.1521603E-007  0.1396794E+04  0.7818608E-02  0.8956142E-01
         -1   -1    0    0    0  501 -0.00000000000E+00  0.00000000000E+00  0.25175961454E+03  0.25175961454E+03  0.00000000000E+00 0.  1.
          2   -1    0    0  501    0  0.00000000000E+00 -0.00000000000E+00 -0.19373981291E+04  0.19373981291E+04  0.00000000000E+00 0. -1.
         24    2    1    2    0    0  0.16745765756E+03 -0.23350156051E+03 -0.62192115844E+02  0.30477975569E+03  0.80360402984E+02 0.  0.
        254    2    1    2    0    0 -0.16745765756E+03  0.23350156051E+03 -0.16234463987E+04  0.18843779880E+04  0.91254432558E+03 0.  0.
         23    2    4    4    0    0 -0.27341916194E+03  0.26644378273E+03 -0.16833253739E+04  0.17284786513E+04  0.91125222975E+02 0.  0.
         23    2    4    4    0    0  0.10596150437E+03 -0.32942222226E+02  0.59878975132E+02  0.15589933666E+03  0.91684682984E+02 0.  0.
          4    1    3    3  502    0  0.11807580429E+03 -0.13821304317E+03 -0.21349388540E+01  0.18179466116E+03  0.00000000000E+00 0. -1.
         -1    1    3    3    0  502  0.49381853277E+02 -0.95288517331E+02 -0.60057176990E+02  0.12298509453E+03  0.00000000000E+00 0.  1.
         11    1    5    5    0    0  0.70903886721E+01  0.64488892092E+01 -0.55777251116E+02  0.56594730546E+02  0.00000000000E+00 0. -1.
        -11    1    5    5    0    0 -0.28050955061E+03  0.25999489352E+03 -0.16275481227E+04  0.16718839207E+04  0.00000000000E+00 0.  1.
          4    1    6    6  503    0 -0.12665738792E+02 -0.35452842051E+01 -0.86885744115E+01  0.15763289776E+02  0.00000000000E+00 0. -1.
         -4    1    6    6    0  503  0.11862724317E+03 -0.29396938021E+02  0.68567549544E+02  0.14013604688E+03  0.00000000000E+00 0.  1.
<mgrwt>
<rscale>  0 0.13967943E+04</rscale>
<asrwt>0</asrwt>
<pdfrwt beam="1">  1        2 0.29806125E+00 0.13967943E+04</pdfrwt>
<pdfrwt beam="2">  1       -1 0.38732248E-01 0.13967943E+04</pdfrwt>
<totfact> 0.51883407E+01</totfact>
</mgrwt>
</event>
<event>
12    6  0.1521603E-007  0.1428237E+04  0.7818608E-02  0.8933629E-01
          2   -1    0    0  501    0  0.00000000000E+00  0.00000000000E+00  0.13718790622E+04  0.13718790622E+04  0.00000000000E+00 0. -1.
         -1   -1    0    0    0  501 -0.00000000000E+00 -0.00000000000E+00 -0.37172754837E+03  0.37172754837E+03  0.00000000000E+00 0.  1.
         24    2    1    2    0    0  0.14539688059E+03 -0.23796954727E+03 -0.95362479525E+02  0.30524186232E+03  0.79428166876E+02 0.  0.
        254    2    1    2    0    0 -0.14539688059E+03  0.23796954727E+03  0.10955139934E+04  0.14383647483E+04  0.88936633682E+03 0.  0.
         23    2    4    4    0    0  0.36536597666E+03  0.99535799603E+02  0.54433904895E+03  0.66928279263E+03  0.90745710665E+02 0.  0.
         23    2    4    4    0    0 -0.51076285725E+03  0.13843374767E+03  0.55117494444E+03  0.76908195565E+03  0.87467915738E+02 0.  0.
          2    1    3    3  502    0  0.35211530686E+02 -0.13396983151E+02 -0.25600310538E+02  0.45548951145E+02  0.00000000000E+00 0. -1.
         -1    1    3    3    0  502  0.11018534991E+03 -0.22457256412E+03 -0.69762168988E+02  0.25969291117E+03  0.00000000000E+00 0.  1.
         11    1    5    5    0    0  0.24021623755E+03  0.48343101185E+02  0.41632967908E+03  0.48308518700E+03  0.00000000000E+00 0. -1.
        -11    1    5    5    0    0  0.12514973911E+03  0.51192698418E+02  0.12800936987E+03  0.18619760563E+03  0.00000000000E+00 0.  1.
          1    1    6    6  503    0 -0.44090640890E+03  0.10706592109E+03  0.42613396791E+03  0.62245620848E+03  0.00000000000E+00 0. -1.
         -1    1    6    6    0  503 -0.69856448347E+02  0.31367826580E+02  0.12504097654E+03  0.14662574717E+03  0.00000000000E+00 0.  1.
<mgrwt>
<rscale>  0 0.14282370E+04</rscale>
<asrwt>0</asrwt>
<pdfrwt beam="1">  1        2 0.21105831E+00 0.14282370E+04</pdfrwt>
<pdfrwt beam="2">  1       -1 0.57188854E-01 0.14282370E+04</pdfrwt>
<totfact> 0.51474477E+01</totfact>
</mgrwt>
</event>
<event>
12    6  0.1521603E-007  0.1625081E+04  0.7818608E-02  0.8805287E-01
         -1   -1    0    0    0  501 -0.00000000000E+00  0.00000000000E+00  0.32268028472E+03  0.32268028472E+03  0.00000000000E+00 0.  1.
          2   -1    0    0  501    0  0.00000000000E+00 -0.00000000000E+00 -0.20460552960E+04  0.20460552960E+04  0.00000000000E+00 0. -1.
         24    2    1    2    0    0  0.52323514961E+03  0.14833241634E+03 -0.79423796413E+03  0.96581575460E+03  0.78794673976E+02 0.  0.
        254    2    1    2    0    0 -0.52323514961E+03 -0.14833241634E+03 -0.92913704711E+03  0.14029198261E+04  0.89950589689E+03 0.  0.
         23    2    4    4    0    0 -0.11024216924E+03 -0.40176343942E+03 -0.10035048352E+03  0.43865945157E+03  0.93726718558E+02 0.  0.
         23    2    4    4    0    0 -0.41299298037E+03  0.25343102308E+03 -0.82878656359E+03  0.96426037451E+03  0.90113353943E+02 0.  0.
          4    1    3    3  502    0  0.52400347118E+03  0.14808972216E+03 -0.79567851083E+03  0.96416518098E+03  0.00000000000E+00 0. -1.
         -3    1    3    3    0  502 -0.76832156649E+00  0.24269417865E+00  0.14405466994E+01  0.16505736236E+01  0.00000000000E+00 0.  1.
         11    1    5    5    0    0 -0.77234499334E+01 -0.20475420704E+03 -0.45164511690E+02  0.20981842172E+03  0.00000000000E+00 0.  1.
        -11    1    5    5    0    0 -0.10251871931E+03 -0.19700923238E+03 -0.55185971829E+02  0.22884102984E+03  0.00000000000E+00 0. -1.
          2    1    6    6  503    0 -0.10809175522E+03  0.11556147143E+03 -0.26727088966E+03  0.31059943606E+03  0.00000000000E+00 0. -1.
         -2    1    6    6    0  503 -0.30490122515E+03  0.13786955165E+03 -0.56151567394E+03  0.65366093844E+03  0.00000000000E+00 0.  1.
<mgrwt>
<rscale>  0 0.16250806E+04</rscale>
<asrwt>0</asrwt>
<pdfrwt beam="1">  1        2 0.31477774E+00 0.16250806E+04</pdfrwt>
<pdfrwt beam="2">  1       -1 0.49643120E-01 0.16250806E+04</pdfrwt>
<totfact> 0.27943872E+01</totfact>
</mgrwt>
</event>
<event>
12    6  0.1521603E-007  0.1639186E+04  0.7818608E-02  0.8796830E-01
         -1   -1    0    0    0  501 -0.00000000000E+00  0.00000000000E+00  0.18764311514E+03  0.18764311514E+03  0.00000000000E+00 0.  1.
          2   -1    0    0  501    0  0.00000000000E+00 -0.00000000000E+00 -0.35798411610E+04  0.35798411610E+04  0.00000000000E+00 0. -1.
         24    2    1    2    0    0  0.26683698078E+03 -0.31880411732E+03 -0.20915940448E+04  0.21340120536E+04  0.80023479196E+02 0.  0.
        254    2    1    2    0    0 -0.26683698078E+03  0.31880411732E+03 -0.13006040010E+04  0.16334722225E+04  0.89656159555E+03 0.  0.
         23    2    4    4    0    0 -0.14500802197E+03 -0.29679371806E+03 -0.34443915024E+03  0.48581202483E+03  0.90890911190E+02 0.  0.
         23    2    4    4    0    0 -0.12182895881E+03  0.61559783539E+03 -0.95616485080E+03  0.11476601977E+04  0.95235063141E+02 0.  0.
          2    1    3    3  502    0  0.14496519236E+03 -0.16385034488E+03 -0.12974330430E+04  0.13157485867E+04  0.00000000000E+00 0. -1.
         -1    1    3    3    0  502  0.12187178842E+03 -0.15495377244E+03 -0.79416100183E+03  0.81826346688E+03  0.00000000000E+00 0.  1.
         11    1    5    5    0    0 -0.72547585968E+01 -0.87732700084E+02 -0.12502439042E+03  0.15290767275E+03  0.00000000000E+00 0. -1.
        -11    1    5    5    0    0 -0.13775326337E+03 -0.20906101798E+03 -0.21941475982E+03  0.33290435209E+03  0.00000000000E+00 0.  1.
          1    1    6    6  503    0 -0.11800067435E+03  0.44295894136E+03 -0.63730723112E+03  0.78504604305E+03  0.00000000000E+00 0. -1.
         -1    1    6    6    0  503 -0.38282844576E+01  0.17263889403E+03 -0.31885761968E+03  0.36261415461E+03  0.00000000000E+00 0.  1.
<mgrwt>
<rscale>  0 0.16391858E+04</rscale>
<asrwt>0</asrwt>
<pdfrwt beam="1">  1        2 0.55074473E+00 0.16391858E+04</pdfrwt>
<pdfrwt beam="2">  1       -1 0.28868175E-01 0.16391858E+04</pdfrwt>
<totfact> 0.85853746E+00</totfact>
</mgrwt>
</event>
<event>
12    6  0.1521603E-007  0.2368558E+04  0.7818608E-02  0.8451370E-01
         -1   -1    0    0    0  501 -0.00000000000E+00  0.00000000000E+00  0.69274220204E+03  0.69274220204E+03  0.00000000000E+00 0.  1.
          2   -1    0    0  501    0  0.00000000000E+00 -0.00000000000E+00 -0.20245870969E+04  0.20245870969E+04  0.00000000000E+00 0. -1.
         24    2    1    2    0    0  0.75724458465E+03  0.13764372353E+03  0.20994343082E+03  0.80113559563E+03  0.73326958418E+02 0.  0.
        254    2    1    2    0    0 -0.75724458465E+03 -0.13764372353E+03 -0.15417883257E+04  0.19161937033E+04  0.83804648546E+03 0.  0.
         23    2    4    4    0    0 -0.88441231405E+02 -0.20293159901E+03 -0.10547982723E+04  0.10815465069E+04  0.90223977409E+02 0.  0.
         23    2    4    4    0    0 -0.66880335325E+03  0.65287875482E+02 -0.48699005339E+03  0.83464719640E+03  0.88973020381E+02 0.  0.
          2    1    3    3  502    0  0.26158031338E+03  0.34470655192E+02  0.10570040762E+03  0.28422713204E+03  0.00000000000E+00 0. -1.
         -3    1    3    3    0  502  0.49566427127E+03  0.10317306833E+03  0.10424302320E+03  0.51690846359E+03  0.00000000000E+00 0.  1.
         11    1    5    5    0    0 -0.49445446798E+02 -0.56140045174E+02 -0.52857610765E+03  0.53384385213E+03  0.00000000000E+00 0. -1.
        -11    1    5    5    0    0 -0.38995784607E+02 -0.14679155383E+03 -0.52622216463E+03  0.54770265477E+03  0.00000000000E+00 0.  1.
          4    1    6    6  503    0 -0.63961099011E+03  0.46684852874E+02 -0.47480848541E+03  0.79795036937E+03  0.00000000000E+00 0.  1.
         -4    1    6    6    0  503 -0.29192363135E+02  0.18603022607E+02 -0.12181567980E+02  0.36696827029E+02  0.00000000000E+00 0. -1.
<mgrwt>
<rscale>  0 0.23685581E+04</rscale>
<asrwt>0</asrwt>
<pdfrwt beam="1">  1        2 0.31147493E+00 0.23685581E+04</pdfrwt>
<pdfrwt beam="2">  1       -1 0.10657573E+00 0.23685581E+04</pdfrwt>
<totfact> 0.54606624E+00</totfact>
</mgrwt>
</event>
<event>
12    6  0.1521603E-007  0.2502134E+04  0.7818608E-02  0.8402226E-01
         -1   -1    0    0    0  501 -0.00000000000E+00  0.00000000000E+00  0.82554565296E+03  0.82554565296E+03  0.00000000000E+00 0.  1.
          2   -1    0    0  501    0  0.00000000000E+00 -0.00000000000E+00 -0.18959194514E+04  0.18959194514E+04  0.00000000000E+00 0. -1.
         24    2    1    2    0    0 -0.19364500975E+02 -0.95423170565E+02  0.70827323169E+03  0.71936628817E+03  0.79726535345E+02 0.  0.
        254    2    1    2    0    0  0.19364500975E+02  0.95423170565E+02 -0.17786470301E+04  0.20020988162E+04  0.91396599862E+03 0.  0.
         23    2    4    4    0    0  0.90759706241E+02  0.17661161041E+03  0.67873394080E-01  0.21764712235E+03  0.89113860025E+02 0.  0.
         23    2    4    4    0    0 -0.71395205266E+02 -0.81188439849E+02 -0.17787149035E+04  0.17844516939E+04  0.93553736186E+02 0.  0.
          4    1    3    3  502    0 -0.35635553283E+02 -0.10212744022E+02  0.27562209469E+03  0.27810381493E+03  0.00000000000E+00 0. -1.
         -3    1    3    3    0  502  0.16271052308E+02 -0.85210426542E+02  0.43265113700E+03  0.44126247323E+03  0.00000000000E+00 0.  1.
         11    1    5    5    0    0  0.66808591520E+02  0.16838334867E+03  0.24082263454E+02  0.18274653327E+03  0.00000000000E+00 0. -1.
        -11    1    5    5    0    0  0.23951114721E+02  0.82282617452E+01 -0.24014390060E+02  0.34900589073E+02  0.00000000000E+00 0.  1.
          1    1    6    6  503    0 -0.56221261972E+02 -0.85436742398E+02 -0.17345021161E+04  0.17375148512E+04  0.00000000000E+00 0. -1.
         -1    1    6    6    0  503 -0.15173943294E+02  0.42483025489E+01 -0.44212787444E+02  0.46936842706E+02  0.00000000000E+00 0.  1.
<mgrwt>
<rscale>  0 0.25021335E+04</rscale>
<asrwt>0</asrwt>
<pdfrwt beam="1">  1        2 0.29167991E+00 0.25021335E+04</pdfrwt>
<pdfrwt beam="2">  1       -1 0.12700703E+00 0.25021335E+04</pdfrwt>
<totfact> 0.41658506E+00</totfact>
</mgrwt>
</event>
<event>
12    6  0.1521603E-007  0.1762465E+04  0.7818608E-02  0.8726519E-01
          2   -1    0    0  501    0  0.00000000000E+00  0.00000000000E+00  0.28512392495E+04  0.28512392495E+04  0.00000000000E+00 0. -1.
         -1   -1    0    0    0  501 -0.00000000000E+00 -0.00000000000E+00 -0.27236239525E+03  0.27236239525E+03  0.00000000000E+00 0.  1.
         24    2    1    2    0    0 -0.30887692911E+03  0.23261268636E+03  0.18771915842E+04  0.19182431378E+04  0.79340233528E+02 0.  0.
        254    2    1    2    0    0  0.30887692911E+03 -0.23261268636E+03  0.70168527005E+03  0.12053585070E+04  0.90056276457E+03 0.  0.
         23    2    4    4    0    0 -0.14903954493E+03  0.48788971533E+02 -0.12200546408E+03  0.21760350244E+03  0.88728807661E+02 0.  0.
         23    2    4    4    0    0  0.45791647405E+03 -0.28140165790E+03  0.82369073413E+03  0.98775500454E+03  0.91209282578E+02 0.  0.
          4    1    3    3  502    0 -0.31332644699E+03  0.23066168550E+03  0.18642977735E+04  0.19044643509E+04  0.00000000000E+00 0. -1.
         -3    1    3    3    0  502  0.44495178815E+01  0.19510008623E+01  0.12893810704E+02  0.13778786892E+02  0.00000000000E+00 0.  1.
         11    1    5    5    0    0 -0.47910015713E+02  0.15870687864E+02 -0.95471889338E+02  0.10799134221E+03  0.00000000000E+00 0. -1.
        -11    1    5    5    0    0 -0.10112952922E+03  0.32918283669E+02 -0.26533574743E+02  0.10961216022E+03  0.00000000000E+00 0.  1.
          2    1    6    6  503    0  0.36623842665E+02 -0.48887468229E+02  0.63864743064E+02  0.88374180664E+02  0.00000000000E+00 0. -1.
         -2    1    6    6    0  503  0.42129263138E+03 -0.23251418967E+03  0.75982599107E+03  0.89938082387E+03  0.00000000000E+00 0.  1.
<mgrwt>
<rscale>  0 0.17624646E+04</rscale>
<asrwt>0</asrwt>
<pdfrwt beam="1">  1        2 0.43865217E+00 0.17624646E+04</pdfrwt>
<pdfrwt beam="2">  1       -1 0.41901909E-01 0.17624646E+04</pdfrwt>
<totfact> 0.13016461E+01</totfact>
</mgrwt>
</event>
<event>
12    6  0.1521603E-007  0.1631683E+04  0.7818608E-02  0.8801317E-01
          2   -1    0    0  501    0  0.00000000000E+00  0.00000000000E+00  0.13258316360E+04  0.13258316360E+04  0.00000000000E+00 0. -1.
         -1   -1    0    0    0  501 -0.00000000000E+00 -0.00000000000E+00 -0.50202278619E+03  0.50202278619E+03  0.00000000000E+00 0.  1.
         24    2    1    2    0    0  0.41598619522E+03 -0.92590824908E+02 -0.13161862967E+03  0.45310279615E+03  0.79756534108E+02 0.  0.
        254    2    1    2    0    0 -0.41598619522E+03  0.92590824908E+02  0.95542747951E+03  0.13747516261E+04  0.89189841871E+03 0.  0.
         23    2    4    4    0    0 -0.59376427328E+03  0.39025932171E+02  0.27139863753E+03  0.66036235658E+03  0.91335567699E+02 0.  0.
         23    2    4    4    0    0  0.17777807806E+03  0.53564892736E+02  0.68402884198E+03  0.71438926949E+03  0.89343880231E+02 0.  0.
          4    1    3    3  502    0  0.97825046503E+02 -0.36204527038E+01 -0.11278763716E+01  0.97898516363E+02  0.00000000000E+00 0. -1.
         -3    1    3    3    0  502  0.31816114872E+03 -0.88970372204E+02 -0.13049075330E+03  0.35520427979E+03  0.00000000000E+00 0.  1.
         11    1    5    5    0    0 -0.41857149976E+03  0.38973110896E+02  0.23436471388E+03  0.48129806035E+03  0.00000000000E+00 0.  1.
        -11    1    5    5    0    0 -0.17519277351E+03  0.52821274789E-01  0.37033923656E+02  0.17906429623E+03  0.00000000000E+00 0. -1.
          2    1    6    6  503    0  0.25828869600E+02  0.44751644450E+02  0.22208448145E+03  0.22801613339E+03  0.00000000000E+00 0. -1.
         -2    1    6    6    0  503  0.15194920846E+03  0.88132482865E+01  0.46194436053E+03  0.48637313610E+03  0.00000000000E+00 0.  1.
<mgrwt>
<rscale>  0 0.16316834E+04</rscale>
<asrwt>0</asrwt>
<pdfrwt beam="1">  1        2 0.20397410E+00 0.16316834E+04</pdfrwt>
<pdfrwt beam="2">  1       -1 0.77234275E-01 0.16316834E+04</pdfrwt>
<totfact> 0.29270086E+01</totfact>
</mgrwt>
</event>
<event>
12    6  0.1521603E-007  0.1466189E+04  0.7818608E-02  0.8907253E-01
          2   -1    0    0  501    0  0.00000000000E+00  0.00000000000E+00  0.35166467492E+04  0.35166467492E+04  0.00000000000E+00 0. -1.
         -1   -1    0    0    0  501 -0.00000000000E+00 -0.00000000000E+00 -0.15282396731E+03  0.15282396731E+03  0.00000000000E+00 0.  1.
         24    2    1    2    0    0 -0.13567557993E+03 -0.29298693447E+03  0.26927385429E+03  0.42781983820E+03  0.79197213300E+02 0.  0.
        254    2    1    2    0    0  0.13567557993E+03  0.29298693447E+03  0.30945489276E+04  0.32416508784E+04  0.90984512136E+03 0.  0.
         23    2    4    4    0    0 -0.21320419687E+03  0.13043986630E+03  0.22887766264E+03  0.34880825710E+03  0.82532584361E+02 0.  0.
         23    2    4    4    0    0  0.34887977680E+03  0.16254706817E+03  0.28656712650E+04  0.28928426213E+04  0.91257790358E+02 0.  0.
          4    1    3    3  502    0 -0.15207177116E+01 -0.84267426641E+02  0.65041449211E+02  0.10645986047E+03  0.00000000000E+00 0. -1.
         -3    1    3    3    0  502 -0.13415486222E+03 -0.20871950783E+03  0.20423240508E+03  0.32135997773E+03  0.00000000000E+00 0.  1.
         11    1    5    5    0    0 -0.14523018015E+03  0.12590849622E+03  0.14510661512E+03  0.24083331247E+03  0.00000000000E+00 0. -1.
        -11    1    5    5    0    0 -0.67974016728E+02  0.45313700835E+01  0.83771047520E+02  0.10797494463E+03  0.00000000000E+00 0.  1.
          2    1    6    6  503    0  0.12492099915E+03  0.11563452953E+02  0.91522238828E+03  0.92378081247E+03  0.00000000000E+00 0.  1.
         -2    1    6    6    0  503  0.22395877766E+03  0.15098361521E+03  0.19504488767E+04  0.19690618088E+04  0.00000000000E+00 0. -1.
<mgrwt>
<rscale>  0 0.14661895E+04</rscale>
<asrwt>0</asrwt>
<pdfrwt beam="1">  1        2 0.54102252E+00 0.14661895E+04</pdfrwt>
<pdfrwt beam="2">  1       -1 0.23511382E-01 0.14661895E+04</pdfrwt>
<totfact> 0.13793836E+01</totfact>
</mgrwt>
</event>
<event>
12    6  0.1521603E-007  0.2084979E+04  0.7818608E-02  0.8567889E-01
         -1   -1    0    0    0  501 -0.00000000000E+00  0.00000000000E+00  0.33245745810E+03  0.33245745810E+03  0.00000000000E+00 0.  1.
          2   -1    0    0  501    0  0.00000000000E+00 -0.00000000000E+00 -0.32689435015E+04  0.32689435015E+04  0.00000000000E+00 0. -1.
         24    2    1    2    0    0  0.63049654427E+03  0.55819497852E+03 -0.10688485014E+04  0.13630227263E+04  0.79286234745E+02 0.  0.
        254    2    1    2    0    0 -0.63049654427E+03 -0.55819497852E+03 -0.18676375420E+04  0.22383782334E+04  0.90175362533E+03 0.  0.
         23    2    4    4    0    0 -0.44228989016E+03 -0.32836420424E+03 -0.28778101767E+03  0.62823948993E+03  0.91779872599E+02 0.  0.
         23    2    4    4    0    0 -0.18820665412E+03 -0.22983077428E+03 -0.15798565244E+04  0.16101387434E+04  0.91412286297E+02 0.  0.
          4    1    3    3  502    0  0.58129651557E+03  0.48519349857E+03 -0.97260099125E+03  0.12325871402E+04  0.00000000000E+00 0. -1.
         -3    1    3    3    0  502  0.49200028709E+02  0.73001479943E+02 -0.96247510153E+02  0.13043558605E+03  0.00000000000E+00 0.  1.
         11    1    5    5    0    0 -0.41488454180E+03 -0.27844960330E+03 -0.27313212826E+03  0.56944229215E+03  0.00000000000E+00 0. -1.
        -11    1    5    5    0    0 -0.27405348353E+02 -0.49914600940E+02 -0.14648889413E+02  0.58797197777E+02  0.00000000000E+00 0.  1.
          4    1    6    6  503    0 -0.19571132329E+03 -0.22615158907E+03 -0.15626093280E+04  0.15909730907E+04  0.00000000000E+00 0. -1.
         -4    1    6    6    0  503  0.75046691744E+01 -0.36791852060E+01 -0.17247196312E+02  0.19165652710E+02  0.00000000000E+00 0.  1.
<mgrwt>
<rscale>  0 0.20849793E+04</rscale>
<asrwt>0</asrwt>
<pdfrwt beam="1">  1        2 0.50291439E+00 0.20849793E+04</pdfrwt>
<pdfrwt beam="2">  1       -1 0.51147301E-01 0.20849793E+04</pdfrwt>
<totfact> 0.47297717E+00</totfact>
</mgrwt>
</event>
<event>
12    6  0.1521603E-007  0.1497515E+04  0.7818608E-02  0.8886107E-01
         -1   -1    0    0    0  501 -0.00000000000E+00  0.00000000000E+00  0.35484782576E+03  0.35484782576E+03  0.00000000000E+00 0.  1.
          2   -1    0    0  501    0  0.00000000000E+00 -0.00000000000E+00 -0.15799394195E+04  0.15799394195E+04  0.00000000000E+00 0. -1.
         24    2    1    2    0    0  0.42630476879E+03 -0.11160585166E+03 -0.19034811592E+03  0.48648643622E+03  0.79025472953E+02 0.  0.
        254    2    1    2    0    0 -0.42630476879E+03  0.11160585166E+03 -0.10347434778E+04  0.14483008090E+04  0.91251824449E+03 0.  0.
         23    2    4    4    0    0 -0.13075541227E+03  0.31975695752E+03 -0.10133929527E+04  0.10748561131E+04  0.94915211676E+02 0.  0.
         23    2    4    4    0    0 -0.29554935652E+03 -0.20815110586E+03 -0.21350525030E+02  0.37344469593E+03  0.91262210096E+02 0.  0.
          2    1    3    3  502    0  0.72235124977E+02 -0.29959002026E+02 -0.66331345117E+02  0.10254414868E+03  0.00000000000E+00 0. -1.
         -1    1    3    3    0  502  0.35406964381E+03 -0.81646849638E+02 -0.12401677081E+03  0.38394228754E+03  0.00000000000E+00 0.  1.
         11    1    5    5    0    0 -0.10011106010E+03  0.30975956568E+03 -0.90479855217E+03  0.96157871903E+03  0.00000000000E+00 0.  1.
        -11    1    5    5    0    0 -0.30644352174E+02  0.99973918398E+01 -0.10859440057E+03  0.11327739404E+03  0.00000000000E+00 0. -1.
          3    1    6    6  503    0 -0.18129361510E+03 -0.75917156728E+02  0.55687050334E+01  0.19662604110E+03  0.00000000000E+00 0. -1.
         -3    1    6    6    0  503 -0.11425574141E+03 -0.13223394913E+03 -0.26919230063E+02  0.17681865483E+03  0.00000000000E+00 0.  1.
<mgrwt>
<rscale>  0 0.14975154E+04</rscale>
<asrwt>0</asrwt>
<pdfrwt beam="1">  1        2 0.24306760E+00 0.14975154E+04</pdfrwt>
<pdfrwt beam="2">  1       -1 0.54591974E-01 0.14975154E+04</pdfrwt>
<totfact> 0.42711061E+01</totfact>
</mgrwt>
</event>
<event>
12    6  0.1521603E-007  0.1914184E+04  0.7818608E-02  0.8647828E-01
         -1   -1    0    0    0  501 -0.00000000000E+00  0.00000000000E+00  0.47815157035E+03  0.47815157035E+03  0.00000000000E+00 0.  1.
          2   -1    0    0  501    0  0.00000000000E+00 -0.00000000000E+00 -0.19157632167E+04  0.19157632167E+04  0.00000000000E+00 0. -1.
         24    2    1    2    0    0 -0.60875642449E+03 -0.13054945615E+03 -0.95849830296E+02  0.63481167547E+03  0.78556530518E+02 0.  0.
        254    2    1    2    0    0  0.60875642449E+03  0.13054945615E+03 -0.13417618160E+04  0.17591031116E+04  0.95209844096E+03 0.  0.
         23    2    4    4    0    0  0.70177325984E+03  0.29247573490E+03 -0.55615149800E+03  0.94645496613E+03  0.91895323395E+02 0.  0.
         23    2    4    4    0    0 -0.93016835351E+02 -0.16192627875E+03 -0.78561031803E+03  0.81264814542E+03  0.91330088425E+02 0.  0.
          4    1    3    3  502    0 -0.32917567589E+02 -0.13108774817E+02  0.11792044215E+02  0.37342449571E+02  0.00000000000E+00 0. -1.
         -3    1    3    3    0  502 -0.57583885690E+03 -0.11744068133E+03 -0.10764187451E+03  0.59746922590E+03  0.00000000000E+00 0.  1.
         11    1    5    5    0    0  0.19335749924E+03  0.56344877435E+02 -0.10650638827E+03  0.22782773858E+03  0.00000000000E+00 0.  1.
        -11    1    5    5    0    0  0.50841576060E+03  0.23613085746E+03 -0.44964510973E+03  0.71862722755E+03  0.00000000000E+00 0. -1.
          3    1    6    6  503    0 -0.13203023709E+02 -0.60261471534E+02 -0.12362324325E+03  0.13816103306E+03  0.00000000000E+00 0. -1.
         -3    1    6    6    0  503 -0.79813811642E+02 -0.10166480722E+03 -0.66198707478E+03  0.67448711235E+03  0.00000000000E+00 0.  1.
<mgrwt>
<rscale>  0 0.19141841E+04</rscale>
<asrwt>0</asrwt>
<pdfrwt beam="1">  1        2 0.29473280E+00 0.19141841E+04</pdfrwt>
<pdfrwt beam="2">  1       -1 0.73561780E-01 0.19141841E+04</pdfrwt>
<totfact> 0.14758781E+01</totfact>
</mgrwt>
</event>
<event>
12    6  0.1521603E-007  0.1197272E+04  0.7818608E-02  0.9115248E-01
         -1   -1    0    0    0  501 -0.00000000000E+00  0.00000000000E+00  0.14828736659E+03  0.14828736659E+03  0.00000000000E+00 0.  1.
          2   -1    0    0  501    0  0.00000000000E+00 -0.00000000000E+00 -0.24166924037E+04  0.24166924037E+04  0.00000000000E+00 0. -1.
         24    2    1    2    0    0  0.62475697247E+02 -0.85290499766E+02 -0.10118937062E+04  0.10205562036E+04  0.80177365681E+02 0.  0.
        254    2    1    2    0    0 -0.62475697247E+02  0.85290499766E+02 -0.12565113310E+04  0.15444235667E+04  0.89176552218E+03 0.  0.
         23    2    4    4    0    0 -0.88055227786E+02 -0.37174919988E+03 -0.80369455387E+03  0.89454582927E+03  0.91302321944E+02 0.  0.
         23    2    4    4    0    0  0.25579530539E+02  0.45703969965E+03 -0.45281677708E+03  0.64987773746E+03  0.88082010610E+02 0.  0.
          2    1    3    3  502    0  0.74355679016E+02 -0.53177910780E+02 -0.56447114225E+03  0.57182543458E+03  0.00000000000E+00 0. -1.
         -3    1    3    3    0  502 -0.11879981769E+02 -0.32112588986E+02 -0.44742256392E+03  0.44873076899E+03  0.00000000000E+00 0.  1.
         11    1    5    5    0    0 -0.97509246302E+02 -0.31929041212E+03 -0.63186319332E+03  0.71463663176E+03  0.00000000000E+00 0.  1.
        -11    1    5    5    0    0  0.94540185161E+01 -0.52458787768E+02 -0.17183136055E+03  0.17990919751E+03  0.00000000000E+00 0. -1.
          4    1    6    6  503    0 -0.94292683499E+01  0.25202731541E+03 -0.19601437836E+03  0.31941871476E+03  0.00000000000E+00 0. -1.
         -4    1    6    6    0  503  0.35008798889E+02  0.20501238424E+03 -0.25680239872E+03  0.33045902270E+03  0.00000000000E+00 0.  1.
<mgrwt>
<rscale>  0 0.11972718E+04</rscale>
<asrwt>0</asrwt>
<pdfrwt beam="1">  1        2 0.37179881E+00 0.11972718E+04</pdfrwt>
<pdfrwt beam="2">  1       -1 0.22813442E-01 0.11972718E+04</pdfrwt>
<totfact> 0.71987451E+01</totfact>
</mgrwt>
</event>
<event>
12    6  0.1521603E-007  0.3077695E+04  0.7818608E-02  0.8221886E-01
         -1   -1    0    0    0  501 -0.00000000000E+00  0.00000000000E+00  0.11321565925E+04  0.11321565925E+04  0.00000000000E+00 0.  1.
          2   -1    0    0  501    0  0.00000000000E+00 -0.00000000000E+00 -0.20916297261E+04  0.20916297261E+04  0.00000000000E+00 0. -1.
         24    2    1    2    0    0  0.64211499954E+03  0.76803621961E+03  0.59621335049E+03  0.11680574481E+04  0.81832361838E+02 0.  0.
        254    2    1    2    0    0 -0.64211499954E+03 -0.76803621961E+03 -0.15556864840E+04  0.20557288705E+04  0.89647612633E+03 0.  0.
         23    2    4    4    0    0 -0.86552577575E+02 -0.23486740038E+01 -0.88033612031E+03  0.88961622490E+03  0.94490623476E+02 0.  0.
         23    2    4    4    0    0 -0.55556242196E+03 -0.76568754561E+03 -0.67535036373E+03  0.11661126456E+04  0.93774016765E+02 0.  0.
          2    1    3    3  502    0  0.52402448310E+02  0.10247469757E+03  0.73791624124E+02  0.13671972799E+03  0.00000000000E+00 0. -1.
         -1    1    3    3    0  502  0.58971255123E+03  0.66556152204E+03  0.52242172636E+03  0.10313377201E+04  0.00000000000E+00 0.  1.
         11    1    5    5    0    0 -0.32398024528E+02 -0.49311576334E+01 -0.71223327406E+03  0.71298680561E+03  0.00000000000E+00 0. -1.
        -11    1    5    5    0    0 -0.54154553047E+02  0.25824836297E+01 -0.16810284625E+03  0.17662941928E+03  0.00000000000E+00 0.  1.
          1    1    6    6  503    0 -0.49275737124E+03 -0.69658237728E+03 -0.57429927682E+03  0.10285215091E+04  0.00000000000E+00 0. -1.
         -1    1    6    6    0  503 -0.62805050729E+02 -0.69105168332E+02 -0.10105108690E+03  0.13759113653E+03  0.00000000000E+00 0.  1.
<mgrwt>
<rscale>  0 0.30776955E+04</rscale>
<asrwt>0</asrwt>
<pdfrwt beam="1">  1        2 0.32178918E+00 0.30776955E+04</pdfrwt>
<pdfrwt beam="2">  1       -1 0.17417794E+00 0.30776955E+04</pdfrwt>
<totfact> 0.13176274E+00</totfact>
</mgrwt>
</event>
<event>
12    6  0.1521603E-007  0.1767476E+04  0.7818608E-02  0.8723789E-01
          2   -1    0    0  501    0  0.00000000000E+00  0.00000000000E+00  0.26513424351E+04  0.26513424351E+04  0.00000000000E+00 0. -1.
         -1   -1    0    0    0  501 -0.00000000000E+00 -0.00000000000E+00 -0.29456504873E+03  0.29456504873E+03  0.00000000000E+00 0.  1.
         24    2    1    2    0    0 -0.37364442258E+03  0.39402849628E+03  0.26920695876E+03  0.61141469576E+03  0.80541499508E+02 0.  0.
        254    2    1    2    0    0  0.37364442258E+03 -0.39402849628E+03  0.20875704276E+04  0.23344927881E+04  0.89276966621E+03 0.  0.
         23    2    4    4    0    0 -0.26231221017E+03 -0.23438401656E+02  0.82452760081E+03  0.86991431147E+03  0.86879747509E+02 0.  0.
         23    2    4    4    0    0  0.63595663274E+03 -0.37059009463E+03  0.12630428268E+04  0.14645784766E+04  0.89079036917E+02 0.  0.
          2    1    3    3  502    0 -0.30236781812E+02  0.15855657732E+02  0.36819399256E+02  0.50212877014E+02  0.00000000000E+00 0. -1.
         -1    1    3    3    0  502 -0.34340764076E+03  0.37817283855E+03  0.23238755950E+03  0.56120181874E+03  0.00000000000E+00 0.  1.
         11    1    5    5    0    0 -0.75157498393E+02 -0.12808238249E+02  0.37838673502E+03  0.38599121981E+03  0.00000000000E+00 0. -1.
        -11    1    5    5    0    0 -0.18715471177E+03 -0.10630163407E+02  0.44614086579E+03  0.48392309166E+03  0.00000000000E+00 0.  1.
          2    1    6    6  503    0  0.41147767742E+03 -0.25972759605E+03  0.75540306367E+03  0.89855778432E+03  0.00000000000E+00 0. -1.
         -2    1    6    6    0  503  0.22447895532E+03 -0.11086249857E+03  0.50763976311E+03  0.56602069226E+03  0.00000000000E+00 0.  1.
<mgrwt>
<rscale>  0 0.17674760E+04</rscale>
<asrwt>0</asrwt>
<pdfrwt beam="1">  1        2 0.40789882E+00 0.17674760E+04</pdfrwt>
<pdfrwt beam="2">  1       -1 0.45317702E-01 0.17674760E+04</pdfrwt>
<totfact> 0.14813997E+01</totfact>
</mgrwt>
</event>
<event>
12    6  0.1521603E-007  0.1899004E+04  0.7818608E-02  0.8655352E-01
         -1   -1    0    0    0  501 -0.00000000000E+00  0.00000000000E+00  0.62772060895E+03  0.62772060895E+03  0.00000000000E+00 0.  1.
          2   -1    0    0  501    0  0.00000000000E+00 -0.00000000000E+00 -0.14362344886E+04  0.14362344886E+04  0.00000000000E+00 0. -1.
         24    2    1    2    0    0 -0.77111365220E+02  0.30683699385E+03  0.40484805099E+03  0.52032835593E+03  0.82125210183E+02 0.  0.
        254    2    1    2    0    0  0.77111365220E+02 -0.30683699385E+03 -0.12133619306E+04  0.15436267416E+04  0.90024509954E+03 0.  0.
         23    2    4    4    0    0  0.81091065095E+02 -0.25201696112E+03 -0.13429019607E+04  0.13716055655E+04  0.88475089968E+02 0.  0.
         23    2    4    4    0    0 -0.39796998750E+01 -0.54820032729E+02  0.12954003012E+03  0.17202117612E+03  0.98942365200E+02 0.  0.
          2    1    3    3  502    0 -0.36562206092E+02  0.37572346663E+02  0.45172049965E+02  0.69202530634E+02  0.00000000000E+00 0. -1.
         -1    1    3    3    0  502 -0.40549159128E+02  0.26926464719E+03  0.35967600103E+03  0.45112582529E+03  0.00000000000E+00 0.  1.
         11    1    5    5    0    0 -0.51673913456E+01 -0.62360320979E+02 -0.47189882743E+03  0.47602942650E+03  0.00000000000E+00 0. -1.
        -11    1    5    5    0    0  0.86258456441E+02 -0.18965664015E+03 -0.87100313332E+03  0.89557613898E+03  0.00000000000E+00 0.  1.
          4    1    6    6  503    0 -0.41614537540E+02 -0.13353975987E+02  0.18103347761E+02  0.47305703773E+02  0.00000000000E+00 0.  1.
         -4    1    6    6    0  503  0.37634837665E+02 -0.41466056742E+02  0.11143668236E+03  0.12471547235E+03  0.00000000000E+00 0. -1.
<mgrwt>
<rscale>  0 0.18990039E+04</rscale>
<asrwt>0</asrwt>
<pdfrwt beam="1">  1        2 0.22095915E+00 0.18990039E+04</pdfrwt>
<pdfrwt beam="2">  1       -1 0.96572402E-01 0.18990039E+04</pdfrwt>
<totfact> 0.15195735E+01</totfact>
</mgrwt>
</event>
<event>
12    6  0.1521603E-007  0.1273879E+04  0.7818608E-02  0.9050540E-01
          2   -1    0    0  501    0  0.00000000000E+00  0.00000000000E+00  0.13606458819E+04  0.13606458819E+04  0.00000000000E+00 0. -1.
         -1   -1    0    0    0  501 -0.00000000000E+00 -0.00000000000E+00 -0.29816127185E+03  0.29816127185E+03  0.00000000000E+00 0.  1.
         24    2    1    2    0    0  0.11347564529E+03  0.25102781174E+03  0.49862240820E+03  0.57529317790E+03  0.80288543625E+02 0.  0.
        254    2    1    2    0    0 -0.11347564529E+03 -0.25102781174E+03  0.56386220184E+03  0.10835139758E+04  0.88327247711E+03 0.  0.
         23    2    4    4    0    0 -0.93693236581E+02 -0.57319257127E+03  0.38374526376E+03  0.70288466467E+03  0.97253678781E+02 0.  0.
         23    2    4    4    0    0 -0.19782408708E+02  0.32216475952E+03  0.18011693809E+03  0.38062931117E+03  0.90857499198E+02 0.  0.
          2    1    3    3  502    0  0.94688473940E+02  0.23701247652E+03  0.48532727406E+03  0.54834604409E+03  0.00000000000E+00 0. -1.
         -1    1    3    3    0  502  0.18787171349E+02  0.14015335219E+02  0.13295134136E+02  0.26947133805E+02  0.00000000000E+00 0.  1.
         11    1    5    5    0    0  0.14447179091E+02 -0.90420003321E+02  0.37121320944E+02  0.98805315914E+02  0.00000000000E+00 0.  1.
        -11    1    5    5    0    0 -0.10814041567E+03 -0.48277256795E+03  0.34662394281E+03  0.60407934876E+03  0.00000000000E+00 0. -1.
          4    1    6    6  503    0  0.27123759935E+02  0.67130914396E+02  0.17304779618E+02  0.74442685458E+02  0.00000000000E+00 0. -1.
         -4    1    6    6    0  503 -0.46906168643E+02  0.25503384513E+03  0.16281215847E+03  0.30618662571E+03  0.00000000000E+00 0.  1.
<mgrwt>
<rscale>  0 0.12738790E+04</rscale>
<asrwt>0</asrwt>
<pdfrwt beam="1">  1        2 0.20933013E+00 0.12738790E+04</pdfrwt>
<pdfrwt beam="2">  1       -1 0.45870966E-01 0.12738790E+04</pdfrwt>
<totfact> 0.80575215E+01</totfact>
</mgrwt>
</event>
<event>
12    6  0.1521603E-007  0.1829365E+04  0.7818608E-02  0.8690837E-01
          2   -1    0    0  501    0  0.00000000000E+00  0.00000000000E+00  0.88352153287E+03  0.88352153287E+03  0.00000000000E+00 0. -1.
         -1   -1    0    0    0  501 -0.00000000000E+00 -0.00000000000E+00 -0.94694299651E+03  0.94694299651E+03  0.00000000000E+00 0.  1.
         24    2    1    2    0    0  0.33339369091E+03  0.12813580661E+03  0.56812529108E+03  0.67580116455E+03  0.79816850102E+02 0.  0.
        254    2    1    2    0    0 -0.33339369091E+03 -0.12813580661E+03 -0.63154675472E+03  0.11546633648E+04  0.89823496069E+03 0.  0.
         23    2    4    4    0    0  0.11421974605E+03  0.17792693392E+03  0.90594567419E+02  0.24692588052E+03  0.89782351398E+02 0.  0.
         23    2    4    4    0    0 -0.44761343696E+03 -0.30606274053E+03 -0.72214132214E+03  0.90773748431E+03  0.92016635476E+02 0.  0.
          2    1    3    3  502    0  0.22834572061E+03  0.55768188990E+02  0.32306482290E+03  0.39952814521E+03  0.00000000000E+00 0. -1.
         -1    1    3    3    0  502  0.10504797030E+03  0.72367617624E+02  0.24506046819E+03  0.27627301934E+03  0.00000000000E+00 0.  1.
         11    1    5    5    0    0  0.21931459857E+02 -0.38553596354E+01 -0.32365079821E+01  0.22501726896E+02  0.00000000000E+00 0. -1.
        -11    1    5    5    0    0  0.92288286190E+02  0.18178229355E+03  0.93831075401E+02  0.22442415362E+03  0.00000000000E+00 0.  1.
          3    1    6    6  503    0 -0.16329262263E+03 -0.10122539438E+03 -0.18724007269E+03  0.26827207438E+03  0.00000000000E+00 0. -1.
         -3    1    6    6    0  503 -0.28432081432E+03 -0.20483734615E+03 -0.53490124945E+03  0.63946540993E+03  0.00000000000E+00 0.  1.
<mgrwt>
<rscale>  0 0.18293655E+04</rscale>
<asrwt>0</asrwt>
<pdfrwt beam="1">  1        2 0.13592639E+00 0.18293655E+04</pdfrwt>
<pdfrwt beam="2">  1       -1 0.14568354E+00 0.18293655E+04</pdfrwt>
<totfact> 0.12204085E+01</totfact>
</mgrwt>
</event>
<event>
12    6  0.1521603E-007  0.1183997E+04  0.7818608E-02  0.9126980E-01
          2   -1    0    0  501    0  0.00000000000E+00  0.00000000000E+00  0.11503159673E+04  0.11503159673E+04  0.00000000000E+00 0. -1.
         -1   -1    0    0    0  501 -0.00000000000E+00 -0.00000000000E+00 -0.30466607418E+03  0.30466607418E+03  0.00000000000E+00 0.  1.
         24    2    1    2    0    0  0.40099775722E+02 -0.14305896400E+03 -0.38535519152E+02  0.17294112016E+03  0.79685542063E+02 0.  0.
        254    2    1    2    0    0 -0.40099775722E+02  0.14305896400E+03  0.88418541230E+03  0.12820409214E+04  0.91639032159E+03 0.  0.
         23    2    4    4    0    0 -0.24006284886E+03 -0.11630894847E+03  0.89679872401E+03  0.94022939088E+03  0.92873102609E+02 0.  0.
         23    2    4    4    0    0  0.19996307313E+03  0.25936791247E+03 -0.12613311709E+02  0.34181153048E+03  0.97051955672E+02 0.  0.
          2    1    3    3  502    0  0.93376972342E+00 -0.71507027994E+02 -0.54387662057E+02  0.89845115407E+02  0.00000000000E+00 0. -1.
         -1    1    3    3    0  502  0.39166005998E+02 -0.71551936004E+02  0.15852142905E+02  0.83096004757E+02  0.00000000000E+00 0.  1.
         11    1    5    5    0    0 -0.22962504510E+03 -0.78255543975E+02  0.75287658966E+03  0.79099604978E+03  0.00000000000E+00 0. -1.
        -11    1    5    5    0    0 -0.10437803755E+02 -0.38053404494E+02  0.14392213435E+03  0.14923334110E+03  0.00000000000E+00 0.  1.
          4    1    6    6  503    0  0.83082018778E+02  0.45535903291E+02 -0.24405358008E+02  0.97835381290E+02  0.00000000000E+00 0.  1.
         -4    1    6    6    0  503  0.11688105436E+03  0.21383200918E+03  0.11792046300E+02  0.24397614919E+03  0.00000000000E+00 0. -1.
<mgrwt>
<rscale>  0 0.11839970E+04</rscale>
<asrwt>0</asrwt>
<pdfrwt beam="1">  1        2 0.17697169E+00 0.11839970E+04</pdfrwt>
<pdfrwt beam="2">  1       -1 0.46871704E-01 0.11839970E+04</pdfrwt>
<totfact> 0.10363849E+02</totfact>
</mgrwt>
</event>
<event>
12    6  0.1521603E-007  0.1884730E+04  0.7818608E-02  0.8662495E-01
          2   -1    0    0  501    0  0.00000000000E+00  0.00000000000E+00  0.12739434328E+04  0.12739434328E+04  0.00000000000E+00 0. -1.
         -1   -1    0    0    0  501 -0.00000000000E+00 -0.00000000000E+00 -0.69708894820E+03  0.69708894820E+03  0.00000000000E+00 0.  1.
         24    2    1    2    0    0 -0.24707220934E+03 -0.62327476114E+03  0.23455404156E+03  0.71656000102E+03  0.94480326744E+02 0.  0.
        254    2    1    2    0    0  0.24707220934E+03  0.62327476114E+03  0.34230044306E+03  0.12544723800E+04  0.10035014969E+04 0.  0.
         23    2    4    4    0    0  0.61435961337E+03  0.44056185677E+03  0.33927461823E+03  0.83366431790E+03  0.91413588670E+02 0.  0.
         23    2    4    4    0    0 -0.36728740403E+03  0.18271290437E+03  0.30258248274E+01  0.42080806209E+03  0.93734875707E+02 0.  0.
          2    1    3    3  502    0  0.86231771583E+01 -0.20105440450E+02  0.56706371676E+01  0.22599647030E+02  0.00000000000E+00 0. -1.
         -3    1    3    3    0  502 -0.25569538650E+03 -0.60316932069E+03  0.22888340439E+03  0.69396035399E+03  0.00000000000E+00 0.  1.
         11    1    5    5    0    0  0.35104252107E+03  0.28254679225E+03  0.16067262098E+03  0.47841324453E+03  0.00000000000E+00 0. -1.
        -11    1    5    5    0    0  0.26331709230E+03  0.15801506452E+03  0.17860199725E+03  0.35525107337E+03  0.00000000000E+00 0.  1.
          4    1    6    6  503    0 -0.26086869376E+03  0.10946587692E+03  0.41680772696E+02  0.28595898378E+03  0.00000000000E+00 0. -1.
         -4    1    6    6    0  503 -0.10641871027E+03  0.73247027454E+02 -0.38654947869E+02  0.13484907831E+03  0.00000000000E+00 0.  1.
<mgrwt>
<rscale>  0 0.18847301E+04</rscale>
<asrwt>0</asrwt>
<pdfrwt beam="1">  1        2 0.19599130E+00 0.18847301E+04</pdfrwt>
<pdfrwt beam="2">  1       -1 0.10724445E+00 0.18847301E+04</pdfrwt>
<totfact> 0.14831775E+01</totfact>
</mgrwt>
</event>
<event>
12    6  0.1521603E-007  0.1698154E+04  0.7818608E-02  0.8762418E-01
         -3   -1    0    0    0  501 -0.00000000000E+00  0.00000000000E+00  0.12951926760E+04  0.12951926760E+04  0.00000000000E+00 0.  1.
          2   -1    0    0  501    0  0.00000000000E+00 -0.00000000000E+00 -0.55662105445E+03  0.55662105445E+03  0.00000000000E+00 0. -1.
         24    2    1    2    0    0 -0.15069302186E+03  0.58462802456E+02  0.89409064919E+03  0.91196999809E+03  0.78516892054E+02 0.  0.
        254    2    1    2    0    0  0.15069302186E+03 -0.58462802456E+02 -0.15551902766E+03  0.93984373234E+03  0.91268493312E+03 0.  0.
         23    2    4    4    0    0  0.48112197949E+03  0.89987757713E+02  0.71736676205E+02  0.50309575358E+03  0.91558892910E+02 0.  0.
         23    2    4    4    0    0 -0.33042895763E+03 -0.14845056017E+03 -0.22725570387E+03  0.43674797876E+03  0.88785005229E+02 0.  0.
          2    1    3    3  502    0 -0.47579726810E+01  0.21018117118E+02  0.48641504079E+02  0.53201461167E+02  0.00000000000E+00 0. -1.
         -1    1    3    3    0  502 -0.14593504918E+03  0.37444685337E+02  0.84544914511E+03  0.85876853692E+03  0.00000000000E+00 0.  1.
         11    1    5    5    0    0  0.43178091755E+03  0.51731040328E+02  0.54122851894E+02  0.43822385191E+03  0.00000000000E+00 0.  1.
        -11    1    5    5    0    0  0.49341061947E+02  0.38256717385E+02  0.17613824311E+02  0.64871901668E+02  0.00000000000E+00 0. -1.
          3    1    6    6  503    0 -0.40073574848E+02 -0.51176294344E+02 -0.56600163085E+02  0.86188647542E+02  0.00000000000E+00 0. -1.
         -3    1    6    6    0  503 -0.29035538278E+03 -0.97274265825E+02 -0.17065554078E+03  0.35055933121E+03  0.00000000000E+00 0.  1.
<mgrwt>
<rscale>  0 0.16981537E+04</rscale>
<asrwt>0</asrwt>
<pdfrwt beam="1">  1        2 0.85634009E-01 0.16981537E+04</pdfrwt>
<pdfrwt beam="2">  1       -3 0.19926041E+00 0.16981537E+04</pdfrwt>
<totfact> 0.47884524E+00</totfact>
</mgrwt>
</event>
<event>
12    6  0.1521603E-007  0.1754836E+04  0.7818608E-02  0.8730693E-01
         -1   -1    0    0    0  501 -0.00000000000E+00  0.00000000000E+00  0.10765533672E+04  0.10765533672E+04  0.00000000000E+00 0.  1.
          2   -1    0    0  501    0  0.00000000000E+00 -0.00000000000E+00 -0.71511794372E+03  0.71511794372E+03  0.00000000000E+00 0. -1.
         24    2    1    2    0    0 -0.43462822704E+03 -0.49210522358E+03  0.15980660720E+03  0.68041631110E+03  0.79743074254E+02 0.  0.
        254    2    1    2    0    0  0.43462822704E+03  0.49210522358E+03  0.20162881632E+03  0.11112549999E+04  0.87359272450E+03 0.  0.
         23    2    4    4    0    0  0.59486886530E+03  0.61899812383E+03  0.20631459763E+03  0.88678446867E+03  0.82421699014E+02 0.  0.
         23    2    4    4    0    0 -0.16024063825E+03 -0.12689290025E+03 -0.46857813055E+01  0.22447053118E+03  0.92661710215E+02 0.  0.
          4    1    3    3  502    0 -0.12151373219E+03 -0.17402373434E+03  0.22508950273E+02  0.21343968719E+03  0.00000000000E+00 0. -1.
         -1    1    3    3    0  502 -0.31311449485E+03 -0.31808148924E+03  0.13729765693E+03  0.46697662391E+03  0.00000000000E+00 0.  1.
         11    1    5    5    0    0  0.36215626613E+03  0.32335486490E+03  0.13393719871E+03  0.50364144285E+03  0.00000000000E+00 0.  1.
        -11    1    5    5    0    0  0.23271259916E+03  0.29564325893E+03  0.72377398921E+02  0.38314302582E+03  0.00000000000E+00 0. -1.
          4    1    6    6  503    0 -0.96784320005E+02 -0.59031113824E+02 -0.46568768078E+02  0.12255826026E+03  0.00000000000E+00 0.  1.
         -4    1    6    6    0  503 -0.63456318249E+02 -0.67861786429E+02  0.41882986773E+02  0.10191227092E+03  0.00000000000E+00 0. -1.
<mgrwt>
<rscale>  0 0.17548363E+04</rscale>
<asrwt>0</asrwt>
<pdfrwt beam="1">  1        2 0.11001814E+00 0.17548363E+04</pdfrwt>
<pdfrwt beam="2">  1       -1 0.16562360E+00 0.17548363E+04</pdfrwt>
<totfact> 0.11436711E+01</totfact>
</mgrwt>
</event>
<event>
12    6  0.1521603E-007  0.3660000E+04  0.7818608E-02  0.8076885E-01
         -1   -1    0    0    0  501 -0.00000000000E+00  0.00000000000E+00  0.17203813618E+04  0.17203813618E+04  0.00000000000E+00 0.  1.
          2   -1    0    0  501    0  0.00000000000E+00 -0.00000000000E+00 -0.19466029380E+04  0.19466029380E+04  0.00000000000E+00 0. -1.
         24    2    1    2    0    0  0.48098001443E+03 -0.60670905344E+03 -0.16454356940E+04  0.18202856531E+04  0.80892435945E+02 0.  0.
        254    2    1    2    0    0 -0.48098001443E+03  0.60670905344E+03  0.14192141178E+04  0.18466986467E+04  0.89257466336E+03 0.  0.
         23    2    4    4    0    0 -0.35169526024E+03  0.70535335625E+03  0.56889587338E+03  0.97631410270E+03  0.91289644116E+02 0.  0.
         23    2    4    4    0    0 -0.12928475419E+03 -0.98644302811E+02  0.85031824444E+03  0.87038454399E+03  0.89904902283E+02 0.  0.
          2    1    3    3  502    0  0.33777186962E+03 -0.43451779033E+03 -0.10808716877E+04  0.12129217416E+04  0.00000000000E+00 0. -1.
         -1    1    3    3    0  502  0.14320814482E+03 -0.17219126311E+03 -0.56456400626E+03  0.60736391151E+03  0.00000000000E+00 0.  1.
         11    1    5    5    0    0 -0.64671769693E+02  0.12319030450E+03  0.14571946111E+03  0.20147568157E+03  0.00000000000E+00 0.  1.
        -11    1    5    5    0    0 -0.28702349055E+03  0.58216305176E+03  0.42317641228E+03  0.77483842114E+03  0.00000000000E+00 0. -1.
          3    1    6    6  503    0 -0.11924811667E+03 -0.53232902945E+02  0.72600666119E+03  0.73765813720E+03  0.00000000000E+00 0. -1.
         -3    1    6    6    0  503 -0.10036637519E+02 -0.45411399866E+02  0.12431158325E+03  0.13272640679E+03  0.00000000000E+00 0.  1.
<mgrwt>
<rscale>  0 0.36599997E+04</rscale>
<asrwt>0</asrwt>
<pdfrwt beam="1">  1        2 0.29947737E+00 0.36599997E+04</pdfrwt>
<pdfrwt beam="2">  1       -1 0.26467406E+00 0.36599997E+04</pdfrwt>
<totfact> 0.36932748E-01</totfact>
</mgrwt>
</event>
<event>
12    6  0.1521603E-007  0.1420988E+04  0.7818608E-02  0.8938765E-01
         -1   -1    0    0    0  501 -0.00000000000E+00  0.00000000000E+00  0.13169805857E+03  0.13169805857E+03  0.00000000000E+00 0.  1.
          2   -1    0    0  501    0  0.00000000000E+00 -0.00000000000E+00 -0.38330233406E+04  0.38330233406E+04  0.00000000000E+00 0. -1.
         24    2    1    2    0    0 -0.26747808608E+03  0.15926409414E+03 -0.32632275788E+03  0.45800056644E+03  0.79802245129E+02 0.  0.
        254    2    1    2    0    0  0.26747808608E+03 -0.15926409414E+03 -0.33750025241E+04  0.35067208327E+04  0.89974406502E+03 0.  0.
         23    2    4    4    0    0  0.93608079805E+02  0.29641794316E+03 -0.55042943796E+03  0.63896523678E+03  0.93155450815E+02 0.  0.
         23    2    4    4    0    0  0.17387000628E+03 -0.45568203730E+03 -0.28245730861E+04  0.28677555959E+04  0.89062566311E+02 0.  0.
          4    1    3    3  502    0 -0.20174312570E+03  0.11060730124E+03 -0.28528170631E+03  0.36649681555E+03  0.00000000000E+00 0. -1.
         -3    1    3    3    0  502 -0.65734960379E+02  0.48656792903E+02 -0.41041051575E+02  0.91503750885E+02  0.00000000000E+00 0.  1.
         11    1    5    5    0    0  0.55055736012E+02  0.65287007415E+02 -0.19931193917E+03  0.21683813433E+03  0.00000000000E+00 0. -1.
        -11    1    5    5    0    0  0.38552343793E+02  0.23113093574E+03 -0.35111749879E+03  0.42212710245E+03  0.00000000000E+00 0.  1.
          4    1    6    6  503    0  0.12088588871E+03 -0.37770886871E+03 -0.21048640777E+04  0.21418987309E+04  0.00000000000E+00 0.  1.
         -4    1    6    6    0  503  0.52984117562E+02 -0.77973168585E+02 -0.71970900842E+03  0.72585686505E+03  0.00000000000E+00 0. -1.
<mgrwt>
<rscale>  0 0.14209880E+04</rscale>
<asrwt>0</asrwt>
<pdfrwt beam="1">  1        2 0.58969597E+00 0.14209880E+04</pdfrwt>
<pdfrwt beam="2">  1       -1 0.20261237E-01 0.14209880E+04</pdfrwt>
<totfact> 0.10505887E+01</totfact>
</mgrwt>
</event>
<event>
12    6  0.1521603E-007  0.1824435E+04  0.7818608E-02  0.8693412E-01
          2   -1    0    0  501    0  0.00000000000E+00  0.00000000000E+00  0.20250546841E+04  0.20250546841E+04  0.00000000000E+00 0. -1.
         -1   -1    0    0    0  501 -0.00000000000E+00 -0.00000000000E+00 -0.41092266668E+03  0.41092266668E+03  0.00000000000E+00 0.  1.
         24    2    1    2    0    0  0.52505421290E+03  0.43749774033E+03  0.70671998437E+03  0.98630341130E+03  0.79089086196E+02 0.  0.
        254    2    1    2    0    0 -0.52505421290E+03 -0.43749774033E+03  0.90741203303E+03  0.14496739395E+04  0.90059521085E+03 0.  0.
         23    2    4    4    0    0 -0.33292613071E+03 -0.70747160075E+03  0.62503526621E+03  0.10050668862E+04  0.90191393063E+02 0.  0.
         23    2    4    4    0    0 -0.19212808219E+03  0.26997386042E+03  0.28237676683E+03  0.44460705325E+03  0.90220330758E+02 0.  0.
          4    1    3    3  502    0  0.13396687416E+03  0.10630451241E+03  0.22799225411E+03  0.28500568532E+03  0.00000000000E+00 0. -1.
         -3    1    3    3    0  502  0.39108733874E+03  0.33119322793E+03  0.47872773026E+03  0.70129772597E+03  0.00000000000E+00 0.  1.
         11    1    5    5    0    0 -0.10886652553E+03 -0.14416146549E+03  0.13424093809E+03  0.22506683001E+03  0.00000000000E+00 0.  1.
        -11    1    5    5    0    0 -0.22405960518E+03 -0.56331013526E+03  0.49079432812E+03  0.78000005620E+03  0.00000000000E+00 0. -1.
          2    1    6    6  503    0 -0.10401400850E+03  0.87819725581E+02  0.15124437366E+03  0.20348483661E+03  0.00000000000E+00 0. -1.
         -2    1    6    6    0  503 -0.88114073682E+02  0.18215413484E+03  0.13113239316E+03  0.24112221664E+03  0.00000000000E+00 0.  1.
<mgrwt>
<rscale>  0 0.18244351E+04</rscale>
<asrwt>0</asrwt>
<pdfrwt beam="1">  1        2 0.31154687E+00 0.18244351E+04</pdfrwt>
<pdfrwt beam="2">  1       -1 0.63218873E-01 0.18244351E+04</pdfrwt>
<totfact> 0.17618038E+01</totfact>
</mgrwt>
</event>
<event>
12    6  0.1521603E-007  0.1598543E+04  0.7818608E-02  0.8821444E-01
          2   -1    0    0  501    0  0.00000000000E+00  0.00000000000E+00  0.98686809622E+03  0.98686809622E+03  0.00000000000E+00 0. -1.
         -1   -1    0    0    0  501 -0.00000000000E+00 -0.00000000000E+00 -0.64733547579E+03  0.64733547579E+03  0.00000000000E+00 0.  1.
         24    2    1    2    0    0  0.34049656227E+03  0.36576821385E+02  0.54182548219E+03  0.64628788806E+03  0.82688622673E+02 0.  0.
        254    2    1    2    0    0 -0.34049656227E+03 -0.36576821385E+02 -0.20229286176E+03  0.98791568396E+03  0.90431146399E+03 0.  0.
         23    2    4    4    0    0 -0.12948123268E+03 -0.39706033556E+03  0.12960202261E+03  0.44655228987E+03  0.90498417821E+02 0.  0.
         23    2    4    4    0    0 -0.21101532959E+03  0.36048351418E+03 -0.33189488437E+03  0.54136339409E+03  0.91892746567E+02 0.  0.
          4    1    3    3  502    0  0.30847171328E+03  0.24294314345E+02  0.52158459496E+03  0.60646145904E+03  0.00000000000E+00 0. -1.
         -3    1    3    3    0  502  0.32024848997E+02  0.12282507040E+02  0.20240887224E+02  0.39826429015E+02  0.00000000000E+00 0.  1.
         11    1    5    5    0    0 -0.42667050581E+02 -0.13740423047E+03  0.55126022450E+00  0.14387739101E+03  0.00000000000E+00 0. -1.
        -11    1    5    5    0    0 -0.86814182100E+02 -0.25965610509E+03  0.12905076239E+03  0.30267489885E+03  0.00000000000E+00 0.  1.
          4    1    6    6  503    0 -0.70491817122E+01  0.22825384708E+02 -0.53345947060E+02  0.58450656263E+02  0.00000000000E+00 0. -1.
         -4    1    6    6    0  503 -0.20396614788E+03  0.33765812947E+03 -0.27854893731E+03  0.48291273783E+03  0.00000000000E+00 0.  1.
<mgrwt>
<rscale>  0 0.15985427E+04</rscale>
<asrwt>0</asrwt>
<pdfrwt beam="1">  1        2 0.15182586E+00 0.15985427E+04</pdfrwt>
<pdfrwt beam="2">  1       -1 0.99590073E-01 0.15985427E+04</pdfrwt>
<totfact> 0.27047198E+01</totfact>
</mgrwt>
</event>
<event>
12    6  0.1521603E-007  0.1565895E+04  0.7818608E-02  0.8841778E-01
         -3   -1    0    0    0  501 -0.00000000000E+00  0.00000000000E+00  0.28108037624E+03  0.28108037624E+03  0.00000000000E+00 0.  1.
          4   -1    0    0  501    0  0.00000000000E+00 -0.00000000000E+00 -0.21808961162E+04  0.21808961162E+04  0.00000000000E+00 0. -1.
         24    2    1    2    0    0  0.29008438419E+03 -0.26986980757E+03 -0.10226959672E+03  0.41600654491E+03  0.74991412851E+02 0.  0.
        254    2    1    2    0    0 -0.29008438419E+03  0.26986980757E+03 -0.17975461433E+04  0.20459699476E+04  0.89322014428E+03 0.  0.
         23    2    4    4    0    0 -0.58550735991E+01  0.31880018473E+03 -0.13917411205E+03  0.36024819610E+03  0.93495933910E+02 0.  0.
         23    2    4    4    0    0 -0.28422931059E+03 -0.48930377169E+02 -0.16583720312E+04  0.16857217515E+04  0.90992013865E+02 0.  0.
          2    1    3    3  502    0  0.16636419223E+03 -0.16188031362E+03 -0.21848611607E+02  0.23315154347E+03  0.00000000000E+00 0. -1.
         -1    1    3    3    0  502  0.12372019196E+03 -0.10798949395E+03 -0.80420985118E+02  0.18285500144E+03  0.00000000000E+00 0.  1.
         11    1    5    5    0    0  0.41900450456E+02  0.11572394643E+03 -0.62048458259E+02  0.13783211055E+03  0.00000000000E+00 0. -1.
        -11    1    5    5    0    0 -0.47755524055E+02  0.20307623830E+03 -0.77125653790E+02  0.22241608555E+03  0.00000000000E+00 0.  1.
          1    1    6    6  503    0 -0.12938260056E+03  0.14280197852E+01 -0.52483501459E+03  0.54054943262E+03  0.00000000000E+00 0. -1.
         -1    1    6    6    0  503 -0.15484671003E+03 -0.50358396954E+02 -0.11335370166E+04  0.11451723188E+04  0.00000000000E+00 0.  1.
<mgrwt>
<rscale>  0 0.15658954E+04</rscale>
<asrwt>0</asrwt>
<pdfrwt beam="1">  1        4 0.33552247E+00 0.15658954E+04</pdfrwt>
<pdfrwt beam="2">  1       -3 0.43243136E-01 0.15658954E+04</pdfrwt>
<totfact> 0.21693916E-01</totfact>
</mgrwt>
</event>
<event>
12    6  0.1521603E-007  0.1623873E+04  0.7818608E-02  0.8806015E-01
          2   -1    0    0  501    0  0.00000000000E+00  0.00000000000E+00  0.15919039931E+04  0.15919039931E+04  0.00000000000E+00 0. -1.
         -1   -1    0    0    0  501 -0.00000000000E+00 -0.00000000000E+00 -0.41412103939E+03  0.41412103939E+03  0.00000000000E+00 0.  1.
         24    2    1    2    0    0 -0.18052981962E+03  0.39735840013E+03  0.85092068687E+03  0.95970839300E+03  0.80557248765E+02 0.  0.
        254    2    1    2    0    0  0.18052981962E+03 -0.39735840013E+03  0.32686226684E+03  0.10463166395E+04  0.89300327809E+03 0.  0.
         23    2    4    4    0    0  0.20141690708E+03 -0.63197214448E+03  0.40507482571E+03  0.78243322707E+03  0.90324850088E+02 0.  0.
         23    2    4    4    0    0 -0.20887087467E+02  0.23461374436E+03 -0.78212558867E+02  0.26388341242E+03  0.89651388837E+02 0.  0.
          4    1    3    3  502    0 -0.90281901968E+02  0.22985797932E+03  0.56076247115E+03  0.61273163908E+03  0.00000000000E+00 0. -1.
         -3    1    3    3    0  502 -0.90247917649E+02  0.16750042081E+03  0.29015821572E+03  0.34697675392E+03  0.00000000000E+00 0.  1.
         11    1    5    5    0    0  0.14688905411E+03 -0.38871674782E+03  0.20824822658E+03  0.46480579614E+03  0.00000000000E+00 0. -1.
        -11    1    5    5    0    0  0.54527852974E+02 -0.24325539666E+03  0.19682659913E+03  0.31762743093E+03  0.00000000000E+00 0.  1.
          3    1    6    6  503    0 -0.51506945686E+02  0.91965124458E+02 -0.42690168946E+02  0.11372334894E+03  0.00000000000E+00 0. -1.
         -3    1    6    6    0  503  0.30619858219E+02  0.14264861990E+03 -0.35522389921E+02  0.15016006347E+03  0.00000000000E+00 0.  1.
<mgrwt>
<rscale>  0 0.16238731E+04</rscale>
<asrwt>0</asrwt>
<pdfrwt beam="1">  1        2 0.24490830E+00 0.16238731E+04</pdfrwt>
<pdfrwt beam="2">  1       -1 0.63710930E-01 0.16238731E+04</pdfrwt>
<totfact> 0.30704506E+01</totfact>
</mgrwt>
</event>
<event>
12    6  0.1521603E-007  0.1721058E+04  0.7818608E-02  0.8749445E-01
         -1   -1    0    0    0  501 -0.00000000000E+00  0.00000000000E+00  0.23413453395E+04  0.23413453395E+04  0.00000000000E+00 0.  1.
          2   -1    0    0  501    0  0.00000000000E+00 -0.00000000000E+00 -0.31627547521E+03  0.31627547521E+03  0.00000000000E+00 0. -1.
         24    2    1    2    0    0 -0.15106597156E+03  0.53820063920E+03  0.32081727422E+03  0.64887570880E+03  0.75067344658E+02 0.  0.
        254    2    1    2    0    0  0.15106597156E+03 -0.53820063920E+03  0.17042525900E+04  0.20087451059E+04  0.90448833820E+03 0.  0.
         23    2    4    4    0    0  0.17212759458E+03 -0.76173237184E+03  0.14984727879E+04  0.16922186221E+04  0.91208847899E+02 0.  0.
         23    2    4    4    0    0 -0.21061623024E+02  0.22353173264E+03  0.20577980215E+03  0.31652648374E+03  0.86218678220E+02 0.  0.
          4    1    3    3  502    0 -0.15261837921E+03  0.47485900727E+03  0.30063383913E+03  0.58237801443E+03  0.00000000000E+00 0. -1.
         -3    1    3    3    0  502  0.15524076531E+01  0.63341631922E+02  0.20183435097E+02  0.66497694369E+02  0.00000000000E+00 0.  1.
         11    1    5    5    0    0  0.13698831108E+03 -0.43565133331E+03  0.92479726033E+03  0.10314106138E+04  0.00000000000E+00 0. -1.
        -11    1    5    5    0    0  0.35139283501E+02 -0.32608103853E+03  0.57367552756E+03  0.66080800832E+03  0.00000000000E+00 0.  1.
          4    1    6    6  503    0 -0.51573078189E+02  0.17908769250E+03  0.16530186631E+03  0.24911220565E+03  0.00000000000E+00 0. -1.
         -4    1    6    6    0  503  0.30511455165E+02  0.44444040142E+02  0.40477935838E+02  0.67414278088E+02  0.00000000000E+00 0.  1.
<mgrwt>
<rscale>  0 0.17210579E+04</rscale>
<asrwt>0</asrwt>
<pdfrwt beam="1">  1        2 0.48657767E-01 0.17210579E+04</pdfrwt>
<pdfrwt beam="2">  1       -1 0.36020696E+00 0.17210579E+04</pdfrwt>
<totfact> 0.15000426E+00</totfact>
</mgrwt>
</event>
<event>
12    6  0.1521603E-007  0.1658148E+04  0.7818608E-02  0.8785601E-01
         -1   -1    0    0    0  501 -0.00000000000E+00  0.00000000000E+00  0.88636790630E+03  0.88636790630E+03  0.00000000000E+00 0.  1.
          2   -1    0    0  501    0  0.00000000000E+00 -0.00000000000E+00 -0.77548368503E+03  0.77548368503E+03  0.00000000000E+00 0. -1.
         24    2    1    2    0    0  0.58121599013E+03 -0.22064778312E+02  0.42668334816E+02  0.58871852573E+03  0.80436522253E+02 0.  0.
        254    2    1    2    0    0 -0.58121599013E+03  0.22064778312E+02  0.68215886462E+02  0.10731330656E+04  0.89925651941E+03 0.  0.
         23    2    4    4    0    0 -0.19934988414E+03  0.15164843077E+03  0.44102620012E+03  0.51501904580E+03  0.89458847984E+02 0.  0.
         23    2    4    4    0    0 -0.38186610599E+03 -0.12958365246E+03 -0.37281031366E+03  0.55811401980E+03  0.99448897625E+02 0.  0.
          2    1    3    3  502    0  0.13051609052E+03 -0.27196675621E+02  0.35364397021E+02  0.13793023463E+03  0.00000000000E+00 0. -1.
         -1    1    3    3    0  502  0.45069989961E+03  0.51318973086E+01  0.73039377950E+01  0.45078829110E+03  0.00000000000E+00 0.  1.
         11    1    5    5    0    0 -0.99764564574E+02  0.58954147151E+02  0.12235395455E+03  0.16852017685E+03  0.00000000000E+00 0.  1.
        -11    1    5    5    0    0 -0.99585319567E+02  0.92694283622E+02  0.31867224557E+03  0.34649886895E+03  0.00000000000E+00 0. -1.
          1    1    6    6  503    0 -0.35901070203E+03 -0.92417791942E+02 -0.32098873200E+03  0.49037077657E+03  0.00000000000E+00 0. -1.
         -1    1    6    6    0  503 -0.22855403960E+02 -0.37165860519E+02 -0.51821581659E+02  0.67743243234E+02  0.00000000000E+00 0.  1.
<mgrwt>
<rscale>  0 0.16581482E+04</rscale>
<asrwt>0</asrwt>
<pdfrwt beam="1">  1        2 0.11930518E+00 0.16581482E+04</pdfrwt>
<pdfrwt beam="2">  1       -1 0.13636429E+00 0.16581482E+04</pdfrwt>
<totfact> 0.17565035E+01</totfact>
</mgrwt>
</event>
<event>
12    6  0.1521603E-007  0.2175538E+04  0.7818608E-02  0.8528679E-01
          2   -1    0    0  501    0  0.00000000000E+00  0.00000000000E+00  0.14449314882E+04  0.14449314882E+04  0.00000000000E+00 0. -1.
         -1   -1    0    0    0  501 -0.00000000000E+00 -0.00000000000E+00 -0.81889083700E+03  0.81889083700E+03  0.00000000000E+00 0.  1.
         24    2    1    2    0    0 -0.81606841508E+03  0.35493797943E+03  0.13113174558E+03  0.90607752718E+03  0.10877648288E+03 0.  0.
        254    2    1    2    0    0  0.81606841508E+03 -0.35493797943E+03  0.49490890558E+03  0.13577447980E+04  0.89810215694E+03 0.  0.
         23    2    4    4    0    0  0.53643540833E+03 -0.48741724299E+03  0.66975035480E+03  0.99094044452E+03  0.89771436226E+02 0.  0.
         23    2    4    4    0    0  0.27963300675E+03  0.13247926356E+03 -0.17484144922E+03  0.36680435346E+03  0.90722255329E+02 0.  0.
          2    1    3    3  502    0 -0.77226522622E+03  0.31192878868E+03  0.10544034310E+03  0.83953011548E+03  0.00000000000E+00 0. -1.
         -1    1    3    3    0  502 -0.43803188858E+02  0.43009190754E+02  0.25691402473E+02  0.66547411704E+02  0.00000000000E+00 0.  1.
         11    1    5    5    0    0  0.35672140809E+03 -0.30220508583E+03  0.48431467724E+03  0.67315583893E+03  0.00000000000E+00 0.  1.
        -11    1    5    5    0    0  0.17971400024E+03 -0.18521215716E+03  0.18543567757E+03  0.31778460560E+03  0.00000000000E+00 0. -1.
          3    1    6    6  503    0  0.84789374480E+02  0.87702425094E+02 -0.56004245235E+02  0.13422901652E+03  0.00000000000E+00 0. -1.
         -3    1    6    6    0  503  0.19484363227E+03  0.44776838464E+02 -0.11883720399E+03  0.23257533694E+03  0.00000000000E+00 0.  1.
<mgrwt>
<rscale>  0 0.21755378E+04</rscale>
<asrwt>0</asrwt>
<pdfrwt beam="1">  1        2 0.22229715E+00 0.21755378E+04</pdfrwt>
<pdfrwt beam="2">  1       -1 0.12598321E+00 0.21755378E+04</pdfrwt>
<totfact> 0.78119430E+00</totfact>
</mgrwt>
</event>
<event>
12    6  0.1521603E-007  0.2208923E+04  0.7818608E-02  0.8514723E-01
         -1   -1    0    0    0  501 -0.00000000000E+00  0.00000000000E+00  0.12782314335E+04  0.12782314335E+04  0.00000000000E+00 0.  1.
          2   -1    0    0  501    0  0.00000000000E+00 -0.00000000000E+00 -0.95431458968E+03  0.95431458968E+03  0.00000000000E+00 0. -1.
         24    2    1    2    0    0  0.33271684907E+02  0.78990281146E+03 -0.33381217852E+03  0.86203734373E+03  0.81390139975E+02 0.  0.
        254    2    1    2    0    0 -0.33271684907E+02 -0.78990281146E+03  0.65772902233E+03  0.13705086794E+04  0.90588802678E+03 0.  0.
         23    2    4    4    0    0  0.25935998183E+03 -0.31697149826E+03 -0.94868559784E+02  0.42993759804E+03  0.90043121296E+02 0.  0.
         23    2    4    4    0    0 -0.29263166674E+03 -0.47293131320E+03  0.75259758211E+03  0.94057108140E+03  0.94728660875E+02 0.  0.
          2    1    3    3  502    0  0.40508349461E+02  0.66845306463E+03 -0.31049385269E+03  0.73815774639E+03  0.00000000000E+00 0. -1.
         -3    1    3    3    0  502 -0.72366645535E+01  0.12144974682E+03 -0.23318325835E+02  0.12387959734E+03  0.00000000000E+00 0.  1.
         11    1    5    5    0    0  0.61695143564E+02 -0.28701112260E+02 -0.30335433612E+02  0.74500222259E+02  0.00000000000E+00 0.  1.
        -11    1    5    5    0    0  0.19766483827E+03 -0.28827038600E+03 -0.64533126172E+02  0.35543737578E+03  0.00000000000E+00 0. -1.
          4    1    6    6  503    0 -0.26148092078E+03 -0.44181454825E+03  0.72582281122E+03  0.88903943684E+03  0.00000000000E+00 0.  1.
         -4    1    6    6    0  503 -0.31150745957E+02 -0.31116764957E+02  0.26774770891E+02  0.51531644563E+02  0.00000000000E+00 0. -1.
<mgrwt>
<rscale>  0 0.22089227E+04</rscale>
<asrwt>0</asrwt>
<pdfrwt beam="1">  1        2 0.14681763E+00 0.22089227E+04</pdfrwt>
<pdfrwt beam="2">  1       -1 0.19665099E+00 0.22089227E+04</pdfrwt>
<totfact> 0.44608589E+00</totfact>
</mgrwt>
</event>
<event>
12    6  0.1521603E-007  0.1151398E+04  0.7818608E-02  0.9156494E-01
          2   -1    0    0  501    0  0.00000000000E+00  0.00000000000E+00  0.19880982178E+04  0.19880982178E+04  0.00000000000E+00 0. -1.
         -1   -1    0    0    0  501 -0.00000000000E+00 -0.00000000000E+00 -0.16670683743E+03  0.16670683743E+03  0.00000000000E+00 0.  1.
         24    2    1    2    0    0  0.21387527644E+02 -0.14463987484E+02  0.75239265499E+03  0.75729004437E+03  0.82017502661E+02 0.  0.
        254    2    1    2    0    0 -0.21387527644E+02  0.14463987484E+02  0.10689987254E+04  0.13975150109E+04  0.89979069646E+03 0.  0.
         23    2    4    4    0    0 -0.20051088294E+03 -0.20532216883E+03  0.18132607056E+02  0.30519903809E+03  0.10225387140E+03 0.  0.
         23    2    4    4    0    0  0.17912335530E+03  0.21978615632E+03  0.10508661183E+04  0.10923159728E+04  0.91888273487E+02 0.  0.
          2    1    3    3  502    0  0.15570720715E+02  0.32969463773E+02  0.40266533859E+03  0.40431275987E+03  0.00000000000E+00 0. -1.
         -1    1    3    3    0  502  0.58168069294E+01 -0.47433451256E+02  0.34972731639E+03  0.35297728450E+03  0.00000000000E+00 0.  1.
         11    1    5    5    0    0 -0.13738672895E+03 -0.14156075087E+03  0.59997289947E+02  0.20618980159E+03  0.00000000000E+00 0. -1.
        -11    1    5    5    0    0 -0.63124153988E+02 -0.63761417960E+02 -0.41864682892E+02  0.99009236491E+02  0.00000000000E+00 0.  1.
          2    1    6    6  503    0  0.48025478721E+02  0.66837872369E+02  0.17225062407E+03  0.19090318300E+03  0.00000000000E+00 0. -1.
         -2    1    6    6    0  503  0.13109787657E+03  0.15294828395E+03  0.87861549427E+03  0.90141278978E+03  0.00000000000E+00 0.  1.
<mgrwt>
<rscale>  0 0.11513984E+04</rscale>
<asrwt>0</asrwt>
<pdfrwt beam="1">  1        2 0.30586125E+00 0.11513984E+04</pdfrwt>
<pdfrwt beam="2">  1       -1 0.25647207E-01 0.11513984E+04</pdfrwt>
<totfact> 0.10269638E+02</totfact>
</mgrwt>
</event>
<event>
12    6  0.1521603E-007  0.1290497E+04  0.7818608E-02  0.9037135E-01
         -1   -1    0    0    0  501 -0.00000000000E+00  0.00000000000E+00  0.23663694121E+03  0.23663694121E+03  0.00000000000E+00 0.  1.
          2   -1    0    0  501    0  0.00000000000E+00 -0.00000000000E+00 -0.17594276414E+04  0.17594276414E+04  0.00000000000E+00 0. -1.
         24    2    1    2    0    0 -0.12382301167E+03  0.19172016971E+03 -0.39679556145E+02  0.24477145079E+03  0.79055893217E+02 0.  0.
        254    2    1    2    0    0  0.12382301167E+03 -0.19172016971E+03 -0.14831111441E+04  0.17512931319E+04  0.90295083270E+03 0.  0.
         23    2    4    4    0    0  0.44833587201E+03 -0.33108891108E+03 -0.94774816209E+03  0.11034040968E+04  0.93000542730E+02 0.  0.
         23    2    4    4    0    0 -0.32451286034E+03  0.13936874137E+03 -0.53536298200E+03  0.64788903504E+03  0.91730238412E+02 0.  0.
          2    1    3    3  502    0 -0.17507556366E+02 -0.16150111957E+01 -0.14328564567E+02  0.22681061563E+02  0.00000000000E+00 0. -1.
         -1    1    3    3    0  502 -0.10631545531E+03  0.19333518091E+03 -0.25350991578E+02  0.22209038923E+03  0.00000000000E+00 0.  1.
         11    1    5    5    0    0  0.96577252115E+02 -0.87806644706E+02 -0.30037814759E+03  0.32751214333E+03  0.00000000000E+00 0. -1.
        -11    1    5    5    0    0  0.35175861990E+03 -0.24328226637E+03 -0.64737001450E+03  0.77589195348E+03  0.00000000000E+00 0.  1.
          3    1    6    6  503    0 -0.15757367052E+03  0.88460872119E+02 -0.34611879389E+03  0.39045231081E+03  0.00000000000E+00 0. -1.
         -3    1    6    6    0  503 -0.16693918982E+03  0.50907869249E+02 -0.18924418811E+03  0.25743672423E+03  0.00000000000E+00 0.  1.
<mgrwt>
<rscale>  0 0.12904969E+04</rscale>
<asrwt>0</asrwt>
<pdfrwt beam="1">  1        2 0.27068118E+00 0.12904969E+04</pdfrwt>
<pdfrwt beam="2">  1       -1 0.36405683E-01 0.12904969E+04</pdfrwt>
<totfact> 0.73410185E+01</totfact>
</mgrwt>
</event>
<event>
12    6  0.1521603E-007  0.2433911E+04  0.7818608E-02  0.8426916E-01
         -1   -1    0    0    0  501 -0.00000000000E+00  0.00000000000E+00  0.40038664515E+03  0.40038664515E+03  0.00000000000E+00 0.  1.
          2   -1    0    0  501    0  0.00000000000E+00 -0.00000000000E+00 -0.36988758400E+04  0.36988758400E+04  0.00000000000E+00 0. -1.
         24    2    1    2    0    0 -0.57931988183E+03 -0.87846906536E+03 -0.13631805544E+04  0.17239273711E+04  0.79655084569E+02 0.  0.
        254    2    1    2    0    0  0.57931988183E+03  0.87846906536E+03 -0.19353086404E+04  0.23753351141E+04  0.88852571496E+03 0.  0.
         23    2    4    4    0    0  0.68536332332E+03  0.77923854578E+03 -0.10729841468E+04  0.14960706949E+04  0.99984741210E+02 0.  0.
         23    2    4    4    0    0 -0.10604344149E+03  0.99230519577E+02 -0.86232449361E+03  0.87926441922E+03  0.91708664415E+02 0.  0.
          4    1    3    3  502    0 -0.47145960220E+03 -0.68092260467E+03 -0.11141337562E+04  0.13882448548E+04  0.00000000000E+00 0. -1.
         -3    1    3    3    0  502 -0.10786027963E+03 -0.19754646069E+03 -0.24904679819E+03  0.33568251629E+03  0.00000000000E+00 0.  1.
         11    1    5    5    0    0  0.23027393854E+03  0.32257053033E+03 -0.44807094483E+03  0.59820180993E+03  0.00000000000E+00 0. -1.
        -11    1    5    5    0    0  0.45508938478E+03  0.45666801546E+03 -0.62491320199E+03  0.89786888492E+03  0.00000000000E+00 0.  1.
          1    1    6    6  503    0 -0.10998643154E+03  0.51365104380E+02 -0.67827254497E+03  0.68904937003E+03  0.00000000000E+00 0. -1.
         -1    1    6    6    0  503  0.39429900492E+01  0.47865415197E+02 -0.18405194864E+03  0.19021504919E+03  0.00000000000E+00 0.  1.
<mgrwt>
<rscale>  0 0.24339108E+04</rscale>
<asrwt>0</asrwt>
<pdfrwt beam="1">  1        2 0.56905781E+00 0.24339108E+04</pdfrwt>
<pdfrwt beam="2">  1       -1 0.61597947E-01 0.24339108E+04</pdfrwt>
<totfact> 0.15985617E+00</totfact>
</mgrwt>
</event>
<event>
12    6  0.1521603E-007  0.3683386E+04  0.7818608E-02  0.8071654E-01
          2   -1    0    0  501    0  0.00000000000E+00  0.00000000000E+00  0.23545640010E+04  0.23545640010E+04  0.00000000000E+00 0. -1.
         -1   -1    0    0    0  501 -0.00000000000E+00 -0.00000000000E+00 -0.14405353367E+04  0.14405353367E+04  0.00000000000E+00 0.  1.
         24    2    1    2    0    0  0.15921531144E+04 -0.42247452427E+03 -0.11070231887E+03  0.16528638432E+04  0.79168285827E+02 0.  0.
        254    2    1    2    0    0 -0.15921531144E+04  0.42247452427E+03  0.10247309832E+04  0.21422354945E+04  0.90866003681E+03 0.  0.
         23    2    4    4    0    0 -0.11363375986E+04  0.36556734394E+03  0.11470760244E+04  0.16585689721E+04  0.10082166687E+03 0.  0.
         23    2    4    4    0    0 -0.45581551578E+03  0.56907180323E+02 -0.12234504121E+03  0.48366652234E+03  0.89212017856E+02 0.  0.
          4    1    3    3  502    0  0.33839219060E+03 -0.69530286340E+02 -0.48908797030E+02  0.34890658608E+03  0.00000000000E+00 0. -1.
         -3    1    3    3    0  502  0.12537609238E+04 -0.35294423793E+03 -0.61793521838E+02  0.13039572572E+04  0.00000000000E+00 0.  1.
         11    1    5    5    0    0 -0.18512186908E+03  0.30782247446E+02  0.14747639252E+03  0.23867748013E+03  0.00000000000E+00 0. -1.
        -11    1    5    5    0    0 -0.95121572956E+03  0.33478509650E+03  0.99959963191E+03  0.14198914920E+04  0.00000000000E+00 0.  1.
          1    1    6    6  503    0 -0.54124269556E+02 -0.10425686555E+02 -0.40068176825E+02  0.68143893998E+02  0.00000000000E+00 0. -1.
         -1    1    6    6    0  503 -0.40169124622E+03  0.67332866878E+02 -0.82276864386E+02  0.41552262835E+03  0.00000000000E+00 0.  1.
<mgrwt>
<rscale>  0 0.36833858E+04</rscale>
<asrwt>0</asrwt>
<pdfrwt beam="1">  1        2 0.36224062E+00 0.36833858E+04</pdfrwt>
<pdfrwt beam="2">  1       -1 0.22162082E+00 0.36833858E+04</pdfrwt>
<totfact> 0.41686949E-01</totfact>
</mgrwt>
</event>
<event>
12    6  0.1521603E-007  0.2097481E+04  0.7818608E-02  0.8562354E-01
          2   -1    0    0  501    0  0.00000000000E+00  0.00000000000E+00  0.13429519713E+04  0.13429519713E+04  0.00000000000E+00 0. -1.
         -1   -1    0    0    0  501 -0.00000000000E+00 -0.00000000000E+00 -0.81898466782E+03  0.81898466782E+03  0.00000000000E+00 0.  1.
         24    2    1    2    0    0  0.19516276635E+03  0.46325184594E+03 -0.50153595482E+03  0.71462356022E+03  0.80360069057E+02 0.  0.
        254    2    1    2    0    0 -0.19516276635E+03 -0.46325184594E+03  0.10255032583E+04  0.14473130789E+04  0.88902611741E+03 0.  0.
         23    2    4    4    0    0 -0.34214097205E+03 -0.32808139121E+03  0.11095295367E+04  0.12100232055E+04  0.91665265806E+02 0.  0.
         23    2    4    4    0    0  0.14697820570E+03 -0.13517045474E+03 -0.84026278434E+02  0.23728987340E+03  0.96811279125E+02 0.  0.
          4    1    3    3  502    0  0.12447933661E+02  0.58147992572E+02 -0.29754046170E+02  0.66493934732E+02  0.00000000000E+00 0. -1.
         -1    1    3    3    0  502  0.18271483269E+03  0.40510385337E+03 -0.47178190865E+03  0.64812962548E+03  0.00000000000E+00 0.  1.
         11    1    5    5    0    0 -0.34696645174E+03 -0.32822571752E+03  0.11023506768E+04  0.12013720718E+04  0.00000000000E+00 0. -1.
        -11    1    5    5    0    0  0.48254796844E+01  0.14432631301E+00  0.71788599218E+01  0.86511336856E+01  0.00000000000E+00 0.  1.
          3    1    6    6  503    0  0.96418006695E+02 -0.53042040897E+02 -0.87789801228E+02  0.14077265117E+03  0.00000000000E+00 0. -1.
         -3    1    6    6    0  503  0.50560199006E+02 -0.82128413840E+02  0.37635227932E+01  0.96517222231E+02  0.00000000000E+00 0.  1.
<mgrwt>
<rscale>  0 0.20974814E+04</rscale>
<asrwt>0</asrwt>
<pdfrwt beam="1">  1        2 0.20660800E+00 0.20974814E+04</pdfrwt>
<pdfrwt beam="2">  1       -1 0.12599764E+00 0.20974814E+04</pdfrwt>
<totfact> 0.89960156E+00</totfact>
</mgrwt>
</event>
<event>
12    6  0.1521603E-007  0.1274979E+04  0.7818608E-02  0.9049646E-01
         -1   -1    0    0    0  501 -0.00000000000E+00  0.00000000000E+00  0.40934562521E+03  0.40934562521E+03  0.00000000000E+00 0.  1.
          2   -1    0    0  501    0  0.00000000000E+00 -0.00000000000E+00 -0.99278613447E+03  0.99278613447E+03  0.00000000000E+00 0. -1.
         24    2    1    2    0    0  0.81695290348E+02 -0.26504734104E+03 -0.25820861209E+03  0.38678415847E+03  0.77498931797E+02 0.  0.
        254    2    1    2    0    0 -0.81695290348E+02  0.26504734104E+03 -0.32523189718E+03  0.10153476012E+04  0.92099443585E+03 0.  0.
         23    2    4    4    0    0 -0.20748315335E+03  0.23676934422E+03  0.25442437449E+03  0.41441944977E+03  0.88897338115E+02 0.  0.
         23    2    4    4    0    0  0.12578786300E+03  0.28277996822E+02 -0.57965627167E+03  0.60092815144E+03  0.92146721727E+02 0.  0.
          4    1    3    3  502    0  0.50161598791E+02 -0.17775016319E+03 -0.21775942758E+03  0.28553541778E+03  0.00000000000E+00 0. -1.
         -3    1    3    3    0  502  0.31533691557E+02 -0.87297177854E+02 -0.40449184509E+02  0.10124874069E+03  0.00000000000E+00 0.  1.
         11    1    5    5    0    0 -0.49762625766E+02  0.59538965468E+02  0.18365379124E+02  0.79740168563E+02  0.00000000000E+00 0. -1.
        -11    1    5    5    0    0 -0.15772052758E+03  0.17723037875E+03  0.23605899536E+03  0.33467928120E+03  0.00000000000E+00 0.  1.
          3    1    6    6  503    0  0.98380334690E+02  0.39796164479E+02 -0.27407221934E+03  0.29390135483E+03  0.00000000000E+00 0. -1.
         -3    1    6    6    0  503  0.27407528311E+02 -0.11518167657E+02 -0.30558405233E+03  0.30702679661E+03  0.00000000000E+00 0.  1.
<mgrwt>
<rscale>  0 0.12749787E+04</rscale>
<asrwt>0</asrwt>
<pdfrwt beam="1">  1        2 0.15273633E+00 0.12749787E+04</pdfrwt>
<pdfrwt beam="2">  1       -1 0.62976251E-01 0.12749787E+04</pdfrwt>
<totfact> 0.72935980E+01</totfact>
</mgrwt>
</event>
<event>
12    6  0.1521603E-007  0.1385227E+04  0.7818608E-02  0.8964582E-01
         -1   -1    0    0    0  501 -0.00000000000E+00  0.00000000000E+00  0.37110110881E+03  0.37110110881E+03  0.00000000000E+00 0.  1.
          2   -1    0    0  501    0  0.00000000000E+00 -0.00000000000E+00 -0.12926751468E+04  0.12926751468E+04  0.00000000000E+00 0. -1.
         24    2    1    2    0    0 -0.26986177135E+03 -0.22689792846E+03 -0.59748772865E+02  0.36634467068E+03  0.79564164691E+02 0.  0.
        254    2    1    2    0    0  0.26986177135E+03  0.22689792846E+03 -0.86182526513E+03  0.12974315849E+04  0.90348098176E+03 0.  0.
         23    2    4    4    0    0 -0.31536218174E+03 -0.32030761969E+00 -0.23565531221E+03  0.40597678600E+03  0.99147951721E+02 0.  0.
         23    2    4    4    0    0  0.58522395309E+03  0.22721823608E+03 -0.62616995292E+03  0.89145479894E+03  0.92128424084E+02 0.  0.
          2    1    3    3  502    0 -0.67547471674E+00  0.42488822636E+01 -0.61555058076E+01  0.75099612735E+01  0.00000000000E+00 0. -1.
         -1    1    3    3    0  502 -0.26918629663E+03 -0.23114681072E+03 -0.53593267057E+02  0.35883470941E+03  0.00000000000E+00 0.  1.
         11    1    5    5    0    0 -0.30775864389E+03 -0.14120910055E+02 -0.23894069787E+03  0.38988131539E+03  0.00000000000E+00 0.  1.
        -11    1    5    5    0    0 -0.76035378475E+01  0.13800602435E+02  0.32853856566E+01  0.16095470614E+02  0.00000000000E+00 0. -1.
          3    1    6    6  503    0  0.24554271989E+02  0.95639576225E+01 -0.59675642496E+02  0.65234682997E+02  0.00000000000E+00 0. -1.
         -3    1    6    6    0  503  0.56066968110E+03  0.21765427845E+03 -0.56649431043E+03  0.82622011594E+03  0.00000000000E+00 0.  1.
<mgrwt>
<rscale>  0 0.13852266E+04</rscale>
<asrwt>0</asrwt>
<pdfrwt beam="1">  1        2 0.19887310E+00 0.13852266E+04</pdfrwt>
<pdfrwt beam="2">  1       -1 0.57092479E-01 0.13852266E+04</pdfrwt>
<totfact> 0.57595611E+01</totfact>
</mgrwt>
</event>
<event>
12    6  0.1521603E-007  0.1752852E+04  0.7818608E-02  0.8731782E-01
         -1   -1    0    0    0  501 -0.00000000000E+00  0.00000000000E+00  0.86984934963E+03  0.86984934963E+03  0.00000000000E+00 0.  1.
          2   -1    0    0  501    0  0.00000000000E+00 -0.00000000000E+00 -0.88305268114E+03  0.88305268114E+03  0.00000000000E+00 0. -1.
         24    2    1    2    0    0  0.43149318648E+03 -0.39199166686E+03 -0.25023127611E+03  0.63992017640E+03  0.83894599070E+02 0.  0.
        254    2    1    2    0    0 -0.43149318648E+03  0.39199166686E+03  0.23702794460E+03  0.11129818544E+04  0.91798830318E+03 0.  0.
         23    2    4    4    0    0 -0.34380056052E+03  0.64485142963E+03 -0.10379991542E+02  0.73680852803E+03  0.93524708210E+02 0.  0.
         23    2    4    4    0    0 -0.87692625960E+02 -0.25285976277E+03  0.24740793614E+03  0.37617332634E+03  0.93100098312E+02 0.  0.
          2    1    3    3  502    0  0.16652026861E+03 -0.13646039970E+03 -0.13532759441E+03  0.25429116845E+03  0.00000000000E+00 0. -1.
         -1    1    3    3    0  502  0.26497291787E+03 -0.25553126716E+03 -0.11490368170E+03  0.38562900795E+03  0.00000000000E+00 0.  1.
         11    1    5    5    0    0 -0.82413875571E+02  0.22875788362E+03  0.23352759404E+02  0.24426945690E+03  0.00000000000E+00 0.  1.
        -11    1    5    5    0    0 -0.26138668495E+03  0.41609354601E+03 -0.33732750946E+02  0.49253907113E+03  0.00000000000E+00 0. -1.
          1    1    6    6  503    0 -0.96101136783E+02 -0.21347440741E+03  0.23991304260E+03  0.33520891862E+03  0.00000000000E+00 0. -1.
         -1    1    6    6    0  503  0.84085108239E+01 -0.39385355358E+02  0.74948935492E+01  0.40964407725E+02  0.00000000000E+00 0.  1.
<mgrwt>
<rscale>  0 0.17528523E+04</rscale>
<asrwt>0</asrwt>
<pdfrwt beam="1">  1        2 0.13585426E+00 0.17528523E+04</pdfrwt>
<pdfrwt beam="2">  1       -1 0.13382298E+00 0.17528523E+04</pdfrwt>
<totfact> 0.15343064E+01</totfact>
</mgrwt>
</event>
<event>
12    6  0.1783503E-007  0.2147483E+04  0.7818608E-02  0.8540610E-01
         -1   -1    0    0    0  501 -0.00000000000E+00  0.00000000000E+00  0.75702652405E+03  0.75702652405E+03  0.00000000000E+00 0.  1.
          2   -1    0    0  501    0  0.00000000000E+00 -0.00000000000E+00 -0.15229598067E+04  0.15229598067E+04  0.00000000000E+00 0. -1.
         24    2    1    2    0    0  0.69487180736E+02  0.36988701732E+03  0.53049060864E+03  0.65528694094E+03  0.79597834383E+02 0.  0.
        254    2    1    2    0    0 -0.69487180736E+02 -0.36988701732E+03 -0.12964238913E+04  0.16246993898E+04  0.90404000324E+03 0.  0.
         23    2    4    4    0    0 -0.38216123470E+02  0.28372407302E+03 -0.26859766155E+03  0.40290702807E+03  0.90716854970E+02 0.  0.
         23    2    4    4    0    0 -0.31271057265E+02 -0.65361109034E+03 -0.10278262297E+04  0.12217923617E+04  0.90357513399E+02 0.  0.
          4    1    3    3  502    0 -0.12027140162E+02  0.17281920671E+02  0.45635595073E+02  0.50258575589E+02  0.00000000000E+00 0. -1.
         -3    1    3    3    0  502  0.81514320898E+02  0.35260509665E+03  0.48485501357E+03  0.60502836535E+03  0.00000000000E+00 0.  1.
         11    1    5    5    0    0 -0.25532305703E+02  0.32171419378E+02 -0.73939693549E+02  0.84581186687E+02  0.00000000000E+00 0. -1.
        -11    1    5    5    0    0 -0.12683817767E+02  0.25155265364E+03 -0.19465796800E+03  0.31832584138E+03  0.00000000000E+00 0.  1.
          3    1    6    6  503    0 -0.15142762006E+01 -0.23280352486E+03 -0.29008341507E+03  0.37195182742E+03  0.00000000000E+00 0. -1.
         -3    1    6    6    0  503 -0.29756781065E+02 -0.42080756548E+03 -0.73774281463E+03  0.84984053429E+03  0.00000000000E+00 0.  1.
<mgrwt>
<rscale>  0 0.21474831E+04</rscale>
<asrwt>0</asrwt>
<pdfrwt beam="1">  1        2 0.23430151E+00 0.21474831E+04</pdfrwt>
<pdfrwt beam="2">  1       -1 0.11646562E+00 0.21474831E+04</pdfrwt>
<totfact> 0.85785785E+00</totfact>
</mgrwt>
</event>
<event>
12    6  0.1742710E-007  0.2066853E+04  0.7818608E-02  0.8575987E-01
         -1   -1    0    0    0  501 -0.00000000000E+00  0.00000000000E+00  0.52542296878E+03  0.52542296878E+03  0.00000000000E+00 0.  1.
          2   -1    0    0  501    0  0.00000000000E+00 -0.00000000000E+00 -0.20325916042E+04  0.20325916042E+04  0.00000000000E+00 0. -1.
         24    2    1    2    0    0  0.38719855996E+03 -0.45910322607E+03  0.10998618010E+03  0.61573918168E+03  0.79619614509E+02 0.  0.
        254    2    1    2    0    0 -0.38719855996E+03  0.45910322607E+03 -0.16171548155E+04  0.19422753913E+04  0.89249397828E+03 0.  0.
         23    2    4    4    0    0 -0.53711501747E+03  0.58562486925E+02 -0.12706412403E+04  0.13838448258E+04  0.92602557409E+02 0.  0.
         23    2    4    4    0    0  0.14991645751E+03  0.40054073914E+03 -0.34651357524E+03  0.55843056547E+03  0.94155247728E+02 0.  0.
          2    1    3    3  502    0  0.12247389529E+03 -0.94904967224E+02  0.40678042133E+02  0.16019210637E+03  0.00000000000E+00 0. -1.
         -1    1    3    3    0  502  0.26472466467E+03 -0.36419825884E+03  0.69308137966E+02  0.45554707530E+03  0.00000000000E+00 0.  1.
         11    1    5    5    0    0 -0.46240868245E+03  0.80791981206E+02 -0.11148162577E+04  0.12096133359E+04  0.00000000000E+00 0. -1.
        -11    1    5    5    0    0 -0.74706335020E+02 -0.22229494282E+02 -0.15582498254E+03  0.17423148996E+03  0.00000000000E+00 0.  1.
          4    1    6    6  503    0  0.12087592743E+03  0.27110263570E+03 -0.18640201323E+03  0.35050440718E+03  0.00000000000E+00 0. -1.
         -4    1    6    6    0  503  0.29040530074E+02  0.12943810345E+03 -0.16011156201E+03  0.20792615829E+03  0.00000000000E+00 0.  1.
<mgrwt>
<rscale>  0 0.20668530E+04</rscale>
<asrwt>0</asrwt>
<pdfrwt beam="1">  1        2 0.31270640E+00 0.20668530E+04</pdfrwt>
<pdfrwt beam="2">  1       -1 0.80834304E-01 0.20668530E+04</pdfrwt>
<totfact> 0.10283608E+01</totfact>
</mgrwt>
</event>
<event>
12    6  0.1521603E-007  0.2759444E+04  0.7818608E-02  0.8315971E-01
         -1   -1    0    0    0  501 -0.00000000000E+00  0.00000000000E+00  0.44173192055E+03  0.44173192055E+03  0.00000000000E+00 0.  1.
          2   -1    0    0  501    0  0.00000000000E+00 -0.00000000000E+00 -0.43094739165E+04  0.43094739165E+04  0.00000000000E+00 0. -1.
         24    2    1    2    0    0  0.78417081773E+03  0.24423463282E+03 -0.14856539463E+03  0.83824783473E+03  0.77545655684E+02 0.  0.
        254    2    1    2    0    0 -0.78417081773E+03 -0.24423463282E+03 -0.37191766013E+04  0.39129580023E+04  0.89687864779E+03 0.  0.
         23    2    4    4    0    0 -0.61271630314E+03  0.22102921568E+01 -0.10087462183E+04  0.11844578980E+04  0.99726755402E+02 0.  0.
         23    2    4    4    0    0 -0.17145451459E+03 -0.24644492497E+03 -0.27104303830E+04  0.27285001043E+04  0.90267415354E+02 0.  0.
          2    1    3    3  502    0  0.34272638920E+02  0.16781456502E+01 -0.19893123974E+02  0.39663160903E+02  0.00000000000E+00 0. -1.
         -1    1    3    3    0  502  0.74989817881E+03  0.24255648717E+03 -0.12867227065E+03  0.79858467383E+03  0.00000000000E+00 0.  1.
         11    1    5    5    0    0  0.26857625781E+01 -0.28905869359E+01 -0.15583716680E+02  0.16075479434E+02  0.00000000000E+00 0.  1.
        -11    1    5    5    0    0 -0.61540206572E+03  0.51008790927E+01 -0.99316250157E+03  0.11683824186E+04  0.00000000000E+00 0. -1.
          1    1    6    6  503    0 -0.12788943371E+03 -0.12914008921E+03 -0.18689609449E+04  0.18777773786E+04  0.00000000000E+00 0. -1.
         -1    1    6    6    0  503 -0.43565080876E+02 -0.11730483577E+03 -0.84146943813E+03  0.85072272573E+03  0.00000000000E+00 0.  1.
<mgrwt>
<rscale>  0 0.27594436E+04</rscale>
<asrwt>0</asrwt>
<pdfrwt beam="1">  1        2 0.66299599E+00 0.27594436E+04</pdfrwt>
<pdfrwt beam="2">  1       -1 0.67958757E-01 0.27594436E+04</pdfrwt>
<totfact> 0.40527327E-01</totfact>
</mgrwt>
</event>
<event>
12    6  0.1521603E-007  0.1140535E+04  0.7818608E-02  0.9166560E-01
          2   -1    0    0  501    0  0.00000000000E+00  0.00000000000E+00  0.60012386019E+03  0.60012386019E+03  0.00000000000E+00 0. -1.
         -1   -1    0    0    0  501 -0.00000000000E+00 -0.00000000000E+00 -0.54189687577E+03  0.54189687577E+03  0.00000000000E+00 0.  1.
         24    2    1    2    0    0 -0.10730848351E+03  0.35627086252E+01 -0.16009426050E+03  0.20860481240E+03  0.79737017675E+02 0.  0.
        254    2    1    2    0    0  0.10730848351E+03 -0.35627086252E+01  0.21832124492E+03  0.93341592355E+03  0.90115110654E+03 0.  0.
         23    2    4    4    0    0  0.32699346497E+02 -0.39634914706E+03  0.31070327896E+03  0.51346038313E+03  0.94568196799E+02 0.  0.
         23    2    4    4    0    0  0.74609137011E+02  0.39278643844E+03 -0.92382034043E+02  0.41995554042E+03  0.89333678809E+02 0.  0.
          4    1    3    3  502    0 -0.33591365132E+02 -0.28543699269E+02 -0.96495732553E+02  0.10608745911E+03  0.00000000000E+00 0. -1.
         -3    1    3    3    0  502 -0.73717118377E+02  0.32106407894E+02 -0.63598527946E+02  0.10251735329E+03  0.00000000000E+00 0.  1.
         11    1    5    5    0    0  0.65620926795E+02 -0.23066374944E+03  0.18600031382E+03  0.30349297864E+03  0.00000000000E+00 0. -1.
        -11    1    5    5    0    0 -0.32921580298E+02 -0.16568539762E+03  0.12470296514E+03  0.20996740449E+03  0.00000000000E+00 0.  1.
          4    1    6    6  503    0 -0.19317386964E+02  0.11005816824E+03 -0.26203413232E+02  0.11477186371E+03  0.00000000000E+00 0. -1.
         -4    1    6    6    0  503  0.93926523976E+02  0.28272827020E+03 -0.66178620811E+02  0.30518367671E+03  0.00000000000E+00 0.  1.
<mgrwt>
<rscale>  0 0.11405354E+04</rscale>
<asrwt>0</asrwt>
<pdfrwt beam="1">  1        2 0.92326748E-01 0.11405354E+04</pdfrwt>
<pdfrwt beam="2">  1       -1 0.83368750E-01 0.11405354E+04</pdfrwt>
<totfact> 0.80177023E+01</totfact>
</mgrwt>
</event>
<event>
12    6  0.1521603E-007  0.1323192E+04  0.7818608E-02  0.9011373E-01
         -1   -1    0    0    0  501 -0.00000000000E+00  0.00000000000E+00  0.19084450102E+03  0.19084450102E+03  0.00000000000E+00 0.  1.
          2   -1    0    0  501    0  0.00000000000E+00 -0.00000000000E+00 -0.22935395351E+04  0.22935395351E+04  0.00000000000E+00 0. -1.
         24    2    1    2    0    0 -0.18639846876E+03  0.11553248049E+03 -0.10948741322E+04  0.11196349041E+04  0.82102436270E+02 0.  0.
        254    2    1    2    0    0  0.18639846876E+03 -0.11553248049E+03 -0.10078209019E+04  0.13647491320E+04  0.89372539394E+03 0.  0.
         23    2    4    4    0    0 -0.71029119162E+02  0.30883212745E+03 -0.13526767771E+03  0.35656371563E+03  0.91749223201E+02 0.  0.
         23    2    4    4    0    0  0.25742758792E+03 -0.42436460794E+03 -0.87255322423E+03  0.10081854164E+04  0.93458125580E+02 0.  0.
          4    1    3    3  502    0 -0.87254448006E+02  0.48369555725E+02 -0.69781619786E+03  0.70491162468E+03  0.00000000000E+00 0. -1.
         -3    1    3    3    0  502 -0.99144020753E+02  0.67162924768E+02 -0.39705793430E+03  0.41472327944E+03  0.00000000000E+00 0.  1.
         11    1    5    5    0    0  0.20110646060E+02  0.92516312800E+02 -0.30072596224E+02  0.99338146061E+02  0.00000000000E+00 0. -1.
        -11    1    5    5    0    0 -0.91139765222E+02  0.21631581465E+03 -0.10519508149E+03  0.25722556957E+03  0.00000000000E+00 0.  1.
          1    1    6    6  503    0 -0.40107578780E-01 -0.52269962840E+02 -0.80064596557E+02  0.95616370177E+02  0.00000000000E+00 0. -1.
         -1    1    6    6    0  503  0.25746769550E+03 -0.37209464510E+03 -0.79248862768E+03  0.91256904623E+03  0.00000000000E+00 0.  1.
<mgrwt>
<rscale>  0 0.13231922E+04</rscale>
<asrwt>0</asrwt>
<pdfrwt beam="1">  1        2 0.35285223E+00 0.13231922E+04</pdfrwt>
<pdfrwt beam="2">  1       -1 0.29360693E-01 0.13231922E+04</pdfrwt>
<totfact> 0.54148170E+01</totfact>
</mgrwt>
</event>
<event>
12    6  0.1521603E-007  0.2191951E+04  0.7818608E-02  0.8521786E-01
         -1   -1    0    0    0  501 -0.00000000000E+00  0.00000000000E+00  0.38384889255E+03  0.38384889255E+03  0.00000000000E+00 0.  1.
          2   -1    0    0  501    0  0.00000000000E+00 -0.00000000000E+00 -0.31292584211E+04  0.31292584211E+04  0.00000000000E+00 0. -1.
         24    2    1    2    0    0 -0.81456373645E+03  0.36468230369E+03 -0.13905333818E+04  0.16537720690E+04  0.69797614556E+02 0.  0.
        254    2    1    2    0    0  0.81456373645E+03 -0.36468230369E+03 -0.13548761467E+04  0.18593352446E+04  0.90825707568E+03 0.  0.
         23    2    4    4    0    0  0.51934483604E+03 -0.64420640305E+03 -0.10654862384E+04  0.13521627258E+04  0.91444870264E+02 0.  0.
         23    2    4    4    0    0  0.29521890041E+03  0.27952409936E+03 -0.28938990830E+03  0.50717251882E+03  0.90495986287E+02 0.  0.
          4    1    3    3  502    0 -0.66692385769E+03  0.32510282100E+03 -0.11712360919E+04  0.13864606952E+04  0.00000000000E+00 0. -1.
         -3    1    3    3    0  502 -0.14763987876E+03  0.39579482693E+02 -0.21929728987E+03  0.26731137386E+03  0.00000000000E+00 0.  1.
         11    1    5    5    0    0  0.32598414426E+03 -0.39799880956E+03 -0.73261280788E+03  0.89520402199E+03  0.00000000000E+00 0.  1.
        -11    1    5    5    0    0  0.19336069178E+03 -0.24620759349E+03 -0.33287343057E+03  0.45695870382E+03  0.00000000000E+00 0. -1.
          2    1    6    6  503    0  0.24877128768E+03  0.18186245015E+03 -0.22111339710E+03  0.37927857668E+03  0.00000000000E+00 0. -1.
         -2    1    6    6    0  503  0.46447612735E+02  0.97661649208E+02 -0.68276511194E+02  0.12789394214E+03  0.00000000000E+00 0.  1.
<mgrwt>
<rscale>  0 0.21919511E+04</rscale>
<asrwt>0</asrwt>
<pdfrwt beam="1">  1        2 0.48142436E+00 0.21919511E+04</pdfrwt>
<pdfrwt beam="2">  1       -1 0.59053677E-01 0.21919511E+04</pdfrwt>
<totfact> 0.43672559E+00</totfact>
</mgrwt>
</event>
<event>
12    6  0.1521603E-007  0.2228746E+04  0.7818608E-02  0.8506558E-01
         -1   -1    0    0    0  501 -0.00000000000E+00  0.00000000000E+00  0.11279613456E+04  0.11279613456E+04  0.00000000000E+00 0.  1.
          2   -1    0    0  501    0  0.00000000000E+00 -0.00000000000E+00 -0.11009487289E+04  0.11009487289E+04  0.00000000000E+00 0. -1.
         24    2    1    2    0    0  0.49822989166E+03  0.41299802587E+03 -0.66284936976E+03  0.92987960490E+03  0.80662248332E+02 0.  0.
        254    2    1    2    0    0 -0.49822989166E+03 -0.41299802587E+03  0.68986198646E+03  0.12990304696E+04  0.89037644075E+03 0.  0.
         23    2    4    4    0    0 -0.13119649137E+03 -0.45173196644E+03 -0.35143115448E+02  0.48050021563E+03  0.91493878502E+02 0.  0.
         23    2    4    4    0    0 -0.36703340029E+03  0.38733940571E+02  0.72500510190E+03  0.81853025395E+03  0.90252666293E+02 0.  0.
          2    1    3    3  502    0  0.35589311725E+03  0.30316643046E+03 -0.42573831990E+03  0.63231551657E+03  0.00000000000E+00 0. -1.
         -1    1    3    3    0  502  0.14233677441E+03  0.10983159542E+03 -0.23711104986E+03  0.29756408833E+03  0.00000000000E+00 0.  1.
         11    1    5    5    0    0 -0.11413664025E+03 -0.27686469014E+03  0.80309691618E+01  0.29957590985E+03  0.00000000000E+00 0.  1.
        -11    1    5    5    0    0 -0.17059851120E+02 -0.17486727630E+03 -0.43174084610E+02  0.18092430578E+03  0.00000000000E+00 0. -1.
          4    1    6    6  503    0 -0.13042409545E+03  0.32309381233E+02  0.18242136346E+03  0.22656543125E+03  0.00000000000E+00 0. -1.
         -4    1    6    6    0  503 -0.23660930483E+03  0.64245593374E+01  0.54258373844E+03  0.59196482270E+03  0.00000000000E+00 0.  1.
<mgrwt>
<rscale>  0 0.22287464E+04</rscale>
<asrwt>0</asrwt>
<pdfrwt beam="1">  1        2 0.16937673E+00 0.22287464E+04</pdfrwt>
<pdfrwt beam="2">  1       -1 0.17353251E+00 0.22287464E+04</pdfrwt>
<totfact> 0.52444469E+00</totfact>
</mgrwt>
</event>
<event>
12    6  0.1521603E-007  0.1938806E+04  0.7818608E-02  0.8635777E-01
         -1   -1    0    0    0  501 -0.00000000000E+00  0.00000000000E+00  0.71191307877E+03  0.71191307877E+03  0.00000000000E+00 0.  1.
          2   -1    0    0  501    0  0.00000000000E+00 -0.00000000000E+00 -0.13200243186E+04  0.13200243186E+04  0.00000000000E+00 0. -1.
         24    2    1    2    0    0 -0.39536353735E+03  0.60900828283E+03 -0.82326353403E+01  0.73046556783E+03  0.79427667047E+02 0.  0.
        254    2    1    2    0    0  0.39536353735E+03 -0.60900828283E+03 -0.59987860450E+03  0.13014718296E+04  0.89820441314E+03 0.  0.
         23    2    4    4    0    0  0.66939261554E+03 -0.44603935772E+03 -0.51380364595E+03  0.95882879040E+03  0.91218859595E+02 0.  0.
         23    2    4    4    0    0 -0.27402907819E+03 -0.16296892511E+03 -0.86074958548E+02  0.34264303915E+03  0.91348495045E+02 0.  0.
          4    1    3    3  502    0 -0.53584192831E+02  0.92136749878E+02  0.26533774926E+02  0.10983846144E+03  0.00000000000E+00 0. -1.
         -3    1    3    3    0  502 -0.34177934452E+03  0.51687153295E+03 -0.34766410267E+02  0.62062710639E+03  0.00000000000E+00 0.  1.
         11    1    5    5    0    0  0.43263574607E+03 -0.23479734029E+03 -0.31356383147E+03  0.58363152433E+03  0.00000000000E+00 0.  1.
        -11    1    5    5    0    0  0.23675686947E+03 -0.21124201743E+03 -0.20023981449E+03  0.37519726608E+03  0.00000000000E+00 0. -1.
          3    1    6    6  503    0 -0.13873032375E+03 -0.66791853327E+02  0.35130410605E+01  0.15401167441E+03  0.00000000000E+00 0. -1.
         -3    1    6    6    0  503 -0.13529875444E+03 -0.96177071781E+02 -0.89587999608E+02  0.18863136474E+03  0.00000000000E+00 0.  1.
<mgrwt>
<rscale>  0 0.19388064E+04</rscale>
<asrwt>0</asrwt>
<pdfrwt beam="1">  1        2 0.20308066E+00 0.19388064E+04</pdfrwt>
<pdfrwt beam="2">  1       -1 0.10952509E+00 0.19388064E+04</pdfrwt>
<totfact> 0.13206397E+01</totfact>
</mgrwt>
</event>
<event>
12    6  0.1521603E-007  0.1736221E+04  0.7818608E-02  0.8740972E-01
          2   -1    0    0  501    0  0.00000000000E+00  0.00000000000E+00  0.80856485562E+03  0.80856485562E+03  0.00000000000E+00 0. -1.
         -1   -1    0    0    0  501 -0.00000000000E+00 -0.00000000000E+00 -0.93204096034E+03  0.93204096034E+03  0.00000000000E+00 0.  1.
         24    2    1    2    0    0 -0.45844747722E+03  0.30374567936E+03  0.26667899500E+03  0.61650252471E+03  0.80759826074E+02 0.  0.
        254    2    1    2    0    0  0.45844747722E+03 -0.30374567936E+03 -0.39015509971E+03  0.11241032912E+04  0.89941741170E+03 0.  0.
         23    2    4    4    0    0 -0.78831015600E+02 -0.46917473763E+03 -0.18531884887E+03  0.51858859597E+03  0.90839378464E+02 0.  0.
         23    2    4    4    0    0  0.53727849282E+03  0.16542905826E+03 -0.20483625084E+03  0.60551469527E+03  0.93033350874E+02 0.  0.
          2    1    3    3  502    0 -0.24346957030E+03  0.15488340881E+03  0.95428945283E+02  0.30392924437E+03  0.00000000000E+00 0. -1.
         -1    1    3    3    0  502 -0.21497790692E+03  0.14886227055E+03  0.17125004971E+03  0.31257328034E+03  0.00000000000E+00 0.  1.
         11    1    5    5    0    0 -0.42313455248E+02 -0.90261947225E+02 -0.12295099881E+02  0.10044310376E+03  0.00000000000E+00 0.  1.
        -11    1    5    5    0    0 -0.36517560352E+02 -0.37891279040E+03 -0.17302374899E+03  0.41814549221E+03  0.00000000000E+00 0. -1.
          4    1    6    6  503    0  0.48178149201E+03  0.16482591045E+03 -0.20773041468E+03  0.54993900751E+03  0.00000000000E+00 0. -1.
         -4    1    6    6    0  503  0.55497000808E+02  0.60314781047E+00  0.28941638445E+01  0.55575687763E+02  0.00000000000E+00 0.  1.
<mgrwt>
<rscale>  0 0.17362207E+04</rscale>
<asrwt>0</asrwt>
<pdfrwt beam="1">  1        2 0.12439459E+00 0.17362207E+04</pdfrwt>
<pdfrwt beam="2">  1       -1 0.14339092E+00 0.17362207E+04</pdfrwt>
<totfact> 0.14477841E+01</totfact>
</mgrwt>
</event>
<event>
12    6  0.1521603E-007  0.1836619E+04  0.7818608E-02  0.8687065E-01
          2   -1    0    0  501    0  0.00000000000E+00  0.00000000000E+00  0.10646313766E+04  0.10646313766E+04  0.00000000000E+00 0. -1.
         -1   -1    0    0    0  501 -0.00000000000E+00 -0.00000000000E+00 -0.79209797765E+03  0.79209797765E+03  0.00000000000E+00 0.  1.
         24    2    1    2    0    0 -0.44788820088E+03  0.52761803840E+03  0.59299427724E+02  0.69915656300E+03  0.79491147452E+02 0.  0.
        254    2    1    2    0    0  0.44788820088E+03 -0.52761803840E+03  0.21323397125E+03  0.11575727913E+04  0.90306223799E+03 0.  0.
         23    2    4    4    0    0 -0.13271262619E+03  0.14917887366E+03  0.12886057325E+03  0.25721821265E+03  0.98433653204E+02 0.  0.
         23    2    4    4    0    0  0.58060082707E+03 -0.67679691205E+03  0.84373398000E+02  0.90035457864E+03  0.91477409332E+02 0.  0.
          2    1    3    3  502    0 -0.95525806053E+01  0.90320561294E+01 -0.10128083385E+02  0.16595418259E+02  0.00000000000E+00 0. -1.
         -1    1    3    3    0  502 -0.43833562028E+03  0.51858598227E+03  0.69427511109E+02  0.68256114474E+03  0.00000000000E+00 0.  1.
         11    1    5    5    0    0 -0.14286472448E+03  0.12833580730E+03  0.13308914273E+03  0.23365172554E+03  0.00000000000E+00 0. -1.
        -11    1    5    5    0    0  0.10152098286E+02  0.20843066359E+02 -0.42285694785E+01  0.23566487109E+02  0.00000000000E+00 0.  1.
          1    1    6    6  503    0  0.45859469245E+03 -0.56536492309E+03  0.98081697945E+02  0.73455197752E+03  0.00000000000E+00 0. -1.
         -1    1    6    6    0  503  0.12200613462E+03 -0.11143198896E+03 -0.13708299945E+02  0.16580260111E+03  0.00000000000E+00 0.  1.
<mgrwt>
<rscale>  0 0.18366190E+04</rscale>
<asrwt>0</asrwt>
<pdfrwt beam="1">  1        2 0.16378944E+00 0.18366190E+04</pdfrwt>
<pdfrwt beam="2">  1       -1 0.12186123E+00 0.18366190E+04</pdfrwt>
<totfact> 0.14669387E+01</totfact>
</mgrwt>
</event>
<event>
12    6  0.1521603E-007  0.3246376E+04  0.7818608E-02  0.8176676E-01
         -1   -1    0    0    0  501 -0.00000000000E+00  0.00000000000E+00  0.15457338529E+04  0.15457338529E+04  0.00000000000E+00 0.  1.
          2   -1    0    0  501    0  0.00000000000E+00 -0.00000000000E+00 -0.17045228157E+04  0.17045228157E+04  0.00000000000E+00 0. -1.
         24    2    1    2    0    0  0.32851368224E+03 -0.13264382639E+04  0.54037179371E+03  0.14715516310E+04  0.78120547061E+02 0.  0.
        254    2    1    2    0    0 -0.32851368224E+03  0.13264382639E+04 -0.69916075643E+03  0.17787050376E+04  0.89866909385E+03 0.  0.
         23    2    4    4    0    0 -0.45694821573E+03  0.80781671170E+03 -0.79823697899E+03  0.12275796328E+04  0.91651342946E+02 0.  0.
         23    2    4    4    0    0  0.12843453349E+03  0.51862155219E+03  0.99076222563E+02  0.55112540484E+03  0.91974834576E+02 0.  0.
          2    1    3    3  502    0  0.10190691096E+03 -0.45809250505E+03  0.22382073685E+03  0.51993219167E+03  0.00000000000E+00 0. -1.
         -1    1    3    3    0  502  0.22660677128E+03 -0.86834575884E+03  0.31655105686E+03  0.95161943931E+03  0.00000000000E+00 0.  1.
         11    1    5    5    0    0 -0.15663497070E+03  0.36467398949E+03 -0.35785874609E+03  0.53440108047E+03  0.00000000000E+00 0. -1.
        -11    1    5    5    0    0 -0.30031324503E+03  0.44314272222E+03 -0.44037823290E+03  0.69317855233E+03  0.00000000000E+00 0.  1.
          2    1    6    6  503    0  0.11368243621E+02  0.98013382821E+02 -0.15169383917E+02  0.99829706919E+02  0.00000000000E+00 0. -1.
         -2    1    6    6    0  503  0.11706628987E+03  0.42060816937E+03  0.11424560648E+03  0.45129569792E+03  0.00000000000E+00 0.  1.
<mgrwt>
<rscale>  0 0.32463756E+04</rscale>
<asrwt>0</asrwt>
<pdfrwt beam="1">  1        2 0.26223428E+00 0.32463756E+04</pdfrwt>
<pdfrwt beam="2">  1       -1 0.23780521E+00 0.32463756E+04</pdfrwt>
<totfact> 0.78022104E-01</totfact>
</mgrwt>
</event>
<event>
12    6  0.1521603E-007  0.1407302E+04  0.7818608E-02  0.8948550E-01
          2   -1    0    0  501    0  0.00000000000E+00  0.00000000000E+00  0.45532250237E+03  0.45532250237E+03  0.00000000000E+00 0. -1.
         -1   -1    0    0    0  501 -0.00000000000E+00 -0.00000000000E+00 -0.10874158894E+04  0.10874158894E+04  0.00000000000E+00 0.  1.
         24    2    1    2    0    0 -0.20016382469E+03  0.32850512369E+03 -0.34901914657E+03  0.52558079325E+03  0.80247321186E+02 0.  0.
        254    2    1    2    0    0  0.20016382469E+03 -0.32850512369E+03 -0.28307424044E+03  0.10171575985E+04  0.89805199270E+03 0.  0.
         23    2    4    4    0    0 -0.32816593512E+03 -0.25234714281E+03 -0.20245039753E+03  0.46984706462E+03  0.91641361907E+02 0.  0.
         23    2    4    4    0    0  0.52832975981E+03 -0.76157980875E+02 -0.80623842908E+02  0.54731053388E+03  0.90090195353E+02 0.  0.
          4    1    3    3  502    0 -0.24118439667E+02  0.50075703139E+02 -0.93129070041E+02  0.10845413253E+03  0.00000000000E+00 0. -1.
         -1    1    3    3    0  502 -0.17604538502E+03  0.27842942055E+03 -0.25589007653E+03  0.41712666072E+03  0.00000000000E+00 0.  1.
         11    1    5    5    0    0 -0.22991534355E+03 -0.17522058284E+03 -0.92698244525E+02  0.30357253233E+03  0.00000000000E+00 0.  1.
        -11    1    5    5    0    0 -0.98250591575E+02 -0.77126559975E+02 -0.10975215301E+03  0.16627453229E+03  0.00000000000E+00 0. -1.
          1    1    6    6  503    0  0.41553009185E+03 -0.95124537713E+02 -0.74694500272E+02  0.43277384773E+03  0.00000000000E+00 0. -1.
         -1    1    6    6    0  503  0.11279966796E+03  0.18966556838E+02 -0.59293426365E+01  0.11453668615E+03  0.00000000000E+00 0.  1.
<mgrwt>
<rscale>  0 0.14073023E+04</rscale>
<asrwt>0</asrwt>
<pdfrwt beam="1">  1        2 0.70049616E-01 0.14073023E+04</pdfrwt>
<pdfrwt beam="2">  1       -1 0.16729475E+00 0.14073023E+04</pdfrwt>
<totfact> 0.19669421E+01</totfact>
</mgrwt>
</event>
<event>
12    6  0.1521603E-007  0.1160752E+04  0.7818608E-02  0.9147921E-01
          2   -1    0    0  501    0  0.00000000000E+00  0.00000000000E+00  0.14778995188E+04  0.14778995188E+04  0.00000000000E+00 0. -1.
         -1   -1    0    0    0  501 -0.00000000000E+00 -0.00000000000E+00 -0.22791548058E+03  0.22791548058E+03  0.00000000000E+00 0.  1.
         24    2    1    2    0    0  0.46338363346E+02  0.44769904581E+02  0.54562133551E+03  0.55526040240E+03  0.80373406283E+02 0.  0.
        254    2    1    2    0    0 -0.46338363346E+02 -0.44769904581E+02  0.70436270266E+03  0.11505545969E+04  0.90746761669E+03 0.  0.
         23    2    4    4    0    0  0.84993203651E+02  0.92028250451E+02 -0.18231406176E+03  0.23929218247E+03  0.91264932612E+02 0.  0.
         23    2    4    4    0    0 -0.13133156700E+03 -0.13679815503E+03  0.88667676443E+03  0.91126241447E+03  0.90784292338E+02 0.  0.
          2    1    3    3  502    0  0.66407951368E+02  0.17463892590E+02  0.38911913984E+03  0.39513125483E+03  0.00000000000E+00 0. -1.
         -1    1    3    3    0  502 -0.20069588022E+02  0.27306011991E+02  0.15650219567E+03  0.16012914757E+03  0.00000000000E+00 0.  1.
         11    1    5    5    0    0  0.56827474704E+02  0.50946890746E+02 -0.35338110835E+02  0.84105467333E+02  0.00000000000E+00 0. -1.
        -11    1    5    5    0    0  0.28165728946E+02  0.41081359705E+02 -0.14697595093E+03  0.15518671513E+03  0.00000000000E+00 0.  1.
          3    1    6    6  503    0 -0.73844442681E+02 -0.43712588386E+02  0.22904826902E+03  0.24459538352E+03  0.00000000000E+00 0. -1.
         -3    1    6    6    0  503 -0.57487124316E+02 -0.93085566646E+02  0.65762849541E+03  0.66666703095E+03  0.00000000000E+00 0.  1.
<mgrwt>
<rscale>  0 0.11607518E+04</rscale>
<asrwt>0</asrwt>
<pdfrwt beam="1">  1        2 0.22736915E+00 0.11607518E+04</pdfrwt>
<pdfrwt beam="2">  1       -1 0.35063921E-01 0.11607518E+04</pdfrwt>
<totfact> 0.11382630E+02</totfact>
</mgrwt>
</event>
<event>
12    6  0.1521603E-007  0.1268013E+04  0.7818608E-02  0.9055323E-01
          2   -1    0    0  501    0  0.00000000000E+00  0.00000000000E+00  0.25729012773E+04  0.25729012773E+04  0.00000000000E+00 0. -1.
         -1   -1    0    0    0  501 -0.00000000000E+00 -0.00000000000E+00 -0.15622997113E+03  0.15622997113E+03  0.00000000000E+00 0.  1.
         24    2    1    2    0    0 -0.40399718658E+02 -0.14587592995E+03  0.12034702876E+04  0.12155144353E+04  0.78883997291E+02 0.  0.
        254    2    1    2    0    0  0.40399718658E+02  0.14587592995E+03  0.12132010185E+04  0.15136168131E+04  0.89233806452E+03 0.  0.
         23    2    4    4    0    0  0.78849629624E+02  0.51249889392E+03  0.70236125951E+03  0.87802291696E+03  0.93490766785E+02 0.  0.
         23    2    4    4    0    0 -0.38449910967E+02 -0.36662296397E+03  0.51083975903E+03  0.63559389617E+03  0.84448493652E+02 0.  0.
          2    1    3    3  502    0 -0.30390627595E+02 -0.14065489079E+03  0.11861049228E+04  0.11948021914E+04  0.00000000000E+00 0. -1.
         -1    1    3    3    0  502 -0.10009091062E+02 -0.52210391592E+01  0.17365364737E+02  0.20712243873E+02  0.00000000000E+00 0.  1.
         11    1    5    5    0    0  0.79528791707E+01  0.14905174067E+02  0.60335969997E+02  0.62656538179E+02  0.00000000000E+00 0. -1.
        -11    1    5    5    0    0  0.70896750454E+02  0.49759371986E+03  0.64202528952E+03  0.81536637878E+03  0.00000000000E+00 0.  1.
          1    1    6    6  503    0  0.63615775512E+01 -0.86046030068E+02  0.17915409016E+03  0.19884812541E+03  0.00000000000E+00 0. -1.
         -1    1    6    6    0  503 -0.44811488518E+02 -0.28057693390E+03  0.33168566887E+03  0.43674577076E+03  0.00000000000E+00 0.  1.
<mgrwt>
<rscale>  0 0.12680131E+04</rscale>
<asrwt>0</asrwt>
<pdfrwt beam="1">  1        2 0.39583094E+00 0.12680131E+04</pdfrwt>
<pdfrwt beam="2">  1       -1 0.24035382E-01 0.12680131E+04</pdfrwt>
<totfact> 0.53243897E+01</totfact>
</mgrwt>
</event>
<event>
12    6  0.1521603E-007  0.1028581E+04  0.7818608E-02  0.9277742E-01
          2   -1    0    0  501    0  0.00000000000E+00  0.00000000000E+00  0.14392297728E+04  0.14392297728E+04  0.00000000000E+00 0. -1.
         -1   -1    0    0    0  501 -0.00000000000E+00 -0.00000000000E+00 -0.18377513523E+03  0.18377513523E+03  0.00000000000E+00 0.  1.
         24    2    1    2    0    0 -0.51164373044E+02 -0.19083739439E+02 -0.59934155828E+01  0.97027225937E+02  0.79977367815E+02 0.  0.
        254    2    1    2    0    0  0.51164373044E+02  0.19083739439E+02  0.12614480532E+04  0.15259776821E+04  0.85695665777E+03 0.  0.
         23    2    4    4    0    0  0.22179972683E+03 -0.24875644706E+03  0.11119349206E+04  0.11636584837E+04  0.81405835918E+02 0.  0.
         23    2    4    4    0    0 -0.17063535379E+03  0.26784018650E+03  0.14951313255E+03  0.36231919845E+03  0.89812222420E+02 0.  0.
          4    1    3    3  502    0 -0.42192117972E+02  0.61744073617E+01  0.30008928530E+02  0.52142438731E+02  0.00000000000E+00 0. -1.
         -3    1    3    3    0  502 -0.89722550715E+01 -0.25258146800E+02 -0.36002344113E+02  0.44884787206E+02  0.00000000000E+00 0.  1.
         11    1    5    5    0    0  0.16070033352E+03 -0.22706312635E+03  0.91043317327E+03  0.95198257522E+03  0.00000000000E+00 0.  1.
        -11    1    5    5    0    0  0.61099393311E+02 -0.21693320710E+02  0.20150174737E+03  0.21167590845E+03  0.00000000000E+00 0. -1.
          4    1    6    6  503    0 -0.14295639924E+01 -0.48523100115E+01  0.12287766839E+02  0.13288257205E+02  0.00000000000E+00 0. -1.
         -4    1    6    6    0  503 -0.16920578979E+03  0.27269249651E+03  0.13722536571E+03  0.34903094125E+03  0.00000000000E+00 0.  1.
<mgrwt>
<rscale>  0 0.10285809E+04</rscale>
<asrwt>0</asrwt>
<pdfrwt beam="1">  1        2 0.22141996E+00 0.10285809E+04</pdfrwt>
<pdfrwt beam="2">  1       -1 0.28273099E-01 0.10285809E+04</pdfrwt>
<totfact> 0.17652957E+02</totfact>
</mgrwt>
</event>
<event>
12    6  0.1521603E-007  0.1067509E+04  0.7818608E-02  0.9237452E-01
          2   -1    0    0  501    0  0.00000000000E+00  0.00000000000E+00  0.16804157667E+04  0.16804157667E+04  0.00000000000E+00 0. -1.
         -1   -1    0    0    0  501 -0.00000000000E+00 -0.00000000000E+00 -0.16953764145E+03  0.16953764145E+03  0.00000000000E+00 0.  1.
         24    2    1    2    0    0 -0.31662417123E+02  0.70250673996E+02  0.43868814090E+03  0.45225886521E+03  0.78441891445E+02 0.  0.
        254    2    1    2    0    0  0.31662417123E+02 -0.70250673996E+02  0.10721899844E+04  0.13976945429E+04  0.89332021525E+03 0.  0.
         23    2    4    4    0    0  0.11173059798E+03  0.12503657309E+03  0.11418766498E+04  0.11576154707E+04  0.89852231501E+02 0.  0.
         23    2    4    4    0    0 -0.80068180858E+02 -0.19528724708E+03 -0.69686665495E+02  0.24007907220E+03  0.90739776835E+02 0.  0.
          2    1    3    3  502    0 -0.31572456359E+02  0.50590982978E+02  0.13090519608E+03  0.14384866325E+03  0.00000000000E+00 0. -1.
         -3    1    3    3    0  502 -0.89960763419E-01  0.19659691018E+02  0.30778294483E+03  0.30841020195E+03  0.00000000000E+00 0.  1.
         11    1    5    5    0    0  0.97457074292E+02  0.89904575613E+02  0.60297180159E+03  0.61737809125E+03  0.00000000000E+00 0.  1.
        -11    1    5    5    0    0  0.14273523689E+02  0.35131997473E+02  0.53890484826E+03  0.54023737950E+03  0.00000000000E+00 0. -1.
          2    1    6    6  503    0 -0.42144629302E+02 -0.18579307464E+03 -0.54691538242E+02  0.19820797340E+03  0.00000000000E+00 0.  1.
         -2    1    6    6    0  503 -0.37923551556E+02 -0.94941724373E+01 -0.14995127254E+02  0.41871098794E+02  0.00000000000E+00 0. -1.
<mgrwt>
<rscale>  0 0.10675087E+04</rscale>
<asrwt>0</asrwt>
<pdfrwt beam="1">  1        2 0.25852549E+00 0.10675087E+04</pdfrwt>
<pdfrwt beam="2">  1       -1 0.26082715E-01 0.10675087E+04</pdfrwt>
<totfact> 0.14838835E+02</totfact>
</mgrwt>
</event>
<event>
12    6  0.1521603E-007  0.2422977E+04  0.7818608E-02  0.8430951E-01
          2   -1    0    0  501    0  0.00000000000E+00  0.00000000000E+00  0.14655038200E+04  0.14655038200E+04  0.00000000000E+00 0. -1.
         -1   -1    0    0    0  501 -0.00000000000E+00 -0.00000000000E+00 -0.10015019518E+04  0.10015019518E+04  0.00000000000E+00 0.  1.
         24    2    1    2    0    0 -0.79674240217E+03 -0.18951358439E+03  0.87699313266E+03  0.12025541025E+04  0.79407560538E+02 0.  0.
        254    2    1    2    0    0  0.79674240217E+03  0.18951358439E+03 -0.41299126445E+03  0.12644516693E+04  0.87038059803E+03 0.  0.
         23    2    4    4    0    0  0.82903873214E+03 -0.12133406986E+03 -0.41416944842E+03  0.93885610215E+03  0.88810318313E+02 0.  0.
         23    2    4    4    0    0 -0.32296329969E+02  0.31084765426E+03  0.11781839681E+01  0.32559556716E+03  0.91333280619E+02 0.  0.
          4    1    3    3  502    0 -0.59878354322E+03 -0.12436227271E+03  0.60904971528E+03  0.86310443296E+03  0.00000000000E+00 0. -1.
         -3    1    3    3    0  502 -0.19795885895E+03 -0.65151311682E+02  0.26794341738E+03  0.33944966957E+03  0.00000000000E+00 0.  1.
         11    1    5    5    0    0  0.20180365650E+03 -0.26422688536E+02 -0.14415935048E+03  0.24940888633E+03  0.00000000000E+00 0. -1.
        -11    1    5    5    0    0  0.62723507564E+03 -0.94911381329E+02 -0.27001009794E+03  0.68944721583E+03  0.00000000000E+00 0.  1.
          1    1    6    6  503    0  0.20162401596E+02  0.12518769932E+03  0.30587646793E+02  0.13043805670E+03  0.00000000000E+00 0. -1.
         -1    1    6    6    0  503 -0.52458731565E+02  0.18565995494E+03 -0.29409462825E+02  0.19515751046E+03  0.00000000000E+00 0.  1.
<mgrwt>
<rscale>  0 0.24229775E+04</rscale>
<asrwt>0</asrwt>
<pdfrwt beam="1">  1        2 0.22546213E+00 0.24229775E+04</pdfrwt>
<pdfrwt beam="2">  1       -1 0.15407722E+00 0.24229775E+04</pdfrwt>
<totfact> 0.44039671E+00</totfact>
</mgrwt>
</event>
<event>
12    6  0.1521603E-007  0.1614253E+04  0.7818608E-02  0.8811839E-01
          4   -1    0    0  501    0  0.00000000000E+00  0.00000000000E+00  0.23192746026E+04  0.23192746026E+04  0.00000000000E+00 0. -1.
         -3   -1    0    0    0  501 -0.00000000000E+00 -0.00000000000E+00 -0.28088667036E+03  0.28088667036E+03  0.00000000000E+00 0.  1.
         24    2    1    2    0    0  0.19714417345E+03  0.21252747941E+03 -0.55127220127E+02  0.30578226308E+03  0.80187451536E+02 0.  0.
        254    2    1    2    0    0 -0.19714417345E+03 -0.21252747941E+03  0.20935151524E+04  0.22943790099E+04  0.89293650006E+03 0.  0.
         23    2    4    4    0    0  0.25168873414E+03 -0.36205991551E+03  0.87097080982E+03  0.98033540137E+03  0.89625589492E+02 0.  0.
         23    2    4    4    0    0 -0.44883290758E+03  0.14953243610E+03  0.12225443426E+04  0.13140436085E+04  0.91022015000E+02 0.  0.
          2    1    3    3  502    0 -0.57066001732E+01  0.16588220237E+02  0.30749791021E+01  0.17809824049E+02  0.00000000000E+00 0. -1.
         -1    1    3    3    0  502  0.20285077362E+03  0.19593925918E+03 -0.58202199229E+02  0.28797243903E+03  0.00000000000E+00 0.  1.
         11    1    5    5    0    0  0.11815857696E+03 -0.13326671860E+03  0.43697747760E+03  0.47188005205E+03  0.00000000000E+00 0. -1.
        -11    1    5    5    0    0  0.13353015718E+03 -0.22879319691E+03  0.43399333223E+03  0.50845534931E+03  0.00000000000E+00 0.  1.
          1    1    6    6  503    0 -0.86024080883E+02  0.34220969340E+02  0.35057282364E+03  0.36259139801E+03  0.00000000000E+00 0. -1.
         -1    1    6    6    0  503 -0.36280882670E+03  0.11531146676E+03  0.87197151892E+03  0.95145221052E+03  0.00000000000E+00 0.  1.
<mgrwt>
<rscale>  0 0.16142532E+04</rscale>
<asrwt>0</asrwt>
<pdfrwt beam="1">  1        4 0.35681147E+00 0.16142532E+04</pdfrwt>
<pdfrwt beam="2">  1       -3 0.43213335E-01 0.16142532E+04</pdfrwt>
<totfact> 0.15743102E-01</totfact>
</mgrwt>
</event>
<event>
12    6  0.1521603E-007  0.2107425E+04  0.7818608E-02  0.8557979E-01
         -1   -1    0    0    0  501 -0.00000000000E+00  0.00000000000E+00  0.84430413060E+03  0.84430413060E+03  0.00000000000E+00 0.  1.
          2   -1    0    0  501    0  0.00000000000E+00 -0.00000000000E+00 -0.13150597832E+04  0.13150597832E+04  0.00000000000E+00 0. -1.
         24    2    1    2    0    0  0.39980052735E+03  0.16466798502E+03  0.59289770286E+03  0.73806574193E+03  0.79103390518E+02 0.  0.
        254    2    1    2    0    0 -0.39980052735E+03 -0.16466798502E+03 -0.10636533554E+04  0.14212981719E+04  0.83771953889E+03 0.  0.
         23    2    4    4    0    0  0.18414911684E+03  0.20543108854E+01 -0.15808383720E+02  0.20684978499E+03  0.92853708216E+02 0.  0.
         23    2    4    4    0    0 -0.58394964419E+03 -0.16672229591E+03 -0.10478449717E+04  0.12144483869E+04  0.90068244701E+02 0.  0.
          2    1    3    3  502    0  0.89065405375E+02  0.72747443908E+02  0.13991466880E+03  0.18111032984E+03  0.00000000000E+00 0. -1.
         -1    1    3    3    0  502  0.31073512197E+03  0.91920541116E+02  0.45298303406E+03  0.55695541209E+03  0.00000000000E+00 0.  1.
         11    1    5    5    0    0  0.36123020289E+02 -0.35681026916E+02 -0.18573316055E+02  0.54064557206E+02  0.00000000000E+00 0.  1.
        -11    1    5    5    0    0  0.14802609655E+03  0.37735337801E+02  0.27649323354E+01  0.15278522779E+03  0.00000000000E+00 0. -1.
          4    1    6    6  503    0 -0.85686261695E+02 -0.56453074124E+02 -0.15070102275E+03  0.18231808270E+03  0.00000000000E+00 0. -1.
         -4    1    6    6    0  503 -0.49826338250E+03 -0.11026922178E+03 -0.89714394898E+03  0.10321303042E+04  0.00000000000E+00 0.  1.
<mgrwt>
<rscale>  0 0.21074254E+04</rscale>
<asrwt>0</asrwt>
<pdfrwt beam="1">  1        2 0.20231689E+00 0.21074254E+04</pdfrwt>
<pdfrwt beam="2">  1       -1 0.12989294E+00 0.21074254E+04</pdfrwt>
<totfact> 0.86430795E+00</totfact>
</mgrwt>
</event>
<event>
12    6  0.1521603E-007  0.1232170E+04  0.7818608E-02  0.9085155E-01
          2   -1    0    0  501    0  0.00000000000E+00  0.00000000000E+00  0.10876322865E+04  0.10876322865E+04  0.00000000000E+00 0. -1.
         -1   -1    0    0    0  501 -0.00000000000E+00 -0.00000000000E+00 -0.34897900300E+03  0.34897900300E+03  0.00000000000E+00 0.  1.
         24    2    1    2    0    0 -0.63408189971E+02 -0.15335671119E+01  0.48698560361E+03  0.49720712457E+03  0.77698109494E+02 0.  0.
        254    2    1    2    0    0  0.63408189971E+02  0.15335671119E+01  0.25166767986E+03  0.93940416490E+03  0.90284030347E+03 0.  0.
         23    2    4    4    0    0 -0.17365554612E+03  0.37640984110E+03  0.24018665004E+03  0.48629084151E+03  0.83357894120E+02 0.  0.
         23    2    4    4    0    0  0.23706373609E+03 -0.37487627399E+03  0.11481029826E+02  0.45311332339E+03  0.91915363360E+02 0.  0.
          2    1    3    3  502    0 -0.37003342607E+02  0.33276013853E+02  0.34731987026E+03  0.35086697299E+03  0.00000000000E+00 0. -1.
         -1    1    3    3    0  502 -0.26404847364E+02 -0.34809580965E+02  0.13966573335E+03  0.14634015158E+03  0.00000000000E+00 0.  1.
         11    1    5    5    0    0 -0.40342070841E+02  0.57279806021E+02  0.76246456520E+02  0.10354699894E+03  0.00000000000E+00 0. -1.
        -11    1    5    5    0    0 -0.13331347528E+03  0.31913003508E+03  0.16394019352E+03  0.38274384257E+03  0.00000000000E+00 0.  1.
          1    1    6    6  503    0  0.13268239107E+03 -0.12626082088E+03 -0.14866501708E+01  0.18316282897E+03  0.00000000000E+00 0. -1.
         -1    1    6    6    0  503  0.10438134502E+03 -0.24861545311E+03  0.12967679997E+02  0.26995049442E+03  0.00000000000E+00 0.  1.
<mgrwt>
<rscale>  0 0.12321702E+04</rscale>
<asrwt>0</asrwt>
<pdfrwt beam="1">  1        2 0.16732804E+00 0.12321702E+04</pdfrwt>
<pdfrwt beam="2">  1       -1 0.53689078E-01 0.12321702E+04</pdfrwt>
<totfact> 0.87159008E+01</totfact>
</mgrwt>
</event>
<event>
12    6  0.1521603E-007  0.2303963E+04  0.7818608E-02  0.8476360E-01
          2   -1    0    0  501    0  0.00000000000E+00  0.00000000000E+00  0.82410301985E+03  0.82410301985E+03  0.00000000000E+00 0. -1.
         -1   -1    0    0    0  501 -0.00000000000E+00 -0.00000000000E+00 -0.16103101763E+04  0.16103101763E+04  0.00000000000E+00 0.  1.
         24    2    1    2    0    0 -0.18784825791E+03 -0.38642507653E+03 -0.12580855608E+04  0.13316727554E+04  0.77212314545E+02 0.  0.
        254    2    1    2    0    0  0.18784825791E+03  0.38642507653E+03  0.47187840430E+03  0.11027404408E+04  0.89930859190E+03 0.  0.
         23    2    4    4    0    0 -0.22710068515E+02  0.59034992795E+03  0.52161391242E+03  0.79243106563E+03  0.82686972907E+02 0.  0.
         23    2    4    4    0    0  0.21055832643E+03 -0.20392485142E+03 -0.49735508129E+02  0.31030937513E+03  0.88871444619E+02 0.  0.
          4    1    3    3  502    0 -0.15150681945E+02 -0.46263014628E+02 -0.83109594187E+02  0.96317258743E+02  0.00000000000E+00 0. -1.
         -3    1    3    3    0  502 -0.17269757597E+03 -0.34016206190E+03 -0.11749759666E+04  0.12353554967E+04  0.00000000000E+00 0.  1.
         11    1    5    5    0    0 -0.38987669287E+02  0.50394466896E+03  0.41324556890E+03  0.65287990315E+03  0.00000000000E+00 0.  1.
        -11    1    5    5    0    0  0.16277600772E+02  0.86405258996E+02  0.10836834353E+03  0.13955116247E+03  0.00000000000E+00 0. -1.
          3    1    6    6  503    0  0.52425580076E+02 -0.40728695493E+02 -0.49928931496E+02  0.83067239531E+02  0.00000000000E+00 0. -1.
         -3    1    6    6    0  503  0.15813274635E+03 -0.16319615593E+03  0.19342336684E+00  0.22724213560E+03  0.00000000000E+00 0.  1.
<mgrwt>
<rscale>  0 0.23039631E+04</rscale>
<asrwt>0</asrwt>
<pdfrwt beam="1">  1        2 0.12678508E+00 0.23039631E+04</pdfrwt>
<pdfrwt beam="2">  1       -1 0.24774003E+00 0.23039631E+04</pdfrwt>
<totfact> 0.24685249E+00</totfact>
</mgrwt>
</event>
<event>
12    6  0.1521603E-007  0.1780160E+04  0.7818608E-02  0.8716922E-01
         -1   -1    0    0    0  501 -0.00000000000E+00  0.00000000000E+00  0.25308281508E+03  0.25308281508E+03  0.00000000000E+00 0.  1.
          2   -1    0    0  501    0  0.00000000000E+00 -0.00000000000E+00 -0.31303667471E+04  0.31303667471E+04  0.00000000000E+00 0. -1.
         24    2    1    2    0    0  0.66186432212E+02  0.15218105353E+02 -0.23159494394E+04  0.23183299333E+04  0.80122651620E+02 0.  0.
        254    2    1    2    0    0 -0.66186432212E+02 -0.15218105353E+02 -0.56133449260E+03  0.10651196288E+04  0.90264676182E+03 0.  0.
         23    2    4    4    0    0  0.23327196772E+03 -0.12593939264E+03 -0.66196817894E+03  0.71872505901E+03  0.89929411087E+02 0.  0.
         23    2    4    4    0    0 -0.29945839994E+03  0.11072128729E+03  0.10063368634E+03  0.34639456983E+03  0.89036635310E+02 0.  0.
          2    1    3    3  502    0  0.57166729483E+02  0.29929589150E+02 -0.91427936395E+03  0.91655363761E+03  0.00000000000E+00 0. -1.
         -1    1    3    3    0  502  0.90197027287E+01 -0.14711483797E+02 -0.14016700754E+04  0.14017762957E+04  0.00000000000E+00 0.  1.
         11    1    5    5    0    0  0.57714756485E+01 -0.32643875884E+02 -0.61564713142E+02  0.69922431795E+02  0.00000000000E+00 0.  1.
        -11    1    5    5    0    0  0.22750049208E+03 -0.93295516757E+02 -0.60040346580E+03  0.64880262722E+03  0.00000000000E+00 0. -1.
          2    1    6    6  503    0 -0.25720993654E+03  0.11027647879E+03  0.11384949650E+03  0.30212507523E+03  0.00000000000E+00 0. -1.
         -2    1    6    6    0  503 -0.42248463397E+02  0.44480849926E+00 -0.13215810155E+02  0.44269494599E+02  0.00000000000E+00 0.  1.
<mgrwt>
<rscale>  0 0.17801596E+04</rscale>
<asrwt>0</asrwt>
<pdfrwt beam="1">  1        2 0.48159489E+00 0.17801596E+04</pdfrwt>
<pdfrwt beam="2">  1       -1 0.38935817E-01 0.17801596E+04</pdfrwt>
<totfact> 0.99614326E+00</totfact>
</mgrwt>
</event>
<event>
12    6  0.1521603E-007  0.1980675E+04  0.7818608E-02  0.8615709E-01
          2   -1    0    0  501    0  0.00000000000E+00  0.00000000000E+00  0.30446712028E+04  0.30446712028E+04  0.00000000000E+00 0. -1.
         -1   -1    0    0    0  501 -0.00000000000E+00 -0.00000000000E+00 -0.32212623113E+03  0.32212623113E+03  0.00000000000E+00 0.  1.
         24    2    1    2    0    0 -0.39932389828E+03 -0.51667565810E+03  0.31044788022E+03  0.72687536645E+03  0.74542609375E+02 0.  0.
        254    2    1    2    0    0  0.39932389828E+03  0.51667565810E+03  0.24120970914E+04  0.26399220674E+04  0.85121256590E+03 0.  0.
         23    2    4    4    0    0  0.10780689118E+03  0.34538379538E+03  0.21962436862E+04  0.22276892011E+04  0.90556918248E+02 0.  0.
         23    2    4    4    0    0  0.29151700709E+03  0.17129186272E+03  0.21585340517E+03  0.41223286634E+03  0.94974606654E+02 0.  0.
          4    1    3    3  502    0 -0.13487702237E+01 -0.17471758594E+02  0.16345295366E+02  0.23963518316E+02  0.00000000000E+00 0. -1.
         -3    1    3    3    0  502 -0.39797512805E+03 -0.49920389951E+03  0.29410258486E+03  0.70291184814E+03  0.00000000000E+00 0.  1.
         11    1    5    5    0    0  0.57956208664E+02  0.27458797354E+03  0.18270832950E+04  0.18485104393E+04  0.00000000000E+00 0. -1.
        -11    1    5    5    0    0  0.49850682521E+02  0.70795821842E+02  0.36916039124E+03  0.37917876179E+03  0.00000000000E+00 0.  1.
          4    1    6    6  503    0  0.52152588477E+02  0.78747973847E+02  0.53338705542E+02  0.10847190133E+03  0.00000000000E+00 0.  1.
         -4    1    6    6    0  503  0.23936441861E+03  0.92543888872E+02  0.16251469962E+03  0.30376096500E+03  0.00000000000E+00 0. -1.
<mgrwt>
<rscale>  0 0.19806751E+04</rscale>
<asrwt>0</asrwt>
<pdfrwt beam="1">  1        2 0.46841094E+00 0.19806751E+04</pdfrwt>
<pdfrwt beam="2">  1       -1 0.49557884E-01 0.19806751E+04</pdfrwt>
<totfact> 0.70755618E+00</totfact>
</mgrwt>
</event>
<event>
12    6  0.1521603E-007  0.2807347E+04  0.7818608E-02  0.8300991E-01
         -1   -1    0    0    0  501 -0.00000000000E+00  0.00000000000E+00  0.10489000279E+04  0.10489000279E+04  0.00000000000E+00 0.  1.
          2   -1    0    0  501    0  0.00000000000E+00 -0.00000000000E+00 -0.18784439232E+04  0.18784439232E+04  0.00000000000E+00 0. -1.
         24    2    1    2    0    0 -0.40704200729E+03  0.10252323924E+03 -0.16070805729E+04  0.16629042626E+04  0.79676901062E+02 0.  0.
        254    2    1    2    0    0  0.40704200729E+03 -0.10252323924E+03  0.77753667764E+03  0.12644396885E+04  0.90446129298E+03 0.  0.
         23    2    4    4    0    0  0.41472169898E+03 -0.30263963995E+02 -0.48147186797E+02  0.43006799223E+03  0.98642441300E+02 0.  0.
         23    2    4    4    0    0 -0.76796916847E+01 -0.72259275241E+02  0.82568386444E+03  0.83437169627E+03  0.95613299401E+02 0.  0.
          4    1    3    3  502    0 -0.16962657150E+03  0.24614212284E+02 -0.52181549607E+03  0.54924534149E+03  0.00000000000E+00 0. -1.
         -3    1    3    3    0  502 -0.23741543579E+03  0.77909026951E+02 -0.10852650769E+04  0.11136589212E+04  0.00000000000E+00 0.  1.
         11    1    5    5    0    0  0.81480536787E+01  0.11235646702E+02  0.10218675197E+02  0.17235192437E+02  0.00000000000E+00 0. -1.
        -11    1    5    5    0    0  0.40657364530E+03 -0.41499610697E+02 -0.58365861994E+02  0.41283279980E+03  0.00000000000E+00 0.  1.
          3    1    6    6  503    0 -0.34277841059E+02 -0.21050603865E+02  0.12493809197E+03  0.13125404807E+03  0.00000000000E+00 0. -1.
         -3    1    6    6    0  503  0.26598149374E+02 -0.51208671376E+02  0.70074577247E+03  0.70311764820E+03  0.00000000000E+00 0.  1.
<mgrwt>
<rscale>  0 0.28073474E+04</rscale>
<asrwt>0</asrwt>
<pdfrwt beam="1">  1        2 0.28899137E+00 0.28073474E+04</pdfrwt>
<pdfrwt beam="2">  1       -1 0.16136924E+00 0.28073474E+04</pdfrwt>
<totfact> 0.22040946E+00</totfact>
</mgrwt>
</event>
<event>
12    6  0.1521603E-007  0.3028742E+04  0.7818608E-02  0.8235571E-01
          2   -1    0    0  501    0  0.00000000000E+00  0.00000000000E+00  0.34009608458E+04  0.34009608458E+04  0.00000000000E+00 0. -1.
         -1   -1    0    0    0  501 -0.00000000000E+00 -0.00000000000E+00 -0.67431525229E+03  0.67431525229E+03  0.00000000000E+00 0.  1.
         24    2    1    2    0    0 -0.88857308981E+03  0.22612061934E+03  0.26146426327E+04  0.27719047444E+04  0.80044643098E+02 0.  0.
        254    2    1    2    0    0  0.88857308981E+03 -0.22612061934E+03  0.11200296074E+03  0.13033713536E+04  0.91953224620E+03 0.  0.
         23    2    4    4    0    0  0.88946999349E+03  0.13558441561E+03  0.18515641087E+03  0.92329701204E+03  0.93029419479E+02 0.  0.
         23    2    4    4    0    0 -0.89690367344E+00 -0.36170503495E+03 -0.73153450124E+02  0.38007434158E+03  0.90960107295E+02 0.  0.
          4    1    3    3  502    0 -0.53846383993E+03  0.16688370451E+03  0.16818257832E+04  0.17737901350E+04  0.00000000000E+00 0. -1.
         -3    1    3    3    0  502 -0.35010924989E+03  0.59236914830E+02  0.93281684951E+03  0.99811460948E+03  0.00000000000E+00 0.  1.
         11    1    5    5    0    0  0.65340928932E+03  0.13178429051E+03  0.11035807645E+03  0.67564021759E+03  0.00000000000E+00 0.  1.
        -11    1    5    5    0    0  0.23606070417E+03  0.38001250910E+01  0.74798334420E+02  0.24765679445E+03  0.00000000000E+00 0. -1.
          2    1    6    6  503    0  0.13267788702E+02 -0.11968894703E+03 -0.66476454559E+02  0.13755216199E+03  0.00000000000E+00 0. -1.
         -2    1    6    6    0  503 -0.14164692376E+02 -0.24201608793E+03 -0.66769955648E+01  0.24252217959E+03  0.00000000000E+00 0.  1.
<mgrwt>
<rscale>  0 0.30287422E+04</rscale>
<asrwt>0</asrwt>
<pdfrwt beam="1">  1        2 0.52322474E+00 0.30287422E+04</pdfrwt>
<pdfrwt beam="2">  1       -1 0.10374081E+00 0.30287422E+04</pdfrwt>
<totfact> 0.80796544E-01</totfact>
</mgrwt>
</event>
<event>
12    6  0.1521603E-007  0.2104648E+04  0.7818608E-02  0.8559198E-01
         -1   -1    0    0    0  501 -0.00000000000E+00  0.00000000000E+00  0.74035696053E+03  0.74035696053E+03  0.00000000000E+00 0.  1.
          2   -1    0    0  501    0  0.00000000000E+00 -0.00000000000E+00 -0.14957463981E+04  0.14957463981E+04  0.00000000000E+00 0. -1.
         24    2    1    2    0    0 -0.48008195216E+03 -0.36378088922E+03  0.33982467956E+03  0.69597134491E+03  0.77974893013E+02 0.  0.
        254    2    1    2    0    0  0.48008195216E+03  0.36378088922E+03 -0.10952141171E+04  0.15401320137E+04  0.89983189606E+03 0.  0.
         23    2    4    4    0    0  0.41727434664E+02 -0.26327334442E+03 -0.46828499766E+03  0.54678048110E+03  0.92865616868E+02 0.  0.
         23    2    4    4    0    0  0.43835451750E+03  0.62705423363E+03 -0.62692911945E+03  0.99335153260E+03  0.91408159255E+02 0.  0.
          2    1    3    3  502    0 -0.45371620784E+03 -0.32205988904E+03  0.29742715992E+03  0.63090719194E+03  0.00000000000E+00 0. -1.
         -1    1    3    3    0  502 -0.26365744322E+02 -0.41721000176E+02  0.42397519637E+02  0.65064152962E+02  0.00000000000E+00 0.  1.
         11    1    5    5    0    0 -0.17317654268E+02 -0.63938441124E+02 -0.17639038657E+03  0.18841866647E+03  0.00000000000E+00 0.  1.
        -11    1    5    5    0    0  0.59045088932E+02 -0.19933490329E+03 -0.29189461109E+03  0.35836181463E+03  0.00000000000E+00 0. -1.
          3    1    6    6  503    0  0.10617762076E+02  0.55976095093E+02 -0.49201007289E+02  0.75278145644E+02  0.00000000000E+00 0. -1.
         -3    1    6    6    0  503  0.42773675542E+03  0.57107813854E+03 -0.57772811216E+03  0.91807338696E+03  0.00000000000E+00 0.  1.
<mgrwt>
<rscale>  0 0.21046484E+04</rscale>
<asrwt>0</asrwt>
<pdfrwt beam="1">  1        2 0.23011483E+00 0.21046484E+04</pdfrwt>
<pdfrwt beam="2">  1       -1 0.11390107E+00 0.21046484E+04</pdfrwt>
<totfact> 0.94099654E+00</totfact>
</mgrwt>
</event>
<event>
12    6  0.1521603E-007  0.2339205E+04  0.7818608E-02  0.8462621E-01
          2   -1    0    0  501    0  0.00000000000E+00  0.00000000000E+00  0.13455296985E+04  0.13455296985E+04  0.00000000000E+00 0. -1.
         -1   -1    0    0    0  501 -0.00000000000E+00 -0.00000000000E+00 -0.10166779638E+04  0.10166779638E+04  0.00000000000E+00 0.  1.
         24    2    1    2    0    0 -0.71061393421E+03 -0.33230988567E+03  0.76258597291E+03  0.10969033488E+04  0.79104783833E+02 0.  0.
        254    2    1    2    0    0  0.71061393421E+03  0.33230988567E+03 -0.43373423819E+03  0.12653043136E+04  0.89301041030E+03 0.  0.
         23    2    4    4    0    0  0.68387138099E+03  0.21625092353E+03 -0.67003520740E+03  0.98659848558E+03  0.99924295959E+02 0.  0.
         23    2    4    4    0    0  0.26742553222E+02  0.11605896214E+03  0.23630096922E+03  0.27870582797E+03  0.87486819855E+02 0.  0.
          2    1    3    3  502    0 -0.22207211910E+03 -0.69698327782E+02  0.20000297947E+03  0.30687957699E+03  0.00000000000E+00 0. -1.
         -1    1    3    3    0  502 -0.48854181512E+03 -0.26261155788E+03  0.56258299343E+03  0.79002377176E+03  0.00000000000E+00 0.  1.
         11    1    5    5    0    0  0.39619023993E+03  0.17629602212E+03 -0.40882287501E+03  0.59597242953E+03  0.00000000000E+00 0.  1.
        -11    1    5    5    0    0  0.28768114106E+03  0.39954901409E+02 -0.26121233239E+03  0.39062605605E+03  0.00000000000E+00 0. -1.
          1    1    6    6  503    0  0.56340093618E+01  0.84504092604E+02  0.22289765303E+03  0.23844506171E+03  0.00000000000E+00 0. -1.
         -1    1    6    6    0  503  0.21108543860E+02  0.31554869531E+02  0.13403316185E+02  0.40260766259E+02  0.00000000000E+00 0.  1.
<mgrwt>
<rscale>  0 0.23392053E+04</rscale>
<asrwt>0</asrwt>
<pdfrwt beam="1">  1        2 0.20700457E+00 0.23392053E+04</pdfrwt>
<pdfrwt beam="2">  1       -1 0.15641199E+00 0.23392053E+04</pdfrwt>
<totfact> 0.49857000E+00</totfact>
</mgrwt>
</event>
<event>
12    6  0.1521603E-007  0.1537357E+04  0.7818608E-02  0.8859984E-01
          2   -1    0    0  501    0  0.00000000000E+00  0.00000000000E+00  0.61915207922E+03  0.61915207922E+03  0.00000000000E+00 0. -1.
         -1   -1    0    0    0  501 -0.00000000000E+00 -0.00000000000E+00 -0.95431538472E+03  0.95431538472E+03  0.00000000000E+00 0.  1.
         24    2    1    2    0    0 -0.37863869579E+03 -0.21534578629E+02 -0.45177514898E+03  0.59528464342E+03  0.80199884257E+02 0.  0.
        254    2    1    2    0    0  0.37863869579E+03  0.21534578629E+02  0.11661184348E+03  0.97818282051E+03  0.89409860098E+03 0.  0.
         23    2    4    4    0    0  0.34946869527E+03  0.42346549581E+03  0.91887062154E+02  0.56408430137E+03  0.91084969898E+02 0.  0.
         23    2    4    4    0    0  0.29170000520E+02 -0.40193091718E+03  0.24724781327E+02  0.41409851914E+03  0.92015855317E+02 0.  0.
          2    1    3    3  502    0 -0.60698112577E+01 -0.91657686893E+00  0.31550635341E+01  0.69019669490E+01  0.00000000000E+00 0. -1.
         -1    1    3    3    0  502 -0.37256888453E+03 -0.20618001760E+02 -0.45493021251E+03  0.58838267647E+03  0.00000000000E+00 0.  1.
         11    1    5    5    0    0  0.33851127727E+03  0.41202001545E+03  0.10503913986E+03  0.54349204123E+03  0.00000000000E+00 0. -1.
        -11    1    5    5    0    0  0.10957417995E+02  0.11445480358E+02 -0.13152077703E+02  0.20592260139E+02  0.00000000000E+00 0.  1.
          4    1    6    6  503    0  0.42663953156E+00 -0.36405179149E+03  0.95194898125E+01  0.36417648138E+03  0.00000000000E+00 0. -1.
         -4    1    6    6    0  503  0.28743360989E+02 -0.37879125695E+02  0.15205291515E+02  0.49922037763E+02  0.00000000000E+00 0.  1.
<mgrwt>
<rscale>  0 0.15373566E+04</rscale>
<asrwt>0</asrwt>
<pdfrwt beam="1">  1        2 0.95254167E-01 0.15373566E+04</pdfrwt>
<pdfrwt beam="2">  1       -1 0.14681775E+00 0.15373566E+04</pdfrwt>
<totfact> 0.19423204E+01</totfact>
</mgrwt>
</event>
<event>
12    6  0.1521603E-007  0.1128062E+04  0.7818608E-02  0.9178264E-01
          2   -1    0    0  501    0  0.00000000000E+00  0.00000000000E+00  0.13308581630E+04  0.13308581630E+04  0.00000000000E+00 0. -1.
         -1   -1    0    0    0  501 -0.00000000000E+00 -0.00000000000E+00 -0.23904191646E+03  0.23904191646E+03  0.00000000000E+00 0.  1.
         24    2    1    2    0    0  0.15587898894E+03 -0.10741418259E+03  0.10394579222E+03  0.23058633335E+03  0.80803858773E+02 0.  0.
        254    2    1    2    0    0 -0.15587898894E+03  0.10741418259E+03  0.98787045435E+03  0.13393137461E+04  0.88432867770E+03 0.  0.
         23    2    4    4    0    0  0.15729306629E+03  0.42861636698E+02  0.99016360777E+03  0.10076410520E+04  0.91314242620E+02 0.  0.
         23    2    4    4    0    0 -0.31317205523E+03  0.64552545892E+02 -0.22931534232E+01  0.33167269414E+03  0.88078091090E+02 0.  0.
          4    1    3    3  502    0  0.24550946800E+02  0.96407178277E+01  0.29466121691E+02  0.39546741415E+02  0.00000000000E+00 0. -1.
         -3    1    3    3    0  502  0.13132804214E+03 -0.11705490042E+03  0.74479670525E+02  0.19103959193E+03  0.00000000000E+00 0.  1.
         11    1    5    5    0    0  0.60525899884E+02 -0.27799165335E+02  0.32148242211E+03  0.32830949708E+03  0.00000000000E+00 0. -1.
        -11    1    5    5    0    0  0.96767166402E+02  0.70660802033E+02  0.66868118566E+03  0.67933155491E+03  0.00000000000E+00 0.  1.
          1    1    6    6  503    0 -0.31137274130E+03  0.75405026211E+02 -0.47187691893E+01  0.32040781636E+03  0.00000000000E+00 0. -1.
         -1    1    6    6    0  503 -0.17993139337E+01 -0.10852480319E+02  0.24256157661E+01  0.11264877787E+02  0.00000000000E+00 0.  1.
<mgrwt>
<rscale>  0 0.11280619E+04</rscale>
<asrwt>0</asrwt>
<pdfrwt beam="1">  1        2 0.20474741E+00 0.11280619E+04</pdfrwt>
<pdfrwt beam="2">  1       -1 0.36775680E-01 0.11280619E+04</pdfrwt>
<totfact> 0.12707259E+02</totfact>
</mgrwt>
</event>
<event>
12    6  0.1521603E-007  0.3591508E+04  0.7818608E-02  0.8092440E-01
         -1   -1    0    0    0  501 -0.00000000000E+00  0.00000000000E+00  0.91936827082E+03  0.91936827082E+03  0.00000000000E+00 0.  1.
          2   -1    0    0  501    0  0.00000000000E+00 -0.00000000000E+00 -0.35075525773E+04  0.35075525773E+04  0.00000000000E+00 0. -1.
         24    2    1    2    0    0 -0.36249626022E+03 -0.13669592842E+04 -0.23369672439E+04  0.27325903939E+04  0.75187354490E+02 0.  0.
        254    2    1    2    0    0  0.36249626022E+03  0.13669592842E+04 -0.25121706254E+03  0.16943304542E+04  0.89870153682E+03 0.  0.
         23    2    4    4    0    0 -0.26938360553E+03  0.39713554013E+03 -0.21081732547E+03  0.53219907869E+03  0.92237467862E+02 0.  0.
         23    2    4    4    0    0  0.63187986575E+03  0.96982374406E+03 -0.40399737072E+02  0.11621313755E+04  0.95325421399E+02 0.  0.
          4    1    3    3  502    0 -0.16879132404E+03 -0.63242396983E+03 -0.11542110316E+04  0.13268962635E+04  0.00000000000E+00 0. -1.
         -3    1    3    3    0  502 -0.19370493617E+03 -0.73453531436E+03 -0.11827562123E+04  0.14056941304E+04  0.00000000000E+00 0.  1.
         11    1    5    5    0    0 -0.16055177740E+03  0.15570303248E+03 -0.89275945138E+02  0.24081217148E+03  0.00000000000E+00 0. -1.
        -11    1    5    5    0    0 -0.10883182813E+03  0.24143250765E+03 -0.12154138033E+03  0.29138690721E+03  0.00000000000E+00 0.  1.
          2    1    6    6  503    0  0.56044546769E+03  0.79960897020E+03 -0.44732632695E+02  0.97748382898E+03  0.00000000000E+00 0. -1.
         -2    1    6    6    0  503  0.71434398059E+02  0.17021477386E+03  0.43328956232E+01  0.18464754656E+03  0.00000000000E+00 0.  1.
<mgrwt>
<rscale>  0 0.35915081E+04</rscale>
<asrwt>0</asrwt>
<pdfrwt beam="1">  1        2 0.53962346E+00 0.35915081E+04</pdfrwt>
<pdfrwt beam="2">  1       -1 0.14144127E+00 0.35915081E+04</pdfrwt>
<totfact> 0.30286342E-01</totfact>
</mgrwt>
</event>
<event>
12    6  0.1521603E-007  0.2853267E+04  0.7818608E-02  0.8286919E-01
          2   -1    0    0  501    0  0.00000000000E+00  0.00000000000E+00  0.20508713777E+04  0.20508713777E+04  0.00000000000E+00 0. -1.
         -1   -1    0    0    0  501 -0.00000000000E+00 -0.00000000000E+00 -0.99239944989E+03  0.99239944989E+03  0.00000000000E+00 0.  1.
         24    2    1    2    0    0  0.88590878492E+03  0.38682951034E+02 -0.51285460248E+03  0.10274996164E+04  0.80030447841E+02 0.  0.
        254    2    1    2    0    0 -0.88590878492E+03 -0.38682951034E+02  0.15713265303E+04  0.20157712112E+04  0.89885247125E+03 0.  0.
         23    2    4    4    0    0 -0.35076003394E+03  0.41790079406E+03  0.72002718478E+03  0.90771847852E+03  0.88543855475E+02 0.  0.
         23    2    4    4    0    0 -0.53514875098E+03 -0.45658374510E+03  0.85129934555E+03  0.11080527327E+04  0.90649769397E+02 0.  0.
          2    1    3    3  502    0  0.10910709089E+03  0.22815007596E+02 -0.87613851805E+02  0.14177823840E+03  0.00000000000E+00 0. -1.
         -1    1    3    3    0  502  0.77680169403E+03  0.15867943437E+02 -0.42524075068E+03  0.88572137804E+03  0.00000000000E+00 0.  1.
         11    1    5    5    0    0 -0.23138390078E+03  0.20763403230E+03  0.39862140836E+03  0.50551896909E+03  0.00000000000E+00 0.  1.
        -11    1    5    5    0    0 -0.11937613316E+03  0.21026676176E+03  0.32140577642E+03  0.40219950943E+03  0.00000000000E+00 0. -1.
          3    1    6    6  503    0 -0.23190022578E+03 -0.14678427933E+03  0.29758919854E+03  0.40482424639E+03  0.00000000000E+00 0. -1.
         -3    1    6    6    0  503 -0.30324852520E+03 -0.30979946576E+03  0.55371014701E+03  0.70322848629E+03  0.00000000000E+00 0.  1.
<mgrwt>
<rscale>  0 0.28532673E+04</rscale>
<asrwt>0</asrwt>
<pdfrwt beam="1">  1        2 0.31551867E+00 0.28532673E+04</pdfrwt>
<pdfrwt beam="2">  1       -1 0.15267684E+00 0.28532673E+04</pdfrwt>
<totfact> 0.20513078E+00</totfact>
</mgrwt>
</event>
<event>
12    6  0.1521603E-007  0.1242449E+04  0.7818608E-02  0.9076492E-01
         -1   -1    0    0    0  501 -0.00000000000E+00  0.00000000000E+00  0.24523634498E+03  0.24523634498E+03  0.00000000000E+00 0.  1.
          2   -1    0    0  501    0  0.00000000000E+00 -0.00000000000E+00 -0.15736644696E+04  0.15736644696E+04  0.00000000000E+00 0. -1.
         24    2    1    2    0    0 -0.77390634135E+02  0.22964872163E+03 -0.51113327949E+03  0.57113114134E+03  0.78776301047E+02 0.  0.
        254    2    1    2    0    0  0.77390634135E+02 -0.22964872163E+03 -0.81729484513E+03  0.12477696732E+04  0.91116982390E+03 0.  0.
         23    2    4    4    0    0 -0.39015450363E+03 -0.18432037869E+03 -0.25446218068E+03  0.50907486992E+03  0.90618337470E+02 0.  0.
         23    2    4    4    0    0  0.46754513776E+03 -0.45328342945E+02 -0.56283266444E+03  0.73869480332E+03  0.90754006882E+02 0.  0.
          2    1    3    3  502    0 -0.35447450353E+02  0.19832476789E+03 -0.42506719938E+03  0.47039489717E+03  0.00000000000E+00 0. -1.
         -1    1    3    3    0  502 -0.41943183782E+02  0.31323953740E+02 -0.86066080114E+02  0.10073624417E+03  0.00000000000E+00 0.  1.
         11    1    5    5    0    0 -0.10936276814E+02 -0.13324244422E+02  0.60240969779E+01  0.18259994095E+02  0.00000000000E+00 0.  1.
        -11    1    5    5    0    0 -0.37921822682E+03 -0.17099613427E+03 -0.26048627766E+03  0.49081487583E+03  0.00000000000E+00 0. -1.
          2    1    6    6  503    0  0.34703537497E+03  0.53205554760E+01 -0.39165374978E+03  0.52331111158E+03  0.00000000000E+00 0. -1.
         -2    1    6    6    0  503  0.12050976280E+03 -0.50648898421E+02 -0.17117891467E+03  0.21538369174E+03  0.00000000000E+00 0.  1.
<mgrwt>
<rscale>  0 0.12424487E+04</rscale>
<asrwt>0</asrwt>
<pdfrwt beam="1">  1        2 0.24210223E+00 0.12424487E+04</pdfrwt>
<pdfrwt beam="2">  1       -1 0.37728667E-01 0.12424487E+04</pdfrwt>
<totfact> 0.87621968E+01</totfact>
</mgrwt>
</event>
<event>
12    6  0.1521603E-007  0.1587903E+04  0.7818608E-02  0.8828015E-01
         -3   -1    0    0    0  501 -0.00000000000E+00  0.00000000000E+00  0.12443515168E+04  0.12443515168E+04  0.00000000000E+00 0.  1.
          4   -1    0    0  501    0  0.00000000000E+00 -0.00000000000E+00 -0.50657600169E+03  0.50657600169E+03  0.00000000000E+00 0. -1.
         24    2    1    2    0    0 -0.13019482990E+03  0.31511003573E+03  0.71149009493E+03  0.79270015905E+03  0.76878856761E+02 0.  0.
        254    2    1    2    0    0  0.13019482990E+03 -0.31511003573E+03  0.26285420171E+02  0.95822735943E+03  0.89513335358E+03 0.  0.
         23    2    4    4    0    0 -0.29998594889E+03 -0.40107139375E+03  0.28965216214E+02  0.51005705539E+03  0.92029253946E+02 0.  0.
         23    2    4    4    0    0  0.43018077880E+03  0.85961358020E+02 -0.26797960432E+01  0.44817030404E+03  0.91676510613E+02 0.  0.
          2    1    3    3  502    0 -0.29968381305E+02  0.12548389937E+03  0.19927800059E+03  0.23739425940E+03  0.00000000000E+00 0. -1.
         -1    1    3    3    0  502 -0.10022644860E+03  0.18962613637E+03  0.51221209434E+03  0.55530589964E+03  0.00000000000E+00 0.  1.
         11    1    5    5    0    0 -0.21242966109E+03 -0.20868739197E+03  0.21294731620E+02  0.29854690431E+03  0.00000000000E+00 0. -1.
        -11    1    5    5    0    0 -0.87556287803E+02 -0.19238400178E+03  0.76704845939E+01  0.21151015108E+03  0.00000000000E+00 0.  1.
          1    1    6    6  503    0  0.42365997272E+03  0.68106001951E+02 -0.39714309210E+01  0.42911766714E+03  0.00000000000E+00 0. -1.
         -1    1    6    6    0  503  0.65208060753E+01  0.17855356069E+02  0.12916348778E+01  0.19052636901E+02  0.00000000000E+00 0.  1.
<mgrwt>
<rscale>  0 0.15879025E+04</rscale>
<asrwt>0</asrwt>
<pdfrwt beam="1">  1        4 0.77934770E-01 0.15879025E+04</pdfrwt>
<pdfrwt beam="2">  1       -3 0.19143869E+00 0.15879025E+04</pdfrwt>
<totfact> 0.53771737E-01</totfact>
</mgrwt>
</event>
<event>
12    6  0.1521603E-007  0.3577224E+04  0.7818608E-02  0.8095729E-01
         -1   -1    0    0    0  501 -0.00000000000E+00  0.00000000000E+00  0.12039790125E+04  0.12039790125E+04  0.00000000000E+00 0.  1.
          2   -1    0    0  501    0  0.00000000000E+00 -0.00000000000E+00 -0.26571336939E+04  0.26571336939E+04  0.00000000000E+00 0. -1.
         24    2    1    2    0    0  0.40378152951E+03 -0.36201497147E+03 -0.23904944784E+04  0.24525212846E+04  0.79387888556E+02 0.  0.
        254    2    1    2    0    0 -0.40378152951E+03  0.36201497147E+03  0.93733979699E+03  0.14085914218E+04  0.90079383616E+03 0.  0.
         23    2    4    4    0    0 -0.43043841926E+03  0.14023726789E+03  0.23115510859E+02  0.46306928689E+03  0.94631461679E+02 0.  0.
         23    2    4    4    0    0  0.26656889745E+02  0.22177770358E+03  0.91422428613E+03  0.94552213486E+03  0.91159873733E+02 0.  0.
          4    1    3    3  502    0  0.20606718547E+03 -0.14550404761E+03 -0.12258506033E+04  0.12515369809E+04  0.00000000000E+00 0. -1.
         -3    1    3    3    0  502  0.19771434404E+03 -0.21651092386E+03 -0.11646438751E+04  0.12009843037E+04  0.00000000000E+00 0.  1.
         11    1    5    5    0    0  0.99050130375E-01  0.12357816582E+02  0.56860347672E+01  0.13603544868E+02  0.00000000000E+00 0. -1.
        -11    1    5    5    0    0 -0.43053746939E+03  0.12787945131E+03  0.17429476092E+02  0.44946574202E+03  0.00000000000E+00 0.  1.
          1    1    6    6  503    0  0.24687912743E+02  0.33850233370E+02  0.79083335589E+02  0.89495839583E+02  0.00000000000E+00 0. -1.
         -1    1    6    6    0  503  0.19689770018E+01  0.18792747021E+03  0.83514095054E+03  0.85602629528E+03  0.00000000000E+00 0.  1.
<mgrwt>
<rscale>  0 0.35772242E+04</rscale>
<asrwt>0</asrwt>
<pdfrwt beam="1">  1        2 0.40878979E+00 0.35772242E+04</pdfrwt>
<pdfrwt beam="2">  1       -1 0.18522754E+00 0.35772242E+04</pdfrwt>
<totfact> 0.49873857E-01</totfact>
</mgrwt>
</event>
<event>
12    6  0.1521603E-007  0.1862163E+04  0.7818608E-02  0.8673923E-01
          2   -1    0    0  501    0  0.00000000000E+00  0.00000000000E+00  0.87688185191E+03  0.87688185191E+03  0.00000000000E+00 0. -1.
         -1   -1    0    0    0  501 -0.00000000000E+00 -0.00000000000E+00 -0.98863138782E+03  0.98863138782E+03  0.00000000000E+00 0.  1.
         24    2    1    2    0    0 -0.17557372879E+03 -0.32321800630E+03 -0.64681738108E+03  0.74830198270E+03  0.79291355211E+02 0.  0.
        254    2    1    2    0    0  0.17557372879E+03  0.32321800630E+03  0.53506784516E+03  0.11172112570E+04  0.90915751114E+03 0.  0.
         23    2    4    4    0    0 -0.32412990396E+03 -0.58697604496E+02  0.15262005464E+03  0.37442911609E+03  0.91644304170E+02 0.  0.
         23    2    4    4    0    0  0.49970363274E+03  0.38191561080E+03  0.38244779052E+03  0.74278214093E+03  0.99477344481E+02 0.  0.
          4    1    3    3  502    0 -0.28888784722E+02 -0.12715776572E+03 -0.25149468451E+03  0.28329002030E+03  0.00000000000E+00 0. -1.
         -3    1    3    3    0  502 -0.14668494407E+03 -0.19606024058E+03 -0.39532269657E+03  0.46501196240E+03  0.00000000000E+00 0.  1.
         11    1    5    5    0    0 -0.30510712245E+03 -0.62825101486E+02  0.16383420936E+03  0.35196448358E+03  0.00000000000E+00 0. -1.
        -11    1    5    5    0    0 -0.19022781509E+02  0.41274969894E+01 -0.11214154722E+02  0.22464632511E+02  0.00000000000E+00 0.  1.
          2    1    6    6  503    0  0.39159776503E+03  0.28353015372E+03  0.33835482290E+03  0.59010350264E+03  0.00000000000E+00 0. -1.
         -2    1    6    6    0  503  0.10810586771E+03  0.98385457073E+02  0.44092967625E+02  0.15267863829E+03  0.00000000000E+00 0.  1.
<mgrwt>
<rscale>  0 0.18621632E+04</rscale>
<asrwt>0</asrwt>
<pdfrwt beam="1">  1        2 0.13490490E+00 0.18621632E+04</pdfrwt>
<pdfrwt beam="2">  1       -1 0.15209714E+00 0.18621632E+04</pdfrwt>
<totfact> 0.10953674E+01</totfact>
</mgrwt>
</event>
<event>
12    6  0.1521603E-007  0.9624419E+03  0.7818608E-02  0.9350725E-01
         -1   -1    0    0    0  501 -0.00000000000E+00  0.00000000000E+00  0.98703607376E+03  0.98703607376E+03  0.00000000000E+00 0.  1.
          2   -1    0    0  501    0  0.00000000000E+00 -0.00000000000E+00 -0.23461511200E+03  0.23461511200E+03  0.00000000000E+00 0. -1.
         24    2    1    2    0    0  0.36828856377E+02  0.48117058861E+01 -0.13290713787E+02  0.88380139121E+02  0.79087854583E+02 0.  0.
        254    2    1    2    0    0 -0.36828856377E+02 -0.48117058861E+01  0.76571167555E+03  0.11332710466E+04  0.83463128260E+03 0.  0.
         23    2    4    4    0    0 -0.30126022034E+03 -0.27318135300E+03  0.54610923310E+03  0.68813675232E+03  0.99554625360E+02 0.  0.
         23    2    4    4    0    0  0.26443136396E+03  0.26836964712E+03  0.21960244245E+03  0.44513429431E+03  0.89292180554E+02 0.  0.
          4    1    3    3  502    0  0.50166817074E+02 -0.15365329542E+02 -0.28599329808E+02  0.59755539933E+02  0.00000000000E+00 0. -1.
         -3    1    3    3    0  502 -0.13337960697E+02  0.20177035428E+02  0.15308616021E+02  0.28624599188E+02  0.00000000000E+00 0.  1.
         11    1    5    5    0    0 -0.44322709036E+02 -0.65931135233E+02  0.17040186782E+03  0.18801120628E+03  0.00000000000E+00 0.  1.
        -11    1    5    5    0    0 -0.25693751130E+03 -0.20725021777E+03  0.37570736529E+03  0.50012554605E+03  0.00000000000E+00 0. -1.
          3    1    6    6  503    0  0.11501333585E+03  0.13959283043E+03  0.57417602657E+02  0.18976566293E+03  0.00000000000E+00 0. -1.
         -3    1    6    6    0  503  0.14941802810E+03  0.12877681669E+03  0.16218483979E+03  0.25536863139E+03  0.00000000000E+00 0.  1.
<mgrwt>
<rscale>  0 0.96244185E+03</rscale>
<asrwt>0</asrwt>
<pdfrwt beam="1">  1        2 0.36094633E-01 0.96244185E+03</pdfrwt>
<pdfrwt beam="2">  1       -1 0.15185170E+00 0.96244185E+03</pdfrwt>
<totfact> 0.56009599E+01</totfact>
</mgrwt>
</event>
<event>
12    6  0.1521603E-007  0.2196209E+04  0.7818608E-02  0.8520008E-01
         -1   -1    0    0    0  501 -0.00000000000E+00  0.00000000000E+00  0.99964815226E+03  0.99964815226E+03  0.00000000000E+00 0.  1.
          2   -1    0    0  501    0  0.00000000000E+00 -0.00000000000E+00 -0.12062581080E+04  0.12062581080E+04  0.00000000000E+00 0. -1.
         24    2    1    2    0    0 -0.41054560535E+03  0.81263563455E+03  0.46709386107E+02  0.91520103539E+03  0.80540671809E+02 0.  0.
        254    2    1    2    0    0  0.41054560535E+03 -0.81263563455E+03 -0.25331934185E+03  0.12907052249E+04  0.87910461263E+03 0.  0.
         23    2    4    4    0    0  0.83577679351E+02 -0.10586930830E+01  0.24937683078E+03  0.27756140457E+03  0.88685851519E+02 0.  0.
         23    2    4    4    0    0  0.32696792599E+03 -0.81157694146E+03 -0.50269617262E+03  0.10131438203E+04  0.90508574709E+02 0.  0.
          4    1    3    3  502    0 -0.66583605249E+02  0.19884240300E+03 -0.44797659564E+01  0.20974209406E+03  0.00000000000E+00 0. -1.
         -3    1    3    3    0  502 -0.34396200010E+03  0.61379323155E+03  0.51189152064E+02  0.70545894133E+03  0.00000000000E+00 0.  1.
         11    1    5    5    0    0  0.29857197115E+01 -0.11843590796E+02  0.14372671539E+03  0.14424477072E+03  0.00000000000E+00 0.  1.
        -11    1    5    5    0    0  0.80591959640E+02  0.10784897713E+02  0.10565011539E+03  0.13331663384E+03  0.00000000000E+00 0. -1.
          1    1    6    6  503    0  0.17513665424E+03 -0.31679542535E+03 -0.19947665614E+03  0.41330754351E+03  0.00000000000E+00 0. -1.
         -1    1    6    6    0  503  0.15183127175E+03 -0.49478151612E+03 -0.30321951648E+03  0.59983627679E+03  0.00000000000E+00 0.  1.
<mgrwt>
<rscale>  0 0.21962092E+04</rscale>
<asrwt>0</asrwt>
<pdfrwt beam="1">  1        2 0.18557817E+00 0.21962092E+04</pdfrwt>
<pdfrwt beam="2">  1       -1 0.15379202E+00 0.21962092E+04</pdfrwt>
<totfact> 0.63817150E+00</totfact>
</mgrwt>
</event>
<event>
12    6  0.1521603E-007  0.1882663E+04  0.7818608E-02  0.8663534E-01
         -1   -1    0    0    0  501 -0.00000000000E+00  0.00000000000E+00  0.11617220336E+04  0.11617220336E+04  0.00000000000E+00 0.  1.
          2   -1    0    0  501    0  0.00000000000E+00 -0.00000000000E+00 -0.76275147638E+03  0.76275147638E+03  0.00000000000E+00 0. -1.
         24    2    1    2    0    0  0.53554095771E+03  0.28852355202E+03 -0.24086929074E+03  0.65880290029E+03  0.77157557972E+02 0.  0.
        254    2    1    2    0    0 -0.53554095771E+03 -0.28852355202E+03  0.63983984800E+03  0.12656706097E+04  0.90690523420E+03 0.  0.
         23    2    4    4    0    0 -0.19824494357E+03  0.29893923671E+03  0.39102012624E+03  0.53821673441E+03  0.90082124682E+02 0.  0.
         23    2    4    4    0    0 -0.33729601414E+03 -0.58746278873E+03  0.24881972176E+03  0.72745387533E+03  0.91633822876E+02 0.  0.
          2    1    3    3  502    0  0.10291460117E+03  0.43985887032E+02 -0.75706090980E+02  0.13512063352E+03  0.00000000000E+00 0. -1.
         -1    1    3    3    0  502  0.43262635654E+03  0.24453766498E+03 -0.16516319976E+03  0.52368226677E+03  0.00000000000E+00 0.  1.
         11    1    5    5    0    0 -0.19818776746E+03  0.29452774369E+03  0.35541507836E+03  0.50233938816E+03  0.00000000000E+00 0. -1.
        -11    1    5    5    0    0 -0.57176111450E-01  0.44114930175E+01  0.35605047880E+02  0.35877346254E+02  0.00000000000E+00 0.  1.
          2    1    6    6  503    0 -0.41440082305E+02 -0.35983503715E+02  0.26347239659E+01  0.54945743524E+02  0.00000000000E+00 0.  1.
         -2    1    6    6    0  503 -0.29585593184E+03 -0.55147928501E+03  0.24618499780E+03  0.67250813180E+03  0.00000000000E+00 0. -1.
<mgrwt>
<rscale>  0 0.18826632E+04</rscale>
<asrwt>0</asrwt>
<pdfrwt beam="1">  1        2 0.11734638E+00 0.18826632E+04</pdfrwt>
<pdfrwt beam="2">  1       -1 0.17872647E+00 0.18826632E+04</pdfrwt>
<totfact> 0.83472608E+00</totfact>
</mgrwt>
</event>
<event>
12    6  0.1521603E-007  0.2680280E+04  0.7818608E-02  0.8341432E-01
          2   -1    0    0  501    0  0.00000000000E+00  0.00000000000E+00  0.18830159232E+04  0.18830159232E+04  0.00000000000E+00 0. -1.
         -1   -1    0    0    0  501 -0.00000000000E+00 -0.00000000000E+00 -0.95377605035E+03  0.95377605035E+03  0.00000000000E+00 0.  1.
         24    2    1    2    0    0 -0.55605492283E+03 -0.64024282483E+03 -0.47138556901E+03  0.97346097114E+03  0.79460403427E+02 0.  0.
        254    2    1    2    0    0  0.55605492283E+03  0.64024282483E+03  0.14006254419E+04  0.18633310024E+04  0.88946210950E+03 0.  0.
         23    2    4    4    0    0  0.41461035895E+03  0.37195349799E+03  0.14372211445E+04  0.15440795823E+04  0.91246829828E+02 0.  0.
         23    2    4    4    0    0  0.14144456388E+03  0.26828932684E+03 -0.36595702580E+02  0.31925142014E+03  0.92717292171E+02 0.  0.
          4    1    3    3  502    0 -0.20364027261E+01 -0.10975468457E+02  0.88223112710E+00  0.11197596870E+02  0.00000000000E+00 0. -1.
         -3    1    3    3    0  502 -0.55401852011E+03 -0.62926735637E+03 -0.47226780013E+03  0.96226337427E+03  0.00000000000E+00 0.  1.
         11    1    5    5    0    0  0.36765576772E+03  0.33798039854E+03  0.13495080920E+04  0.14389487843E+04  0.00000000000E+00 0. -1.
        -11    1    5    5    0    0  0.46954591234E+02  0.33973099454E+02  0.87713052456E+02  0.10513079804E+03  0.00000000000E+00 0.  1.
          2    1    6    6  503    0  0.77188411438E+02  0.15166162633E+03  0.25941056438E+02  0.17214017012E+03  0.00000000000E+00 0. -1.
         -2    1    6    6    0  503  0.64256152444E+02  0.11662770051E+03 -0.62536759019E+02  0.14711125002E+03  0.00000000000E+00 0.  1.
<mgrwt>
<rscale>  0 0.26802802E+04</rscale>
<asrwt>0</asrwt>
<pdfrwt beam="1">  1        2 0.28969476E+00 0.26802802E+04</pdfrwt>
<pdfrwt beam="2">  1       -1 0.14673478E+00 0.26802802E+04</pdfrwt>
<totfact> 0.28722693E+00</totfact>
</mgrwt>
</event>
<event>
12    6  0.1521603E-007  0.1413408E+04  0.7818608E-02  0.8944170E-01
         -1   -1    0    0    0  501 -0.00000000000E+00  0.00000000000E+00  0.49542171296E+03  0.49542171296E+03  0.00000000000E+00 0.  1.
          2   -1    0    0  501    0  0.00000000000E+00 -0.00000000000E+00 -0.10080920319E+04  0.10080920319E+04  0.00000000000E+00 0. -1.
         24    2    1    2    0    0 -0.27667605933E+03  0.71791196376E+02 -0.47811367199E+03  0.56271424369E+03  0.79693280899E+02 0.  0.
        254    2    1    2    0    0  0.27667605933E+03 -0.71791196376E+02 -0.34556646900E+02  0.94079950113E+03  0.89565948988E+03 0.  0.
         23    2    4    4    0    0 -0.19450066277E+03 -0.31029611802E+03  0.95626012304E+02  0.38923840445E+03  0.90818569628E+02 0.  0.
         23    2    4    4    0    0  0.47117672210E+03  0.23850492164E+03 -0.13018265920E+03  0.55156109669E+03  0.91542435636E+02 0.  0.
          4    1    3    3  502    0 -0.16179104316E+03  0.78222422516E+02 -0.25922561869E+03  0.31542512648E+03  0.00000000000E+00 0. -1.
         -1    1    3    3    0  502 -0.11488501617E+03 -0.64312261402E+01 -0.21888805330E+03  0.24728911721E+03  0.00000000000E+00 0.  1.
         11    1    5    5    0    0 -0.11516347466E+03 -0.13739421006E+03  0.71061959512E+01  0.17941653457E+03  0.00000000000E+00 0.  1.
        -11    1    5    5    0    0 -0.79337188111E+02 -0.17290190796E+03  0.88519816353E+02  0.20982186988E+03  0.00000000000E+00 0. -1.
          1    1    6    6  503    0  0.25869055775E+03  0.16550644509E+03 -0.10906060947E+03  0.32589477531E+03  0.00000000000E+00 0. -1.
         -1    1    6    6    0  503  0.21248616435E+03  0.72998476558E+02 -0.21122049734E+02  0.22566632138E+03  0.00000000000E+00 0.  1.
<mgrwt>
<rscale>  0 0.14134082E+04</rscale>
<asrwt>0</asrwt>
<pdfrwt beam="1">  1        2 0.15509108E+00 0.14134082E+04</pdfrwt>
<pdfrwt beam="2">  1       -1 0.76218726E-01 0.14134082E+04</pdfrwt>
<totfact> 0.47731734E+01</totfact>
</mgrwt>
</event>
<event>
12    6  0.1521603E-007  0.1427131E+04  0.7818608E-02  0.8934411E-01
         -1   -1    0    0    0  501 -0.00000000000E+00  0.00000000000E+00  0.21098425289E+03  0.21098425289E+03  0.00000000000E+00 0.  1.
          2   -1    0    0  501    0  0.00000000000E+00 -0.00000000000E+00 -0.24133344589E+04  0.24133344589E+04  0.00000000000E+00 0. -1.
         24    2    1    2    0    0 -0.34335744610E+03 -0.22896541617E+03 -0.47302514714E+03  0.63290461018E+03  0.80597507259E+02 0.  0.
        254    2    1    2    0    0  0.34335744610E+03  0.22896541617E+03 -0.17293250589E+04  0.19914141016E+04  0.89713180038E+03 0.  0.
         23    2    4    4    0    0  0.26421731375E+03  0.22673689224E+02 -0.37281144455E+02  0.28241146542E+03  0.89674227076E+02 0.  0.
         23    2    4    4    0    0  0.79140132352E+02  0.20629172694E+03 -0.16920439144E+04  0.17090026362E+04  0.94116762710E+02 0.  0.
          4    1    3    3  502    0 -0.39651959674E+02 -0.61553153970E+02 -0.94344716640E+02  0.11942359159E+03  0.00000000000E+00 0. -1.
         -3    1    3    3    0  502 -0.30370548642E+03 -0.16741226220E+03 -0.37868043050E+03  0.51348101860E+03  0.00000000000E+00 0.  1.
         11    1    5    5    0    0  0.18985148780E+03 -0.16697180202E+02 -0.50677512344E+02  0.19720698138E+03  0.00000000000E+00 0.  1.
        -11    1    5    5    0    0  0.74365825943E+02  0.39370869427E+02  0.13396367889E+02  0.85204484038E+02  0.00000000000E+00 0. -1.
          3    1    6    6  503    0  0.96069271686E+02  0.13024817483E+03 -0.10944099702E+04  0.11063123768E+04  0.00000000000E+00 0. -1.
         -3    1    6    6    0  503 -0.16929139334E+02  0.76043552111E+02 -0.59763394418E+03  0.60269025944E+03  0.00000000000E+00 0.  1.
<mgrwt>
<rscale>  0 0.14271308E+04</rscale>
<asrwt>0</asrwt>
<pdfrwt beam="1">  1        2 0.37128220E+00 0.14271308E+04</pdfrwt>
<pdfrwt beam="2">  1       -1 0.32459118E-01 0.14271308E+04</pdfrwt>
<totfact> 0.38470539E+01</totfact>
</mgrwt>
</event>
<event>
12    6  0.1521603E-007  0.3662265E+04  0.7818608E-02  0.8076376E-01
         -1   -1    0    0    0  501 -0.00000000000E+00  0.00000000000E+00  0.17551872664E+04  0.17551872664E+04  0.00000000000E+00 0.  1.
          2   -1    0    0  501    0  0.00000000000E+00 -0.00000000000E+00 -0.19103642958E+04  0.19103642958E+04  0.00000000000E+00 0. -1.
         24    2    1    2    0    0 -0.65010743281E+03 -0.15652344542E+04  0.16251756228E+03  0.17044721354E+04  0.78833567492E+02 0.  0.
        254    2    1    2    0    0  0.65010743281E+03  0.15652344542E+04 -0.31769459165E+03  0.19610794268E+04  0.93397221262E+03 0.  0.
         23    2    4    4    0    0 -0.19905753560E+03  0.98892342850E+02 -0.23062291975E+02  0.23862265284E+03  0.83697689231E+02 0.  0.
         23    2    4    4    0    0  0.84916496840E+03  0.14663421114E+04 -0.29463229967E+03  0.17224567740E+04  0.93855288331E+02 0.  0.
          4    1    3    3  502    0 -0.34617761639E+01 -0.75370960476E+01 -0.48405971260E+01  0.96032854574E+01  0.00000000000E+00 0. -1.
         -3    1    3    3    0  502 -0.64664565664E+03 -0.15576973582E+04  0.16735815940E+03  0.16948688499E+04  0.00000000000E+00 0.  1.
         11    1    5    5    0    0 -0.60417864372E+02  0.19907370949E+01  0.20715872465E+02  0.63901711569E+02  0.00000000000E+00 0.  1.
        -11    1    5    5    0    0 -0.13863967123E+03  0.96901605755E+02 -0.43778164440E+02  0.17472094127E+03  0.00000000000E+00 0. -1.
          1    1    6    6  503    0  0.81391573525E+03  0.13593819775E+04 -0.27781744278E+03  0.16085896669E+04  0.00000000000E+00 0. -1.
         -1    1    6    6    0  503  0.35249233152E+02  0.10696013382E+03 -0.16814856889E+02  0.11386710709E+03  0.00000000000E+00 0.  1.
<mgrwt>
<rscale>  0 0.36622655E+04</rscale>
<asrwt>0</asrwt>
<pdfrwt beam="1">  1        2 0.29390220E+00 0.36622655E+04</pdfrwt>
<pdfrwt beam="2">  1       -1 0.27002881E+00 0.36622655E+04</pdfrwt>
<totfact> 0.35704994E-01</totfact>
</mgrwt>
</event>
<event>
12    6  0.1521603E-007  0.1890250E+04  0.7818608E-02  0.8659725E-01
         -3   -1    0    0    0  501 -0.00000000000E+00  0.00000000000E+00  0.37506135231E+03  0.37506135231E+03  0.00000000000E+00 0.  1.
          2   -1    0    0  501    0  0.00000000000E+00 -0.00000000000E+00 -0.23816395592E+04  0.23816395592E+04  0.00000000000E+00 0. -1.
         24    2    1    2    0    0  0.39544497324E+03 -0.60854452871E+03 -0.69003401784E+03  0.10045826201E+04  0.79599776874E+02 0.  0.
        254    2    1    2    0    0 -0.39544497324E+03  0.60854452871E+03 -0.13165441890E+04  0.17521182914E+04  0.89995929640E+03 0.  0.
         23    2    4    4    0    0 -0.34288329670E+03 -0.13658696324E+03 -0.61574490333E+03  0.72378068676E+03  0.92150653079E+02 0.  0.
         23    2    4    4    0    0 -0.52561676536E+02  0.74513149195E+03 -0.70079928568E+03  0.10283376046E+04  0.91514590035E+02 0.  0.
          4    1    3    3  502    0  0.28696409219E+03 -0.47978265290E+03 -0.56525434328E+03  0.79501714247E+03  0.00000000000E+00 0. -1.
         -3    1    3    3    0  502  0.10848088104E+03 -0.12876187581E+03 -0.12477967456E+03  0.20956547759E+03  0.00000000000E+00 0.  1.
         11    1    5    5    0    0 -0.31799049133E+03 -0.14987794701E+03 -0.55789141059E+03  0.65941199381E+03  0.00000000000E+00 0.  1.
        -11    1    5    5    0    0 -0.24892805369E+02  0.13290983773E+02 -0.57853492742E+02  0.64368692944E+02  0.00000000000E+00 0. -1.
          1    1    6    6  503    0 -0.58673173418E+02  0.45689066402E+03 -0.47928548742E+03  0.66476025648E+03  0.00000000000E+00 0. -1.
         -1    1    6    6    0  503  0.61114968815E+01  0.28824082793E+03 -0.22151379826E+03  0.36357734817E+03  0.00000000000E+00 0.  1.
<mgrwt>
<rscale>  0 0.18902497E+04</rscale>
<asrwt>0</asrwt>
<pdfrwt beam="1">  1        2 0.36640608E+00 0.18902497E+04</pdfrwt>
<pdfrwt beam="2">  1       -3 0.57701747E-01 0.18902497E+04</pdfrwt>
<totfact> 0.72372367E+00</totfact>
</mgrwt>
</event>
<event>
12    6  0.1521603E-007  0.1587856E+04  0.7818608E-02  0.8828044E-01
         -1   -1    0    0    0  501 -0.00000000000E+00  0.00000000000E+00  0.16972260829E+03  0.16972260829E+03  0.00000000000E+00 0.  1.
          2   -1    0    0  501    0  0.00000000000E+00 -0.00000000000E+00 -0.37138326401E+04  0.37138326401E+04  0.00000000000E+00 0. -1.
         24    2    1    2    0    0  0.64964406767E+02 -0.50687751465E+03 -0.16070176857E+04  0.16879856801E+04  0.75130719771E+02 0.  0.
        254    2    1    2    0    0 -0.64964406767E+02  0.50687751465E+03 -0.19370923462E+04  0.21955695683E+04  0.89836172161E+03 0.  0.
         23    2    4    4    0    0  0.41912801423E+02  0.31662334502E+03 -0.19305882101E+04  0.19589928713E+04  0.92060889570E+02 0.  0.
         23    2    4    4    0    0 -0.10687720819E+03  0.19025416963E+03 -0.65041361188E+01  0.23657669707E+03  0.91141884543E+02 0.  0.
          4    1    3    3  502    0  0.32739257045E+02 -0.13980445749E+03 -0.35719329954E+03  0.38497298415E+03  0.00000000000E+00 0. -1.
         -3    1    3    3    0  502  0.32225149722E+02 -0.36707305715E+03 -0.12498243861E+04  0.13030126959E+04  0.00000000000E+00 0.  1.
         11    1    5    5    0    0  0.60644357427E+02  0.25849727946E+03 -0.14049778554E+04  0.14298466197E+04  0.00000000000E+00 0. -1.
        -11    1    5    5    0    0 -0.18731556004E+02  0.58126065554E+02 -0.52561035462E+03  0.52914625159E+03  0.00000000000E+00 0.  1.
          3    1    6    6  503    0 -0.12011985724E+03  0.14530028711E+03 -0.14317516955E+02  0.18906598009E+03  0.00000000000E+00 0. -1.
         -3    1    6    6    0  503  0.13242649049E+02  0.44953882522E+02  0.78133808366E+01  0.47510716977E+02  0.00000000000E+00 0.  1.
<mgrwt>
<rscale>  0 0.15878556E+04</rscale>
<asrwt>0</asrwt>
<pdfrwt beam="1">  1        2 0.57135881E+00 0.15878556E+04</pdfrwt>
<pdfrwt beam="2">  1       -1 0.26111173E-01 0.15878556E+04</pdfrwt>
<totfact> 0.82233450E+00</totfact>
</mgrwt>
</event>
<event>
12    6  0.1521603E-007  0.2531358E+04  0.7818608E-02  0.8391898E-01
         -1   -1    0    0    0  501 -0.00000000000E+00  0.00000000000E+00  0.61696128347E+03  0.61696128347E+03  0.00000000000E+00 0.  1.
          2   -1    0    0  501    0  0.00000000000E+00 -0.00000000000E+00 -0.25965063164E+04  0.25965063164E+04  0.00000000000E+00 0. -1.
         24    2    1    2    0    0  0.57992397248E+03 -0.23087650594E+03  0.29353991878E+03  0.69432206810E+03  0.79383093252E+02 0.  0.
        254    2    1    2    0    0 -0.57992397248E+03  0.23087650594E+03 -0.22730849518E+04  0.25191455318E+04  0.88857370978E+03 0.  0.
         23    2    4    4    0    0  0.25687111639E+02  0.14167581943E+03 -0.93099687245E+01  0.17252025120E+03  0.94576403180E+02 0.  0.
         23    2    4    4    0    0 -0.60561108411E+03  0.89200686502E+02 -0.22637749830E+04  0.23466252806E+04  0.85155658426E+02 0.  0.
          4    1    3    3  502    0  0.13481278457E+03 -0.42494047564E+02  0.10249528856E+03  0.17460101701E+03  0.00000000000E+00 0. -1.
         -3    1    3    3    0  502  0.44511118790E+03 -0.18838245837E+03  0.19104463022E+03  0.51972105110E+03  0.00000000000E+00 0.  1.
         11    1    5    5    0    0  0.19115121667E+02 -0.48306710986E+01 -0.16472308711E+02  0.25691637042E+02  0.00000000000E+00 0.  1.
        -11    1    5    5    0    0  0.65719899716E+01  0.14650649053E+03  0.71623399862E+01  0.14682861416E+03  0.00000000000E+00 0. -1.
          2    1    6    6  503    0 -0.24104180500E+03  0.23974366233E+02 -0.10514036694E+04  0.10789465223E+04  0.00000000000E+00 0. -1.
         -2    1    6    6    0  503 -0.36456927912E+03  0.65226320269E+02 -0.12123713137E+04  0.12676787583E+04  0.00000000000E+00 0.  1.
<mgrwt>
<rscale>  0 0.25313584E+04</rscale>
<asrwt>0</asrwt>
<pdfrwt beam="1">  1        2 0.39946250E+00 0.25313584E+04</pdfrwt>
<pdfrwt beam="2">  1       -1 0.94917122E-01 0.25313584E+04</pdfrwt>
<totfact> 0.33181706E+00</totfact>
</mgrwt>
</event>
<event>
12    6  0.1521603E-007  0.1720398E+04  0.7818608E-02  0.8749815E-01
         -1   -1    0    0    0  501 -0.00000000000E+00  0.00000000000E+00  0.19506469665E+03  0.19506469665E+03  0.00000000000E+00 0.  1.
          2   -1    0    0  501    0  0.00000000000E+00 -0.00000000000E+00 -0.37933181025E+04  0.37933181025E+04  0.00000000000E+00 0. -1.
         24    2    1    2    0    0 -0.27778311253E+03 -0.18453638316E+03 -0.25289388201E+04  0.25524473175E+04  0.90766835381E+02 0.  0.
        254    2    1    2    0    0  0.27778311253E+03  0.18453638316E+03 -0.10693145858E+04  0.14359354817E+04  0.89847642702E+03 0.  0.
         23    2    4    4    0    0  0.19771023386E+03  0.53989372591E+03 -0.66952516916E+03  0.88711099033E+03  0.90152011518E+02 0.  0.
         23    2    4    4    0    0  0.80072878665E+02 -0.35535734276E+03 -0.39978941659E+03  0.54882449134E+03  0.93199987793E+02 0.  0.
          2    1    3    3  502    0 -0.17428671228E+03 -0.83119929522E+02 -0.17009289428E+04  0.17118539801E+04  0.00000000000E+00 0. -1.
         -1    1    3    3    0  502 -0.10349640025E+03 -0.10141645363E+03 -0.82800987733E+03  0.84059333740E+03  0.00000000000E+00 0.  1.
         11    1    5    5    0    0  0.36074395509E+02  0.17762198484E+03 -0.16324204824E+03  0.24392395910E+03  0.00000000000E+00 0.  1.
        -11    1    5    5    0    0  0.16163583836E+03  0.36227174107E+03 -0.50628312091E+03  0.64318703123E+03  0.00000000000E+00 0. -1.
          1    1    6    6  503    0  0.62628227826E+02 -0.31317644905E+03 -0.38629830334E+03  0.50122665763E+03  0.00000000000E+00 0. -1.
         -1    1    6    6    0  503  0.17444650839E+02 -0.42180893705E+02 -0.13491113258E+02  0.47597833707E+02  0.00000000000E+00 0.  1.
<mgrwt>
<rscale>  0 0.17203981E+04</rscale>
<asrwt>0</asrwt>
<pdfrwt beam="1">  1        2 0.58358739E+00 0.17203981E+04</pdfrwt>
<pdfrwt beam="2">  1       -1 0.30009954E-01 0.17203981E+04</pdfrwt>
<totfact> 0.55553805E+00</totfact>
</mgrwt>
</event>
<event>
12    6  0.1521603E-007  0.3500243E+04  0.7818608E-02  0.8113732E-01
          4   -1    0    0  501    0  0.00000000000E+00  0.00000000000E+00  0.15110473563E+04  0.15110473563E+04  0.00000000000E+00 0. -1.
         -1   -1    0    0    0  501 -0.00000000000E+00 -0.00000000000E+00 -0.20270208500E+04  0.20270208500E+04  0.00000000000E+00 0.  1.
         24    2    1    2    0    0 -0.68934879334E+03  0.19188635248E+03 -0.17316375733E+04  0.18753282162E+04  0.79152397734E+02 0.  0.
        254    2    1    2    0    0  0.68934879334E+03 -0.19188635248E+03  0.12156640796E+04  0.16627399901E+04  0.88025166241E+03 0.  0.
         23    2    4    4    0    0  0.65076229126E+03 -0.43519321834E+03  0.11459467185E+04  0.13908657568E+04  0.91809448940E+02 0.  0.
         23    2    4    4    0    0  0.38586502085E+02  0.24330686586E+03  0.69717361126E+02  0.27187423330E+03  0.91476440524E+02 0.  0.
          2    1    3    3  502    0 -0.27003186112E+03  0.49264092833E+02 -0.74025630728E+03  0.78950842765E+03  0.00000000000E+00 0. -1.
         -1    1    3    3    0  502 -0.41931693222E+03  0.14262225964E+03 -0.99138126602E+03  0.10858197886E+04  0.00000000000E+00 0.  1.
         11    1    5    5    0    0  0.15201010116E+03 -0.10471910680E+03  0.34307885609E+03  0.38958473235E+03  0.00000000000E+00 0.  1.
        -11    1    5    5    0    0  0.49875219010E+03 -0.33047411153E+03  0.80286786239E+03  0.10012810245E+04  0.00000000000E+00 0. -1.
          1    1    6    6  503    0 -0.57254027395E+01  0.14719538092E+03  0.76186272028E+02  0.16584211904E+03  0.00000000000E+00 0. -1.
         -1    1    6    6    0  503  0.44311904824E+02  0.96111484940E+02 -0.64689109022E+01  0.10603211426E+03  0.00000000000E+00 0.  1.
<mgrwt>
<rscale>  0 0.35002426E+04</rscale>
<asrwt>0</asrwt>
<pdfrwt beam="1">  1        4 0.23246883E+00 0.35002426E+04</pdfrwt>
<pdfrwt beam="2">  1       -1 0.31184936E+00 0.35002426E+04</pdfrwt>
<totfact> 0.75745081E-03</totfact>
</mgrwt>
</event>
<event>
12    6  0.1521603E-007  0.1352551E+04  0.7818608E-02  0.8988899E-01
          2   -1    0    0  501    0  0.00000000000E+00  0.00000000000E+00  0.38292219865E+04  0.38292219865E+04  0.00000000000E+00 0. -1.
         -1   -1    0    0    0  501 -0.00000000000E+00 -0.00000000000E+00 -0.11943638779E+03  0.11943638779E+03  0.00000000000E+00 0.  1.
         24    2    1    2    0    0 -0.41896354287E+02 -0.12954242836E+03  0.46816078183E+02  0.16471192551E+03  0.80010799151E+02 0.  0.
        254    2    1    2    0    0  0.41896354287E+02  0.12954242836E+03  0.36629695205E+04  0.37839464488E+04  0.93934470435E+03 0.  0.
         23    2    4    4    0    0  0.48123316883E+03  0.90308617255E+02  0.20151192065E+04  0.20757038446E+04  0.90000139409E+02 0.  0.
         23    2    4    4    0    0 -0.43933681454E+03  0.39233811108E+02  0.16478503140E+04  0.17082426041E+04  0.90144376375E+02 0.  0.
          2    1    3    3  502    0 -0.43296654732E+01  0.86634430243E+01  0.15231703043E+02  0.18050097665E+02  0.00000000000E+00 0. -1.
         -1    1    3    3    0  502 -0.37566688814E+02 -0.13820587139E+03  0.31584375140E+02  0.14666182785E+03  0.00000000000E+00 0.  1.
         11    1    5    5    0    0  0.12116969577E+03  0.31694364086E+02  0.37002427719E+03  0.39064637922E+03  0.00000000000E+00 0. -1.
        -11    1    5    5    0    0  0.36006347306E+03  0.58614253169E+02  0.16450949293E+04  0.16850574654E+04  0.00000000000E+00 0.  1.
          3    1    6    6  503    0 -0.18083819914E+02  0.86078135442E+01  0.29298166863E+02  0.35489457283E+02  0.00000000000E+00 0. -1.
         -3    1    6    6    0  503 -0.42125299463E+03  0.30625997564E+02  0.16185521472E+04  0.16727531469E+04  0.00000000000E+00 0.  1.
<mgrwt>
<rscale>  0 0.13525508E+04</rscale>
<asrwt>0</asrwt>
<pdfrwt beam="1">  1        2 0.58911098E+00 0.13525508E+04</pdfrwt>
<pdfrwt beam="2">  1       -1 0.18374832E-01 0.13525508E+04</pdfrwt>
<totfact> 0.12550594E+01</totfact>
</mgrwt>
</event>
<event>
12    6  0.1521603E-007  0.1756341E+04  0.7818608E-02  0.8729868E-01
         -1   -1    0    0    0  501 -0.00000000000E+00  0.00000000000E+00  0.82299927814E+03  0.82299927814E+03  0.00000000000E+00 0.  1.
          2   -1    0    0  501    0  0.00000000000E+00 -0.00000000000E+00 -0.93703970608E+03  0.93703970608E+03  0.00000000000E+00 0. -1.
         24    2    1    2    0    0 -0.37376682627E+03 -0.36620360216E+03 -0.43394258434E+03  0.68466791646E+03  0.81592099322E+02 0.  0.
        254    2    1    2    0    0  0.37376682627E+03  0.36620360216E+03  0.31990215640E+03  0.10753710678E+04  0.88333392613E+03 0.  0.
         23    2    4    4    0    0  0.35917895516E+03 -0.57611851658E+02 -0.17847084198E+03  0.41567770962E+03  0.92776449340E+02 0.  0.
         23    2    4    4    0    0  0.14587871107E+02  0.42381545381E+03  0.49837299838E+03  0.65969335815E+03  0.83590288876E+02 0.  0.
          4    1    3    3  502    0 -0.36737700337E+03 -0.33377411170E+03 -0.41101861923E+03  0.64444342312E+03  0.00000000000E+00 0. -1.
         -3    1    3    3    0  502 -0.63898228950E+01 -0.32429490459E+02 -0.22923965114E+02  0.40224493342E+02  0.00000000000E+00 0.  1.
         11    1    5    5    0    0  0.34566550512E+03 -0.65953627120E+02 -0.14888903605E+03  0.38210269224E+03  0.00000000000E+00 0. -1.
        -11    1    5    5    0    0  0.13513450043E+02  0.83417754623E+01 -0.29581805929E+02  0.33575017379E+02  0.00000000000E+00 0.  1.
          3    1    6    6  503    0 -0.11299507278E+02  0.38309151432E+03  0.43003832471E+03  0.57603797439E+03  0.00000000000E+00 0. -1.
         -3    1    6    6    0  503  0.25887378385E+02  0.40723939490E+02  0.68334673666E+02  0.83655383762E+02  0.00000000000E+00 0.  1.
<mgrwt>
<rscale>  0 0.17563405E+04</rscale>
<asrwt>0</asrwt>
<pdfrwt beam="1">  1        2 0.14415995E+00 0.17563405E+04</pdfrwt>
<pdfrwt beam="2">  1       -1 0.12661527E+00 0.17563405E+04</pdfrwt>
<totfact> 0.16225718E+01</totfact>
</mgrwt>
</event>
<event>
12    6  0.1521603E-007  0.1249433E+04  0.7818608E-02  0.9070655E-01
          2   -1    0    0  501    0  0.00000000000E+00  0.00000000000E+00  0.27534356911E+04  0.27534356911E+04  0.00000000000E+00 0. -1.
         -1   -1    0    0    0  501 -0.00000000000E+00 -0.00000000000E+00 -0.14173963583E+03  0.14173963583E+03  0.00000000000E+00 0.  1.
         24    2    1    2    0    0 -0.13077357961E+03  0.62005737639E+02  0.45540489103E+02  0.17139627700E+03  0.79726451051E+02 0.  0.
        254    2    1    2    0    0  0.13077357961E+03 -0.62005737639E+02  0.25661555661E+04  0.27237790499E+04  0.90159385672E+03 0.  0.
         23    2    4    4    0    0 -0.36024448293E+03  0.52213374877E+02  0.78108682070E+03  0.86670393152E+03  0.92610795473E+02 0.  0.
         23    2    4    4    0    0  0.49101806254E+03 -0.11421911252E+03  0.17850687454E+04  0.18570751184E+04  0.90071227356E+02 0.  0.
          4    1    3    3  502    0 -0.52541703035E+01 -0.33324815333E+01  0.28144584586E+02  0.28824111093E+02  0.00000000000E+00 0. -1.
         -3    1    3    3    0  502 -0.12551940931E+03  0.65338219172E+02  0.17395904517E+02  0.14257216591E+03  0.00000000000E+00 0.  1.
         11    1    5    5    0    0 -0.26760999705E+03  0.26385947357E+01  0.60684053152E+03  0.66323261636E+03  0.00000000000E+00 0.  1.
        -11    1    5    5    0    0 -0.92634485879E+02  0.49574780141E+02  0.17424628918E+03  0.20347131516E+03  0.00000000000E+00 0. -1.
          4    1    6    6  503    0  0.47145207153E+02 -0.36646574485E+02  0.16344681012E+03  0.17401293548E+03  0.00000000000E+00 0. -1.
         -4    1    6    6    0  503  0.44387285539E+03 -0.77572538030E+02  0.16216219353E+04  0.16830621829E+04  0.00000000000E+00 0.  1.
<mgrwt>
<rscale>  0 0.12494334E+04</rscale>
<asrwt>0</asrwt>
<pdfrwt beam="1">  1        2 0.42360545E+00 0.12494334E+04</pdfrwt>
<pdfrwt beam="2">  1       -1 0.21806100E-01 0.12494334E+04</pdfrwt>
<totfact> 0.49302048E+01</totfact>
</mgrwt>
</event>
<event>
12    6  0.1521603E-007  0.1762848E+04  0.7818608E-02  0.8726310E-01
          2   -1    0    0  501    0  0.00000000000E+00  0.00000000000E+00  0.13373345332E+04  0.13373345332E+04  0.00000000000E+00 0. -1.
         -1   -1    0    0    0  501 -0.00000000000E+00 -0.00000000000E+00 -0.58093801369E+03  0.58093801369E+03  0.00000000000E+00 0.  1.
         24    2    1    2    0    0 -0.54107382388E+03  0.20065255485E+03 -0.28474949606E+02  0.58347060070E+03  0.81269849718E+02 0.  0.
        254    2    1    2    0    0  0.54107382388E+03 -0.20065255485E+03  0.78487146914E+03  0.13348019462E+04  0.91249694896E+03 0.  0.
         23    2    4    4    0    0  0.63744406933E+03  0.60601980714E+02  0.19440656890E+03  0.67557826244E+03  0.92760622317E+02 0.  0.
         23    2    4    4    0    0 -0.96370245454E+02 -0.26125453557E+03  0.59046490025E+03  0.65922368377E+03  0.91574615804E+02 0.  0.
          4    1    3    3  502    0 -0.41395688231E+02  0.20547177717E+02  0.19504439369E+02  0.50161864712E+02  0.00000000000E+00 0. -1.
         -3    1    3    3    0  502 -0.49967813565E+03  0.18010537713E+03 -0.47979388975E+02  0.53330873599E+03  0.00000000000E+00 0.  1.
         11    1    5    5    0    0  0.26372397153E+03 -0.16150262537E+02  0.10037086551E+03  0.28264018608E+03  0.00000000000E+00 0. -1.
        -11    1    5    5    0    0  0.37372009780E+03  0.76752243250E+02  0.94035703387E+02  0.39293807636E+03  0.00000000000E+00 0.  1.
          3    1    6    6  503    0 -0.77758190392E+02 -0.86446457534E+02  0.26297984072E+03  0.28753734161E+03  0.00000000000E+00 0. -1.
         -3    1    6    6    0  503 -0.18612055062E+02 -0.17480807803E+03  0.32748505953E+03  0.37168634216E+03  0.00000000000E+00 0.  1.
<mgrwt>
<rscale>  0 0.17628482E+04</rscale>
<asrwt>0</asrwt>
<pdfrwt beam="1">  1        2 0.20574377E+00 0.17628482E+04</pdfrwt>
<pdfrwt beam="2">  1       -1 0.89375079E-01 0.17628482E+04</pdfrwt>
<totfact> 0.20820452E+01</totfact>
</mgrwt>
</event>
<event>
12    6  0.1521603E-007  0.1043180E+04  0.7818608E-02  0.9262413E-01
          2   -1    0    0  501    0  0.00000000000E+00  0.00000000000E+00  0.56608125933E+03  0.56608125933E+03  0.00000000000E+00 0. -1.
         -1   -1    0    0    0  501 -0.00000000000E+00 -0.00000000000E+00 -0.48059583727E+03  0.48059583727E+03  0.00000000000E+00 0.  1.
         24    2    1    2    0    0  0.90324240032E+02 -0.79747203474E+01 -0.13626463197E+02  0.12146754592E+03  0.79665674610E+02 0.  0.
        254    2    1    2    0    0 -0.90324240032E+02  0.79747203474E+01  0.99111885253E+02  0.92520955068E+03  0.91540563815E+03 0.  0.
         23    2    4    4    0    0  0.11751703691E+03  0.39221928617E+03 -0.10504745217E+03  0.43441526727E+03  0.10017701744E+03 0.  0.
         23    2    4    4    0    0 -0.20784127694E+03 -0.38424456583E+03  0.20415933742E+03  0.49079428340E+03  0.91411765084E+02 0.  0.
          4    1    3    3  502    0  0.56984533172E+02 -0.18899597723E+02  0.28655765389E+02  0.66525068245E+02  0.00000000000E+00 0. -1.
         -3    1    3    3    0  502  0.33339706860E+02  0.10924877375E+02 -0.42282228586E+02  0.54942477677E+02  0.00000000000E+00 0.  1.
         11    1    5    5    0    0  0.66253537900E+02  0.79759836347E+02 -0.40189795636E+02  0.11120423756E+03  0.00000000000E+00 0. -1.
        -11    1    5    5    0    0  0.51263499009E+02  0.31245944983E+03 -0.64857656534E+02  0.32321102971E+03  0.00000000000E+00 0.  1.
          2    1    6    6  503    0  0.86649553522E+01 -0.11408493977E+02  0.15167566475E+01  0.14406100680E+02  0.00000000000E+00 0. -1.
         -2    1    6    6    0  503 -0.21650623229E+03 -0.37283607185E+03  0.20264258078E+03  0.47638818272E+03  0.00000000000E+00 0.  1.
<mgrwt>
<rscale>  0 0.10431803E+04</rscale>
<asrwt>0</asrwt>
<pdfrwt beam="1">  1        2 0.87089424E-01 0.10431803E+04</pdfrwt>
<pdfrwt beam="2">  1       -1 0.73937822E-01 0.10431803E+04</pdfrwt>
<totfact> 0.11161482E+02</totfact>
</mgrwt>
</event>
<event>
12    6  0.1521603E-007  0.1288543E+04  0.7818608E-02  0.9038701E-01
          4   -1    0    0  501    0  0.00000000000E+00  0.00000000000E+00  0.10336254111E+04  0.10336254111E+04  0.00000000000E+00 0. -1.
         -3   -1    0    0    0  501 -0.00000000000E+00 -0.00000000000E+00 -0.40158223408E+03  0.40158223408E+03  0.00000000000E+00 0.  1.
         24    2    1    2    0    0  0.15937961934E+03  0.22965281722E+02 -0.14431927012E+03  0.23041205374E+03  0.79576350476E+02 0.  0.
        254    2    1    2    0    0 -0.15937961934E+03 -0.22965281722E+02  0.77636244711E+03  0.12047955914E+04  0.90711879077E+03 0.  0.
         23    2    4    4    0    0 -0.14720951304E+03 -0.15734159320E+03 -0.14115195724E+03  0.27327654951E+03  0.91264340239E+02 0.  0.
         23    2    4    4    0    0 -0.12170106299E+02  0.13437631148E+03  0.91751440435E+03  0.93151904189E+03  0.87692295218E+02 0.  0.
          4    1    3    3  502    0  0.16547060597E+03  0.11657666598E+02 -0.13933573445E+03  0.21663533767E+03  0.00000000000E+00 0. -1.
         -3    1    3    3    0  502 -0.60909866337E+01  0.11307615124E+02 -0.49835356722E+01  0.13776716073E+02  0.00000000000E+00 0.  1.
         11    1    5    5    0    0 -0.86034961754E+02 -0.36085879473E+02 -0.30693452168E+02  0.98215545345E+02  0.00000000000E+00 0. -1.
        -11    1    5    5    0    0 -0.61174551287E+02 -0.12125571373E+03 -0.11045850507E+03  0.17506100417E+03  0.00000000000E+00 0.  1.
          4    1    6    6  503    0 -0.82959590081E+00  0.29457768617E+02  0.53462144369E+02  0.61046287698E+02  0.00000000000E+00 0. -1.
         -4    1    6    6    0  503 -0.11340510399E+02  0.10491854287E+03  0.86405225998E+03  0.87047275419E+03  0.00000000000E+00 0.  1.
<mgrwt>
<rscale>  0 0.12885427E+04</rscale>
<asrwt>0</asrwt>
<pdfrwt beam="1">  1        4 0.15901929E+00 0.12885427E+04</pdfrwt>
<pdfrwt beam="2">  1       -3 0.61781883E-01 0.12885427E+04</pdfrwt>
<totfact> 0.14555345E+00</totfact>
</mgrwt>
</event>
<event>
12    6  0.1521603E-007  0.2421870E+04  0.7818608E-02  0.8431361E-01
          2   -1    0    0  501    0  0.00000000000E+00  0.00000000000E+00  0.24455382072E+04  0.24455382072E+04  0.00000000000E+00 0. -1.
         -1   -1    0    0    0  501 -0.00000000000E+00 -0.00000000000E+00 -0.59960780632E+03  0.59960780632E+03  0.00000000000E+00 0.  1.
         24    2    1    2    0    0  0.40226870188E+03  0.27068789101E+03  0.19551870447E+04  0.20158955724E+04  0.77372708538E+02 0.  0.
        254    2    1    2    0    0 -0.40226870188E+03 -0.27068789101E+03 -0.10925664383E+03  0.10292504412E+04  0.90129208004E+03 0.  0.
         23    2    4    4    0    0 -0.58527279571E+03 -0.46507606170E+02 -0.30563821458E+03  0.66814807264E+03  0.91103929329E+02 0.  0.
         23    2    4    4    0    0  0.18300409383E+03 -0.22418028484E+03  0.19638157075E+03  0.36110236851E+03  0.89899392320E+02 0.  0.
          4    1    3    3  502    0  0.28788055748E+03  0.20737942330E+03  0.12853466186E+04  0.13334156781E+04  0.00000000000E+00 0. -1.
         -3    1    3    3    0  502  0.11438814440E+03  0.63308467713E+02  0.66984042607E+03  0.68247989425E+03  0.00000000000E+00 0.  1.
         11    1    5    5    0    0 -0.33524057492E+03 -0.61236526394E+02 -0.20847000393E+03  0.39949455287E+03  0.00000000000E+00 0. -1.
        -11    1    5    5    0    0 -0.25003222079E+03  0.14728920224E+02 -0.97168210642E+02  0.26865351977E+03  0.00000000000E+00 0.  1.
          2    1    6    6  503    0  0.18869663723E+03 -0.19630088503E+03  0.18975985454E+03  0.33188742182E+03  0.00000000000E+00 0. -1.
         -2    1    6    6    0  503 -0.56925434002E+01 -0.27879399813E+02  0.66217162031E+01  0.29214946685E+02  0.00000000000E+00 0.  1.
<mgrwt>
<rscale>  0 0.24218702E+04</rscale>
<asrwt>0</asrwt>
<pdfrwt beam="1">  1        2 0.37623664E+00 0.24218702E+04</pdfrwt>
<pdfrwt beam="2">  1       -1 0.92247356E-01 0.24218702E+04</pdfrwt>
<totfact> 0.43700751E+00</totfact>
</mgrwt>
</event>
<event>
12    6  0.1521603E-007  0.1804907E+04  0.7818608E-02  0.8703694E-01
          2   -1    0    0  501    0  0.00000000000E+00  0.00000000000E+00  0.29542146523E+04  0.29542146523E+04  0.00000000000E+00 0. -1.
         -1   -1    0    0    0  501 -0.00000000000E+00 -0.00000000000E+00 -0.27568144743E+03  0.27568144743E+03  0.00000000000E+00 0.  1.
         24    2    1    2    0    0 -0.59185992927E+03 -0.15164304099E+03  0.15078845678E+04  0.16289706824E+04  0.80844459054E+02 0.  0.
        254    2    1    2    0    0  0.59185992927E+03  0.15164304099E+03  0.11706486371E+04  0.16009254173E+04  0.90512439621E+03 0.  0.
         23    2    4    4    0    0 -0.16145008243E+03  0.98800055717E+02  0.63842307203E+03  0.67235253386E+03  0.92985648196E+02 0.  0.
         23    2    4    4    0    0  0.75331001169E+03  0.52842985274E+02  0.53222556507E+03  0.92857288348E+03  0.93355198097E+02 0.  0.
          2    1    3    3  502    0 -0.11795742590E+03 -0.53911137198E+02  0.38530683511E+03  0.40654854842E+03  0.00000000000E+00 0. -1.
         -1    1    3    3    0  502 -0.47390250337E+03 -0.97731903793E+02  0.11225777327E+04  0.12224221340E+04  0.00000000000E+00 0.  1.
         11    1    5    5    0    0 -0.12095222953E+03  0.86913225554E+02  0.34316381183E+03  0.37409190362E+03  0.00000000000E+00 0.  1.
        -11    1    5    5    0    0 -0.40497852896E+02  0.11886830163E+02  0.29525926020E+03  0.29826063025E+03  0.00000000000E+00 0. -1.
          4    1    6    6  503    0  0.72521367660E+03  0.68102396413E+02  0.50250754045E+03  0.88492182780E+03  0.00000000000E+00 0. -1.
         -4    1    6    6    0  503  0.28096335099E+02 -0.15259411139E+02  0.29718024619E+02  0.43651055675E+02  0.00000000000E+00 0.  1.
<mgrwt>
<rscale>  0 0.18049068E+04</rscale>
<asrwt>0</asrwt>
<pdfrwt beam="1">  1        2 0.45449454E+00 0.18049068E+04</pdfrwt>
<pdfrwt beam="2">  1       -1 0.42412532E-01 0.18049068E+04</pdfrwt>
<totfact> 0.10963416E+01</totfact>
</mgrwt>
</event>
<event>
12    6  0.1521603E-007  0.2384021E+04  0.7818608E-02  0.8445510E-01
          2   -1    0    0  501    0  0.00000000000E+00  0.00000000000E+00  0.17936455640E+04  0.17936455640E+04  0.00000000000E+00 0. -1.
         -3   -1    0    0    0  501 -0.00000000000E+00 -0.00000000000E+00 -0.79217932630E+03  0.79217932630E+03  0.00000000000E+00 0.  1.
         24    2    1    2    0    0  0.62729213909E+03 -0.80114290906E+03  0.31556853028E+03  0.10680440388E+04  0.76217996411E+02 0.  0.
        254    2    1    2    0    0 -0.62729213909E+03  0.80114290906E+03  0.68589770742E+03  0.15177808515E+04  0.89323997877E+03 0.  0.
         23    2    4    4    0    0 -0.67201957154E+03  0.16696603526E+03  0.46330175097E+03  0.83794361715E+03  0.89515538369E+02 0.  0.
         23    2    4    4    0    0  0.44727432455E+02  0.63417687380E+03  0.22259595645E+03  0.67983723436E+03  0.91917652921E+02 0.  0.
          2    1    3    3  502    0  0.11118487794E+03 -0.12011869085E+03  0.76908451708E+02  0.18084658393E+03  0.00000000000E+00 0. -1.
         -1    1    3    3    0  502  0.51610726115E+03 -0.68102421821E+03  0.23866007857E+03  0.88719745485E+03  0.00000000000E+00 0.  1.
         11    1    5    5    0    0 -0.52321841319E+03  0.96418470107E+02  0.32987123586E+03  0.62599445807E+03  0.00000000000E+00 0. -1.
        -11    1    5    5    0    0 -0.14880115835E+03  0.70547565157E+02  0.13343051510E+03  0.21194915908E+03  0.00000000000E+00 0.  1.
          1    1    6    6  503    0  0.75343845434E+00  0.49062856894E+03  0.19048244977E+03  0.52630839248E+03  0.00000000000E+00 0. -1.
         -1    1    6    6    0  503  0.43973994001E+02  0.14354830486E+03  0.32113506683E+02  0.15352884188E+03  0.00000000000E+00 0.  1.
<mgrwt>
<rscale>  0 0.23840209E+04</rscale>
<asrwt>0</asrwt>
<pdfrwt beam="1">  1        2 0.27594547E+00 0.23840209E+04</pdfrwt>
<pdfrwt beam="2">  1       -3 0.12187374E+00 0.23840209E+04</pdfrwt>
<totfact> 0.27115989E+00</totfact>
</mgrwt>
</event>
<event>
12    6  0.1521603E-007  0.2905572E+04  0.7818608E-02  0.8271222E-01
          2   -1    0    0  501    0  0.00000000000E+00  0.00000000000E+00  0.14886897392E+04  0.14886897392E+04  0.00000000000E+00 0. -1.
         -1   -1    0    0    0  501 -0.00000000000E+00 -0.00000000000E+00 -0.14177483860E+04  0.14177483860E+04  0.00000000000E+00 0.  1.
         24    2    1    2    0    0  0.10457882096E+04 -0.77331222695E+03 -0.18736205959E+03  0.13155860873E+04  0.63066885246E+02 0.  0.
        254    2    1    2    0    0 -0.10457882096E+04  0.77331222695E+03  0.25830341276E+03  0.15908520379E+04  0.87886561752E+03 0.  0.
         23    2    4    4    0    0 -0.62845225470E+03  0.57100550937E+03 -0.25679662871E+03  0.89174828344E+03  0.90944842242E+02 0.  0.
         23    2    4    4    0    0 -0.41733595494E+03  0.20230671758E+03  0.51510004147E+03  0.69910375446E+03  0.91217868341E+02 0.  0.
          2    1    3    3  502    0  0.98646078098E+03 -0.74639934473E+03 -0.17684864041E+03  0.12495968533E+04  0.00000000000E+00 0. -1.
         -1    1    3    3    0  502  0.59327428663E+02 -0.26912882216E+02 -0.10513419178E+02  0.65989233999E+02  0.00000000000E+00 0.  1.
         11    1    5    5    0    0 -0.12362912154E+03  0.74768981960E+02 -0.23277018990E+02  0.14634336325E+03  0.00000000000E+00 0. -1.
        -11    1    5    5    0    0 -0.50482313317E+03  0.49623652741E+03 -0.23351960972E+03  0.74540492018E+03  0.00000000000E+00 0.  1.
          1    1    6    6  503    0 -0.23738222147E+03  0.12939264778E+03  0.23456354711E+03  0.35792853198E+03  0.00000000000E+00 0. -1.
         -1    1    6    6    0  503 -0.17995373347E+03  0.72914069801E+02  0.28053649436E+03  0.34117522248E+03  0.00000000000E+00 0.  1.
<mgrwt>
<rscale>  0 0.29055722E+04</rscale>
<asrwt>0</asrwt>
<pdfrwt beam="1">  1        2 0.22902919E+00 0.29055722E+04</pdfrwt>
<pdfrwt beam="2">  1       -1 0.21811514E+00 0.29055722E+04</pdfrwt>
<totfact> 0.14338651E+00</totfact>
</mgrwt>
</event>
<event>
12    6  0.1521603E-007  0.1274066E+04  0.7818608E-02  0.9050387E-01
         -1   -1    0    0    0  501 -0.00000000000E+00  0.00000000000E+00  0.44539785862E+03  0.44539785862E+03  0.00000000000E+00 0.  1.
          2   -1    0    0  501    0  0.00000000000E+00 -0.00000000000E+00 -0.91112102032E+03  0.91112102032E+03  0.00000000000E+00 0. -1.
         24    2    1    2    0    0  0.29101200529E+03 -0.81688494297E+02 -0.81534974174E+02  0.32259653521E+03  0.77843273260E+02 0.  0.
        254    2    1    2    0    0 -0.29101200529E+03  0.81688494297E+02 -0.38418818753E+03  0.10339223437E+04  0.91106193649E+03 0.  0.
         23    2    4    4    0    0 -0.24839868051E+03 -0.26302791825E+03  0.13946113559E+03  0.39911845372E+03  0.94660136835E+02 0.  0.
         23    2    4    4    0    0 -0.42613324781E+02  0.34471641255E+03 -0.52364932312E+03  0.63480389001E+03  0.90122497986E+02 0.  0.
          2    1    3    3  502    0  0.15954475352E+03 -0.49243474980E+02 -0.84535702373E+02  0.18715163152E+03  0.00000000000E+00 0. -1.
         -3    1    3    3    0  502  0.13146725177E+03 -0.32445019317E+02  0.30007281989E+01  0.13544490369E+03  0.00000000000E+00 0.  1.
         11    1    5    5    0    0 -0.24408205137E+03 -0.23770931775E+03  0.10575800979E+03  0.35674434008E+03  0.00000000000E+00 0. -1.
        -11    1    5    5    0    0 -0.43166291373E+01 -0.25318600506E+02  0.33703125795E+02  0.42374113643E+02  0.00000000000E+00 0.  1.
          4    1    6    6  503    0  0.12298490301E+02  0.80216604060E+02 -0.71784131695E+02  0.10834628740E+03  0.00000000000E+00 0. -1.
         -4    1    6    6    0  503 -0.54911815082E+02  0.26449980849E+03 -0.45186519142E+03  0.52645760261E+03  0.00000000000E+00 0.  1.
<mgrwt>
<rscale>  0 0.12740665E+04</rscale>
<asrwt>0</asrwt>
<pdfrwt beam="1">  1        2 0.14017246E+00 0.12740665E+04</pdfrwt>
<pdfrwt beam="2">  1       -1 0.68522748E-01 0.12740665E+04</pdfrwt>
<totfact> 0.69620730E+01</totfact>
</mgrwt>
</event>
<event>
12    6  0.1521603E-007  0.1826223E+04  0.7818608E-02  0.8692477E-01
          2   -1    0    0  501    0  0.00000000000E+00  0.00000000000E+00  0.14626120840E+04  0.14626120840E+04  0.00000000000E+00 0. -1.
         -1   -1    0    0    0  501 -0.00000000000E+00 -0.00000000000E+00 -0.57005753520E+03  0.57005753520E+03  0.00000000000E+00 0.  1.
         24    2    1    2    0    0 -0.45085111360E+03  0.51784882078E+03  0.28353121497E+03  0.74740544801E+03  0.82406468439E+02 0.  0.
        254    2    1    2    0    0  0.45085111360E+03 -0.51784882078E+03  0.60902333378E+03  0.12852641711E+04  0.89975576726E+03 0.  0.
         23    2    4    4    0    0  0.48497046763E+03 -0.62155880676E+03  0.15392008032E+03  0.80849092332E+03  0.91839409965E+02 0.  0.
         23    2    4    4    0    0 -0.34119354036E+02  0.10370998598E+03  0.45510325346E+03  0.47677324783E+03  0.90960799370E+02 0.  0.
          2    1    3    3  502    0 -0.41206541635E+03  0.43052464828E+03  0.24143718228E+03  0.64299400706E+03  0.00000000000E+00 0. -1.
         -3    1    3    3    0  502 -0.38785697252E+02  0.87324172498E+02  0.42094032695E+02  0.10441144096E+03  0.00000000000E+00 0.  1.
         11    1    5    5    0    0  0.40530234939E+03 -0.46908107743E+03  0.14239739238E+03  0.63606923285E+03  0.00000000000E+00 0.  1.
        -11    1    5    5    0    0  0.79668118247E+02 -0.15247772933E+03  0.11522687947E+02  0.17242169047E+03  0.00000000000E+00 0. -1.
          3    1    6    6  503    0  0.28123157803E+02  0.59088899151E+02  0.21770018418E+03  0.22732307450E+03  0.00000000000E+00 0. -1.
         -3    1    6    6    0  503 -0.62242511839E+02  0.44621086826E+02  0.23740306928E+03  0.24945017333E+03  0.00000000000E+00 0.  1.
<mgrwt>
<rscale>  0 0.18262235E+04</rscale>
<asrwt>0</asrwt>
<pdfrwt beam="1">  1        2 0.22501724E+00 0.18262235E+04</pdfrwt>
<pdfrwt beam="2">  1       -1 0.87701160E-01 0.18262235E+04</pdfrwt>
<totfact> 0.18297390E+01</totfact>
</mgrwt>
</event>
<event>
12    6  0.1521603E-007  0.1730121E+04  0.7818608E-02  0.8744370E-01
         -1   -1    0    0    0  501 -0.00000000000E+00  0.00000000000E+00  0.10911479752E+04  0.10911479752E+04  0.00000000000E+00 0.  1.
          2   -1    0    0  501    0  0.00000000000E+00 -0.00000000000E+00 -0.68581834967E+03  0.68581834967E+03  0.00000000000E+00 0. -1.
         24    2    1    2    0    0 -0.94013636621E+02 -0.22366388988E+03 -0.45420315413E+03  0.52120143485E+03  0.80537761057E+02 0.  0.
        254    2    1    2    0    0  0.94013636621E+02  0.22366388988E+03  0.85953277966E+03  0.12557648900E+04  0.88277106895E+03 0.  0.
         23    2    4    4    0    0 -0.12917624521E+02 -0.11433127177E+03 -0.13294449489E+03  0.19769576666E+03  0.90392879726E+02 0.  0.
         23    2    4    4    0    0  0.10693126114E+03  0.33799516165E+03  0.99247727456E+03  0.10580691234E+04  0.93936709495E+02 0.  0.
          2    1    3    3  502    0 -0.10481660011E+03 -0.16272089374E+03 -0.35251391750E+03  0.40215752007E+03  0.00000000000E+00 0. -1.
         -1    1    3    3    0  502  0.10802963486E+02 -0.60942996144E+02 -0.10168923664E+03  0.11904391478E+03  0.00000000000E+00 0.  1.
         11    1    5    5    0    0 -0.43386251090E+02 -0.54758639966E+02 -0.32617259235E+02  0.77102276455E+02  0.00000000000E+00 0.  1.
        -11    1    5    5    0    0  0.30468626569E+02 -0.59572631802E+02 -0.10032723566E+03  0.12059349020E+03  0.00000000000E+00 0. -1.
          3    1    6    6  503    0  0.70886890402E+02  0.22921547119E+03  0.78744197635E+03  0.82318257366E+03  0.00000000000E+00 0. -1.
         -3    1    6    6    0  503  0.36044370741E+02  0.10877969046E+03  0.20503529821E+03  0.23488654970E+03  0.00000000000E+00 0.  1.
<mgrwt>
<rscale>  0 0.17301206E+04</rscale>
<asrwt>0</asrwt>
<pdfrwt beam="1">  1        2 0.10551052E+00 0.17301206E+04</pdfrwt>
<pdfrwt beam="2">  1       -1 0.16786892E+00 0.17301206E+04</pdfrwt>
<totfact> 0.11629693E+01</totfact>
</mgrwt>
</event>
<event>
12    6  0.1521603E-007  0.1603408E+04  0.7818608E-02  0.8818457E-01
         -1   -1    0    0    0  501 -0.00000000000E+00  0.00000000000E+00  0.11529993640E+04  0.11529993640E+04  0.00000000000E+00 0.  1.
          2   -1    0    0  501    0  0.00000000000E+00 -0.00000000000E+00 -0.55744105359E+03  0.55744105359E+03  0.00000000000E+00 0. -1.
         24    2    1    2    0    0 -0.11645712371E+03 -0.33756052416E+03  0.50359364941E+03  0.62340634618E+03  0.86715278867E+02 0.  0.
        254    2    1    2    0    0  0.11645712371E+03  0.33756052416E+03  0.91964661023E+02  0.10870340714E+04  0.10225831039E+04 0.  0.
         23    2    4    4    0    0  0.42660934705E+03 -0.16711515208E+03 -0.51432325233E+02  0.46986913753E+03  0.90601949616E+02 0.  0.
         23    2    4    4    0    0 -0.31015222334E+03  0.50467567625E+03  0.14339698626E+03  0.61716493392E+03  0.97148958574E+02 0.  0.
          2    1    3    3  502    0 -0.13848847120E+02 -0.11610734019E+03  0.11160131354E+03  0.16164021219E+03  0.00000000000E+00 0. -1.
         -1    1    3    3    0  502 -0.10260827659E+03 -0.22145318398E+03  0.39199233587E+03  0.46176613399E+03  0.00000000000E+00 0.  1.
         11    1    5    5    0    0  0.30814171663E+03 -0.77739657513E+02 -0.21831387072E+02  0.31854572881E+03  0.00000000000E+00 0. -1.
        -11    1    5    5    0    0  0.11846763042E+03 -0.89375494570E+02 -0.29600938160E+02  0.15132340872E+03  0.00000000000E+00 0.  1.
          3    1    6    6  503    0 -0.17316798885E+03  0.20185155050E+03  0.88526687397E+02  0.28030015195E+03  0.00000000000E+00 0. -1.
         -3    1    6    6    0  503 -0.13698423449E+03  0.30282412575E+03  0.54870298858E+02  0.33686478197E+03  0.00000000000E+00 0.  1.
<mgrwt>
<rscale>  0 0.16034078E+04</rscale>
<asrwt>0</asrwt>
<pdfrwt beam="1">  1        2 0.85760162E-01 0.16034078E+04</pdfrwt>
<pdfrwt beam="2">  1       -1 0.17738452E+00 0.16034078E+04</pdfrwt>
<totfact> 0.12899576E+01</totfact>
</mgrwt>
</event>
<event>
12    6  0.1521603E-007  0.1686650E+04  0.7818608E-02  0.8769015E-01
          2   -1    0    0  501    0  0.00000000000E+00  0.00000000000E+00  0.63355778709E+03  0.63355778709E+03  0.00000000000E+00 0. -1.
         -1   -1    0    0    0  501 -0.00000000000E+00 -0.00000000000E+00 -0.11225452344E+04  0.11225452344E+04  0.00000000000E+00 0.  1.
         24    2    1    2    0    0  0.40603315660E+03 -0.12755158631E+03 -0.60268998569E+03  0.74200421993E+03  0.78757298782E+02 0.  0.
        254    2    1    2    0    0 -0.40603315660E+03  0.12755158631E+03  0.11370253840E+03  0.10140988015E+04  0.91341982715E+03 0.  0.
         23    2    4    4    0    0 -0.38227065772E+03  0.49240583191E+03  0.50858825819E+02  0.63217296145E+03  0.91987357663E+02 0.  0.
         23    2    4    4    0    0 -0.23762498874E+02 -0.36485424560E+03  0.62843712577E+02  0.38192584010E+03  0.90745458525E+02 0.  0.
          2    1    3    3  502    0  0.21084942929E+03 -0.33733140490E+02 -0.34085562534E+03  0.40221631484E+03  0.00000000000E+00 0. -1.
         -1    1    3    3    0  502  0.19518372731E+03 -0.93818445822E+02 -0.26183436035E+03  0.33978790509E+03  0.00000000000E+00 0.  1.
         11    1    5    5    0    0 -0.29392194861E+03  0.30965593753E+03  0.41899491473E+02  0.42899006854E+03  0.00000000000E+00 0.  1.
        -11    1    5    5    0    0 -0.88348709108E+02  0.18274989438E+03  0.89593343467E+01  0.20318289291E+03  0.00000000000E+00 0. -1.
          4    1    6    6  503    0 -0.55248059264E+02 -0.28350038157E+03  0.38718037417E+02  0.29141705651E+03  0.00000000000E+00 0. -1.
         -4    1    6    6    0  503  0.31485560390E+02 -0.81353864021E+02  0.24125675160E+02  0.90508783586E+02  0.00000000000E+00 0.  1.
<mgrwt>
<rscale>  0 0.16866503E+04</rscale>
<asrwt>0</asrwt>
<pdfrwt beam="1">  1        2 0.97470430E-01 0.16866503E+04</pdfrwt>
<pdfrwt beam="2">  1       -1 0.17269927E+00 0.16866503E+04</pdfrwt>
<totfact> 0.11870414E+01</totfact>
</mgrwt>
</event>
<event>
12    6  0.1521603E-007  0.2010656E+04  0.7818608E-02  0.8601655E-01
         -1   -1    0    0    0  501 -0.00000000000E+00  0.00000000000E+00  0.46707290252E+03  0.46707290252E+03  0.00000000000E+00 0.  1.
          2   -1    0    0  501    0  0.00000000000E+00 -0.00000000000E+00 -0.21638682006E+04  0.21638682006E+04  0.00000000000E+00 0. -1.
         24    2    1    2    0    0  0.42804380770E+03 -0.53465123779E+03 -0.13834955924E+03  0.70326531676E+03  0.79800111721E+02 0.  0.
        254    2    1    2    0    0 -0.42804380770E+03  0.53465123779E+03 -0.15584457388E+04  0.19276757864E+04  0.90449287949E+03 0.  0.
         23    2    4    4    0    0  0.18173597660E+03  0.42104368899E+03 -0.41644311242E+03  0.62522534707E+03  0.84711956142E+02 0.  0.
         23    2    4    4    0    0 -0.60977978430E+03  0.11360754880E+03 -0.11420026264E+04  0.13024504393E+04  0.86423883091E+02 0.  0.
          2    1    3    3  502    0  0.22250115171E+03 -0.33801133475E+03 -0.69491779792E+02  0.41059412123E+03  0.00000000000E+00 0. -1.
         -1    1    3    3    0  502  0.20554265600E+03 -0.19663990304E+03 -0.68857779452E+02  0.29267119553E+03  0.00000000000E+00 0.  1.
         11    1    5    5    0    0  0.13411580877E+03  0.22731217496E+03 -0.20219510738E+03  0.33247667061E+03  0.00000000000E+00 0. -1.
        -11    1    5    5    0    0  0.47620167833E+02  0.19373151402E+03 -0.21424800503E+03  0.29274867646E+03  0.00000000000E+00 0.  1.
          3    1    6    6  503    0 -0.16351125943E+03  0.36854842820E+02 -0.39231069533E+03  0.42661679886E+03  0.00000000000E+00 0. -1.
         -3    1    6    6    0  503 -0.44626852487E+03  0.76752705983E+02 -0.74969193108E+03  0.87583364042E+03  0.00000000000E+00 0.  1.
<mgrwt>
<rscale>  0 0.20106558E+04</rscale>
<asrwt>0</asrwt>
<pdfrwt beam="1">  1        2 0.33290280E+00 0.20106558E+04</pdfrwt>
<pdfrwt beam="2">  1       -1 0.71857369E-01 0.20106558E+04</pdfrwt>
<totfact> 0.11177349E+01</totfact>
</mgrwt>
</event>
<event>
12    6  0.1521603E-007  0.2014023E+04  0.7818608E-02  0.8600092E-01
         -1   -1    0    0    0  501 -0.00000000000E+00  0.00000000000E+00  0.30538842908E+03  0.30538842908E+03  0.00000000000E+00 0.  1.
          2   -1    0    0  501    0  0.00000000000E+00 -0.00000000000E+00 -0.33205974882E+04  0.33205974882E+04  0.00000000000E+00 0. -1.
         24    2    1    2    0    0 -0.13367349631E+03 -0.61816843748E+03 -0.21288508919E+04  0.22222502223E+04  0.79931909429E+02 0.  0.
        254    2    1    2    0    0  0.13367349631E+03  0.61816843748E+03 -0.88635816724E+03  0.14037356949E+04  0.88591324625E+03 0.  0.
         23    2    4    4    0    0 -0.21699275548E+03 -0.30976194092E+02 -0.52727283029E+03  0.57828805576E+03  0.91406002761E+02 0.  0.
         23    2    4    4    0    0  0.35066625179E+03  0.64914463158E+03 -0.35908533695E+03  0.82544763917E+03  0.89810650564E+02 0.  0.
          2    1    3    3  502    0 -0.12633526475E+03 -0.45916951662E+03 -0.15141709685E+04  0.15872967479E+04  0.00000000000E+00 0. -1.
         -1    1    3    3    0  502 -0.73382315604E+01 -0.15899892086E+03 -0.61467992342E+03  0.63495347446E+03  0.00000000000E+00 0.  1.
         11    1    5    5    0    0 -0.62824807401E+02  0.23041728962E+02 -0.95201183150E+02  0.11636641685E+03  0.00000000000E+00 0.  1.
        -11    1    5    5    0    0 -0.15416794808E+03 -0.54017923054E+02 -0.43207164715E+03  0.46192163891E+03  0.00000000000E+00 0. -1.
          4    1    6    6  503    0  0.31553551532E+03  0.62588192854E+03 -0.33426719565E+03  0.77654710610E+03  0.00000000000E+00 0. -1.
         -4    1    6    6    0  503  0.35130736469E+02  0.23262703035E+02 -0.24818141293E+02  0.48900533070E+02  0.00000000000E+00 0.  1.
<mgrwt>
<rscale>  0 0.20140229E+04</rscale>
<asrwt>0</asrwt>
<pdfrwt beam="1">  1        2 0.51086113E+00 0.20140229E+04</pdfrwt>
<pdfrwt beam="2">  1       -1 0.46982837E-01 0.20140229E+04</pdfrwt>
<totfact> 0.51691608E+00</totfact>
</mgrwt>
</event>
<event>
12    6  0.1521603E-007  0.1067623E+04  0.7818608E-02  0.9237336E-01
          2   -1    0    0  501    0  0.00000000000E+00  0.00000000000E+00  0.72236956804E+03  0.72236956804E+03  0.00000000000E+00 0. -1.
         -1   -1    0    0    0  501 -0.00000000000E+00 -0.00000000000E+00 -0.39447249148E+03  0.39447249148E+03  0.00000000000E+00 0.  1.
         24    2    1    2    0    0  0.86245833570E+02  0.87561067731E+02  0.11981534288E+03  0.18955613738E+03  0.80439594981E+02 0.  0.
        254    2    1    2    0    0 -0.86245833570E+02 -0.87561067731E+02  0.20808173368E+03  0.92728592213E+03  0.89524068781E+03 0.  0.
         23    2    4    4    0    0 -0.43574081411E+03 -0.12550344718E+03 -0.73001425907E+02  0.46765797735E+03  0.88054547080E+02 0.  0.
         23    2    4    4    0    0  0.34949498054E+03  0.37942379445E+02  0.28108315959E+03  0.45962794478E+03  0.93079210574E+02 0.  0.
          2    1    3    3  502    0  0.52677462302E+02  0.48827580203E+02  0.15720716012E+02  0.73526787873E+02  0.00000000000E+00 0. -1.
         -3    1    3    3    0  502  0.33568371269E+02  0.38733487529E+02  0.10409462687E+03  0.11602934951E+03  0.00000000000E+00 0.  1.
         11    1    5    5    0    0 -0.10736042228E+03 -0.28197168274E+02  0.19937705418E+02  0.11277789087E+03  0.00000000000E+00 0. -1.
        -11    1    5    5    0    0 -0.32838039183E+03 -0.97306278902E+02 -0.92939131325E+02  0.35488008648E+03  0.00000000000E+00 0.  1.
          3    1    6    6  503    0  0.11054102256E+03 -0.52406831576E+01  0.40610846455E+02  0.11788139497E+03  0.00000000000E+00 0. -1.
         -3    1    6    6    0  503  0.23895395798E+03  0.43183062602E+02  0.24047231313E+03  0.34174654982E+03  0.00000000000E+00 0.  1.
<mgrwt>
<rscale>  0 0.10676234E+04</rscale>
<asrwt>0</asrwt>
<pdfrwt beam="1">  1        2 0.11113378E+00 0.10676234E+04</pdfrwt>
<pdfrwt beam="2">  1       -1 0.60688076E-01 0.10676234E+04</pdfrwt>
<totfact> 0.12312485E+02</totfact>
</mgrwt>
</event>
<event>
12    6  0.1521603E-007  0.2717472E+04  0.7818608E-02  0.8329358E-01
          2   -1    0    0  501    0  0.00000000000E+00  0.00000000000E+00  0.25616702373E+04  0.25616702373E+04  0.00000000000E+00 0. -1.
         -1   -1    0    0    0  501 -0.00000000000E+00 -0.00000000000E+00 -0.72068725205E+03  0.72068725205E+03  0.00000000000E+00 0.  1.
         24    2    1    2    0    0 -0.13152553285E+03 -0.18419202216E+03  0.22568119131E+04  0.22695360614E+04  0.79801351737E+02 0.  0.
        254    2    1    2    0    0  0.13152553285E+03  0.18419202216E+03 -0.41582892786E+03  0.10128214280E+04  0.89535907935E+03 0.  0.
         23    2    4    4    0    0 -0.15446256119E+03 -0.29627032017E+03 -0.88005822509E+02  0.35763953708E+03  0.92337577727E+02 0.  0.
         23    2    4    4    0    0  0.28598809404E+03  0.48046234234E+03 -0.32782310535E+03  0.65518189094E+03  0.95718699721E+02 0.  0.
          2    1    3    3  502    0 -0.14064462455E+03 -0.15651379373E+03  0.20234249899E+04  0.20343367881E+04  0.00000000000E+00 0. -1.
         -1    1    3    3    0  502  0.91190917041E+01 -0.27678228430E+02  0.23338692328E+03  0.23519927322E+03  0.00000000000E+00 0.  1.
         11    1    5    5    0    0  0.82493855734E+01 -0.29276752850E+02 -0.23378299613E+02  0.38363074859E+02  0.00000000000E+00 0.  1.
        -11    1    5    5    0    0 -0.16271194676E+03 -0.26699356732E+03 -0.64627522896E+02  0.31927646222E+03  0.00000000000E+00 0. -1.
          1    1    6    6  503    0  0.13774989866E+03  0.28913032572E+03 -0.22914851136E+03  0.39380251407E+03  0.00000000000E+00 0. -1.
         -1    1    6    6    0  503  0.14823819537E+03  0.19133201661E+03 -0.98674593991E+02  0.26137937686E+03  0.00000000000E+00 0.  1.
<mgrwt>
<rscale>  0 0.27174717E+04</rscale>
<asrwt>0</asrwt>
<pdfrwt beam="1">  1        2 0.39410311E+00 0.27174717E+04</pdfrwt>
<pdfrwt beam="2">  1       -1 0.11087496E+00 0.27174717E+04</pdfrwt>
<totfact> 0.23900719E+00</totfact>
</mgrwt>
</event>
<event>
12    6  0.1521603E-007  0.1378816E+04  0.7818608E-02  0.8969297E-01
          2   -1    0    0  501    0  0.00000000000E+00  0.00000000000E+00  0.15076963771E+04  0.15076963771E+04  0.00000000000E+00 0. -1.
         -1   -1    0    0    0  501 -0.00000000000E+00 -0.00000000000E+00 -0.31523821421E+03  0.31523821421E+03  0.00000000000E+00 0.  1.
         24    2    1    2    0    0  0.11236893144E+03 -0.10833498841E+03 -0.12616201613E+03  0.21603045547E+03  0.79931576409E+02 0.  0.
        254    2    1    2    0    0 -0.11236893144E+03  0.10833498841E+03  0.13186201790E+04  0.16069041359E+04  0.90499639714E+03 0.  0.
         23    2    4    4    0    0  0.34731389681E+03  0.21731081538E+03  0.45975253910E+03  0.62246339938E+03  0.90759864263E+02 0.  0.
         23    2    4    4    0    0 -0.45968282825E+03 -0.10897582697E+03  0.85886763994E+03  0.98444073649E+03  0.91026959050E+02 0.  0.
          2    1    3    3  502    0 -0.71731097267E+01  0.58157457406E+01 -0.23996863143E+01  0.95412208903E+01  0.00000000000E+00 0. -1.
         -1    1    3    3    0  502  0.11954204117E+03 -0.11415073415E+03 -0.12376232982E+03  0.20648923458E+03  0.00000000000E+00 0.  1.
         11    1    5    5    0    0  0.28103380746E+03  0.13919249488E+03  0.30958531862E+03  0.44067859157E+03  0.00000000000E+00 0. -1.
        -11    1    5    5    0    0  0.66280089344E+02  0.78118320501E+02  0.15016722049E+03  0.18178480781E+03  0.00000000000E+00 0.  1.
          2    1    6    6  503    0 -0.33670119346E+03 -0.10313982696E+03  0.69866478792E+03  0.78239248684E+03  0.00000000000E+00 0. -1.
         -2    1    6    6    0  503 -0.12298163479E+03 -0.58360000112E+01  0.16020285202E+03  0.20204824965E+03  0.00000000000E+00 0.  1.
<mgrwt>
<rscale>  0 0.13788162E+04</rscale>
<asrwt>0</asrwt>
<pdfrwt beam="1">  1        2 0.23195328E+00 0.13788162E+04</pdfrwt>
<pdfrwt beam="2">  1       -1 0.48498188E-01 0.13788162E+04</pdfrwt>
<totfact> 0.59365711E+01</totfact>
</mgrwt>
</event>
<event>
12    6  0.1521603E-007  0.3711074E+04  0.7818608E-02  0.8065512E-01
         -1   -1    0    0    0  501 -0.00000000000E+00  0.00000000000E+00  0.15956914784E+04  0.15956914784E+04  0.00000000000E+00 0.  1.
          2   -1    0    0  501    0  0.00000000000E+00 -0.00000000000E+00 -0.21576962705E+04  0.21576962705E+04  0.00000000000E+00 0. -1.
         24    2    1    2    0    0  0.13284857072E+04 -0.11017355805E+04 -0.55805358484E+03  0.18156607960E+04  0.80652085629E+02 0.  0.
        254    2    1    2    0    0 -0.13284857072E+04  0.11017355805E+04 -0.39512072751E+01  0.19377269529E+04  0.88095094564E+03 0.  0.
         23    2    4    4    0    0 -0.31426797391E+03 -0.10621739997E+03 -0.90938222842E+02  0.35596523670E+03  0.91624199215E+02 0.  0.
         23    2    4    4    0    0 -0.10142177333E+04  0.12079529804E+04  0.86987015567E+02  0.15817617163E+04  0.81334940987E+02 0.  0.
          2    1    3    3  502    0  0.41691449613E+03 -0.37608431659E+03 -0.21282280804E+03  0.60045870623E+03  0.00000000000E+00 0. -1.
         -1    1    3    3    0  502  0.91157121108E+03 -0.72565126388E+03 -0.34523077680E+03  0.12152020897E+04  0.00000000000E+00 0.  1.
         11    1    5    5    0    0 -0.19841601924E+03 -0.32521148668E+02 -0.85682920044E+02  0.21855915581E+03  0.00000000000E+00 0. -1.
        -11    1    5    5    0    0 -0.11585195467E+03 -0.73696251305E+02 -0.52553027980E+01  0.13740608089E+03  0.00000000000E+00 0.  1.
          1    1    6    6  503    0 -0.63682888256E+02  0.10804810425E+03  0.14177313985E+02  0.12621766643E+03  0.00000000000E+00 0. -1.
         -1    1    6    6    0  503 -0.95053484504E+03  0.10999048762E+04  0.72809701582E+02  0.14555440498E+04  0.00000000000E+00 0.  1.
<mgrwt>
<rscale>  0 0.37110740E+04</rscale>
<asrwt>0</asrwt>
<pdfrwt beam="1">  1        2 0.33195327E+00 0.37110740E+04</pdfrwt>
<pdfrwt beam="2">  1       -1 0.24549100E+00 0.37110740E+04</pdfrwt>
<totfact> 0.37384196E-01</totfact>
</mgrwt>
</event>
<event>
12    6  0.1521603E-007  0.1513550E+04  0.7818608E-02  0.8875492E-01
          2   -1    0    0  501    0  0.00000000000E+00  0.00000000000E+00  0.14127898880E+04  0.14127898880E+04  0.00000000000E+00 0. -1.
         -1   -1    0    0    0  501 -0.00000000000E+00 -0.00000000000E+00 -0.40537415762E+03  0.40537415762E+03  0.00000000000E+00 0.  1.
         24    2    1    2    0    0  0.38070261751E+02 -0.41544489680E+03  0.19836273674E+03  0.46890280848E+03  0.80487647308E+02 0.  0.
        254    2    1    2    0    0 -0.38070261751E+02  0.41544489680E+03  0.80905299368E+03  0.13492612372E+04  0.99593942207E+03 0.  0.
         23    2    4    4    0    0 -0.41110440690E+03  0.40045364924E+03  0.76608530271E+03  0.96160775070E+03  0.91830368695E+02 0.  0.
         23    2    4    4    0    0  0.37303414515E+03  0.14991247563E+02  0.42967690968E+02  0.38765348647E+03  0.95130395536E+02 0.  0.
          2    1    3    3  502    0  0.45758151705E+02 -0.11024538426E+03  0.62555900877E+02  0.13476310300E+03  0.00000000000E+00 0. -1.
         -1    1    3    3    0  502 -0.76878899547E+01 -0.30519951255E+03  0.13580683586E+03  0.33413970548E+03  0.00000000000E+00 0.  1.
         11    1    5    5    0    0 -0.39913183056E+03  0.36863458509E+03  0.68971081580E+03  0.87800836267E+03  0.00000000000E+00 0. -1.
        -11    1    5    5    0    0 -0.11972576337E+02  0.31819064152E+02  0.76374486910E+02  0.83599388026E+02  0.00000000000E+00 0.  1.
          4    1    6    6  503    0  0.75212246847E+02  0.31799657460E+02  0.36090580054E+02  0.89278386292E+02  0.00000000000E+00 0. -1.
         -4    1    6    6    0  503  0.29782189830E+03 -0.16808409896E+02  0.68771109139E+01  0.29837510018E+03  0.00000000000E+00 0.  1.
<mgrwt>
<rscale>  0 0.15135501E+04</rscale>
<asrwt>0</asrwt>
<pdfrwt beam="1">  1        2 0.21735229E+00 0.15135501E+04</pdfrwt>
<pdfrwt beam="2">  1       -1 0.62365256E-01 0.15135501E+04</pdfrwt>
<totfact> 0.40816367E+01</totfact>
</mgrwt>
</event>
<event>
12    6  0.1521603E-007  0.1026907E+04  0.7818608E-02  0.9279516E-01
         -1   -1    0    0    0  501 -0.00000000000E+00  0.00000000000E+00  0.17648896545E+03  0.17648896545E+03  0.00000000000E+00 0.  1.
          2   -1    0    0  501    0  0.00000000000E+00 -0.00000000000E+00 -0.14937746501E+04  0.14937746501E+04  0.00000000000E+00 0. -1.
         24    2    1    2    0    0  0.44949224174E+01 -0.92803508278E+02 -0.25346024533E+03  0.28169846853E+03  0.80493699989E+02 0.  0.
        254    2    1    2    0    0 -0.44949224174E+01  0.92803508278E+02 -0.10638254393E+04  0.13885651470E+04  0.88755614282E+03 0.  0.
         23    2    4    4    0    0 -0.39887663753E+03 -0.44956793882E+02 -0.28643199316E+03  0.50128409530E+03  0.90104229728E+02 0.  0.
         23    2    4    4    0    0  0.39438171511E+03  0.13776030216E+03 -0.77739344617E+03  0.88728105171E+03  0.91718354324E+02 0.  0.
          2    1    3    3  502    0  0.12266438338E+02 -0.10282693147E+03 -0.24618099433E+03  0.26707475604E+03  0.00000000000E+00 0. -1.
         -1    1    3    3    0  502 -0.77715159209E+01  0.10023423187E+02 -0.72792509966E+01  0.14623712496E+02  0.00000000000E+00 0.  1.
         11    1    5    5    0    0 -0.98111554197E+02  0.24767668231E+02 -0.89435042168E+02  0.13504792195E+03  0.00000000000E+00 0. -1.
        -11    1    5    5    0    0 -0.30076508333E+03 -0.69724462113E+02 -0.19699695100E+03  0.36623617335E+03  0.00000000000E+00 0.  1.
          3    1    6    6  503    0  0.23915972758E+02 -0.18601913872E+01 -0.15197252906E+02  0.28397016759E+02  0.00000000000E+00 0. -1.
         -3    1    6    6    0  503  0.37046574235E+03  0.13962049355E+03 -0.76219619326E+03  0.85888403495E+03  0.00000000000E+00 0.  1.
<mgrwt>
<rscale>  0 0.10269075E+04</rscale>
<asrwt>0</asrwt>
<pdfrwt beam="1">  1        2 0.22981149E+00 0.10269075E+04</pdfrwt>
<pdfrwt beam="2">  1       -1 0.27152148E-01 0.10269075E+04</pdfrwt>
<totfact> 0.17641207E+02</totfact>
</mgrwt>
</event>
<event>
12    6  0.1521603E-007  0.1650200E+04  0.7818608E-02  0.8790288E-01
          2   -1    0    0  501    0  0.00000000000E+00  0.00000000000E+00  0.87156309658E+03  0.87156309658E+03  0.00000000000E+00 0. -1.
         -1   -1    0    0    0  501 -0.00000000000E+00 -0.00000000000E+00 -0.78111400768E+03  0.78111400768E+03  0.00000000000E+00 0.  1.
         24    2    1    2    0    0 -0.11703980862E+03  0.44975664884E+03 -0.30175785177E+03  0.56005800373E+03  0.81411341099E+02 0.  0.
        254    2    1    2    0    0  0.11703980862E+03 -0.44975664884E+03  0.39220694067E+03  0.10926191005E+04  0.90775043628E+03 0.  0.
         23    2    4    4    0    0  0.18280300417E+03  0.11301420534E+03  0.45808906912E+03  0.51511790282E+03  0.96497200060E+02 0.  0.
         23    2    4    4    0    0 -0.65763195548E+02 -0.56277085418E+03 -0.65882128448E+02  0.57750119771E+03  0.90173977972E+02 0.  0.
          4    1    3    3  502    0 -0.44178182787E+02  0.73588774382E+02 -0.32621538223E+02  0.91821480632E+02  0.00000000000E+00 0. -1.
         -3    1    3    3    0  502 -0.72861625833E+02  0.37616787446E+03 -0.26913631354E+03  0.46823652310E+03  0.00000000000E+00 0.  1.
         11    1    5    5    0    0  0.13295695863E+03  0.39470799648E+02  0.34109460648E+03  0.36821329069E+03  0.00000000000E+00 0.  1.
        -11    1    5    5    0    0  0.49846045542E+02  0.73543405694E+02  0.11699446264E+03  0.14690461213E+03  0.00000000000E+00 0. -1.
          4    1    6    6  503    0 -0.16222507483E+02 -0.71173055211E+02  0.20718037482E+02  0.75881556483E+02  0.00000000000E+00 0. -1.
         -4    1    6    6    0  503 -0.49540688065E+02 -0.49159779897E+03 -0.86600165930E+02  0.50161964123E+03  0.00000000000E+00 0.  1.
<mgrwt>
<rscale>  0 0.16502002E+04</rscale>
<asrwt>0</asrwt>
<pdfrwt beam="1">  1        2 0.13408663E+00 0.16502002E+04</pdfrwt>
<pdfrwt beam="2">  1       -1 0.12017139E+00 0.16502002E+04</pdfrwt>
<totfact> 0.20629119E+01</totfact>
</mgrwt>
</event>
<event>
12    6  0.1521603E-007  0.2388769E+04  0.7818608E-02  0.8443720E-01
          2   -1    0    0  501    0  0.00000000000E+00  0.00000000000E+00  0.10940212295E+04  0.10940212295E+04  0.00000000000E+00 0. -1.
         -1   -1    0    0    0  501 -0.00000000000E+00 -0.00000000000E+00 -0.13039548985E+04  0.13039548985E+04  0.00000000000E+00 0.  1.
         24    2    1    2    0    0  0.36102055029E+03 -0.19045824412E+03 -0.10364704948E+04  0.11172882126E+04  0.86323130636E+02 0.  0.
        254    2    1    2    0    0 -0.36102055029E+03  0.19045824412E+03  0.82653682582E+03  0.12806879154E+04  0.88903781227E+03 0.  0.
         23    2    4    4    0    0 -0.62976763424E+03  0.70050003810E+02  0.69564646767E+03  0.94519955700E+03  0.89240788894E+02 0.  0.
         23    2    4    4    0    0  0.26874708395E+03  0.12040824031E+03  0.13089035814E+03  0.33548835836E+03  0.93257778637E+02 0.  0.
          2    1    3    3  502    0  0.25240274089E+02 -0.74133049643E+01 -0.14319396266E+03  0.14559031378E+03  0.00000000000E+00 0. -1.
         -3    1    3    3    0  502  0.33578027620E+03 -0.18304493916E+03 -0.89327653219E+03  0.97169789883E+03  0.00000000000E+00 0.  1.
         11    1    5    5    0    0 -0.37900428459E+03 -0.52285132719E+00  0.42851684248E+03  0.57207622342E+03  0.00000000000E+00 0. -1.
        -11    1    5    5    0    0 -0.25076334964E+03  0.70572855137E+02  0.26712962520E+03  0.37312333358E+03  0.00000000000E+00 0.  1.
          3    1    6    6  503    0  0.38503362119E+02  0.20077383429E+02 -0.13891404237E+02  0.45591461169E+02  0.00000000000E+00 0. -1.
         -3    1    6    6    0  503  0.23024372183E+03  0.10033085688E+03  0.14478176238E+03  0.28989689720E+03  0.00000000000E+00 0.  1.
<mgrwt>
<rscale>  0 0.23887690E+04</rscale>
<asrwt>0</asrwt>
<pdfrwt beam="1">  1        2 0.16831096E+00 0.23887690E+04</pdfrwt>
<pdfrwt beam="2">  1       -1 0.20060844E+00 0.23887690E+04</pdfrwt>
<totfact> 0.33605608E+00</totfact>
</mgrwt>
</event>
<event>
12    6  0.1521603E-007  0.2005566E+04  0.7818608E-02  0.8604023E-01
         -1   -1    0    0    0  501 -0.00000000000E+00  0.00000000000E+00  0.75132611818E+03  0.75132611818E+03  0.00000000000E+00 0.  1.
          2   -1    0    0  501    0  0.00000000000E+00 -0.00000000000E+00 -0.13383987552E+04  0.13383987552E+04  0.00000000000E+00 0. -1.
         24    2    1    2    0    0 -0.57715875166E+03  0.84410257724E+02  0.34024444823E+03  0.68201105531E+03  0.95579698620E+02 0.  0.
        254    2    1    2    0    0  0.57715875166E+03 -0.84410257724E+02 -0.92731708528E+03  0.14077138181E+04  0.88402709281E+03 0.  0.
         23    2    4    4    0    0  0.51040446394E+03 -0.19069201887E+03 -0.10652606993E+04  0.11999650445E+04  0.90882274373E+02 0.  0.
         23    2    4    4    0    0  0.66754287722E+02  0.10628176115E+03  0.13794361397E+03  0.20774877360E+03  0.91537776991E+02 0.  0.
          4    1    3    3  502    0 -0.50581066335E+02  0.16749808885E+02  0.36754511238E+01  0.53408887933E+02  0.00000000000E+00 0. -1.
         -3    1    3    3    0  502 -0.52657768533E+03  0.67660448838E+02  0.33656899710E+03  0.62860216738E+03  0.00000000000E+00 0.  1.
         11    1    5    5    0    0  0.11389637636E+03 -0.27120533138E+02 -0.31051834770E+03  0.33185772874E+03  0.00000000000E+00 0.  1.
        -11    1    5    5    0    0  0.39650808758E+03 -0.16357148573E+03 -0.75474235155E+03  0.86810731577E+03  0.00000000000E+00 0. -1.
          4    1    6    6  503    0  0.69083416690E+02  0.11660408420E+03  0.10020015209E+03  0.16854999671E+03  0.00000000000E+00 0. -1.
         -4    1    6    6    0  503 -0.23291289681E+01 -0.10322323050E+02  0.37743461882E+02  0.39198776891E+02  0.00000000000E+00 0.  1.
<mgrwt>
<rscale>  0 0.20055662E+04</rscale>
<asrwt>0</asrwt>
<pdfrwt beam="1">  1        2 0.20590750E+00 0.20055662E+04</pdfrwt>
<pdfrwt beam="2">  1       -1 0.11558864E+00 0.20055662E+04</pdfrwt>
<totfact> 0.11269938E+01</totfact>
</mgrwt>
</event>
<event>
12    6  0.1521603E-007  0.2255294E+04  0.7818608E-02  0.8495759E-01
         -1   -1    0    0    0  501 -0.00000000000E+00  0.00000000000E+00  0.46632784930E+03  0.46632784930E+03  0.00000000000E+00 0.  1.
          2   -1    0    0  501    0  0.00000000000E+00 -0.00000000000E+00 -0.27268117981E+04  0.27268117981E+04  0.00000000000E+00 0. -1.
         24    2    1    2    0    0  0.44640416347E+03  0.59861809109E+02 -0.21344026828E+04  0.21828559060E+04  0.79529745928E+02 0.  0.
        254    2    1    2    0    0 -0.44640416347E+03 -0.59861809109E+02 -0.12608126599E+03  0.10102837414E+04  0.89549798393E+03 0.  0.
         23    2    4    4    0    0  0.53142995940E+01  0.36501037007E+03 -0.40252413581E+02  0.37819915316E+03  0.90296902601E+02 0.  0.
         23    2    4    4    0    0 -0.45171846307E+03 -0.42487217917E+03 -0.85828852406E+02  0.63208458827E+03  0.87168780627E+02 0.  0.
          4    1    3    3  502    0  0.35173060560E+03  0.13676119122E+02 -0.16317137617E+04  0.16692487098E+04  0.00000000000E+00 0. -1.
         -3    1    3    3    0  502  0.94673557875E+02  0.46185689986E+02 -0.50268892113E+03  0.51360719616E+03  0.00000000000E+00 0.  1.
         11    1    5    5    0    0 -0.20191304372E+02  0.16414260942E+02 -0.78130241216E+01  0.27169101576E+02  0.00000000000E+00 0.  1.
        -11    1    5    5    0    0  0.25505603966E+02  0.34859610912E+03 -0.32439389460E+02  0.35103005159E+03  0.00000000000E+00 0. -1.
          2    1    6    6  503    0 -0.33447325408E+03 -0.27661229948E+03 -0.30356230869E+02  0.43509564773E+03  0.00000000000E+00 0. -1.
         -2    1    6    6    0  503 -0.11724520898E+03 -0.14825987969E+03 -0.55472621537E+02  0.19698894054E+03  0.00000000000E+00 0.  1.
<mgrwt>
<rscale>  0 0.22552945E+04</rscale>
<asrwt>0</asrwt>
<pdfrwt beam="1">  1        2 0.41950950E+00 0.22552945E+04</pdfrwt>
<pdfrwt beam="2">  1       -1 0.71742748E-01 0.22552945E+04</pdfrwt>
<totfact> 0.51981978E+00</totfact>
</mgrwt>
</event>
<event>
12    6  0.1521603E-007  0.1721547E+04  0.7818608E-02  0.8749170E-01
         -1   -1    0    0    0  501 -0.00000000000E+00  0.00000000000E+00  0.60032686977E+03  0.60032686977E+03  0.00000000000E+00 0.  1.
          2   -1    0    0  501    0  0.00000000000E+00 -0.00000000000E+00 -0.12342128373E+04  0.12342128373E+04  0.00000000000E+00 0. -1.
         24    2    1    2    0    0 -0.36831642495E+03  0.42979438993E+03  0.39962519594E+02  0.57332717621E+03  0.82017324409E+02 0.  0.
        254    2    1    2    0    0  0.36831642495E+03 -0.42979438993E+03 -0.67384848717E+03  0.12612125309E+04  0.90344067760E+03 0.  0.
         23    2    4    4    0    0  0.35136636181E+03  0.19705520171E+03 -0.38466372209E+03  0.56433506752E+03  0.90657689178E+02 0.  0.
         23    2    4    4    0    0  0.16950063136E+02 -0.62684959164E+03 -0.28918476509E+03  0.69687746339E+03  0.93715822811E+02 0.  0.
          4    1    3    3  502    0 -0.15494726511E+03  0.22533404644E+03  0.48264970501E+02  0.27769334675E+03  0.00000000000E+00 0. -1.
         -3    1    3    3    0  502 -0.21336915984E+03  0.20446034349E+03 -0.83024509071E+01  0.29563382946E+03  0.00000000000E+00 0.  1.
         11    1    5    5    0    0  0.35792406830E+02  0.88538979541E+01 -0.72028845802E+01  0.37568197215E+02  0.00000000000E+00 0. -1.
        -11    1    5    5    0    0  0.31557395498E+03  0.18820130376E+03 -0.37746083750E+03  0.52676687030E+03  0.00000000000E+00 0.  1.
          1    1    6    6  503    0  0.11977366374E+02 -0.67162459546E+02 -0.30996683861E+01  0.68292468264E+02  0.00000000000E+00 0. -1.
         -1    1    6    6    0  503  0.49726967621E+01 -0.55968713209E+03 -0.28608509670E+03  0.62858499513E+03  0.00000000000E+00 0.  1.
<mgrwt>
<rscale>  0 0.17215471E+04</rscale>
<asrwt>0</asrwt>
<pdfrwt beam="1">  1        2 0.18987890E+00 0.17215471E+04</pdfrwt>
<pdfrwt beam="2">  1       -1 0.92357980E-01 0.17215471E+04</pdfrwt>
<totfact> 0.22327856E+01</totfact>
</mgrwt>
</event>
<event>
12    6  0.1521603E-007  0.1871989E+04  0.7818608E-02  0.8668926E-01
          2   -1    0    0  501    0  0.00000000000E+00  0.00000000000E+00  0.11350587533E+04  0.11350587533E+04  0.00000000000E+00 0. -1.
         -1   -1    0    0    0  501 -0.00000000000E+00 -0.00000000000E+00 -0.77184168775E+03  0.77184168775E+03  0.00000000000E+00 0.  1.
         24    2    1    2    0    0 -0.69519418638E+03  0.17099961546E+03  0.11632766391E+03  0.72961900127E+03  0.79220807645E+02 0.  0.
        254    2    1    2    0    0  0.69519418638E+03 -0.17099961546E+03  0.24688940166E+03  0.11772814398E+04  0.90138858800E+03 0.  0.
         23    2    4    4    0    0  0.38228107276E+03 -0.50988525130E+03  0.28825631820E+03  0.70548325862E+03  0.92158207036E+02 0.  0.
         23    2    4    4    0    0  0.31291311362E+03  0.33888563585E+03 -0.41366916545E+02  0.47179818117E+03  0.90134405829E+02 0.  0.
          4    1    3    3  502    0 -0.19336537878E+02  0.16039977796E+02  0.13863673352E+02  0.28694668906E+02  0.00000000000E+00 0. -1.
         -3    1    3    3    0  502 -0.67585764850E+03  0.15495963766E+03  0.10246399056E+03  0.70092433237E+03  0.00000000000E+00 0.  1.
         11    1    5    5    0    0  0.23776614206E+02 -0.58772608635E+02  0.55305602948E+01  0.63640663149E+02  0.00000000000E+00 0.  1.
        -11    1    5    5    0    0  0.35850445856E+03 -0.45111264267E+03  0.28272575791E+03  0.64184259547E+03  0.00000000000E+00 0. -1.
          2    1    6    6  503    0  0.68206292475E+02  0.13530321156E+03 -0.79754317101E+01  0.15173221445E+03  0.00000000000E+00 0. -1.
         -2    1    6    6    0  503  0.24470682115E+03  0.20358242429E+03 -0.33391484835E+02  0.32006596672E+03  0.00000000000E+00 0.  1.
<mgrwt>
<rscale>  0 0.18719890E+04</rscale>
<asrwt>0</asrwt>
<pdfrwt beam="1">  1        2 0.17462442E+00 0.18719890E+04</pdfrwt>
<pdfrwt beam="2">  1       -1 0.11874487E+00 0.18719890E+04</pdfrwt>
<totfact> 0.14099386E+01</totfact>
</mgrwt>
</event>
<event>
12    6  0.1521603E-007  0.1627581E+04  0.7818608E-02  0.8803781E-01
          2   -1    0    0  501    0  0.00000000000E+00  0.00000000000E+00  0.16546404736E+04  0.16546404736E+04  0.00000000000E+00 0. -1.
         -1   -1    0    0    0  501 -0.00000000000E+00 -0.00000000000E+00 -0.40024084185E+03  0.40024084185E+03  0.00000000000E+00 0.  1.
         24    2    1    2    0    0 -0.28159413357E+03  0.48425723090E+03  0.40887190024E+03  0.69837244897E+03  0.82143319494E+02 0.  0.
        254    2    1    2    0    0  0.28159413357E+03 -0.48425723090E+03  0.84552773151E+03  0.13565088665E+04  0.90077679717E+03 0.  0.
         23    2    4    4    0    0 -0.31398615211E+03 -0.16463332480E+03  0.39702890047E+03  0.53960221876E+03  0.88584261186E+02 0.  0.
         23    2    4    4    0    0  0.59558028568E+03 -0.31962390610E+03  0.44849883104E+03  0.81690664771E+03  0.96488090416E+02 0.  0.
          2    1    3    3  502    0 -0.19179888099E+03  0.39013657359E+03  0.33450349833E+03  0.54853071673E+03  0.00000000000E+00 0. -1.
         -1    1    3    3    0  502 -0.89795252585E+02  0.94120657312E+02  0.74368401911E+02  0.14984173225E+03  0.00000000000E+00 0.  1.
         11    1    5    5    0    0 -0.37872998865E+02 -0.42154837581E+02  0.10576625967E+03  0.11999123326E+03  0.00000000000E+00 0.  1.
        -11    1    5    5    0    0 -0.27611315324E+03 -0.12247848722E+03  0.29126264080E+03  0.41961098550E+03  0.00000000000E+00 0. -1.
          3    1    6    6  503    0  0.46415353925E+03 -0.20549786833E+03  0.31335156477E+03  0.59653758057E+03  0.00000000000E+00 0. -1.
         -3    1    6    6    0  503  0.13142674643E+03 -0.11412603777E+03  0.13514726627E+03  0.22036906715E+03  0.00000000000E+00 0.  1.
<mgrwt>
<rscale>  0 0.16275807E+04</rscale>
<asrwt>0</asrwt>
<pdfrwt beam="1">  1        2 0.25456007E+00 0.16275807E+04</pdfrwt>
<pdfrwt beam="2">  1       -1 0.61575515E-01 0.16275807E+04</pdfrwt>
<totfact> 0.30312084E+01</totfact>
</mgrwt>
</event>
<event>
12    6  0.1521603E-007  0.1815595E+04  0.7818608E-02  0.8698050E-01
          2   -1    0    0  501    0  0.00000000000E+00  0.00000000000E+00  0.29457365640E+04  0.29457365640E+04  0.00000000000E+00 0. -1.
         -1   -1    0    0    0  501 -0.00000000000E+00 -0.00000000000E+00 -0.27975897088E+03  0.27975897088E+03  0.00000000000E+00 0.  1.
         24    2    1    2    0    0 -0.26356173893E+03 -0.57387313459E+03  0.14452985506E+04  0.15794037643E+04  0.82663084357E+02 0.  0.
        254    2    1    2    0    0  0.26356173893E+03  0.57387313459E+03  0.12206790425E+04  0.16460917706E+04  0.90596116221E+03 0.  0.
         23    2    4    4    0    0 -0.17218241184E+03  0.36218874883E+03  0.10135350247E+03  0.42302864120E+03  0.88618429721E+02 0.  0.
         23    2    4    4    0    0  0.43574415076E+03  0.21168438577E+03  0.11193255400E+04  0.12230631294E+04  0.91161997146E+02 0.  0.
          2    1    3    3  502    0 -0.54693840647E+02 -0.64246530886E+02  0.23471652032E+03  0.24942108541E+03  0.00000000000E+00 0. -1.
         -1    1    3    3    0  502 -0.20886789828E+03 -0.50962660371E+03  0.12105820303E+04  0.13299826789E+04  0.00000000000E+00 0.  1.
         11    1    5    5    0    0 -0.12493413364E+03  0.33166949866E+03  0.85430167671E+02  0.36457030548E+03  0.00000000000E+00 0. -1.
        -11    1    5    5    0    0 -0.47248278198E+02  0.30519250165E+02  0.15923334803E+02  0.58458335715E+02  0.00000000000E+00 0.  1.
          1    1    6    6  503    0  0.41720137181E+03  0.22002241257E+03  0.10863464922E+04  0.11843207116E+04  0.00000000000E+00 0. -1.
         -1    1    6    6    0  503  0.18542778949E+02 -0.83380267979E+01  0.32979047799E+02  0.38742417784E+02  0.00000000000E+00 0.  1.
<mgrwt>
<rscale>  0 0.18155949E+04</rscale>
<asrwt>0</asrwt>
<pdfrwt beam="1">  1        2 0.45319022E+00 0.18155949E+04</pdfrwt>
<pdfrwt beam="2">  1       -1 0.43039844E-01 0.18155949E+04</pdfrwt>
<totfact> 0.10788389E+01</totfact>
</mgrwt>
</event>
<event>
12    6  0.1521603E-007  0.1689327E+04  0.7818608E-02  0.8767475E-01
         -1   -1    0    0    0  501 -0.00000000000E+00  0.00000000000E+00  0.66774389274E+03  0.66774389274E+03  0.00000000000E+00 0.  1.
          2   -1    0    0  501    0  0.00000000000E+00 -0.00000000000E+00 -0.10684577481E+04  0.10684577481E+04  0.00000000000E+00 0. -1.
         24    2    1    2    0    0  0.33667263875E+03 -0.50110750816E+03 -0.12681693099E+03  0.62204210000E+03  0.79978995787E+02 0.  0.
        254    2    1    2    0    0 -0.33667263875E+03  0.50110750816E+03 -0.27389692441E+03  0.11141595409E+04  0.89547459870E+03 0.  0.
         23    2    4    4    0    0 -0.16712262230E+03 -0.18904974322E+03 -0.29326909958E+03  0.39749878270E+03  0.91261937222E+02 0.  0.
         23    2    4    4    0    0 -0.16955001645E+03  0.69015725138E+03  0.19372175175E+02  0.71666075817E+03  0.90349994090E+02 0.  0.
          2    1    3    3  502    0  0.17176082168E+03 -0.19659912972E+03 -0.77004518138E+02  0.27218136139E+03  0.00000000000E+00 0. -1.
         -1    1    3    3    0  502  0.16491181706E+03 -0.30450837844E+03 -0.49812412852E+02  0.34986073861E+03  0.00000000000E+00 0.  1.
         11    1    5    5    0    0  0.25681084179E+01  0.79004197449E+01 -0.78234354433E+01  0.11411308213E+02  0.00000000000E+00 0. -1.
        -11    1    5    5    0    0 -0.16969073071E+03 -0.19695016296E+03 -0.28544566414E+03  0.38608747449E+03  0.00000000000E+00 0.  1.
          3    1    6    6  503    0 -0.25426880388E+02  0.13835386656E+03  0.39104776980E+02  0.14600514451E+03  0.00000000000E+00 0. -1.
         -3    1    6    6    0  503 -0.14412313606E+03  0.55180338481E+03 -0.19732601805E+02  0.57065561367E+03  0.00000000000E+00 0.  1.
<mgrwt>
<rscale>  0 0.16893267E+04</rscale>
<asrwt>0</asrwt>
<pdfrwt beam="1">  1        2 0.16437812E+00 0.16893267E+04</pdfrwt>
<pdfrwt beam="2">  1       -1 0.10272983E+00 0.16893267E+04</pdfrwt>
<totfact> 0.22182057E+01</totfact>
</mgrwt>
</event>
<event>
12    6  0.1521603E-007  0.1394349E+04  0.7818608E-02  0.8957919E-01
          2   -1    0    0  501    0  0.00000000000E+00  0.00000000000E+00  0.13002397602E+04  0.13002397602E+04  0.00000000000E+00 0. -1.
         -1   -1    0    0    0  501 -0.00000000000E+00 -0.00000000000E+00 -0.37381766899E+03  0.37381766899E+03  0.00000000000E+00 0.  1.
         24    2    1    2    0    0 -0.10176829125E+03  0.79559220737E+02  0.72525548055E+03  0.74121061528E+03  0.81921971609E+02 0.  0.
        254    2    1    2    0    0  0.10176829125E+03 -0.79559220737E+02  0.20116661066E+03  0.93284681390E+03  0.90169214162E+03 0.  0.
         23    2    4    4    0    0  0.37913892106E+03  0.61082115197E+02  0.39256403848E+03  0.55665040039E+03  0.90971411362E+02 0.  0.
         23    2    4    4    0    0 -0.27737062981E+03 -0.14064133593E+03 -0.19139742782E+03  0.37619641351E+03  0.90422975549E+02 0.  0.
          4    1    3    3  502    0 -0.10004679387E+03  0.87000083396E+02  0.54873535790E+03  0.56452534795E+03  0.00000000000E+00 0. -1.
         -3    1    3    3    0  502 -0.17214973808E+01 -0.74408626589E+01  0.17652012265E+03  0.17668526733E+03  0.00000000000E+00 0.  1.
         11    1    5    5    0    0  0.26945085691E+03  0.18464539966E+02  0.22297073306E+03  0.35022942670E+03  0.00000000000E+00 0. -1.
        -11    1    5    5    0    0  0.10968806415E+03  0.42617575231E+02  0.16959330541E+03  0.20642097369E+03  0.00000000000E+00 0.  1.
          3    1    6    6  503    0 -0.17600922843E+03 -0.49393814417E+02 -0.77696299706E+02  0.19863462030E+03  0.00000000000E+00 0. -1.
         -3    1    6    6    0  503 -0.10136140139E+03 -0.91247521517E+02 -0.11370112811E+03  0.17756179321E+03  0.00000000000E+00 0.  1.
<mgrwt>
<rscale>  0 0.13943494E+04</rscale>
<asrwt>0</asrwt>
<pdfrwt beam="1">  1        2 0.20003688E+00 0.13943494E+04</pdfrwt>
<pdfrwt beam="2">  1       -1 0.57510411E-01 0.13943494E+04</pdfrwt>
<totfact> 0.56165319E+01</totfact>
</mgrwt>
</event>
<event>
12    6  0.1521603E-007  0.1731346E+04  0.7818608E-02  0.8743686E-01
         -1   -1    0    0    0  501 -0.00000000000E+00  0.00000000000E+00  0.16241505653E+03  0.16241505653E+03  0.00000000000E+00 0.  1.
          2   -1    0    0  501    0  0.00000000000E+00 -0.00000000000E+00 -0.46140428606E+04  0.46140428606E+04  0.00000000000E+00 0. -1.
         24    2    1    2    0    0 -0.17349694303E+03 -0.24802163338E+03 -0.31434440740E+04  0.31589999473E+04  0.80150488355E+02 0.  0.
        254    2    1    2    0    0  0.17349694303E+03  0.24802163338E+03 -0.13081837301E+04  0.16174579699E+04  0.90178139962E+03 0.  0.
         23    2    4    4    0    0  0.40332268807E+03  0.24898583347E+03 -0.12812442080E+04  0.13691667652E+04  0.91475540567E+02 0.  0.
         23    2    4    4    0    0 -0.22982574504E+03 -0.96420008677E+00 -0.26939522111E+02  0.24829120463E+03  0.90011008666E+02 0.  0.
          2    1    3    3  502    0 -0.99084589746E+02 -0.13144074451E+03 -0.20979726692E+04  0.21044200498E+04  0.00000000000E+00 0. -1.
         -3    1    3    3    0  502 -0.74412353282E+02 -0.11658088888E+03 -0.10454714048E+04  0.10545798975E+04  0.00000000000E+00 0.  1.
         11    1    5    5    0    0  0.32525479204E+03  0.18470087390E+03 -0.89754361070E+03  0.97236290842E+03  0.00000000000E+00 0.  1.
        -11    1    5    5    0    0  0.78067896023E+02  0.64284959571E+02 -0.38370059728E+03  0.39680385680E+03  0.00000000000E+00 0. -1.
          1    1    6    6  503    0 -0.32670639519E+02  0.24899538290E+02  0.17321810656E+02  0.44580296299E+02  0.00000000000E+00 0. -1.
         -1    1    6    6    0  503 -0.19715510552E+03 -0.25863738377E+02 -0.44261332767E+02  0.20371090833E+03  0.00000000000E+00 0.  1.
<mgrwt>
<rscale>  0 0.17313463E+04</rscale>
<asrwt>0</asrwt>
<pdfrwt beam="1">  1        2 0.70985276E+00 0.17313463E+04</pdfrwt>
<pdfrwt beam="2">  1       -1 0.24986931E-01 0.17313463E+04</pdfrwt>
<totfact> 0.14723057E+00</totfact>
</mgrwt>
</event>
<event>
12    6  0.1521603E-007  0.1390581E+04  0.7818608E-02  0.8960665E-01
          2   -1    0    0  501    0  0.00000000000E+00  0.00000000000E+00  0.12389122730E+04  0.12389122730E+04  0.00000000000E+00 0. -1.
         -1   -1    0    0    0  501 -0.00000000000E+00 -0.00000000000E+00 -0.39020433493E+03  0.39020433493E+03  0.00000000000E+00 0.  1.
         24    2    1    2    0    0 -0.17725430217E+03 -0.15609462690E+03  0.56616793225E+03  0.61818603675E+03  0.76310080262E+02 0.  0.
        254    2    1    2    0    0  0.17725430217E+03  0.15609462690E+03  0.28254000586E+03  0.10109305712E+04  0.94147073493E+03 0.  0.
         23    2    4    4    0    0  0.20565040528E+02  0.47440635007E+03 -0.86017010954E+02  0.49113969189E+03  0.91296028942E+02 0.  0.
         23    2    4    4    0    0  0.15668926164E+03 -0.31831172317E+03  0.36855701682E+03  0.51979087933E+03  0.92056535710E+02 0.  0.
          2    1    3    3  502    0 -0.13528345934E+03 -0.13535637789E+03  0.51197560686E+03  0.54657294612E+03  0.00000000000E+00 0. -1.
         -1    1    3    3    0  502 -0.41970842831E+02 -0.20738249006E+02  0.54192325381E+02  0.71613090633E+02  0.00000000000E+00 0.  1.
         11    1    5    5    0    0  0.35707456104E+02  0.24631491994E+03 -0.83530436997E+02  0.26253265723E+03  0.00000000000E+00 0.  1.
        -11    1    5    5    0    0 -0.15142415576E+02  0.22809143012E+03 -0.24865739568E+01  0.22860703466E+03  0.00000000000E+00 0. -1.
          4    1    6    6  503    0  0.42856731148E+02 -0.24365469106E+02  0.32574448844E+02  0.59088663946E+02  0.00000000000E+00 0. -1.
         -4    1    6    6    0  503  0.11383253049E+03 -0.29394625406E+03  0.33598256797E+03  0.46070221538E+03  0.00000000000E+00 0.  1.
<mgrwt>
<rscale>  0 0.13905811E+04</rscale>
<asrwt>0</asrwt>
<pdfrwt beam="1">  1        2 0.19060189E+00 0.13905811E+04</pdfrwt>
<pdfrwt beam="2">  1       -1 0.60031437E-01 0.13905811E+04</pdfrwt>
<totfact> 0.56099438E+01</totfact>
</mgrwt>
</event>
<event>
12    6  0.1521603E-007  0.1423736E+04  0.7818608E-02  0.8936814E-01
         -1   -1    0    0    0  501 -0.00000000000E+00  0.00000000000E+00  0.59258079686E+03  0.59258079686E+03  0.00000000000E+00 0.  1.
          2   -1    0    0  501    0  0.00000000000E+00 -0.00000000000E+00 -0.85516845274E+03  0.85516845274E+03  0.00000000000E+00 0. -1.
         24    2    1    2    0    0  0.86701735176E+01 -0.37426514969E+03  0.12036368260E+03  0.40150966552E+03  0.81074171193E+02 0.  0.
        254    2    1    2    0    0 -0.86701735176E+01  0.37426514969E+03 -0.38295133847E+03  0.10462395841E+04  0.89878582849E+03 0.  0.
         23    2    4    4    0    0 -0.32713727128E+03  0.33906314790E+03  0.68978718256E+02  0.48491500953E+03  0.91661826160E+02 0.  0.
         23    2    4    4    0    0  0.31846709776E+03  0.35202001793E+02 -0.45193005673E+03  0.56132457455E+03  0.90465620735E+02 0.  0.
          2    1    3    3  502    0 -0.69263972254E+01 -0.44690881539E+02 -0.10725580084E+02  0.46478897786E+02  0.00000000000E+00 0. -1.
         -1    1    3    3    0  502  0.15596570743E+02 -0.32957426815E+03  0.13108926268E+03  0.35503076773E+03  0.00000000000E+00 0.  1.
         11    1    5    5    0    0 -0.29068243589E+03  0.25384745819E+03  0.40968614679E+02  0.38808921390E+03  0.00000000000E+00 0. -1.
        -11    1    5    5    0    0 -0.36454835394E+02  0.85215689712E+02  0.28010103577E+02  0.96825795628E+02  0.00000000000E+00 0.  1.
          4    1    6    6  503    0  0.22727902203E+03 -0.11770887665E+02 -0.34361267838E+03  0.41214558156E+03  0.00000000000E+00 0. -1.
         -4    1    6    6    0  503  0.91188075730E+02  0.46972889457E+02 -0.10831737835E+03  0.14917899300E+03  0.00000000000E+00 0.  1.
<mgrwt>
<rscale>  0 0.14237365E+04</rscale>
<asrwt>0</asrwt>
<pdfrwt beam="1">  1        2 0.13156438E+00 0.14237365E+04</pdfrwt>
<pdfrwt beam="2">  1       -1 0.91166277E-01 0.14237365E+04</pdfrwt>
<totfact> 0.40999463E+01</totfact>
</mgrwt>
</event>
<event>
12    6  0.1521603E-007  0.1005221E+04  0.7818608E-02  0.9302837E-01
          2   -1    0    0  501    0  0.00000000000E+00  0.00000000000E+00  0.25559810902E+04  0.25559810902E+04  0.00000000000E+00 0. -1.
         -1   -1    0    0    0  501 -0.00000000000E+00 -0.00000000000E+00 -0.98833755785E+02  0.98833755785E+02  0.00000000000E+00 0.  1.
         24    2    1    2    0    0 -0.28482778857E+02  0.48655306181E+02  0.26173777899E+03  0.27868679190E+03  0.77337284163E+02 0.  0.
        254    2    1    2    0    0  0.28482778857E+02 -0.48655306181E+02  0.21954095554E+04  0.23761280541E+04  0.90718399778E+03 0.  0.
         23    2    4    4    0    0 -0.26306844885E+03 -0.97270357234E+00  0.16795322871E+03  0.32521379137E+03  0.91377065684E+02 0.  0.
         23    2    4    4    0    0  0.29155122770E+03 -0.47682602609E+02  0.20274563267E+04  0.20509142627E+04  0.91620998044E+02 0.  0.
          4    1    3    3  502    0 -0.40125972240E+02  0.36154470322E+02  0.25444107024E+03  0.26011054880E+03  0.00000000000E+00 0. -1.
         -3    1    3    3    0  502  0.11643193383E+02  0.12500835859E+02  0.72967087480E+01  0.18576243105E+02  0.00000000000E+00 0.  1.
         11    1    5    5    0    0 -0.21212889047E+03 -0.15693425500E+02  0.16977997880E+03  0.27215839318E+03  0.00000000000E+00 0. -1.
        -11    1    5    5    0    0 -0.50939558373E+02  0.14720721928E+02 -0.18267500883E+01  0.53055398191E+02  0.00000000000E+00 0.  1.
          1    1    6    6  503    0  0.16476405456E+03  0.14509680958E+01  0.86694144294E+03  0.88246063055E+03  0.00000000000E+00 0. -1.
         -1    1    6    6    0  503  0.12678717314E+03 -0.49133570705E+02  0.11605148838E+04  0.11684536322E+04  0.00000000000E+00 0.  1.
<mgrwt>
<rscale>  0 0.10052208E+04</rscale>
<asrwt>0</asrwt>
<pdfrwt beam="1">  1        2 0.39322781E+00 0.10052208E+04</pdfrwt>
<pdfrwt beam="2">  1       -1 0.15205195E-01 0.10052208E+04</pdfrwt>
<totfact> 0.11974831E+02</totfact>
</mgrwt>
</event>
<event>
12    6  0.1521603E-007  0.1491240E+04  0.7818608E-02  0.8890299E-01
          2   -1    0    0  501    0  0.00000000000E+00  0.00000000000E+00  0.89341380547E+03  0.89341380547E+03  0.00000000000E+00 0. -1.
         -1   -1    0    0    0  501 -0.00000000000E+00 -0.00000000000E+00 -0.62227492924E+03  0.62227492924E+03  0.00000000000E+00 0.  1.
         24    2    1    2    0    0 -0.26696389505E+03 -0.37001942109E+03  0.19531224396E+03  0.50247785739E+03  0.78441260109E+02 0.  0.
        254    2    1    2    0    0  0.26696389505E+03  0.37001942109E+03  0.75826632272E+02  0.10132108773E+04  0.90147795897E+03 0.  0.
         23    2    4    4    0    0  0.37784836259E+03  0.48558963816E+03  0.32591681303E+03  0.70231636061E+03  0.91977277444E+02 0.  0.
         23    2    4    4    0    0 -0.11088446754E+03 -0.11557021707E+03 -0.25009018076E+03  0.31089451670E+03  0.91969896105E+02 0.  0.
          2    1    3    3  502    0 -0.50614796121E+02 -0.12560000391E+03  0.73474337721E+02  0.15406393761E+03  0.00000000000E+00 0. -1.
         -1    1    3    3    0  502 -0.21634909893E+03 -0.24441941717E+03  0.12183790624E+03  0.34841391978E+03  0.00000000000E+00 0.  1.
         11    1    5    5    0    0  0.22339905487E+03  0.26266014015E+03  0.13336336990E+03  0.36970701288E+03  0.00000000000E+00 0. -1.
        -11    1    5    5    0    0  0.15444930773E+03  0.22292949801E+03  0.19255344313E+03  0.33260934773E+03  0.00000000000E+00 0.  1.
          3    1    6    6  503    0 -0.44563505047E+02 -0.50788997431E+02 -0.33753555119E+02  0.75529667849E+02  0.00000000000E+00 0. -1.
         -3    1    6    6    0  503 -0.66320962491E+02 -0.64781219641E+02 -0.21633662564E+03  0.23536484885E+03  0.00000000000E+00 0.  1.
<mgrwt>
<rscale>  0 0.14912398E+04</rscale>
<asrwt>0</asrwt>
<pdfrwt beam="1">  1        2 0.13744828E+00 0.14912398E+04</pdfrwt>
<pdfrwt beam="2">  1       -1 0.95734604E-01 0.14912398E+04</pdfrwt>
<totfact> 0.34412237E+01</totfact>
</mgrwt>
</event>
<event>
12    6  0.1521603E-007  0.1506948E+04  0.7818608E-02  0.8879846E-01
          2   -1    0    0  501    0  0.00000000000E+00  0.00000000000E+00  0.71727581285E+03  0.71727581285E+03  0.00000000000E+00 0. -1.
         -1   -1    0    0    0  501 -0.00000000000E+00 -0.00000000000E+00 -0.79149847702E+03  0.79149847702E+03  0.00000000000E+00 0.  1.
         24    2    1    2    0    0  0.43067040842E+03  0.19423578628E+03  0.69095157811E+02  0.48422581742E+03  0.80597518956E+02 0.  0.
        254    2    1    2    0    0 -0.43067040842E+03 -0.19423578628E+03 -0.14331782198E+03  0.10245484725E+04  0.89774998354E+03 0.  0.
         23    2    4    4    0    0 -0.20363218559E+03 -0.30337287936E+03 -0.47017111942E+03  0.60244291354E+03  0.91517274876E+02 0.  0.
         23    2    4    4    0    0 -0.22703822283E+03  0.10913709309E+03  0.32685329743E+03  0.42210555892E+03  0.88784937413E+02 0.  0.
          4    1    3    3  502    0  0.33513170627E+03  0.12186301811E+03  0.28732676632E+02  0.35775609350E+03  0.00000000000E+00 0. -1.
         -3    1    3    3    0  502  0.95538702148E+02  0.72372768168E+02  0.40362481179E+02  0.12646972392E+03  0.00000000000E+00 0.  1.
         11    1    5    5    0    0 -0.20827846580E+03 -0.26358661259E+03 -0.43050253472E+03  0.54606799398E+03  0.00000000000E+00 0.  1.
        -11    1    5    5    0    0  0.46462802063E+01 -0.39786266770E+02 -0.39668584696E+02  0.56374919557E+02  0.00000000000E+00 0. -1.
          2    1    6    6  503    0 -0.18852708648E+03  0.89374536357E+02  0.20378994343E+03  0.29165152344E+03  0.00000000000E+00 0.  1.
         -2    1    6    6    0  503 -0.38511136352E+02  0.19762556729E+02  0.12306335401E+03  0.13045403547E+03  0.00000000000E+00 0. -1.
<mgrwt>
<rscale>  0 0.15069475E+04</rscale>
<asrwt>0</asrwt>
<pdfrwt beam="1">  1        2 0.11035013E+00 0.15069475E+04</pdfrwt>
<pdfrwt beam="2">  1       -1 0.12176900E+00 0.15069475E+04</pdfrwt>
<totfact> 0.26168378E+01</totfact>
</mgrwt>
</event>
<event>
12    6  0.1521603E-007  0.1413986E+04  0.7818608E-02  0.8943757E-01
         -1   -1    0    0    0  501 -0.00000000000E+00  0.00000000000E+00  0.38231792561E+03  0.38231792561E+03  0.00000000000E+00 0.  1.
          2   -1    0    0  501    0  0.00000000000E+00 -0.00000000000E+00 -0.13073903618E+04  0.13073903618E+04  0.00000000000E+00 0. -1.
         24    2    1    2    0    0  0.25633837835E+03  0.32659670772E+03 -0.22677256492E+03  0.47942936034E+03  0.77794226338E+02 0.  0.
        254    2    1    2    0    0 -0.25633837835E+03 -0.32659670772E+03 -0.69829987128E+03  0.12102789271E+04  0.89709397356E+03 0.  0.
         23    2    4    4    0    0 -0.29848410651E+03 -0.69907904459E+02  0.12359519117E+03  0.34317827731E+03  0.92280451830E+02 0.  0.
         23    2    4    4    0    0  0.42145728168E+02 -0.25668880326E+03 -0.82189506245E+03  0.86710064976E+03  0.93202140691E+02 0.  0.
          2    1    3    3  502    0  0.18145160624E+03  0.22444693899E+03 -0.19662562601E+03  0.34923165754E+03  0.00000000000E+00 0. -1.
         -1    1    3    3    0  502  0.74886772107E+02  0.10214976873E+03 -0.30146938915E+02  0.13019770280E+03  0.00000000000E+00 0.  1.
         11    1    5    5    0    0 -0.94680262719E+02 -0.30856346373E+02  0.87477023409E+02  0.13254695728E+03  0.00000000000E+00 0.  1.
        -11    1    5    5    0    0 -0.20380384380E+03 -0.39051558086E+02  0.36118167760E+02  0.21063132003E+03  0.00000000000E+00 0. -1.
          1    1    6    6  503    0  0.70154129712E+02 -0.18127244503E+03 -0.53842651898E+03  0.57243726083E+03  0.00000000000E+00 0. -1.
         -1    1    6    6    0  503 -0.28008401543E+02 -0.75416358223E+02 -0.28346854347E+03  0.29466338894E+03  0.00000000000E+00 0.  1.
<mgrwt>
<rscale>  0 0.14139855E+04</rscale>
<asrwt>0</asrwt>
<pdfrwt beam="1">  1        2 0.20113698E+00 0.14139855E+04</pdfrwt>
<pdfrwt beam="2">  1       -1 0.58818143E-01 0.14139855E+04</pdfrwt>
<totfact> 0.53144831E+01</totfact>
</mgrwt>
</event>
<event>
12    6  0.1521603E-007  0.1861688E+04  0.7818608E-02  0.8674165E-01
         -1   -1    0    0    0  501 -0.00000000000E+00  0.00000000000E+00  0.23556579601E+03  0.23556579601E+03  0.00000000000E+00 0.  1.
          2   -1    0    0  501    0  0.00000000000E+00 -0.00000000000E+00 -0.36782530964E+04  0.36782530964E+04  0.00000000000E+00 0. -1.
         24    2    1    2    0    0  0.40208604880E+03  0.27306632759E+03 -0.23813295015E+03  0.54720781484E+03  0.80564761289E+02 0.  0.
        254    2    1    2    0    0 -0.40208604880E+03 -0.27306632759E+03 -0.32045543502E+04  0.33666110776E+04  0.91030937275E+03 0.  0.
         23    2    4    4    0    0 -0.47438537198E+03  0.16519044475E+03 -0.22784486596E+04  0.23349587183E+04  0.91512609437E+02 0.  0.
         23    2    4    4    0    0  0.72299323178E+02 -0.43825677235E+03 -0.92610569067E+03  0.10316523593E+04  0.96636688021E+02 0.  0.
          2    1    3    3  502    0  0.24086824904E+03  0.19218802940E+03 -0.11541125524E+03  0.32904940340E+03  0.00000000000E+00 0. -1.
         -1    1    3    3    0  502  0.16121779976E+03  0.80878298190E+02 -0.12272169491E+03  0.21815841143E+03  0.00000000000E+00 0.  1.
         11    1    5    5    0    0 -0.94553045348E+02  0.46367742509E+02 -0.33438899960E+03  0.35057987532E+03  0.00000000000E+00 0. -1.
        -11    1    5    5    0    0 -0.37983232663E+03  0.11882270224E+03 -0.19440596600E+04  0.19843788430E+04  0.00000000000E+00 0.  1.
          4    1    6    6  503    0  0.35131958774E+02 -0.38173453161E+03 -0.82857372405E+03  0.91295669302E+03  0.00000000000E+00 0. -1.
         -4    1    6    6    0  503  0.37167364404E+02 -0.56522240739E+02 -0.97531966620E+02  0.11869566625E+03  0.00000000000E+00 0.  1.
<mgrwt>
<rscale>  0 0.18616881E+04</rscale>
<asrwt>0</asrwt>
<pdfrwt beam="1">  1        2 0.56588510E+00 0.18616881E+04</pdfrwt>
<pdfrwt beam="2">  1       -1 0.36240891E-01 0.18616881E+04</pdfrwt>
<totfact> 0.47640438E+00</totfact>
</mgrwt>
</event>
<event>
12    6  0.1521603E-007  0.1159001E+04  0.7818608E-02  0.9149520E-01
          2   -1    0    0  501    0  0.00000000000E+00  0.00000000000E+00  0.92633049250E+03  0.92633049250E+03  0.00000000000E+00 0. -1.
         -3   -1    0    0    0  501 -0.00000000000E+00 -0.00000000000E+00 -0.36252800819E+03  0.36252800819E+03  0.00000000000E+00 0.  1.
         24    2    1    2    0    0  0.99255286659E+01 -0.10358961961E+03 -0.11828248166E+03  0.17646386016E+03  0.79494798967E+02 0.  0.
        254    2    1    2    0    0 -0.99255286659E+01  0.10358961961E+03  0.68208496597E+03  0.11123946405E+04  0.87255521892E+03 0.  0.
         23    2    4    4    0    0 -0.28651888009E+03  0.19467955648E+03 -0.69543965625E+01  0.35875459072E+03  0.93076819709E+02 0.  0.
         23    2    4    4    0    0  0.27659335143E+03 -0.91089936874E+02  0.68903936253E+03  0.75364004981E+03  0.91634179810E+02 0.  0.
          2    1    3    3  502    0  0.39050140669E+02 -0.75085348739E+02 -0.54132599602E+02  0.10046422956E+03  0.00000000000E+00 0. -1.
         -1    1    3    3    0  502 -0.29124612003E+02 -0.28504270870E+02 -0.64149882063E+02  0.75999630597E+02  0.00000000000E+00 0.  1.
         11    1    5    5    0    0 -0.13875550587E+03  0.48169828968E+02  0.22512319967E+02  0.14859417009E+03  0.00000000000E+00 0. -1.
        -11    1    5    5    0    0 -0.14776337422E+03  0.14650972752E+03 -0.29466716530E+02  0.21016042063E+03  0.00000000000E+00 0.  1.
          4    1    6    6  503    0  0.81226582862E+02  0.12182725705E+02  0.22884044369E+03  0.24313396562E+03  0.00000000000E+00 0. -1.
         -4    1    6    6    0  503  0.19536676857E+03 -0.10327266258E+03  0.46019891884E+03  0.51050608419E+03  0.00000000000E+00 0.  1.
<mgrwt>
<rscale>  0 0.11590009E+04</rscale>
<asrwt>0</asrwt>
<pdfrwt beam="1">  1        2 0.14251238E+00 0.11590009E+04</pdfrwt>
<pdfrwt beam="2">  1       -3 0.55773540E-01 0.11590009E+04</pdfrwt>
<totfact> 0.56095500E+01</totfact>
</mgrwt>
</event>
<event>
12    6  0.1521603E-007  0.2701427E+04  0.7818608E-02  0.8334542E-01
         -1   -1    0    0    0  501 -0.00000000000E+00  0.00000000000E+00  0.17214038539E+04  0.17214038539E+04  0.00000000000E+00 0.  1.
          2   -1    0    0  501    0  0.00000000000E+00 -0.00000000000E+00 -0.10598480804E+04  0.10598480804E+04  0.00000000000E+00 0. -1.
         24    2    1    2    0    0  0.63281011653E+03  0.10418632307E+03  0.13362409472E+04  0.14841687383E+04  0.76899552107E+02 0.  0.
        254    2    1    2    0    0 -0.63281011653E+03 -0.10418632307E+03 -0.67468517370E+03  0.12970831960E+04  0.90328362116E+03 0.  0.
         23    2    4    4    0    0 -0.34152332232E+03  0.33992160807E+02 -0.84848642438E+03  0.91985038884E+03  0.91661763042E+02 0.  0.
         23    2    4    4    0    0 -0.29128679420E+03 -0.13817848388E+03  0.17380125068E+03  0.37723280717E+03  0.90312934745E+02 0.  0.
          4    1    3    3  502    0  0.67698232834E+02  0.35916303012E+02  0.15175111651E+03  0.17000421440E+03  0.00000000000E+00 0. -1.
         -3    1    3    3    0  502  0.56511188369E+03  0.68270020062E+02  0.11844898307E+04  0.13141645239E+04  0.00000000000E+00 0.  1.
         11    1    5    5    0    0 -0.32098082662E+03  0.53887548896E+02 -0.75713679653E+03  0.82412904794E+03  0.00000000000E+00 0.  1.
        -11    1    5    5    0    0 -0.20542495699E+02 -0.19895388089E+02 -0.91349627845E+02  0.95721340902E+02  0.00000000000E+00 0. -1.
          3    1    6    6  503    0 -0.18491527993E+03 -0.46106413382E+02  0.72629826564E+02  0.20394742904E+03  0.00000000000E+00 0. -1.
         -3    1    6    6    0  503 -0.10637151427E+03 -0.92072070499E+02  0.10117142412E+03  0.17328537813E+03  0.00000000000E+00 0.  1.
<mgrwt>
<rscale>  0 0.27014267E+04</rscale>
<asrwt>0</asrwt>
<pdfrwt beam="1">  1        2 0.16305355E+00 0.27014267E+04</pdfrwt>
<pdfrwt beam="2">  1       -1 0.26483136E+00 0.27014267E+04</pdfrwt>
<totfact> 0.12878160E+00</totfact>
</mgrwt>
</event>
<event>
12    6  0.1521603E-007  0.1191675E+04  0.7818608E-02  0.9120174E-01
         -1   -1    0    0    0  501 -0.00000000000E+00  0.00000000000E+00  0.22635910573E+03  0.22635910573E+03  0.00000000000E+00 0.  1.
          2   -1    0    0  501    0  0.00000000000E+00 -0.00000000000E+00 -0.15684039027E+04  0.15684039027E+04  0.00000000000E+00 0. -1.
         24    2    1    2    0    0 -0.26016580314E+02 -0.24240556090E+03 -0.16064032432E+03  0.30435946849E+03  0.85977054228E+02 0.  0.
        254    2    1    2    0    0  0.26016580314E+02  0.24240556090E+03 -0.11814044727E+04  0.14904035400E+04  0.87529930051E+03 0.  0.
         23    2    4    4    0    0  0.12860460442E+03 -0.78152554300E+02 -0.11232463391E+04  0.11369552813E+04  0.91312690911E+02 0.  0.
         23    2    4    4    0    0 -0.10258802411E+03  0.32055811520E+03 -0.58158133617E+02  0.35344825863E+03  0.90892767091E+02 0.  0.
          2    1    3    3  502    0  0.80978567504E+01 -0.10363900704E+03 -0.11343973771E+03  0.15386745321E+03  0.00000000000E+00 0. -1.
         -1    1    3    3    0  502 -0.34114437064E+02 -0.13876655387E+03 -0.47200586605E+02  0.15049201528E+03  0.00000000000E+00 0.  1.
         11    1    5    5    0    0  0.25975428121E+02 -0.57510970849E+02 -0.60215961729E+03  0.60545721511E+03  0.00000000000E+00 0.  1.
        -11    1    5    5    0    0  0.10262917630E+03 -0.20641583451E+02 -0.52108672177E+03  0.53149806622E+03  0.00000000000E+00 0. -1.
          4    1    6    6  503    0 -0.73029977526E+02  0.94181012154E+02 -0.33651488731E+02  0.12383805296E+03  0.00000000000E+00 0. -1.
         -4    1    6    6    0  503 -0.29558046582E+02  0.22637710305E+03 -0.24506644887E+02  0.22961020567E+03  0.00000000000E+00 0.  1.
<mgrwt>
<rscale>  0 0.11916753E+04</rscale>
<asrwt>0</asrwt>
<pdfrwt beam="1">  1        2 0.24129291E+00 0.11916753E+04</pdfrwt>
<pdfrwt beam="2">  1       -1 0.34824477E-01 0.11916753E+04</pdfrwt>
<totfact> 0.10226990E+02</totfact>
</mgrwt>
</event>
<event>
12    6  0.1666728E-007  0.2016390E+04  0.7818608E-02  0.8598996E-01
          2   -1    0    0  501    0  0.00000000000E+00  0.00000000000E+00  0.19250593063E+04  0.19250593063E+04  0.00000000000E+00 0. -1.
         -1   -1    0    0    0  501 -0.00000000000E+00 -0.00000000000E+00 -0.52801356579E+03  0.52801356579E+03  0.00000000000E+00 0.  1.
         24    2    1    2    0    0  0.34466453963E+03  0.73157386026E+03  0.60974334608E+03  0.10164049627E+04  0.85429164959E+02 0.  0.
        254    2    1    2    0    0 -0.34466453963E+03 -0.73157386026E+03  0.78730239446E+03  0.14366679094E+04  0.88891825482E+03 0.  0.
         23    2    4    4    0    0 -0.13764791893E+03 -0.57039971012E+03  0.94593982588E+03  0.11169124120E+04  0.91588224856E+02 0.  0.
         23    2    4    4    0    0 -0.20701662069E+03 -0.16117415014E+03 -0.15863743143E+03  0.31975549745E+03  0.90800636462E+02 0.  0.
          4    1    3    3  502    0  0.26680482063E+03  0.57055417163E+03  0.42865225869E+03  0.76187901530E+03  0.00000000000E+00 0. -1.
         -3    1    3    3    0  502  0.77859718992E+02  0.16101968864E+03  0.18109108739E+03  0.25452594740E+03  0.00000000000E+00 0.  1.
         11    1    5    5    0    0 -0.12713639304E+02 -0.23828711677E+03  0.35994664836E+03  0.43186106135E+03  0.00000000000E+00 0. -1.
        -11    1    5    5    0    0 -0.12493427963E+03 -0.33211259336E+03  0.58599317752E+03  0.68505135062E+03  0.00000000000E+00 0.  1.
          3    1    6    6  503    0 -0.17525623436E+03 -0.86002428861E+02 -0.10060363485E+03  0.21961843455E+03  0.00000000000E+00 0. -1.
         -3    1    6    6    0  503 -0.31760386339E+02 -0.75171721277E+02 -0.58033796573E+02  0.10013706289E+03  0.00000000000E+00 0.  1.
<mgrwt>
<rscale>  0 0.20163903E+04</rscale>
<asrwt>0</asrwt>
<pdfrwt beam="1">  1        2 0.29616297E+00 0.20163903E+04</pdfrwt>
<pdfrwt beam="2">  1       -1 0.81232857E-01 0.20163903E+04</pdfrwt>
<totfact> 0.11728373E+01</totfact>
</mgrwt>
</event>
<event>
12    6  0.1521603E-007  0.1870264E+04  0.7818608E-02  0.8669801E-01
         -1   -1    0    0    0  501 -0.00000000000E+00  0.00000000000E+00  0.45612087080E+03  0.45612087080E+03  0.00000000000E+00 0.  1.
          2   -1    0    0  501    0  0.00000000000E+00 -0.00000000000E+00 -0.19171937116E+04  0.19171937116E+04  0.00000000000E+00 0. -1.
         24    2    1    2    0    0  0.52779999162E+03 -0.33019684930E+03 -0.96496411512E+02  0.63517895256E+03  0.80857615004E+02 0.  0.
        254    2    1    2    0    0 -0.52779999162E+03  0.33019684930E+03 -0.13645764293E+04  0.17381356299E+04  0.87831876100E+03 0.  0.
         23    2    4    4    0    0  0.16057032730E+03 -0.13620659760E+03 -0.39502800218E+03  0.45759831680E+03  0.94942244524E+02 0.  0.
         23    2    4    4    0    0 -0.68837031892E+03  0.46640344691E+03 -0.96954842713E+03  0.12805373131E+04  0.91464672527E+02 0.  0.
          4    1    3    3  502    0  0.22161134243E+03 -0.16440779573E+03 -0.86333390591E+01  0.27607253564E+03  0.00000000000E+00 0. -1.
         -1    1    3    3    0  502  0.30618864919E+03 -0.16578905357E+03 -0.87863072453E+02  0.35910641692E+03  0.00000000000E+00 0.  1.
         11    1    5    5    0    0  0.84359075880E+02 -0.96476740810E+02 -0.31536807231E+03  0.34041333146E+03  0.00000000000E+00 0. -1.
        -11    1    5    5    0    0  0.76211251423E+02 -0.39729856792E+02 -0.79659929870E+02  0.11718498535E+03  0.00000000000E+00 0.  1.
          1    1    6    6  503    0 -0.11422628123E+03  0.11278645342E+03 -0.15560466645E+03  0.22356484433E+03  0.00000000000E+00 0. -1.
         -1    1    6    6    0  503 -0.57414403768E+03  0.35361699349E+03 -0.81394376068E+03  0.10569724687E+04  0.00000000000E+00 0.  1.
<mgrwt>
<rscale>  0 0.18702642E+04</rscale>
<asrwt>0</asrwt>
<pdfrwt beam="1">  1        2 0.29495288E+00 0.18702642E+04</pdfrwt>
<pdfrwt beam="2">  1       -1 0.70172441E-01 0.18702642E+04</pdfrwt>
<totfact> 0.16301746E+01</totfact>
</mgrwt>
</event>
<event>
12    6  0.1521603E-007  0.1980878E+04  0.7818608E-02  0.8615613E-01
         -1   -1    0    0    0  501 -0.00000000000E+00  0.00000000000E+00  0.19982520971E+03  0.19982520971E+03  0.00000000000E+00 0.  1.
          2   -1    0    0  501    0  0.00000000000E+00 -0.00000000000E+00 -0.49091388904E+04  0.49091388904E+04  0.00000000000E+00 0. -1.
         24    2    1    2    0    0  0.72636769604E+03 -0.10219660376E+03 -0.12239646644E+04  0.14291599254E+04  0.79714597949E+02 0.  0.
        254    2    1    2    0    0 -0.72636769604E+03  0.10219660376E+03 -0.34853490163E+04  0.36798041747E+04  0.92479555737E+03 0.  0.
         23    2    4    4    0    0 -0.88727784090E+03  0.14455472668E+03 -0.21593605763E+04  0.23404958748E+04  0.83215418247E+02 0.  0.
         23    2    4    4    0    0  0.16091014487E+03 -0.42358122915E+02 -0.13259884400E+04  0.13393082998E+04  0.88403018274E+02 0.  0.
          4    1    3    3  502    0  0.96709321301E+02 -0.41545050135E+02 -0.17752001671E+03  0.20637839119E+03  0.00000000000E+00 0. -1.
         -3    1    3    3    0  502  0.62965837474E+03 -0.60651553627E+02 -0.10464446477E+04  0.12227815343E+04  0.00000000000E+00 0.  1.
         11    1    5    5    0    0 -0.28458138833E+03  0.94776475843E+01 -0.64808353349E+03  0.70787616061E+03  0.00000000000E+00 0. -1.
        -11    1    5    5    0    0 -0.60269645257E+03  0.13507707909E+03 -0.15112770428E+04  0.16326197142E+04  0.00000000000E+00 0.  1.
          3    1    6    6  503    0 -0.67617459730E+01  0.91201289705E+01 -0.47138556862E+02  0.48486508475E+02  0.00000000000E+00 0. -1.
         -3    1    6    6    0  503  0.16767189084E+03 -0.51478251885E+02 -0.12788498832E+04  0.12908217914E+04  0.00000000000E+00 0.  1.
<mgrwt>
<rscale>  0 0.19808783E+04</rscale>
<asrwt>0</asrwt>
<pdfrwt beam="1">  1        2 0.75525209E+00 0.19808783E+04</pdfrwt>
<pdfrwt beam="2">  1       -1 0.30742342E-01 0.19808783E+04</pdfrwt>
<totfact> 0.47108933E-01</totfact>
</mgrwt>
</event>
<event>
12    6  0.1521603E-007  0.1531907E+04  0.7818608E-02  0.8863508E-01
          2   -1    0    0  501    0  0.00000000000E+00  0.00000000000E+00  0.13300088200E+04  0.13300088200E+04  0.00000000000E+00 0. -1.
         -1   -1    0    0    0  501 -0.00000000000E+00 -0.00000000000E+00 -0.44111363645E+03  0.44111363645E+03  0.00000000000E+00 0.  1.
         24    2    1    2    0    0 -0.29469051725E+03  0.18080245084E+03  0.70490113892E+03  0.78956621976E+03  0.83649103714E+02 0.  0.
        254    2    1    2    0    0  0.29469051725E+03 -0.18080245084E+03  0.18399404466E+03  0.98155623671E+03  0.90003711600E+03 0.  0.
         23    2    4    4    0    0 -0.15286009244E+03 -0.34869151322E+03  0.28487814277E+03  0.48436264698E+03  0.92193483001E+02 0.  0.
         23    2    4    4    0    0  0.44755060969E+03  0.16788906238E+03 -0.10088409812E+03  0.49719358973E+03  0.92388196840E+02 0.  0.
          2    1    3    3  502    0 -0.16256288481E+03  0.13101976782E+03  0.48760808801E+03  0.53042861778E+03  0.00000000000E+00 0. -1.
         -1    1    3    3    0  502 -0.13212763244E+03  0.49782683020E+02  0.21729305092E+03  0.25913760198E+03  0.00000000000E+00 0.  1.
         11    1    5    5    0    0  0.77184832983E+00 -0.81645497265E+02  0.80441404422E+02  0.11461850862E+03  0.00000000000E+00 0.  1.
        -11    1    5    5    0    0 -0.15363194077E+03 -0.26704601595E+03  0.20443673835E+03  0.36974413836E+03  0.00000000000E+00 0. -1.
          2    1    6    6  503    0  0.40195225107E+03  0.11852871052E+03 -0.78410526577E+02  0.42633657834E+03  0.00000000000E+00 0. -1.
         -2    1    6    6    0  503  0.45598358623E+02  0.49360351862E+02 -0.22473571539E+02  0.70857011388E+02  0.00000000000E+00 0.  1.
<mgrwt>
<rscale>  0 0.15319073E+04</rscale>
<asrwt>0</asrwt>
<pdfrwt beam="1">  1        2 0.20461674E+00 0.15319073E+04</pdfrwt>
<pdfrwt beam="2">  1       -1 0.67863637E-01 0.15319073E+04</pdfrwt>
<totfact> 0.38359196E+01</totfact>
</mgrwt>
</event>
<event>
12    6  0.1521603E-007  0.1558644E+04  0.7818608E-02  0.8846365E-01
          2   -1    0    0  501    0  0.00000000000E+00  0.00000000000E+00  0.15538268247E+04  0.15538268247E+04  0.00000000000E+00 0. -1.
         -1   -1    0    0    0  501 -0.00000000000E+00 -0.00000000000E+00 -0.39086915210E+03  0.39086915210E+03  0.00000000000E+00 0.  1.
         24    2    1    2    0    0  0.29059893066E+02  0.43743942899E+03  0.53142810456E+02  0.44849853215E+03  0.78288208665E+02 0.  0.
        254    2    1    2    0    0 -0.29059893066E+02 -0.43743942899E+03  0.11098148621E+04  0.14961974446E+04  0.90261843196E+03 0.  0.
         23    2    4    4    0    0 -0.88427596707E+02 -0.53031346654E+03  0.12064598938E+04  0.13240363188E+04  0.92059141027E+02 0.  0.
         23    2    4    4    0    0  0.59367703641E+02  0.92874037547E+02 -0.96645031673E+02  0.17216112585E+03  0.90272254998E+02 0.  0.
          4    1    3    3  502    0  0.23507631253E+02  0.39598877504E+02  0.16572680596E+02  0.48942145119E+02  0.00000000000E+00 0. -1.
         -3    1    3    3    0  502  0.55522618127E+01  0.39784055149E+03  0.36570129860E+02  0.39955638703E+03  0.00000000000E+00 0.  1.
         11    1    5    5    0    0 -0.52979226593E+02 -0.97980580554E+02  0.22947573684E+03  0.25508058808E+03  0.00000000000E+00 0.  1.
        -11    1    5    5    0    0 -0.35448370114E+02 -0.43233288598E+03  0.97698415696E+03  0.10689557307E+04  0.00000000000E+00 0. -1.
          3    1    6    6  503    0  0.25169590597E+01 -0.11400943219E+01 -0.54372534509E+02  0.54442698380E+02  0.00000000000E+00 0. -1.
         -3    1    6    6    0  503  0.56850744581E+02  0.94014131869E+02 -0.42272497164E+02  0.11771842747E+03  0.00000000000E+00 0.  1.
<mgrwt>
<rscale>  0 0.15586442E+04</rscale>
<asrwt>0</asrwt>
<pdfrwt beam="1">  1        2 0.23905028E+00 0.15586442E+04</pdfrwt>
<pdfrwt beam="2">  1       -1 0.60133716E-01 0.15586442E+04</pdfrwt>
<totfact> 0.36379889E+01</totfact>
</mgrwt>
</event>
<event>
12    6  0.1521603E-007  0.1173649E+04  0.7818608E-02  0.9136240E-01
         -1   -1    0    0    0  501 -0.00000000000E+00  0.00000000000E+00  0.99912956785E+02  0.99912956785E+02  0.00000000000E+00 0.  1.
          2   -1    0    0  501    0  0.00000000000E+00 -0.00000000000E+00 -0.34466279812E+04  0.34466279812E+04  0.00000000000E+00 0. -1.
         24    2    1    2    0    0 -0.48866743069E+02  0.72884221835E+02 -0.13333662743E+04  0.13385771269E+04  0.78886215938E+02 0.  0.
        254    2    1    2    0    0  0.48866743069E+02 -0.72884221835E+02 -0.20133487501E+04  0.22079638110E+04  0.90212578543E+03 0.  0.
         23    2    4    4    0    0 -0.93952876386E+02 -0.17480536806E+03 -0.19979018046E+04  0.20098546120E+04  0.92303202025E+02 0.  0.
         23    2    4    4    0    0  0.14281961946E+03  0.10192114622E+03 -0.15446945542E+02  0.19810919897E+03  0.90682318246E+02 0.  0.
          2    1    3    3  502    0 -0.54172024574E+02  0.87214144969E+02 -0.11728971405E+04  0.11773821035E+04  0.00000000000E+00 0. -1.
         -3    1    3    3    0  502  0.53052815048E+01 -0.14329923134E+02 -0.16046913372E+03  0.16119502346E+03  0.00000000000E+00 0.  1.
         11    1    5    5    0    0 -0.61227875551E+02 -0.26029584777E+02 -0.61428691895E+03  0.61787928499E+03  0.00000000000E+00 0. -1.
        -11    1    5    5    0    0 -0.32725000835E+02 -0.14877578328E+03 -0.13836148856E+04  0.13919753270E+04  0.00000000000E+00 0.  1.
          2    1    6    6  503    0  0.12266633489E+03  0.46118659411E+02 -0.34995243222E+02  0.13564154050E+03  0.00000000000E+00 0. -1.
         -2    1    6    6    0  503  0.20153284570E+02  0.55802486811E+02  0.19548297680E+02  0.62467658476E+02  0.00000000000E+00 0.  1.
<mgrwt>
<rscale>  0 0.11736487E+04</rscale>
<asrwt>0</asrwt>
<pdfrwt beam="1">  1        2 0.53025040E+00 0.11736487E+04</pdfrwt>
<pdfrwt beam="2">  1       -1 0.15371226E-01 0.11736487E+04</pdfrwt>
<totfact> 0.32345019E+01</totfact>
</mgrwt>
</event>
<event>
12    6  0.1521603E-007  0.1397255E+04  0.7818608E-02  0.8955808E-01
          2   -1    0    0  501    0  0.00000000000E+00  0.00000000000E+00  0.86905510072E+03  0.86905510072E+03  0.00000000000E+00 0. -1.
         -1   -1    0    0    0  501 -0.00000000000E+00 -0.00000000000E+00 -0.56162165625E+03  0.56162165625E+03  0.00000000000E+00 0.  1.
         24    2    1    2    0    0 -0.62093669772E+02  0.22502136941E+03 -0.11504150596E+03  0.27213184685E+03  0.79567288870E+02 0.  0.
        254    2    1    2    0    0  0.62093669772E+02 -0.22502136941E+03  0.42247495044E+03  0.11585449101E+04  0.10532098483E+04 0.  0.
         23    2    4    4    0    0 -0.17955381301E+03  0.21425229600E+03  0.55672467538E+03  0.62938079658E+03  0.89633725902E+02 0.  0.
         23    2    4    4    0    0  0.24164748278E+03 -0.43927366541E+03 -0.13424972494E+03  0.52916411354E+03  0.10313491824E+03 0.  0.
          4    1    3    3  502    0 -0.41789038868E+02  0.93178544818E+02 -0.90593574711E+02  0.13651285933E+03  0.00000000000E+00 0. -1.
         -3    1    3    3    0  502 -0.20304630904E+02  0.13184282459E+03 -0.24447931249E+02  0.13561898752E+03  0.00000000000E+00 0.  1.
         11    1    5    5    0    0 -0.75870935652E+02  0.12872958924E+03  0.37238737698E+03  0.40124813340E+03  0.00000000000E+00 0.  1.
        -11    1    5    5    0    0 -0.10368287736E+03  0.85522706753E+02  0.18433729840E+03  0.22813266318E+03  0.00000000000E+00 0. -1.
          3    1    6    6  503    0  0.23590029067E+03 -0.35943202434E+03 -0.96338077962E+02  0.44059204773E+03  0.00000000000E+00 0. -1.
         -3    1    6    6    0  503  0.57471921138E+01 -0.79841641070E+02 -0.37911646980E+02  0.88572065815E+02  0.00000000000E+00 0.  1.
<mgrwt>
<rscale>  0 0.13972547E+04</rscale>
<asrwt>0</asrwt>
<pdfrwt beam="1">  1        2 0.13370078E+00 0.13972547E+04</pdfrwt>
<pdfrwt beam="2">  1       -1 0.86403332E-01 0.13972547E+04</pdfrwt>
<totfact> 0.45210402E+01</totfact>
</mgrwt>
</event>
<event>
12    6  0.1521603E-007  0.2623248E+04  0.7818608E-02  0.8360347E-01
         -1   -1    0    0    0  501 -0.00000000000E+00  0.00000000000E+00  0.52981513766E+03  0.52981513766E+03  0.00000000000E+00 0.  1.
          2   -1    0    0  501    0  0.00000000000E+00 -0.00000000000E+00 -0.32470911245E+04  0.32470911245E+04  0.00000000000E+00 0. -1.
         24    2    1    2    0    0 -0.46654881195E+03 -0.52254482680E+03  0.12304192041E+03  0.71589782419E+03  0.81544408472E+02 0.  0.
        254    2    1    2    0    0  0.46654881195E+03  0.52254482680E+03 -0.28403179072E+04  0.30610084379E+04  0.90091395432E+03 0.  0.
         23    2    4    4    0    0  0.53613464545E+03 -0.52923979944E+02 -0.15483310776E+04  0.16418260553E+04  0.89567651531E+02 0.  0.
         23    2    4    4    0    0 -0.69585833494E+02  0.57546880674E+03 -0.12919868296E+04  0.14191823827E+04  0.94032609236E+02 0.  0.
          2    1    3    3  502    0 -0.27010607482E+02 -0.15317760178E+02  0.19809189479E+02  0.36832196259E+02  0.00000000000E+00 0. -1.
         -1    1    3    3    0  502 -0.43953820447E+03 -0.50722706662E+03  0.10323273093E+03  0.67906562793E+03  0.00000000000E+00 0.  1.
         11    1    5    5    0    0  0.41404078392E+03 -0.77177814545E+02 -0.11653781421E+04  0.12391498698E+04  0.00000000000E+00 0.  1.
        -11    1    5    5    0    0  0.12209386152E+03  0.24253834601E+02 -0.38295293547E+03  0.40267618541E+03  0.00000000000E+00 0. -1.
          2    1    6    6  503    0 -0.72348039804E+02  0.27516474778E+03 -0.56455924360E+03  0.63220013984E+03  0.00000000000E+00 0. -1.
         -2    1    6    6    0  503  0.27622063097E+01  0.30030405896E+03 -0.72742758603E+03  0.78698224283E+03  0.00000000000E+00 0.  1.
<mgrwt>
<rscale>  0 0.26232484E+04</rscale>
<asrwt>0</asrwt>
<pdfrwt beam="1">  1        2 0.49955248E+00 0.26232484E+04</pdfrwt>
<pdfrwt beam="2">  1       -1 0.81510021E-01 0.26232484E+04</pdfrwt>
<totfact> 0.18170101E+00</totfact>
</mgrwt>
</event>
<event>
12    6  0.1521603E-007  0.1236120E+04  0.7818608E-02  0.9081816E-01
          2   -1    0    0  501    0  0.00000000000E+00  0.00000000000E+00  0.52001149000E+03  0.52001149000E+03  0.00000000000E+00 0. -1.
         -1   -1    0    0    0  501 -0.00000000000E+00 -0.00000000000E+00 -0.73459514256E+03  0.73459514256E+03  0.00000000000E+00 0.  1.
         24    2    1    2    0    0 -0.23928152629E+03  0.54092280515E+02  0.77852552604E+02  0.26890630196E+03  0.77897083709E+02 0.  0.
        254    2    1    2    0    0  0.23928152629E+03 -0.54092280515E+02 -0.29243620517E+03  0.98570033060E+03  0.90879292692E+03 0.  0.
         23    2    4    4    0    0  0.35681535008E+03 -0.34038666834E+03  0.61821218941E+02  0.50653837922E+03  0.97872306977E+02 0.  0.
         23    2    4    4    0    0 -0.11753382379E+03  0.28629438782E+03 -0.35425742411E+03  0.47916195138E+03  0.91209521866E+02 0.  0.
          4    1    3    3  502    0 -0.19778489798E+03  0.17817513269E+02  0.79141073847E+02  0.21377473943E+03  0.00000000000E+00 0. -1.
         -1    1    3    3    0  502 -0.41496628309E+02  0.36274767246E+02 -0.12885212432E+01  0.55131562528E+02  0.00000000000E+00 0.  1.
         11    1    5    5    0    0  0.30120297640E+03 -0.28416496163E+03  0.87803803225E+02  0.42329949949E+03  0.00000000000E+00 0. -1.
        -11    1    5    5    0    0  0.55612373679E+02 -0.56221706710E+02 -0.25982584285E+02  0.83238879724E+02  0.00000000000E+00 0.  1.
          2    1    6    6  503    0 -0.37816072769E+02  0.20570923869E+03 -0.23626556843E+03  0.31554360248E+03  0.00000000000E+00 0. -1.
         -2    1    6    6    0  503 -0.79717751023E+02  0.80585149129E+02 -0.11799185568E+03  0.16361834890E+03  0.00000000000E+00 0.  1.
<mgrwt>
<rscale>  0 0.12361196E+04</rscale>
<asrwt>0</asrwt>
<pdfrwt beam="1">  1        2 0.80001769E-01 0.12361196E+04</pdfrwt>
<pdfrwt beam="2">  1       -1 0.11301464E+00 0.12361196E+04</pdfrwt>
<totfact> 0.47401883E+01</totfact>
</mgrwt>
</event>
<event>
12    6  0.1521603E-007  0.1118713E+04  0.7818608E-02  0.9187142E-01
          2   -1    0    0  501    0  0.00000000000E+00  0.00000000000E+00  0.15708837403E+04  0.15708837403E+04  0.00000000000E+00 0. -1.
         -1   -1    0    0    0  501 -0.00000000000E+00 -0.00000000000E+00 -0.19917437633E+03  0.19917437633E+03  0.00000000000E+00 0.  1.
         24    2    1    2    0    0 -0.63536768043E+00  0.11323331911E+03  0.13055247748E+02  0.13944391410E+03  0.80324202055E+02 0.  0.
        254    2    1    2    0    0  0.63536768043E+00 -0.11323331911E+03  0.13586541162E+04  0.16306142025E+04  0.89450516027E+03 0.  0.
         23    2    4    4    0    0 -0.77430857795E+02 -0.48508426675E+03  0.62051537649E+03  0.79651801406E+03  0.89996281416E+02 0.  0.
         23    2    4    4    0    0  0.78066225476E+02  0.37185094764E+03  0.73813873973E+03  0.83409618848E+03  0.80623754132E+02 0.  0.
          2    1    3    3  502    0 -0.33458892467E+02  0.21015734328E+02 -0.52603894003E+01  0.39860133857E+02  0.00000000000E+00 0. -1.
         -1    1    3    3    0  502  0.32823524786E+02  0.92217584784E+02  0.18315637148E+02  0.99583780240E+02  0.00000000000E+00 0.  1.
         11    1    5    5    0    0 -0.89806989306E+02 -0.45143566797E+03  0.59618021659E+03  0.75318676853E+03  0.00000000000E+00 0. -1.
        -11    1    5    5    0    0  0.12376131510E+02 -0.33648598783E+02  0.24335159901E+02  0.43331245524E+02  0.00000000000E+00 0.  1.
          2    1    6    6  503    0  0.92704668196E+02  0.32320602971E+03  0.61551753675E+03  0.70136875550E+03  0.00000000000E+00 0. -1.
         -2    1    6    6    0  503 -0.14638442720E+02  0.48644917930E+02  0.12262120297E+03  0.13272743298E+03  0.00000000000E+00 0.  1.
<mgrwt>
<rscale>  0 0.11187132E+04</rscale>
<asrwt>0</asrwt>
<pdfrwt beam="1">  1        2 0.24167441E+00 0.11187132E+04</pdfrwt>
<pdfrwt beam="2">  1       -1 0.30642213E-01 0.11187132E+04</pdfrwt>
<totfact> 0.12855298E+02</totfact>
</mgrwt>
</event>
<event>
12    6  0.1521603E-007  0.3587173E+04  0.7818608E-02  0.8093436E-01
         -1   -1    0    0    0  501 -0.00000000000E+00  0.00000000000E+00  0.11016629387E+04  0.11016629387E+04  0.00000000000E+00 0.  1.
          2   -1    0    0  501    0  0.00000000000E+00 -0.00000000000E+00 -0.29200882859E+04  0.29200882859E+04  0.00000000000E+00 0. -1.
         24    2    1    2    0    0  0.48363909196E+03 -0.14749228190E+04 -0.15719541368E+04  0.22105218591E+04  0.77865190067E+02 0.  0.
        254    2    1    2    0    0 -0.48363909196E+03  0.14749228190E+04 -0.24647121037E+03  0.18112293656E+04  0.90027754830E+03 0.  0.
         23    2    4    4    0    0 -0.23361369537E+03  0.13388669778E+04 -0.46669025037E+03  0.14399386614E+04  0.92105461598E+02 0.  0.
         23    2    4    4    0    0 -0.25002539659E+03  0.13605584121E+03  0.22021904000E+03  0.37129070415E+03  0.91304274513E+02 0.  0.
          4    1    3    3  502    0  0.19985397284E+03 -0.65611779857E+03 -0.64371779359E+03  0.94064061886E+03  0.00000000000E+00 0. -1.
         -1    1    3    3    0  502  0.28378511912E+03 -0.81880502041E+03 -0.92823634325E+03  0.12698812402E+04  0.00000000000E+00 0.  1.
         11    1    5    5    0    0 -0.10028735421E+03  0.81571244760E+03 -0.26289258102E+03  0.86287708264E+03  0.00000000000E+00 0. -1.
        -11    1    5    5    0    0 -0.13332634116E+03  0.52315453016E+03 -0.20379766934E+03  0.57706157878E+03  0.00000000000E+00 0.  1.
          1    1    6    6  503    0 -0.10875730490E+03  0.60747313826E+02  0.41377393318E+02  0.13126490843E+03  0.00000000000E+00 0. -1.
         -1    1    6    6    0  503 -0.14126809169E+03  0.75308527383E+02  0.17884164668E+03  0.24002579573E+03  0.00000000000E+00 0.  1.
<mgrwt>
<rscale>  0 0.35871733E+04</rscale>
<asrwt>0</asrwt>
<pdfrwt beam="1">  1        2 0.44924435E+00 0.35871733E+04</pdfrwt>
<pdfrwt beam="2">  1       -1 0.16948661E+00 0.35871733E+04</pdfrwt>
<totfact> 0.44882274E-01</totfact>
</mgrwt>
</event>
<event>
12    6  0.1521603E-007  0.2003358E+04  0.7818608E-02  0.8605052E-01
          2   -1    0    0  501    0  0.00000000000E+00  0.00000000000E+00  0.17680819460E+04  0.17680819460E+04  0.00000000000E+00 0. -1.
         -1   -1    0    0    0  501 -0.00000000000E+00 -0.00000000000E+00 -0.56748527865E+03  0.56748527865E+03  0.00000000000E+00 0.  1.
         24    2    1    2    0    0  0.46315858363E+03 -0.47092044732E+03  0.10046049769E+04  0.12049033938E+04  0.79240692506E+02 0.  0.
        254    2    1    2    0    0 -0.46315858363E+03  0.47092044732E+03  0.19599169044E+03  0.11306638309E+04  0.89649652228E+03 0.  0.
         23    2    4    4    0    0 -0.62504106932E+03  0.26364260753E+03 -0.13562318782E+03  0.69772944760E+03  0.90823841199E+02 0.  0.
         23    2    4    4    0    0  0.16188248569E+03  0.20727783978E+03  0.33161487825E+03  0.43293438328E+03  0.91069812316E+02 0.  0.
          2    1    3    3  502    0  0.43767114913E+03 -0.42022514367E+03  0.94113377604E+03  0.11197669358E+04  0.00000000000E+00 0. -1.
         -1    1    3    3    0  502  0.25487434505E+02 -0.50695303649E+02  0.63471200882E+02  0.85136457943E+02  0.00000000000E+00 0.  1.
         11    1    5    5    0    0 -0.41978291945E+03  0.20540085727E+03 -0.59110102100E+02  0.47106391902E+03  0.00000000000E+00 0. -1.
        -11    1    5    5    0    0 -0.20525814987E+03  0.58241750263E+02 -0.76513085715E+02  0.22666552858E+03  0.00000000000E+00 0.  1.
          4    1    6    6  503    0  0.81034747213E+02  0.41355232830E+02  0.13931695407E+03  0.16639140372E+03  0.00000000000E+00 0. -1.
         -4    1    6    6    0  503  0.80847738475E+02  0.16592260695E+03  0.19229792418E+03  0.26654297957E+03  0.00000000000E+00 0.  1.
<mgrwt>
<rscale>  0 0.20033577E+04</rscale>
<asrwt>0</asrwt>
<pdfrwt beam="1">  1        2 0.27201260E+00 0.20033577E+04</pdfrwt>
<pdfrwt beam="2">  1       -1 0.87305429E-01 0.20033577E+04</pdfrwt>
<totfact> 0.12278072E+01</totfact>
</mgrwt>
</event>
<event>
12    6  0.1521603E-007  0.1829178E+04  0.7818608E-02  0.8690935E-01
          2   -1    0    0  501    0  0.00000000000E+00  0.00000000000E+00  0.11849275998E+04  0.11849275998E+04  0.00000000000E+00 0. -1.
         -1   -1    0    0    0  501 -0.00000000000E+00 -0.00000000000E+00 -0.70592741479E+03  0.70592741479E+03  0.00000000000E+00 0.  1.
         24    2    1    2    0    0 -0.16448857669E+03  0.15394762321E+03  0.85351678711E+03  0.88642562262E+03  0.80641899790E+02 0.  0.
        254    2    1    2    0    0  0.16448857669E+03 -0.15394762321E+03 -0.37451660209E+03  0.10044293920E+04  0.90435576831E+03 0.  0.
         23    2    4    4    0    0  0.51960150999E+03 -0.97932408637E+01 -0.14088602389E+03  0.54640152920E+03  0.92866154388E+02 0.  0.
         23    2    4    4    0    0 -0.35511293330E+03 -0.14415438234E+03 -0.23363057820E+03  0.45802786278E+03  0.91217293668E+02 0.  0.
          2    1    3    3  502    0 -0.77228412619E+02  0.10428574677E+03  0.59740761894E+03  0.61133919215E+03  0.00000000000E+00 0. -1.
         -1    1    3    3    0  502 -0.87260164071E+02  0.49661876434E+02  0.25610916817E+03  0.27508643047E+03  0.00000000000E+00 0.  1.
         11    1    5    5    0    0  0.10814084429E+03  0.33075410917E+02 -0.15590342383E+02  0.11415552456E+03  0.00000000000E+00 0.  1.
        -11    1    5    5    0    0  0.41146066570E+03 -0.42868651780E+02 -0.12529568150E+03  0.43224600464E+03  0.00000000000E+00 0. -1.
          1    1    6    6  503    0 -0.14451940708E+03 -0.95457408709E+02 -0.13896232101E+03  0.22205517909E+03  0.00000000000E+00 0. -1.
         -1    1    6    6    0  503 -0.21059352622E+03 -0.48696973633E+02 -0.94668257187E+02  0.23597268368E+03  0.00000000000E+00 0.  1.
<mgrwt>
<rscale>  0 0.18291778E+04</rscale>
<asrwt>0</asrwt>
<pdfrwt beam="1">  1        2 0.18229655E+00 0.18291778E+04</pdfrwt>
<pdfrwt beam="2">  1       -1 0.10860422E+00 0.18291778E+04</pdfrwt>
<totfact> 0.16339060E+01</totfact>
</mgrwt>
</event>
<event>
12    6  0.1521603E-007  0.1409970E+04  0.7818608E-02  0.8946633E-01
          2   -1    0    0  501    0  0.00000000000E+00  0.00000000000E+00  0.18190203657E+04  0.18190203657E+04  0.00000000000E+00 0. -1.
         -3   -1    0    0    0  501 -0.00000000000E+00 -0.00000000000E+00 -0.27322624567E+03  0.27322624567E+03  0.00000000000E+00 0.  1.
         24    2    1    2    0    0  0.98609436111E+02 -0.35512126883E+03  0.19257075899E+03  0.42278720816E+03  0.76358298171E+02 0.  0.
        254    2    1    2    0    0 -0.98609436111E+02  0.35512126883E+03  0.13532233610E+04  0.16694594032E+04  0.90556407706E+03 0.  0.
         23    2    4    4    0    0 -0.21549740695E+03  0.22731998338E+03  0.22483931846E+02  0.32433440707E+03  0.81078808418E+02 0.  0.
         23    2    4    4    0    0  0.11688797084E+03  0.12780128545E+03  0.13307394292E+04  0.13451249961E+04  0.92183841007E+02 0.  0.
          4    1    3    3  502    0  0.33585916405E+01 -0.24473412100E+02  0.38571454588E+02  0.45803767822E+02  0.00000000000E+00 0. -1.
         -3    1    3    3    0  502  0.95250844470E+02 -0.33064785673E+03  0.15399930440E+03  0.37698344033E+03  0.00000000000E+00 0.  1.
         11    1    5    5    0    0 -0.41782942201E+02  0.93466861705E+02 -0.90353111291E+01  0.10277891488E+03  0.00000000000E+00 0. -1.
        -11    1    5    5    0    0 -0.17371446475E+03  0.13385312168E+03  0.31519242975E+02  0.22155549220E+03  0.00000000000E+00 0.  1.
          2    1    6    6  503    0 -0.23535485216E+01  0.57760739541E+02  0.37304468227E+03  0.37749725455E+03  0.00000000000E+00 0. -1.
         -2    1    6    6    0  503  0.11924151936E+03  0.70040545905E+02  0.95769474693E+03  0.96762774160E+03  0.00000000000E+00 0.  1.
<mgrwt>
<rscale>  0 0.14099704E+04</rscale>
<asrwt>0</asrwt>
<pdfrwt beam="1">  1        2 0.27984928E+00 0.14099704E+04</pdfrwt>
<pdfrwt beam="2">  1       -3 0.42034808E-01 0.14099704E+04</pdfrwt>
<totfact> 0.29675674E+01</totfact>
</mgrwt>
</event>
<event>
12    6  0.1521603E-007  0.2872315E+04  0.7818608E-02  0.8281162E-01
         -1   -1    0    0    0  501 -0.00000000000E+00  0.00000000000E+00  0.14390095780E+04  0.14390095780E+04  0.00000000000E+00 0.  1.
          2   -1    0    0  501    0  0.00000000000E+00 -0.00000000000E+00 -0.14333115335E+04  0.14333115335E+04  0.00000000000E+00 0. -1.
         24    2    1    2    0    0  0.93864663213E+03 -0.24642982923E+03 -0.85233008827E+03  0.12941278638E+04  0.80716712447E+02 0.  0.
        254    2    1    2    0    0 -0.93864663213E+03  0.24642982923E+03  0.85802813280E+03  0.15781932477E+04  0.90149680517E+03 0.  0.
         23    2    4    4    0    0 -0.61723887178E+03 -0.22804503272E+03  0.18584914002E+03  0.68993576677E+03  0.92103733071E+02 0.  0.
         23    2    4    4    0    0 -0.32140776035E+03  0.47447486195E+03  0.67217899278E+03  0.88825748094E+03  0.93527595296E+02 0.  0.
          2    1    3    3  502    0  0.82009181961E+03 -0.19094075837E+03 -0.75590779145E+03  0.11315500674E+04  0.00000000000E+00 0. -1.
         -1    1    3    3    0  502  0.11855481252E+03 -0.55489070861E+02 -0.96422296821E+02  0.16257779640E+03  0.00000000000E+00 0.  1.
         11    1    5    5    0    0 -0.34354023363E+02  0.80789283778E+01  0.57135678322E+01  0.35750704361E+02  0.00000000000E+00 0. -1.
        -11    1    5    5    0    0 -0.58288484842E+03 -0.23612396110E+03  0.18013557218E+03  0.65418506241E+03  0.00000000000E+00 0.  1.
          3    1    6    6  503    0 -0.11766113336E+03  0.25508769441E+03  0.31002866405E+03  0.41836783657E+03  0.00000000000E+00 0. -1.
         -3    1    6    6    0  503 -0.20374662699E+03  0.21938716754E+03  0.36215032873E+03  0.46988964438E+03  0.00000000000E+00 0.  1.
<mgrwt>
<rscale>  0 0.28723155E+04</rscale>
<asrwt>0</asrwt>
<pdfrwt beam="1">  1        2 0.22050947E+00 0.28723155E+04</pdfrwt>
<pdfrwt beam="2">  1       -1 0.22138609E+00 0.28723155E+04</pdfrwt>
<totfact> 0.14698077E+00</totfact>
</mgrwt>
</event>
<event>
12    6  0.1521603E-007  0.3638866E+04  0.7818608E-02  0.8081646E-01
         -1   -1    0    0    0  501 -0.00000000000E+00  0.00000000000E+00  0.13729935773E+04  0.13729935773E+04  0.00000000000E+00 0.  1.
          2   -1    0    0  501    0  0.00000000000E+00 -0.00000000000E+00 -0.24110361587E+04  0.24110361587E+04  0.00000000000E+00 0. -1.
         24    2    1    2    0    0 -0.75618632668E+03  0.57791667835E+03  0.98310549453E+03  0.13706595310E+04  0.80035546108E+02 0.  0.
        254    2    1    2    0    0  0.75618632668E+03 -0.57791667835E+03 -0.20211480760E+04  0.24133702051E+04  0.91296810123E+03 0.  0.
         23    2    4    4    0    0  0.14446346790E+02  0.17760317222E+03 -0.11905315553E+03  0.23464087582E+03  0.95556805330E+02 0.  0.
         23    2    4    4    0    0  0.74173997989E+03 -0.75551985057E+03 -0.19020949205E+04  0.21787293293E+04  0.88926718801E+02 0.  0.
          2    1    3    3  502    0 -0.27767144151E+03  0.18108217564E+03  0.30089535418E+03  0.44769431305E+03  0.00000000000E+00 0. -1.
         -1    1    3    3    0  502 -0.47851488517E+03  0.39683450270E+03  0.68221014035E+03  0.92296521791E+03  0.00000000000E+00 0.  1.
         11    1    5    5    0    0 -0.10246832074E+02  0.17689991159E+02 -0.58338114813E+02  0.61816413635E+02  0.00000000000E+00 0.  1.
        -11    1    5    5    0    0  0.24693178863E+02  0.15991318106E+03 -0.60715040713E+02  0.17282446218E+03  0.00000000000E+00 0. -1.
          2    1    6    6  503    0  0.64961912633E+03 -0.61569100063E+03 -0.15977046102E+04  0.18313220468E+04  0.00000000000E+00 0. -1.
         -2    1    6    6    0  503  0.92120853565E+02 -0.13982884993E+03 -0.30439031025E+03  0.34740728246E+03  0.00000000000E+00 0.  1.
<mgrwt>
<rscale>  0 0.36388664E+04</rscale>
<asrwt>0</asrwt>
<pdfrwt beam="1">  1        2 0.37092864E+00 0.36388664E+04</pdfrwt>
<pdfrwt beam="2">  1       -1 0.21122978E+00 0.36388664E+04</pdfrwt>
<totfact> 0.45625379E-01</totfact>
</mgrwt>
</event>
<event>
12    6  0.1521603E-007  0.4718073E+04  0.7818608E-02  0.7873533E-01
          2   -1    0    0  501    0  0.00000000000E+00  0.00000000000E+00  0.35576569366E+04  0.35576569366E+04  0.00000000000E+00 0. -1.
         -1   -1    0    0    0  501 -0.00000000000E+00 -0.00000000000E+00 -0.15642465966E+04  0.15642465966E+04  0.00000000000E+00 0.  1.
         24    2    1    2    0    0 -0.19821855905E+03 -0.70373698883E+03  0.32955249982E+04  0.33765904569E+04  0.79635125311E+02 0.  0.
        254    2    1    2    0    0  0.19821855905E+03  0.70373698883E+03 -0.13021146581E+04  0.17453130763E+04  0.90337080141E+03 0.  0.
         23    2    4    4    0    0 -0.85047468576E+02 -0.18446750297E+03 -0.27658644013E+03  0.35625659282E+03  0.95694145567E+02 0.  0.
         23    2    4    4    0    0  0.28326602762E+03  0.88820449180E+03 -0.10255282180E+04  0.13890564835E+04  0.92859715653E+02 0.  0.
          2    1    3    3  502    0 -0.17590301050E+03 -0.60175169769E+03  0.26865143106E+04  0.27586964523E+04  0.00000000000E+00 0. -1.
         -1    1    3    3    0  502 -0.22315548547E+02 -0.10198529114E+03  0.60901068760E+03  0.61789400461E+03  0.00000000000E+00 0.  1.
         11    1    5    5    0    0 -0.73033762164E+02 -0.18415316661E+03 -0.28068815573E+03  0.34355808818E+03  0.00000000000E+00 0.  1.
        -11    1    5    5    0    0 -0.12013706412E+02 -0.31433635435E+00  0.41017155937E+01  0.12698504633E+02  0.00000000000E+00 0. -1.
          2    1    6    6  503    0  0.12552782299E+03  0.27774513270E+03 -0.37272566121E+03  0.48148106049E+03  0.00000000000E+00 0. -1.
         -2    1    6    6    0  503  0.15773820464E+03  0.61045935910E+03 -0.65280255679E+03  0.90757542302E+03  0.00000000000E+00 0.  1.
<mgrwt>
<rscale>  0 0.47180728E+04</rscale>
<asrwt>0</asrwt>
<pdfrwt beam="1">  1        2 0.54733183E+00 0.47180728E+04</pdfrwt>
<pdfrwt beam="2">  1       -1 0.24065332E+00 0.47180728E+04</pdfrwt>
<totfact> 0.50115823E-02</totfact>
</mgrwt>
</event>
<event>
12    6  0.1521603E-007  0.3312217E+04  0.7818608E-02  0.8159794E-01
         -1   -1    0    0    0  501 -0.00000000000E+00  0.00000000000E+00  0.12605790260E+04  0.12605790260E+04  0.00000000000E+00 0.  1.
          2   -1    0    0  501    0  0.00000000000E+00 -0.00000000000E+00 -0.21757427203E+04  0.21757427203E+04  0.00000000000E+00 0. -1.
         24    2    1    2    0    0  0.11243393992E+04 -0.79831894889E+03  0.27356336955E+03  0.14080732626E+04  0.79882206031E+02 0.  0.
        254    2    1    2    0    0 -0.11243393992E+04  0.79831894889E+03 -0.11887270638E+04  0.20282484837E+04  0.89401770153E+03 0.  0.
         23    2    4    4    0    0 -0.45922046500E+03  0.61653714863E+03 -0.10731636684E+04  0.13233411458E+04  0.92466415072E+02 0.  0.
         23    2    4    4    0    0 -0.66511893425E+03  0.18178180026E+03 -0.11556339543E+03  0.70490733793E+03  0.90064627337E+02 0.  0.
          4    1    3    3  502    0  0.94497925174E+03 -0.64978872845E+03  0.20226140840E+03  0.11645260217E+04  0.00000000000E+00 0. -1.
         -3    1    3    3    0  502  0.17936014750E+03 -0.14853022044E+03  0.71301961147E+02  0.24354724092E+03  0.00000000000E+00 0.  1.
         11    1    5    5    0    0 -0.29956943755E+03  0.32826110498E+03 -0.63632889203E+03  0.77615182779E+03  0.00000000000E+00 0. -1.
        -11    1    5    5    0    0 -0.15965102744E+03  0.28827604365E+03 -0.43683477636E+03  0.54718931801E+03  0.00000000000E+00 0.  1.
          3    1    6    6  503    0 -0.48961353718E+03  0.16526399228E+03 -0.60808784274E+02  0.52031847092E+03  0.00000000000E+00 0. -1.
         -3    1    6    6    0  503 -0.17550539707E+03  0.16517807985E+02 -0.54754611155E+02  0.18458886701E+03  0.00000000000E+00 0.  1.
<mgrwt>
<rscale>  0 0.33122172E+04</rscale>
<asrwt>0</asrwt>
<pdfrwt beam="1">  1        2 0.33472965E+00 0.33122172E+04</pdfrwt>
<pdfrwt beam="2">  1       -1 0.19393524E+00 0.33122172E+04</pdfrwt>
<totfact> 0.83834113E-01</totfact>
</mgrwt>
</event>
<event>
12    6  0.1521603E-007  0.1572451E+04  0.7818608E-02  0.8837653E-01
          2   -1    0    0  501    0  0.00000000000E+00  0.00000000000E+00  0.10055526183E+04  0.10055526183E+04  0.00000000000E+00 0. -1.
         -1   -1    0    0    0  501 -0.00000000000E+00 -0.00000000000E+00 -0.61473724779E+03  0.61473724779E+03  0.00000000000E+00 0.  1.
         24    2    1    2    0    0  0.41273501559E+03 -0.31262290811E+03  0.18802682259E+03  0.55696375643E+03  0.82287691631E+02 0.  0.
        254    2    1    2    0    0 -0.41273501559E+03  0.31262290811E+03  0.20278854789E+03  0.10633261096E+04  0.90634206815E+03 0.  0.
         23    2    4    4    0    0 -0.34132702780E+02  0.60876182616E+02  0.49916636600E+03  0.51226507138E+03  0.91528637089E+02 0.  0.
         23    2    4    4    0    0 -0.37860231281E+03  0.25174672550E+03 -0.29637781810E+03  0.55106103825E+03  0.95458534174E+02 0.  0.
          4    1    3    3  502    0  0.13627781270E+03 -0.77691862259E+02  0.91264610462E+02  0.18148525234E+03  0.00000000000E+00 0. -1.
         -3    1    3    3    0  502  0.27645720290E+03 -0.23493104585E+03  0.96762212124E+02  0.37547850409E+03  0.00000000000E+00 0.  1.
         11    1    5    5    0    0 -0.14414441755E+02  0.80462725011E+02  0.29140921238E+03  0.30265715803E+03  0.00000000000E+00 0.  1.
        -11    1    5    5    0    0 -0.19718261026E+02 -0.19586542395E+02  0.20775715362E+03  0.20960791335E+03  0.00000000000E+00 0. -1.
          4    1    6    6  503    0 -0.33626895520E+02 -0.55012657536E+01 -0.17961455691E+02  0.38518124535E+02  0.00000000000E+00 0. -1.
         -4    1    6    6    0  503 -0.34497541729E+03  0.25724799125E+03 -0.27841636241E+03  0.51254291371E+03  0.00000000000E+00 0.  1.
<mgrwt>
<rscale>  0 0.15724511E+04</rscale>
<asrwt>0</asrwt>
<pdfrwt beam="1">  1        2 0.15470040E+00 0.15724511E+04</pdfrwt>
<pdfrwt beam="2">  1       -1 0.94574961E-01 0.15724511E+04</pdfrwt>
<totfact> 0.29631201E+01</totfact>
</mgrwt>
</event>
<event>
12    6  0.1521603E-007  0.1714062E+04  0.7818608E-02  0.8753385E-01
          2   -1    0    0  501    0  0.00000000000E+00  0.00000000000E+00  0.10003046340E+04  0.10003046340E+04  0.00000000000E+00 0. -1.
         -1   -1    0    0    0  501 -0.00000000000E+00 -0.00000000000E+00 -0.73427829017E+03  0.73427829017E+03  0.00000000000E+00 0.  1.
         24    2    1    2    0    0  0.35917354370E+03  0.49682214399E+03  0.17232774241E+03  0.64521396295E+03  0.10376092679E+03 0.  0.
        254    2    1    2    0    0 -0.35917354370E+03 -0.49682214399E+03  0.93698601452E+02  0.10893689613E+04  0.89560450455E+03 0.  0.
         23    2    4    4    0    0  0.10262087117E+03 -0.12180890971E+02 -0.28461329323E+03  0.31504251588E+03  0.86992199802E+02 0.  0.
         23    2    4    4    0    0 -0.46179441487E+03 -0.48464125302E+03  0.37831189468E+03  0.77432644537E+03  0.91270633894E+02 0.  0.
          4    1    3    3  502    0  0.34143254681E+03  0.42107622528E+03  0.16694626162E+03  0.56723225030E+03  0.00000000000E+00 0. -1.
         -3    1    3    3    0  502  0.17740996895E+02  0.75745918715E+02  0.53814807982E+01  0.77981712654E+02  0.00000000000E+00 0.  1.
         11    1    5    5    0    0  0.32450019446E+02  0.35196114822E+02 -0.75007823261E+02  0.88982828742E+02  0.00000000000E+00 0. -1.
        -11    1    5    5    0    0  0.70170851721E+02 -0.47377005793E+02 -0.20960546997E+03  0.22605968714E+03  0.00000000000E+00 0.  1.
          1    1    6    6  503    0 -0.29191344474E+03 -0.36414481896E+03  0.27696967539E+03  0.54270351895E+03  0.00000000000E+00 0. -1.
         -1    1    6    6    0  503 -0.16988097013E+03 -0.12049643406E+03  0.10134221929E+03  0.23162292642E+03  0.00000000000E+00 0.  1.
<mgrwt>
<rscale>  0 0.17140618E+04</rscale>
<asrwt>0</asrwt>
<pdfrwt beam="1">  1        2 0.15389302E+00 0.17140618E+04</pdfrwt>
<pdfrwt beam="2">  1       -1 0.11296589E+00 0.17140618E+04</pdfrwt>
<totfact> 0.19562783E+01</totfact>
</mgrwt>
</event>
<event>
12    6  0.1521603E-007  0.2017939E+04  0.7818608E-02  0.8598279E-01
         -1   -1    0    0    0  501 -0.00000000000E+00  0.00000000000E+00  0.33629465809E+03  0.33629465809E+03  0.00000000000E+00 0.  1.
          2   -1    0    0  501    0  0.00000000000E+00 -0.00000000000E+00 -0.30271659998E+04  0.30271659998E+04  0.00000000000E+00 0. -1.
         24    2    1    2    0    0  0.39861782776E+03 -0.27639412877E+03 -0.21536878606E+04  0.22090823122E+04  0.79896021078E+02 0.  0.
        254    2    1    2    0    0 -0.39861782776E+03  0.27639412877E+03 -0.53718348105E+03  0.11543783456E+04  0.89929604999E+03 0.  0.
         23    2    4    4    0    0  0.26411645908E+03 -0.31066492051E+02 -0.10628658408E+03  0.30095828122E+03  0.92500909159E+02 0.  0.
         23    2    4    4    0    0 -0.66273428684E+03  0.30746062082E+03 -0.43089689697E+03  0.85342006441E+03  0.94365789433E+02 0.  0.
          4    1    3    3  502    0  0.34064332579E+03 -0.26666759388E+03 -0.18743685290E+04  0.19236441624E+04  0.00000000000E+00 0. -1.
         -3    1    3    3    0  502  0.57974501966E+02 -0.97265348880E+01 -0.27931933161E+03  0.28543814982E+03  0.00000000000E+00 0.  1.
         11    1    5    5    0    0  0.35987008074E+02  0.77431662614E+01  0.14932536646E+02  0.39724073614E+02  0.00000000000E+00 0. -1.
        -11    1    5    5    0    0  0.22812945100E+03 -0.38809658312E+02 -0.12121912072E+03  0.26123420760E+03  0.00000000000E+00 0.  1.
          3    1    6    6  503    0 -0.74972510795E+02  0.69877345848E+02 -0.53179562536E+02  0.11546335656E+03  0.00000000000E+00 0. -1.
         -3    1    6    6    0  503 -0.58776177604E+03  0.23758327497E+03 -0.37771733444E+03  0.73795670785E+03  0.00000000000E+00 0.  1.
<mgrwt>
<rscale>  0 0.20179393E+04</rscale>
<asrwt>0</asrwt>
<pdfrwt beam="1">  1        2 0.46571785E+00 0.20179393E+04</pdfrwt>
<pdfrwt beam="2">  1       -1 0.51737640E-01 0.20179393E+04</pdfrwt>
<totfact> 0.66620222E+00</totfact>
</mgrwt>
</event>
<event>
12    6  0.1521603E-007  0.3419618E+04  0.7818608E-02  0.8133108E-01
          2   -1    0    0  501    0  0.00000000000E+00  0.00000000000E+00  0.28478938782E+04  0.28478938782E+04  0.00000000000E+00 0. -1.
         -1   -1    0    0    0  501 -0.00000000000E+00 -0.00000000000E+00 -0.10265293056E+04  0.10265293056E+04  0.00000000000E+00 0.  1.
         24    2    1    2    0    0 -0.92900031850E+03 -0.56835516098E+03 -0.46670088354E+03  0.11875007553E+04  0.79241077155E+02 0.  0.
        254    2    1    2    0    0  0.92900031850E+03  0.56835516098E+03  0.22880654562E+04  0.26869224286E+04  0.89344245732E+03 0.  0.
         23    2    4    4    0    0  0.10252759649E+04  0.66995021827E+03  0.18796438470E+04  0.22452603144E+04  0.90048814981E+02 0.  0.
         23    2    4    4    0    0 -0.96275646378E+02 -0.10159505729E+03  0.40842160921E+03  0.44166211411E+03  0.93094878574E+02 0.  0.
          2    1    3    3  502    0 -0.65173629180E+03 -0.41219526246E+03 -0.29275300009E+03  0.82484510516E+03  0.00000000000E+00 0. -1.
         -1    1    3    3    0  502 -0.27726402670E+03 -0.15615989852E+03 -0.17394788345E+03  0.36265565012E+03  0.00000000000E+00 0.  1.
         11    1    5    5    0    0  0.96003856243E+03  0.61188992503E+03  0.17780429052E+04  0.21112839445E+04  0.00000000000E+00 0. -1.
        -11    1    5    5    0    0  0.65237402451E+02  0.58060293234E+02  0.10160094181E+03  0.13397636995E+03  0.00000000000E+00 0.  1.
          3    1    6    6  503    0 -0.77431761700E+02 -0.38645056275E+02  0.32001552516E+03  0.33151026294E+03  0.00000000000E+00 0. -1.
         -3    1    6    6    0  503 -0.18843884678E+02 -0.62950001017E+02  0.88406084058E+02  0.11015185117E+03  0.00000000000E+00 0.  1.
<mgrwt>
<rscale>  0 0.34196178E+04</rscale>
<asrwt>0</asrwt>
<pdfrwt beam="1">  1        2 0.43813752E+00 0.34196178E+04</pdfrwt>
<pdfrwt beam="2">  1       -1 0.15792759E+00 0.34196178E+04</pdfrwt>
<totfact> 0.61535304E-01</totfact>
</mgrwt>
</event>
<event>
12    6  0.1521603E-007  0.2236569E+04  0.7818608E-02  0.8503360E-01
         -3   -1    0    0    0  501 -0.00000000000E+00  0.00000000000E+00  0.51422024293E+03  0.51422024293E+03  0.00000000000E+00 0.  1.
          2   -1    0    0  501    0  0.00000000000E+00 -0.00000000000E+00 -0.24319543388E+04  0.24319543388E+04  0.00000000000E+00 0. -1.
         24    2    1    2    0    0 -0.80386591626E+03  0.46372372560E+03 -0.60444096222E+03  0.11104382309E+04  0.80523803071E+02 0.  0.
        254    2    1    2    0    0  0.80386591626E+03 -0.46372372560E+03 -0.13132931336E+04  0.18357363508E+04  0.88540893929E+03 0.  0.
         23    2    4    4    0    0  0.80734844511E+03 -0.53140475933E+03 -0.66362903580E+03  0.11760427560E+04  0.92035518801E+02 0.  0.
         23    2    4    4    0    0 -0.34825288538E+01  0.67681033724E+02 -0.64966409780E+03  0.65969359477E+03  0.92408596336E+02 0.  0.
          4    1    3    3  502    0 -0.69141645285E+02  0.15722506289E+02 -0.42369099061E+02  0.82600876944E+02  0.00000000000E+00 0. -1.
         -3    1    3    3    0  502 -0.73472427098E+03  0.44800121931E+03 -0.56207186316E+03  0.10278373540E+04  0.00000000000E+00 0.  1.
         11    1    5    5    0    0  0.41240653396E+03 -0.24804593142E+03 -0.27971284880E+03  0.55663741442E+03  0.00000000000E+00 0.  1.
        -11    1    5    5    0    0  0.39494191116E+03 -0.28335882791E+03 -0.38391618701E+03  0.61940534159E+03  0.00000000000E+00 0. -1.
          1    1    6    6  503    0  0.38665359054E+00  0.71369482351E+02 -0.24984969313E+03  0.25984345608E+03  0.00000000000E+00 0. -1.
         -1    1    6    6    0  503 -0.38691824443E+01 -0.36884486270E+01 -0.39981440467E+03  0.39985013869E+03  0.00000000000E+00 0.  1.
<mgrwt>
<rscale>  0 0.22365689E+04</rscale>
<asrwt>0</asrwt>
<pdfrwt beam="1">  1        2 0.37414682E+00 0.22365689E+04</pdfrwt>
<pdfrwt beam="2">  1       -3 0.79110808E-01 0.22365689E+04</pdfrwt>
<totfact> 0.33169140E+00</totfact>
</mgrwt>
</event>
<event>
12    6  0.1521603E-007  0.1278302E+04  0.7818608E-02  0.9046951E-01
         -1   -1    0    0    0  501 -0.00000000000E+00  0.00000000000E+00  0.17160393407E+03  0.17160393407E+03  0.00000000000E+00 0.  1.
          2   -1    0    0  501    0  0.00000000000E+00 -0.00000000000E+00 -0.23805637039E+04  0.23805637039E+04  0.00000000000E+00 0. -1.
         24    2    1    2    0    0 -0.24109054657E+03  0.41737439770E+02 -0.86667487522E+03  0.90425085918E+03  0.81716653526E+02 0.  0.
        254    2    1    2    0    0  0.24109054657E+03 -0.41737439770E+02 -0.13422848946E+04  0.16479167788E+04  0.92413976543E+03 0.  0.
         23    2    4    4    0    0  0.27002997724E+03  0.37563116298E+02  0.11494837759E+02  0.28791076979E+03  0.91833021029E+02 0.  0.
         23    2    4    4    0    0 -0.28939430665E+02 -0.79300556068E+02 -0.13537797324E+04  0.13600060090E+04  0.98846911608E+02 0.  0.
          2    1    3    3  502    0 -0.22552045298E+03  0.44917099328E+02 -0.85245889034E+03  0.88292875151E+03  0.00000000000E+00 0. -1.
         -1    1    3    3    0  502 -0.15570093589E+02 -0.31796595579E+01 -0.14215984879E+02  0.21322107666E+02  0.00000000000E+00 0.  1.
         11    1    5    5    0    0  0.12804488772E+03  0.62672946741E+01  0.49840713171E+02  0.13754587941E+03  0.00000000000E+00 0. -1.
        -11    1    5    5    0    0  0.14198508952E+03  0.31295821623E+02 -0.38345875412E+02  0.15036489038E+03  0.00000000000E+00 0.  1.
          3    1    6    6  503    0 -0.26740002126E+02 -0.60983079694E+02 -0.13186172816E+04  0.13202975040E+04  0.00000000000E+00 0. -1.
         -3    1    6    6    0  503 -0.21994285393E+01 -0.18317476374E+02 -0.35162450780E+02  0.39708505027E+02  0.00000000000E+00 0.  1.
<mgrwt>
<rscale>  0 0.12783022E+04</rscale>
<asrwt>0</asrwt>
<pdfrwt beam="1">  1        2 0.36624055E+00 0.12783022E+04</pdfrwt>
<pdfrwt beam="2">  1       -1 0.26400607E-01 0.12783022E+04</pdfrwt>
<totfact> 0.58371961E+01</totfact>
</mgrwt>
</event>
<event>
12    6  0.1521603E-007  0.3142276E+04  0.7818608E-02  0.8204231E-01
         -1   -1    0    0    0  501 -0.00000000000E+00  0.00000000000E+00  0.75704916155E+03  0.75704916155E+03  0.00000000000E+00 0.  1.
          2   -1    0    0  501    0  0.00000000000E+00 -0.00000000000E+00 -0.32606520702E+04  0.32606520702E+04  0.00000000000E+00 0. -1.
         24    2    1    2    0    0 -0.86835860332E+03 -0.26322116143E+03 -0.25760539065E+04  0.27323213185E+04  0.78702063125E+02 0.  0.
        254    2    1    2    0    0  0.86835860332E+03  0.26322116143E+03  0.72450997801E+02  0.12853799133E+04  0.90753530540E+03 0.  0.
         23    2    4    4    0    0  0.56199887657E+02 -0.78965895589E+02  0.33348924715E+03  0.36143598222E+03  0.10013416618E+03 0.  0.
         23    2    4    4    0    0  0.81215871566E+03  0.34218705702E+03 -0.26103824935E+03  0.92394393104E+03  0.94008822307E+02 0.  0.
          2    1    3    3  502    0 -0.68065957914E+03 -0.20468389047E+03 -0.19151007353E+04  0.20427441798E+04  0.00000000000E+00 0. -1.
         -1    1    3    3    0  502 -0.18769902417E+03 -0.58537270967E+02 -0.66095317115E+03  0.68957713871E+03  0.00000000000E+00 0.  1.
         11    1    5    5    0    0  0.67843197682E+02 -0.66978133404E+02  0.33110333143E+03  0.34455505498E+03  0.00000000000E+00 0.  1.
        -11    1    5    5    0    0 -0.11643310025E+02 -0.11987762185E+02  0.23859157181E+01  0.16880927236E+02  0.00000000000E+00 0. -1.
          3    1    6    6  503    0  0.51504315379E+02  0.41494390976E+02 -0.27369828434E+01  0.66196450511E+02  0.00000000000E+00 0. -1.
         -3    1    6    6    0  503  0.76065440028E+03  0.30069266605E+03 -0.25830126651E+03  0.85774748053E+03  0.00000000000E+00 0.  1.
<mgrwt>
<rscale>  0 0.31422756E+04</rscale>
<asrwt>0</asrwt>
<pdfrwt beam="1">  1        2 0.50163879E+00 0.31422756E+04</pdfrwt>
<pdfrwt beam="2">  1       -1 0.11646910E+00 0.31422756E+04</pdfrwt>
<totfact> 0.75611839E-01</totfact>
</mgrwt>
</event>
<event>
12    6  0.1521603E-007  0.2136309E+04  0.7818608E-02  0.8545415E-01
         -1   -1    0    0    0  501 -0.00000000000E+00  0.00000000000E+00  0.95897236182E+03  0.95897236182E+03  0.00000000000E+00 0.  1.
          2   -1    0    0  501    0  0.00000000000E+00 -0.00000000000E+00 -0.11897675281E+04  0.11897675281E+04  0.00000000000E+00 0. -1.
         24    2    1    2    0    0  0.19617603375E+03  0.36146037066E+03  0.69085748849E+03  0.80801486430E+03  0.80407187128E+02 0.  0.
        254    2    1    2    0    0 -0.19617603375E+03 -0.36146037066E+03 -0.92165265478E+03  0.13407250256E+04  0.88258786673E+03 0.  0.
         23    2    4    4    0    0  0.27616021783E+03 -0.17478170046E+03 -0.70208159480E+03  0.77971499489E+03  0.90685162975E+02 0.  0.
         23    2    4    4    0    0 -0.47233625158E+03 -0.18667867020E+03 -0.21957105999E+03  0.56101003073E+03  0.92576151023E+02 0.  0.
          2    1    3    3  502    0  0.69182435106E+02  0.13609353087E+03  0.33422123479E+03  0.36743910007E+03  0.00000000000E+00 0. -1.
         -1    1    3    3    0  502  0.12699359864E+03  0.22536683978E+03  0.35663625370E+03  0.44057576423E+03  0.00000000000E+00 0.  1.
         11    1    5    5    0    0  0.21205837068E+03 -0.12985702345E+03 -0.61074715071E+03  0.65942678230E+03  0.00000000000E+00 0. -1.
        -11    1    5    5    0    0  0.64101847150E+02 -0.44924677013E+02 -0.91334444089E+02  0.12028821260E+03  0.00000000000E+00 0.  1.
          3    1    6    6  503    0 -0.44262659070E+03 -0.18198472103E+03 -0.18000811666E+03  0.51131170488E+03  0.00000000000E+00 0. -1.
         -3    1    6    6    0  503 -0.29709660881E+02 -0.46939491692E+01 -0.39562943324E+02  0.49698325856E+02  0.00000000000E+00 0.  1.
<mgrwt>
<rscale>  0 0.21363091E+04</rscale>
<asrwt>0</asrwt>
<pdfrwt beam="1">  1        2 0.18304116E+00 0.21363091E+04</pdfrwt>
<pdfrwt beam="2">  1       -1 0.14753421E+00 0.21363091E+04</pdfrwt>
<totfact> 0.73416011E+00</totfact>
</mgrwt>
</event>
<event>
12    6  0.1521603E-007  0.1844006E+04  0.7818608E-02  0.8683241E-01
         -3   -1    0    0    0  501 -0.00000000000E+00  0.00000000000E+00  0.41176617691E+03  0.41176617691E+03  0.00000000000E+00 0.  1.
          2   -1    0    0  501    0  0.00000000000E+00 -0.00000000000E+00 -0.20644960066E+04  0.20644960066E+04  0.00000000000E+00 0. -1.
         24    2    1    2    0    0  0.24119025082E+03  0.12320575089E+03 -0.14917459132E+04  0.15182517248E+04  0.80187505546E+02 0.  0.
        254    2    1    2    0    0 -0.24119025082E+03 -0.12320575089E+03 -0.16098391649E+03  0.95801045874E+03  0.90471864331E+03 0.  0.
         23    2    4    4    0    0  0.20859986518E+03  0.23629922909E+03  0.61473254636E+02  0.33391030221E+03  0.91465291052E+02 0.  0.
         23    2    4    4    0    0 -0.44979011601E+03 -0.35950497997E+03 -0.22245717112E+03  0.62410015653E+03  0.91971915909E+02 0.  0.
          2    1    3    3  502    0  0.24476500757E+03  0.12322125487E+03 -0.14073883855E+04  0.14338184872E+04  0.00000000000E+00 0. -1.
         -3    1    3    3    0  502 -0.35747567478E+01 -0.15503980461E-01 -0.84357527678E+02  0.84433237544E+02  0.00000000000E+00 0.  1.
         11    1    5    5    0    0  0.19979144104E+03  0.19261363654E+03  0.29541854310E+02  0.27908664255E+03  0.00000000000E+00 0.  1.
        -11    1    5    5    0    0  0.88084241436E+01  0.43685592551E+02  0.31931400326E+02  0.54823659666E+02  0.00000000000E+00 0. -1.
          1    1    6    6  503    0 -0.84529490175E+01  0.35600409742E+01  0.31463136009E+01  0.96966761370E+01  0.00000000000E+00 0. -1.
         -1    1    6    6    0  503 -0.44133716699E+03 -0.36306502095E+03 -0.22560348472E+03  0.61440348039E+03  0.00000000000E+00 0.  1.
<mgrwt>
<rscale>  0 0.18440061E+04</rscale>
<asrwt>0</asrwt>
<pdfrwt beam="1">  1        2 0.31761478E+00 0.18440061E+04</pdfrwt>
<pdfrwt beam="2">  1       -3 0.63348642E-01 0.18440061E+04</pdfrwt>
<totfact> 0.89754233E+00</totfact>
</mgrwt>
</event>
<event>
12    6  0.1521603E-007  0.1604336E+04  0.7818608E-02  0.8817889E-01
         -1   -1    0    0    0  501 -0.00000000000E+00  0.00000000000E+00  0.55410539992E+03  0.55410539992E+03  0.00000000000E+00 0.  1.
          2   -1    0    0  501    0  0.00000000000E+00 -0.00000000000E+00 -0.11612834664E+04  0.11612834664E+04  0.00000000000E+00 0. -1.
         24    2    1    2    0    0 -0.25529403912E+03  0.20916780804E+02 -0.67198176317E+03  0.72362808674E+03  0.80408704430E+02 0.  0.
        254    2    1    2    0    0  0.25529403912E+03 -0.20916780804E+02  0.64803696687E+02  0.99176077959E+03  0.95591702919E+03 0.  0.
         23    2    4    4    0    0  0.17151115156E+03  0.32100111668E+03 -0.29700090122E+03  0.47838694739E+03  0.90480628257E+02 0.  0.
         23    2    4    4    0    0  0.83782887557E+02 -0.34191789749E+03  0.36180459790E+03  0.51337383220E+03  0.93395415567E+02 0.  0.
          2    1    3    3  502    0 -0.18556223410E+03 -0.72168632693E+01 -0.54817822701E+03  0.57877870936E+03  0.00000000000E+00 0. -1.
         -1    1    3    3    0  502 -0.69731805019E+02  0.28133644073E+02 -0.12380353616E+03  0.14484937737E+03  0.00000000000E+00 0.  1.
         11    1    5    5    0    0  0.23025136711E+02  0.13360739361E+03 -0.97505429441E+02  0.16699820753E+03  0.00000000000E+00 0.  1.
        -11    1    5    5    0    0  0.14848601485E+03  0.18739372307E+03 -0.19949547178E+03  0.31138873986E+03  0.00000000000E+00 0. -1.
          2    1    6    6  503    0 -0.68284255941E+01 -0.16269279317E+03  0.14807117291E+03  0.22009235470E+03  0.00000000000E+00 0. -1.
         -2    1    6    6    0  503  0.90611313152E+02 -0.17922510431E+03  0.21373342499E+03  0.29328147750E+03  0.00000000000E+00 0.  1.
<mgrwt>
<rscale>  0 0.16043359E+04</rscale>
<asrwt>0</asrwt>
<pdfrwt beam="1">  1        2 0.17865900E+00 0.16043359E+04</pdfrwt>
<pdfrwt beam="2">  1       -1 0.85246984E-01 0.16043359E+04</pdfrwt>
<totfact> 0.29727468E+01</totfact>
</mgrwt>
</event>
<event>
12    6  0.1521603E-007  0.1535356E+04  0.7818608E-02  0.8861276E-01
         -1   -1    0    0    0  501 -0.00000000000E+00  0.00000000000E+00  0.36290712277E+03  0.36290712277E+03  0.00000000000E+00 0.  1.
          2   -1    0    0  501    0  0.00000000000E+00 -0.00000000000E+00 -0.16239118550E+04  0.16239118550E+04  0.00000000000E+00 0. -1.
         24    2    1    2    0    0  0.11942007587E+03 -0.25871041796E+03  0.11669613779E+03  0.31891459357E+03  0.83043931375E+02 0.  0.
        254    2    1    2    0    0 -0.11942007587E+03  0.25871041796E+03 -0.13777008700E+04  0.16679043842E+04  0.89590909846E+03 0.  0.
         23    2    4    4    0    0  0.20573002664E+01 -0.52069089970E+02 -0.13112048601E+04  0.13147721969E+04  0.81561768221E+02 0.  0.
         23    2    4    4    0    0 -0.12147737613E+03  0.31077950792E+03 -0.66496009970E+02  0.35313218733E+03  0.94551398328E+02 0.  0.
          4    1    3    3  502    0  0.18977197978E+02 -0.98009870575E+01  0.30044627115E+02  0.36862894744E+02  0.00000000000E+00 0. -1.
         -3    1    3    3    0  502  0.10044287789E+03 -0.24890943090E+03  0.86651510670E+02  0.28205169882E+03  0.00000000000E+00 0.  1.
         11    1    5    5    0    0 -0.32032641735E+02 -0.44530462209E+02 -0.10213839215E+04  0.10228558878E+04  0.00000000000E+00 0. -1.
        -11    1    5    5    0    0  0.34089942001E+02 -0.75386277605E+01 -0.28982093861E+03  0.29191630908E+03  0.00000000000E+00 0.  1.
          3    1    6    6  503    0  0.11876296505E+02  0.43152910416E+02 -0.24971488480E+02  0.51252271490E+02  0.00000000000E+00 0. -1.
         -3    1    6    6    0  503 -0.13335367264E+03  0.26762659751E+03 -0.41524521490E+02  0.30187991584E+03  0.00000000000E+00 0.  1.
<mgrwt>
<rscale>  0 0.15353556E+04</rscale>
<asrwt>0</asrwt>
<pdfrwt beam="1">  1        2 0.24983259E+00 0.15353556E+04</pdfrwt>
<pdfrwt beam="2">  1       -1 0.55831866E-01 0.15353556E+04</pdfrwt>
<totfact> 0.38520996E+01</totfact>
</mgrwt>
</event>
<event>
12    6  0.1521603E-007  0.1837320E+04  0.7818608E-02  0.8686701E-01
         -1   -1    0    0    0  501 -0.00000000000E+00  0.00000000000E+00  0.46820419602E+03  0.46820419602E+03  0.00000000000E+00 0.  1.
          2   -1    0    0  501    0  0.00000000000E+00 -0.00000000000E+00 -0.18024954888E+04  0.18024954888E+04  0.00000000000E+00 0. -1.
         24    2    1    2    0    0  0.33154461945E+03 -0.58601827490E+03 -0.28591538610E+03  0.73590553178E+03  0.80436872660E+02 0.  0.
        254    2    1    2    0    0 -0.33154461945E+03  0.58601827490E+03 -0.10483759066E+04  0.15347941530E+04  0.89619294646E+03 0.  0.
         23    2    4    4    0    0  0.18875525402E+03  0.52000380960E+02  0.33039945238E+02  0.21833938599E+03  0.90817751318E+02 0.  0.
         23    2    4    4    0    0 -0.52029987346E+03  0.53401789394E+03 -0.10814158519E+04  0.13164547670E+04  0.87782911439E+02 0.  0.
          2    1    3    3  502    0  0.29453695204E+03 -0.46583121636E+03 -0.24952493679E+03  0.60499043986E+03  0.00000000000E+00 0. -1.
         -1    1    3    3    0  502  0.37007667410E+02 -0.12018705855E+03 -0.36390449318E+02  0.13091509191E+03  0.00000000000E+00 0.  1.
         11    1    5    5    0    0  0.17305957800E+03  0.61606625553E+02  0.52999955478E+02  0.19119097555E+03  0.00000000000E+00 0.  1.
        -11    1    5    5    0    0  0.15695676012E+02 -0.96062445932E+01 -0.19960010240E+02  0.27148410440E+02  0.00000000000E+00 0. -1.
          2    1    6    6  503    0 -0.23007417517E+02  0.10496105078E+02 -0.64331447128E+02  0.69123401046E+02  0.00000000000E+00 0. -1.
         -2    1    6    6    0  503 -0.49729245595E+03  0.52352178886E+03 -0.10170844048E+04  0.12473313660E+04  0.00000000000E+00 0.  1.
<mgrwt>
<rscale>  0 0.18373197E+04</rscale>
<asrwt>0</asrwt>
<pdfrwt beam="1">  1        2 0.27730700E+00 0.18373197E+04</pdfrwt>
<pdfrwt beam="2">  1       -1 0.72031415E-01 0.18373197E+04</pdfrwt>
<totfact> 0.17932492E+01</totfact>
</mgrwt>
</event>
<event>
12    6  0.1521603E-007  0.1741800E+04  0.7818608E-02  0.8737877E-01
         -1   -1    0    0    0  501 -0.00000000000E+00  0.00000000000E+00  0.30802605849E+03  0.30802605849E+03  0.00000000000E+00 0.  1.
          2   -1    0    0  501    0  0.00000000000E+00 -0.00000000000E+00 -0.24623467331E+04  0.24623467331E+04  0.00000000000E+00 0. -1.
         24    2    1    2    0    0 -0.50611720160E+03  0.20865317582E+02 -0.13987937658E+04  0.14897911810E+04  0.79144047745E+02 0.  0.
        254    2    1    2    0    0  0.50611720160E+03 -0.20865317582E+02 -0.75552690880E+03  0.12805816107E+04  0.90137581973E+03 0.  0.
         23    2    4    4    0    0  0.55660387742E+03  0.73789462803E+02 -0.90898969015E+03  0.10723493679E+04  0.91750471111E+02 0.  0.
         23    2    4    4    0    0 -0.50486675821E+02 -0.94654780385E+02  0.15346278135E+03  0.20823224271E+03  0.91112072521E+02 0.  0.
          2    1    3    3  502    0 -0.39674780309E+03 -0.72948071993E+01 -0.11507790756E+04  0.12172733934E+04  0.00000000000E+00 0. -1.
         -1    1    3    3    0  502 -0.10936939850E+03  0.28160124782E+02 -0.24801469024E+03  0.27251778755E+03  0.00000000000E+00 0.  1.
         11    1    5    5    0    0 -0.36362190841E+00  0.77535427057E+01 -0.16868337905E+02  0.18568534381E+02  0.00000000000E+00 0. -1.
        -11    1    5    5    0    0  0.55696749933E+03  0.66035920098E+02 -0.89212135225E+03  0.10537808336E+04  0.00000000000E+00 0.  1.
          4    1    6    6  503    0  0.19451273951E+02  0.39566948758E+01  0.22124460412E+02  0.29723715131E+02  0.00000000000E+00 0. -1.
         -4    1    6    6    0  503 -0.69937949773E+02 -0.98611475261E+02  0.13133832094E+03  0.17850852758E+03  0.00000000000E+00 0.  1.
<mgrwt>
<rscale>  0 0.17418002E+04</rscale>
<asrwt>0</asrwt>
<pdfrwt beam="1">  1        2 0.37882258E+00 0.17418002E+04</pdfrwt>
<pdfrwt beam="2">  1       -1 0.47388624E-01 0.17418002E+04</pdfrwt>
<totfact> 0.17588905E+01</totfact>
</mgrwt>
</event>
<event>
12    6  0.1521603E-007  0.1475086E+04  0.7818608E-02  0.8901191E-01
          2   -1    0    0  501    0  0.00000000000E+00  0.00000000000E+00  0.13131281933E+04  0.13131281933E+04  0.00000000000E+00 0. -1.
         -1   -1    0    0    0  501 -0.00000000000E+00 -0.00000000000E+00 -0.41425507589E+03  0.41425507589E+03  0.00000000000E+00 0.  1.
         24    2    1    2    0    0 -0.23071721587E+03 -0.67268093186E+02 -0.17216360001E+03  0.30664006217E+03  0.81439502083E+02 0.  0.
        254    2    1    2    0    0  0.23071721587E+03  0.67268093186E+02  0.10710367174E+04  0.14207432070E+04  0.90201783806E+03 0.  0.
         23    2    4    4    0    0  0.28648459804E+03 -0.15524631743E+03  0.11193837159E+04  0.11693717385E+04  0.90749741278E+02 0.  0.
         23    2    4    4    0    0 -0.55767382171E+02  0.22251441061E+03 -0.48346998437E+02  0.25137146849E+03  0.90705672755E+02 0.  0.
          4    1    3    3  502    0 -0.40967073618E+01  0.12740291470E+02 -0.10249189740E+02  0.16856569292E+02  0.00000000000E+00 0. -1.
         -3    1    3    3    0  502 -0.22662050851E+03 -0.80008384656E+02 -0.16191441027E+03  0.28978349288E+03  0.00000000000E+00 0.  1.
         11    1    5    5    0    0  0.44779678992E+02 -0.66279682130E+02  0.23450597271E+03  0.24777261178E+03  0.00000000000E+00 0.  1.
        -11    1    5    5    0    0  0.24170491905E+03 -0.88966635297E+02  0.88487774318E+03  0.92159912677E+03  0.00000000000E+00 0. -1.
          2    1    6    6  503    0 -0.39019125054E+01  0.13483006672E+03 -0.62239258212E+02  0.14855334757E+03  0.00000000000E+00 0. -1.
         -2    1    6    6    0  503 -0.51865469665E+02  0.87684343898E+02  0.13892259775E+02  0.10281812092E+03  0.00000000000E+00 0.  1.
<mgrwt>
<rscale>  0 0.14750865E+04</rscale>
<asrwt>0</asrwt>
<pdfrwt beam="1">  1        2 0.20201972E+00 0.14750865E+04</pdfrwt>
<pdfrwt beam="2">  1       -1 0.63731551E-01 0.14750865E+04</pdfrwt>
<totfact> 0.44750421E+01</totfact>
</mgrwt>
</event>
<event>
12    6  0.1521603E-007  0.1717085E+04  0.7818608E-02  0.8751680E-01
         -1   -1    0    0    0  501 -0.00000000000E+00  0.00000000000E+00  0.37117549850E+03  0.37117549850E+03  0.00000000000E+00 0.  1.
          2   -1    0    0  501    0  0.00000000000E+00 -0.00000000000E+00 -0.19858392267E+04  0.19858392267E+04  0.00000000000E+00 0. -1.
         24    2    1    2    0    0 -0.21671050163E+03  0.23088473154E+02  0.19791404019E+03  0.30860370116E+03  0.92572987206E+02 0.  0.
        254    2    1    2    0    0  0.21671050163E+03 -0.23088473154E+02 -0.18125777684E+04  0.20484110240E+04  0.92900647888E+03 0.  0.
         23    2    4    4    0    0  0.31974636270E+03 -0.11082065422E+03 -0.18483394387E+04  0.18812646956E+04  0.90990222730E+02 0.  0.
         23    2    4    4    0    0 -0.10303586107E+03  0.87732181068E+02  0.35761670278E+02  0.16714632840E+03  0.91354659298E+02 0.  0.
          4    1    3    3  502    0 -0.17635826590E+02 -0.25283505854E+02  0.36580627571E+02  0.47837436818E+02  0.00000000000E+00 0. -1.
         -3    1    3    3    0  502 -0.19907467504E+03  0.48371979008E+02  0.16133341262E+03  0.26076626435E+03  0.00000000000E+00 0.  1.
         11    1    5    5    0    0  0.12400753531E+03  0.12843940730E+01 -0.71938849291E+03  0.72999953577E+03  0.00000000000E+00 0. -1.
        -11    1    5    5    0    0  0.19573882738E+03 -0.11210504829E+03 -0.11289509458E+04  0.11512651599E+04  0.00000000000E+00 0.  1.
          1    1    6    6  503    0 -0.58032283561E+02  0.40819296487E+02  0.64668971486E+02  0.96000191532E+02  0.00000000000E+00 0. -1.
         -1    1    6    6    0  503 -0.45003577506E+02  0.46912884580E+02 -0.28907301208E+02  0.71146136867E+02  0.00000000000E+00 0.  1.
<mgrwt>
<rscale>  0 0.17170846E+04</rscale>
<asrwt>0</asrwt>
<pdfrwt beam="1">  1        2 0.30551373E+00 0.17170846E+04</pdfrwt>
<pdfrwt beam="2">  1       -1 0.57103922E-01 0.17170846E+04</pdfrwt>
<totfact> 0.22866308E+01</totfact>
</mgrwt>
</event>
<event>
12    6  0.1521603E-007  0.1602364E+04  0.7818608E-02  0.8819097E-01
         -1   -1    0    0    0  501 -0.00000000000E+00  0.00000000000E+00  0.31865157232E+03  0.31865157232E+03  0.00000000000E+00 0.  1.
          2   -1    0    0  501    0  0.00000000000E+00 -0.00000000000E+00 -0.20144015201E+04  0.20144015201E+04  0.00000000000E+00 0. -1.
         24    2    1    2    0    0 -0.48532805838E+03  0.20943711712E+03 -0.59463321517E+03  0.79931052514E+03  0.76820731196E+02 0.  0.
        254    2    1    2    0    0  0.48532805838E+03 -0.20943711712E+03 -0.11011167327E+04  0.15337425673E+04  0.92763191709E+03 0.  0.
         23    2    4    4    0    0  0.61285733784E+03  0.17515425983E+03 -0.57414421408E+03  0.86282643577E+03  0.92491882990E+02 0.  0.
         23    2    4    4    0    0 -0.12752927947E+03 -0.38459137694E+03 -0.52697251857E+03  0.67091613154E+03  0.90852495275E+02 0.  0.
          2    1    3    3  502    0 -0.40022046283E+03  0.18978066646E+03 -0.45803775558E+03  0.63717478431E+03  0.00000000000E+00 0. -1.
         -1    1    3    3    0  502 -0.85107595545E+02  0.19656450659E+02 -0.13659545959E+03  0.16213574082E+03  0.00000000000E+00 0.  1.
         11    1    5    5    0    0  0.13333403801E+03  0.62904582055E+02 -0.17558998718E+03  0.22927449865E+03  0.00000000000E+00 0.  1.
        -11    1    5    5    0    0  0.47952329984E+03  0.11224967777E+03 -0.39855422690E+03  0.63355193712E+03  0.00000000000E+00 0. -1.
          2    1    6    6  503    0 -0.15380341487E+02 -0.47623927524E+02 -0.12436813076E+03  0.13405978265E+03  0.00000000000E+00 0. -1.
         -2    1    6    6    0  503 -0.11214893798E+03 -0.33696744942E+03 -0.40260438781E+03  0.53685634889E+03  0.00000000000E+00 0.  1.
<mgrwt>
<rscale>  0 0.16023635E+04</rscale>
<asrwt>0</asrwt>
<pdfrwt beam="1">  1        2 0.30990792E+00 0.16023635E+04</pdfrwt>
<pdfrwt beam="2">  1       -1 0.49023320E-01 0.16023635E+04</pdfrwt>
<totfact> 0.29857935E+01</totfact>
</mgrwt>
</event>
<event>
12    6  0.1806875E-007  0.2571155E+04  0.7818608E-02  0.8378066E-01
          2   -1    0    0  501    0  0.00000000000E+00  0.00000000000E+00  0.23605326286E+04  0.23605326286E+04  0.00000000000E+00 0. -1.
         -1   -1    0    0    0  501 -0.00000000000E+00 -0.00000000000E+00 -0.70014289391E+03  0.70014289391E+03  0.00000000000E+00 0.  1.
         24    2    1    2    0    0  0.10104767522E+04 -0.28317649854E+03  0.12204602234E+04  0.16113957623E+04  0.76295148387E+02 0.  0.
        254    2    1    2    0    0 -0.10104767522E+04  0.28317649854E+03  0.43992951126E+03  0.14492797602E+04  0.89756428877E+03 0.  0.
         23    2    4    4    0    0 -0.10322678398E+04  0.29804388898E+03  0.62115244710E+03  0.12450893136E+04  0.10004990518E+03 0.  0.
         23    2    4    4    0    0  0.21791087587E+02 -0.14867390443E+02 -0.18122293584E+03  0.20419044662E+03  0.90311102408E+02 0.  0.
          2    1    3    3  502    0  0.10010786788E+04 -0.28018632394E+03  0.11938477993E+04  0.15830146762E+04  0.00000000000E+00 0. -1.
         -1    1    3    3    0  502  0.93980734305E+01 -0.29901745946E+01  0.26612424142E+02  0.28381086079E+02  0.00000000000E+00 0.  1.
         11    1    5    5    0    0 -0.91194160688E+03  0.28529198928E+03  0.57734482375E+03  0.11164031794E+04  0.00000000000E+00 0. -1.
        -11    1    5    5    0    0 -0.12032623290E+03  0.12751899706E+02  0.43807623350E+02  0.12868613419E+03  0.00000000000E+00 0.  1.
          2    1    6    6  503    0  0.19827579263E+02  0.13270957184E+02 -0.17324076526E+03  0.17487599592E+03  0.00000000000E+00 0. -1.
         -2    1    6    6    0  503  0.19635083239E+01 -0.28138347628E+02 -0.79821705836E+01  0.29314450692E+02  0.00000000000E+00 0.  1.
<mgrwt>
<rscale>  0 0.25711555E+04</rscale>
<asrwt>0</asrwt>
<pdfrwt beam="1">  1        2 0.36315886E+00 0.25711555E+04</pdfrwt>
<pdfrwt beam="2">  1       -1 0.10771429E+00 0.25711555E+04</pdfrwt>
<totfact> 0.33860465E+00</totfact>
</mgrwt>
</event>
<event>
12    6  0.1521603E-007  0.1374971E+04  0.7818608E-02  0.8972138E-01
          2   -1    0    0  501    0  0.00000000000E+00  0.00000000000E+00  0.10554882883E+04  0.10554882883E+04  0.00000000000E+00 0. -1.
         -1   -1    0    0    0  501 -0.00000000000E+00 -0.00000000000E+00 -0.44778899014E+03  0.44778899014E+03  0.00000000000E+00 0.  1.
         24    2    1    2    0    0  0.48179438712E+02 -0.22791131810E+03  0.50942988116E+03  0.56597681768E+03  0.80908139893E+02 0.  0.
        254    2    1    2    0    0 -0.48179438712E+02  0.22791131810E+03  0.98269417022E+02  0.93730046078E+03  0.90255772571E+03 0.  0.
         23    2    4    4    0    0  0.36216302052E+03  0.33109973949E+03  0.58596229708E+02  0.50225130551E+03  0.89631271473E+02 0.  0.
         23    2    4    4    0    0 -0.41034245923E+03 -0.10318842139E+03  0.39673187314E+02  0.43504915528E+03  0.93086097549E+02 0.  0.
          4    1    3    3  502    0  0.30995139221E+02 -0.82414537141E+02  0.28213743030E+03  0.29555775098E+03  0.00000000000E+00 0. -1.
         -3    1    3    3    0  502  0.17184299491E+02 -0.14549678096E+03  0.22729245086E+03  0.27041906670E+03  0.00000000000E+00 0.  1.
         11    1    5    5    0    0  0.34214886858E+03  0.33431297924E+03  0.53464226666E+02  0.48134129253E+03  0.00000000000E+00 0. -1.
        -11    1    5    5    0    0  0.20014151943E+02 -0.32132397505E+01  0.51320030424E+01  0.20910012982E+02  0.00000000000E+00 0.  1.
          3    1    6    6  503    0 -0.34623899462E+03 -0.11966828749E+03  0.42550640275E+02  0.36879872209E+03  0.00000000000E+00 0. -1.
         -3    1    6    6    0  503 -0.64103464609E+02  0.16479866100E+02 -0.28774529610E+01  0.66250433184E+02  0.00000000000E+00 0.  1.
<mgrwt>
<rscale>  0 0.13749706E+04</rscale>
<asrwt>0</asrwt>
<pdfrwt beam="1">  1        2 0.16238281E+00 0.13749706E+04</pdfrwt>
<pdfrwt beam="2">  1       -1 0.68890614E-01 0.13749706E+04</pdfrwt>
<totfact> 0.55075250E+01</totfact>
</mgrwt>
</event>
<event>
12    6  0.1521603E-007  0.2245283E+04  0.7818608E-02  0.8499813E-01
          2   -1    0    0  501    0  0.00000000000E+00  0.00000000000E+00  0.10491980405E+04  0.10491980405E+04  0.00000000000E+00 0. -1.
         -1   -1    0    0    0  501 -0.00000000000E+00 -0.00000000000E+00 -0.12012256200E+04  0.12012256200E+04  0.00000000000E+00 0.  1.
         24    2    1    2    0    0  0.48963661351E+01  0.27128326431E+03  0.83618560044E+03  0.88281853045E+03  0.80892616656E+02 0.  0.
        254    2    1    2    0    0 -0.48963661351E+01 -0.27128326431E+03 -0.98821317992E+03  0.13676051301E+04  0.90562681004E+03 0.  0.
         23    2    4    4    0    0  0.40393449735E+03 -0.13454621164E+02 -0.25979789015E+03  0.48870419159E+03  0.89402115041E+02 0.  0.
         23    2    4    4    0    0 -0.40883086349E+03 -0.25782864315E+03 -0.72841528977E+03  0.87890093853E+03  0.90883118384E+02 0.  0.
          4    1    3    3  502    0  0.12204445902E+02  0.27403301590E+03  0.82283055658E+03  0.86734835398E+03  0.00000000000E+00 0. -1.
         -3    1    3    3    0  502 -0.73080797670E+01 -0.27497515898E+01  0.13355043860E+02  0.15470176475E+02  0.00000000000E+00 0.  1.
         11    1    5    5    0    0  0.15471322095E+03 -0.42021168447E+02 -0.12915086914E+03  0.20586866283E+03  0.00000000000E+00 0.  1.
        -11    1    5    5    0    0  0.24922127640E+03  0.28566547283E+02 -0.13064702101E+03  0.28283552876E+03  0.00000000000E+00 0. -1.
          2    1    6    6  503    0 -0.42654868552E+02 -0.30451866733E+02 -0.14013285618E+03  0.14961273803E+03  0.00000000000E+00 0. -1.
         -2    1    6    6    0  503 -0.36617599493E+03 -0.22737677641E+03 -0.58828243359E+03  0.72928820050E+03  0.00000000000E+00 0.  1.
<mgrwt>
<rscale>  0 0.22452827E+04</rscale>
<asrwt>0</asrwt>
<pdfrwt beam="1">  1        2 0.16141508E+00 0.22452827E+04</pdfrwt>
<pdfrwt beam="2">  1       -1 0.18480394E+00 0.22452827E+04</pdfrwt>
<totfact> 0.46795317E+00</totfact>
</mgrwt>
</event>
<event>
12    6  0.1521603E-007  0.1590802E+04  0.7818608E-02  0.8826219E-01
          2   -1    0    0  501    0  0.00000000000E+00  0.00000000000E+00  0.27928396495E+04  0.27928396495E+04  0.00000000000E+00 0. -1.
         -1   -1    0    0    0  501 -0.00000000000E+00 -0.00000000000E+00 -0.22653033467E+03  0.22653033467E+03  0.00000000000E+00 0.  1.
         24    2    1    2    0    0  0.13346699905E+03  0.51141568510E+03  0.82998484950E+03  0.98826587060E+03  0.91843006223E+02 0.  0.
        254    2    1    2    0    0 -0.13346699905E+03 -0.51141568510E+03  0.17363244653E+04  0.20311041136E+04  0.91170270839E+03 0.  0.
         23    2    4    4    0    0 -0.43465663190E+03 -0.19340230410E+03  0.42332396488E+03  0.64333234548E+03  0.91337224710E+02 0.  0.
         23    2    4    4    0    0  0.30118963285E+03 -0.31801338100E+03  0.13130005005E+04  0.13877717681E+04  0.10046123977E+03 0.  0.
          2    1    3    3  502    0  0.10280649794E+03  0.48447930319E+03  0.77624713907E+03  0.92078715899E+03  0.00000000000E+00 0. -1.
         -1    1    3    3    0  502  0.30660501114E+02  0.26936381910E+02  0.53737710428E+02  0.67478711613E+02  0.00000000000E+00 0.  1.
         11    1    5    5    0    0 -0.16652780216E+03 -0.95005722455E+02  0.11742863612E+03  0.22482677949E+03  0.00000000000E+00 0.  1.
        -11    1    5    5    0    0 -0.26812882974E+03 -0.98396581644E+02  0.30589532876E+03  0.41850556600E+03  0.00000000000E+00 0. -1.
          1    1    6    6  503    0  0.29034254872E+03 -0.25950176486E+03  0.11592584105E+04  0.12229145611E+04  0.00000000000E+00 0. -1.
         -1    1    6    6    0  503  0.10847084129E+02 -0.58511616143E+02  0.15374208999E+03  0.16485720698E+03  0.00000000000E+00 0.  1.
<mgrwt>
<rscale>  0 0.15908022E+04</rscale>
<asrwt>0</asrwt>
<pdfrwt beam="1">  1        2 0.42966762E+00 0.15908022E+04</pdfrwt>
<pdfrwt beam="2">  1       -1 0.34850823E-01 0.15908022E+04</pdfrwt>
<totfact> 0.20041480E+01</totfact>
</mgrwt>
</event>
<event>
12    6  0.1521603E-007  0.1247752E+04  0.7818608E-02  0.9072056E-01
         -1   -1    0    0    0  501 -0.00000000000E+00  0.00000000000E+00  0.87917821535E+03  0.87917821535E+03  0.00000000000E+00 0.  1.
          2   -1    0    0  501    0  0.00000000000E+00 -0.00000000000E+00 -0.44271060554E+03  0.44271060554E+03  0.00000000000E+00 0. -1.
         24    2    1    2    0    0 -0.20413490285E+03  0.11150453600E+02 -0.11582519576E+03  0.24828453020E+03  0.80214342769E+02 0.  0.
        254    2    1    2    0    0  0.20413490285E+03 -0.11150453600E+02  0.55229280557E+03  0.10736042907E+04  0.89766554948E+03 0.  0.
         23    2    4    4    0    0  0.33636091654E+03  0.15880626940E+03 -0.87709238976E+02  0.39240506223E+03  0.89054617409E+02 0.  0.
         23    2    4    4    0    0 -0.13222601369E+03 -0.16995672300E+03  0.64000204455E+03  0.68119922847E+03  0.89781765694E+02 0.  0.
          4    1    3    3  502    0 -0.16122601445E+03 -0.20519728251E+02 -0.10604888609E+03  0.19406507471E+03  0.00000000000E+00 0. -1.
         -3    1    3    3    0  502 -0.42908888408E+02  0.31670181851E+02 -0.97763096696E+01  0.54219455490E+02  0.00000000000E+00 0.  1.
         11    1    5    5    0    0  0.10486019594E+03  0.66413807989E+02 -0.70045736554E+02  0.14252319037E+03  0.00000000000E+00 0. -1.
        -11    1    5    5    0    0  0.23150072060E+03  0.92392461408E+02 -0.17663502422E+02  0.24988187185E+03  0.00000000000E+00 0.  1.
          3    1    6    6  503    0 -0.96076976547E+02 -0.15168428678E+03  0.59073443092E+03  0.61741888225E+03  0.00000000000E+00 0. -1.
         -3    1    6    6    0  503 -0.36149037141E+02 -0.18272436216E+02  0.49267613623E+02  0.63780346217E+02  0.00000000000E+00 0.  1.
<mgrwt>
<rscale>  0 0.12477524E+04</rscale>
<asrwt>0</asrwt>
<pdfrwt beam="1">  1        2 0.68109324E-01 0.12477524E+04</pdfrwt>
<pdfrwt beam="2">  1       -1 0.13525819E+00 0.12477524E+04</pdfrwt>
<totfact> 0.36561323E+01</totfact>
</mgrwt>
</event>
<event>
12    6  0.1521603E-007  0.1350975E+04  0.7818608E-02  0.8990090E-01
          2   -1    0    0  501    0  0.00000000000E+00  0.00000000000E+00  0.11523333052E+04  0.11523333052E+04  0.00000000000E+00 0. -1.
         -1   -1    0    0    0  501 -0.00000000000E+00 -0.00000000000E+00 -0.39596466801E+03  0.39596466801E+03  0.00000000000E+00 0.  1.
         24    2    1    2    0    0  0.19253488791E+03  0.11598929462E+03 -0.14137177279E+03  0.27755553255E+03  0.80795395802E+02 0.  0.
        254    2    1    2    0    0 -0.19253488791E+03 -0.11598929462E+03  0.89774040996E+03  0.12707424406E+04  0.87081875682E+03 0.  0.
         23    2    4    4    0    0 -0.11415401122E+03  0.48548817115E+02  0.10197361821E+04  0.10312744540E+04  0.90977977343E+02 0.  0.
         23    2    4    4    0    0 -0.78380876690E+02 -0.16453811173E+03 -0.12199577218E+03  0.23946798665E+03  0.96154023095E+02 0.  0.
          4    1    3    3  502    0  0.53023770972E+02  0.77128633414E+02 -0.63727768638E+02  0.11323239323E+03  0.00000000000E+00 0. -1.
         -3    1    3    3    0  502  0.13951111694E+03  0.38860661202E+02 -0.77644004150E+02  0.16432313933E+03  0.00000000000E+00 0.  1.
         11    1    5    5    0    0 -0.87454462352E+02  0.74461428645E+02  0.69698679024E+03  0.70638755164E+03  0.00000000000E+00 0. -1.
        -11    1    5    5    0    0 -0.26699548866E+02 -0.25912611530E+02  0.32274939190E+03  0.32488690234E+03  0.00000000000E+00 0.  1.
          4    1    6    6  503    0 -0.42570931841E+02 -0.56667985830E+02  0.24637873930E+01  0.70919779358E+02  0.00000000000E+00 0.  1.
         -4    1    6    6    0  503 -0.35809944850E+02 -0.10787012590E+03 -0.12445955957E+03  0.16854820729E+03  0.00000000000E+00 0. -1.
<mgrwt>
<rscale>  0 0.13509749E+04</rscale>
<asrwt>0</asrwt>
<pdfrwt beam="1">  1        2 0.17728205E+00 0.13509749E+04</pdfrwt>
<pdfrwt beam="2">  1       -1 0.60917642E-01 0.13509749E+04</pdfrwt>
<totfact> 0.61594350E+01</totfact>
</mgrwt>
</event>
<event>
12    6  0.1521603E-007  0.1312109E+04  0.7818608E-02  0.9020017E-01
          2   -1    0    0  501    0  0.00000000000E+00  0.00000000000E+00  0.13867728167E+04  0.13867728167E+04  0.00000000000E+00 0. -1.
         -1   -1    0    0    0  501 -0.00000000000E+00 -0.00000000000E+00 -0.31036622101E+03  0.31036622101E+03  0.00000000000E+00 0.  1.
         24    2    1    2    0    0 -0.11239688559E+03 -0.13966559185E+03 -0.80402715717E+02  0.21196992945E+03  0.79543176066E+02 0.  0.
        254    2    1    2    0    0  0.11239688559E+03  0.13966559185E+03  0.11568093114E+04  0.14851691083E+04  0.91399122519E+03 0.  0.
         23    2    4    4    0    0  0.15875470360E+03  0.17072940966E+03  0.12932289996E+04  0.13172180230E+04  0.90942220489E+02 0.  0.
         23    2    4    4    0    0 -0.46357818009E+02 -0.31063817810E+02 -0.13641968814E+03  0.16795108531E+03  0.80518492768E+02 0.  0.
          4    1    3    3  502    0  0.26889364355E+01 -0.49762425568E+02 -0.25219393643E+02  0.55852906758E+02  0.00000000000E+00 0. -1.
         -3    1    3    3    0  502 -0.11508582203E+03 -0.89903166286E+02 -0.55183322074E+02  0.15611702269E+03  0.00000000000E+00 0.  1.
         11    1    5    5    0    0  0.17024442280E+03  0.16592631110E+03  0.12349774894E+04  0.12576502310E+04  0.00000000000E+00 0.  1.
        -11    1    5    5    0    0 -0.11489719198E+02  0.48030985656E+01  0.58251510154E+02  0.59567791954E+02  0.00000000000E+00 0. -1.
          1    1    6    6  503    0 -0.38155955569E+02 -0.49477854194E+02 -0.52395756259E+02  0.81542935163E+02  0.00000000000E+00 0. -1.
         -1    1    6    6    0  503 -0.82018624395E+01  0.18414036383E+02 -0.84023931881E+02  0.86408150149E+02  0.00000000000E+00 0.  1.
<mgrwt>
<rscale>  0 0.13121089E+04</rscale>
<asrwt>0</asrwt>
<pdfrwt beam="1">  1        2 0.21334966E+00 0.13121089E+04</pdfrwt>
<pdfrwt beam="2">  1       -1 0.47748650E-01 0.13121089E+04</pdfrwt>
<totfact> 0.71984030E+01</totfact>
</mgrwt>
</event>
<event>
12    6  0.1521603E-007  0.9931207E+03  0.7818608E-02  0.9316122E-01
          2   -1    0    0  501    0  0.00000000000E+00  0.00000000000E+00  0.15787869060E+04  0.15787869060E+04  0.00000000000E+00 0. -1.
         -1   -1    0    0    0  501 -0.00000000000E+00 -0.00000000000E+00 -0.15617825154E+03  0.15617825154E+03  0.00000000000E+00 0.  1.
         24    2    1    2    0    0 -0.28444357604E+01 -0.28600235784E+02  0.68646543462E+02  0.10932239415E+03  0.80081044145E+02 0.  0.
        254    2    1    2    0    0  0.28444357604E+01  0.28600235784E+02  0.13539621110E+04  0.16256427634E+04  0.89926354973E+03 0.  0.
         23    2    4    4    0    0 -0.20190574576E+03  0.71700478357E+02  0.13765528488E+04  0.13961197208E+04  0.91354478292E+02 0.  0.
         23    2    4    4    0    0  0.20475018153E+03 -0.43100242573E+02 -0.22590737782E+02  0.22952304255E+03  0.91598132524E+02 0.  0.
          2    1    3    3  502    0 -0.28997791375E+02 -0.25291212237E+02  0.73079764365E+02  0.82590370387E+02  0.00000000000E+00 0. -1.
         -1    1    3    3    0  502  0.26153355615E+02 -0.33090235467E+01 -0.44332209032E+01  0.26732023761E+02  0.00000000000E+00 0.  1.
         11    1    5    5    0    0 -0.20598750247E+03  0.67928961389E+02  0.13716971832E+04  0.13887398451E+04  0.00000000000E+00 0.  1.
        -11    1    5    5    0    0  0.40817567066E+01  0.37715169677E+01  0.48556656065E+01  0.73798757802E+01  0.00000000000E+00 0. -1.
          1    1    6    6  503    0  0.15804813543E+02 -0.67186951003E+01  0.25913433842E+02  0.31087602810E+02  0.00000000000E+00 0. -1.
         -1    1    6    6    0  503  0.18894536798E+03 -0.36381547473E+02 -0.48504171624E+02  0.19843543974E+03  0.00000000000E+00 0.  1.
<mgrwt>
<rscale>  0 0.99312069E+03</rscale>
<asrwt>0</asrwt>
<pdfrwt beam="1">  1        2 0.24289028E+00 0.99312069E+03</pdfrwt>
<pdfrwt beam="2">  1       -1 0.24027424E-01 0.99312069E+03</pdfrwt>
<totfact> 0.19546352E+02</totfact>
</mgrwt>
</event>
<event>
12    6  0.1521603E-007  0.1158537E+04  0.7818608E-02  0.9149944E-01
         -1   -1    0    0    0  501 -0.00000000000E+00  0.00000000000E+00  0.65000373757E+03  0.65000373757E+03  0.00000000000E+00 0.  1.
          2   -1    0    0  501    0  0.00000000000E+00 -0.00000000000E+00 -0.51623051623E+03  0.51623051623E+03  0.00000000000E+00 0. -1.
         24    2    1    2    0    0  0.21090932792E+03 -0.26517391681E+02  0.83367517707E+02  0.24059269664E+03  0.75820749169E+02 0.  0.
        254    2    1    2    0    0 -0.21090932792E+03  0.26517391681E+02  0.50405703630E+02  0.92564155715E+03  0.89949187918E+03 0.  0.
         23    2    4    4    0    0 -0.44998027450E+03  0.29559291324E+03 -0.25335073147E+02  0.54685646897E+03  0.92480884128E+02 0.  0.
         23    2    4    4    0    0  0.23907094658E+03 -0.26907552156E+03  0.75740776777E+02  0.37878508818E+03  0.90470569583E+02 0.  0.
          2    1    3    3  502    0  0.19032042843E+03 -0.21371308271E+00  0.81793255135E+02  0.20715223324E+03  0.00000000000E+00 0. -1.
         -1    1    3    3    0  502  0.20588899492E+02 -0.26303678598E+02  0.15742625720E+01  0.33440463405E+02  0.00000000000E+00 0.  1.
         11    1    5    5    0    0 -0.39440631697E+03  0.22389739785E+03 -0.38657408242E+02  0.45517115775E+03  0.00000000000E+00 0. -1.
        -11    1    5    5    0    0 -0.55573957524E+02  0.71695515388E+02  0.13322335095E+02  0.91685311223E+02  0.00000000000E+00 0.  1.
          1    1    6    6  503    0  0.20025407383E+03 -0.17750418936E+03  0.79796921011E+02  0.27924358530E+03  0.00000000000E+00 0. -1.
         -1    1    6    6    0  503  0.38816872750E+02 -0.91571332198E+02 -0.40561442341E+01  0.99541502885E+02  0.00000000000E+00 0.  1.
<mgrwt>
<rscale>  0 0.11585366E+04</rscale>
<asrwt>0</asrwt>
<pdfrwt beam="1">  1        2 0.79420079E-01 0.11585366E+04</pdfrwt>
<pdfrwt beam="2">  1       -1 0.10000058E+00 0.11585366E+04</pdfrwt>
<totfact> 0.64002166E+01</totfact>
</mgrwt>
</event>
<event>
12    6  0.1521603E-007  0.2053128E+04  0.7818608E-02  0.8582177E-01
         -1   -1    0    0    0  501 -0.00000000000E+00  0.00000000000E+00  0.13056039296E+04  0.13056039296E+04  0.00000000000E+00 0.  1.
          2   -1    0    0  501    0  0.00000000000E+00 -0.00000000000E+00 -0.80716165063E+03  0.80716165063E+03  0.00000000000E+00 0. -1.
         24    2    1    2    0    0  0.39265901241E+03 -0.82585835810E+02 -0.53981051681E+03  0.67710675672E+03  0.77952842372E+02 0.  0.
        254    2    1    2    0    0 -0.39265901241E+03  0.82585835810E+02  0.10382527958E+04  0.14356588235E+04  0.90672259775E+03 0.  0.
         23    2    4    4    0    0 -0.47905987420E+03  0.97861255994E+02  0.12401031599E+03  0.51270042963E+03  0.91695057536E+02 0.  0.
         23    2    4    4    0    0  0.86400861791E+02 -0.15275420184E+02  0.91424247982E+03  0.92295839390E+03  0.91183537925E+02 0.  0.
          4    1    3    3  502    0  0.35249083220E+03 -0.83727264177E+02 -0.51570306831E+03  0.63024574272E+03  0.00000000000E+00 0. -1.
         -3    1    3    3    0  502  0.40168180209E+02  0.11414283663E+01 -0.24107448503E+02  0.46861014002E+02  0.00000000000E+00 0.  1.
         11    1    5    5    0    0 -0.38793342242E+03  0.57459026368E+02  0.12915598086E+03  0.41288636128E+03  0.00000000000E+00 0.  1.
        -11    1    5    5    0    0 -0.91126451780E+02  0.40402229627E+02 -0.51456648700E+01  0.99814068346E+02  0.00000000000E+00 0. -1.
          1    1    6    6  503    0  0.44336724590E+02 -0.42168348007E+02  0.71279223552E+03  0.71541364660E+03  0.00000000000E+00 0. -1.
         -1    1    6    6    0  503  0.42064137201E+02  0.26892927823E+02  0.20145024430E+03  0.20754474730E+03  0.00000000000E+00 0.  1.
<mgrwt>
<rscale>  0 0.20531278E+04</rscale>
<asrwt>0</asrwt>
<pdfrwt beam="1">  1        2 0.12417872E+00 0.20531278E+04</pdfrwt>
<pdfrwt beam="2">  1       -1 0.20086214E+00 0.20531278E+04</pdfrwt>
<totfact> 0.53339882E+00</totfact>
</mgrwt>
</event>
<event>
12    6  0.1521603E-007  0.1712340E+04  0.7818608E-02  0.8754358E-01
          4   -1    0    0  501    0  0.00000000000E+00  0.00000000000E+00  0.96515125105E+03  0.96515125105E+03  0.00000000000E+00 0. -1.
         -1   -1    0    0    0  501 -0.00000000000E+00 -0.00000000000E+00 -0.75949420597E+03  0.75949420597E+03  0.00000000000E+00 0.  1.
         24    2    1    2    0    0  0.20580063531E+03 -0.44033734691E+03 -0.30220687878E+03  0.57779430560E+03  0.79160478933E+02 0.  0.
        254    2    1    2    0    0 -0.20580063531E+03  0.44033734691E+03  0.50786392386E+03  0.11468511514E+04  0.90614067218E+03 0.  0.
         23    2    4    4    0    0  0.32454645312E+03  0.13554933841E+03  0.35904674756E+03  0.51088780452E+03  0.91584706716E+02 0.  0.
         23    2    4    4    0    0 -0.53034708843E+03  0.30478800851E+03  0.14881717630E+03  0.63596334690E+03  0.90216751767E+02 0.  0.
          4    1    3    3  502    0  0.38830201233E+02 -0.10363576803E+03 -0.32967256843E+02  0.11547725736E+03  0.00000000000E+00 0. -1.
         -3    1    3    3    0  502  0.16697043408E+03 -0.33670157888E+03 -0.26923962194E+03  0.46231704825E+03  0.00000000000E+00 0.  1.
         11    1    5    5    0    0  0.66074563134E+02  0.69884010018E+02  0.10824972568E+03  0.14480202298E+03  0.00000000000E+00 0.  1.
        -11    1    5    5    0    0  0.25847188998E+03  0.65665328387E+02  0.25079702188E+03  0.36608578154E+03  0.00000000000E+00 0. -1.
          4    1    6    6  503    0 -0.49283825870E+03  0.30680044897E+03  0.13573776318E+03  0.59618856503E+03  0.00000000000E+00 0. -1.
         -4    1    6    6    0  503 -0.37508829736E+02 -0.20124404670E+01  0.13079413121E+02  0.39774781864E+02  0.00000000000E+00 0.  1.
<mgrwt>
<rscale>  0 0.17123397E+04</rscale>
<asrwt>0</asrwt>
<pdfrwt beam="1">  1        4 0.14848481E+00 0.17123397E+04</pdfrwt>
<pdfrwt beam="2">  1       -1 0.11684526E+00 0.17123397E+04</pdfrwt>
<totfact> 0.79240971E-01</totfact>
</mgrwt>
</event>
<event>
12    6  0.1521603E-007  0.2235980E+04  0.7818608E-02  0.8503600E-01
          2   -1    0    0  501    0  0.00000000000E+00  0.00000000000E+00  0.23640568898E+04  0.23640568898E+04  0.00000000000E+00 0. -1.
         -1   -1    0    0    0  501 -0.00000000000E+00 -0.00000000000E+00 -0.52871069318E+03  0.52871069318E+03  0.00000000000E+00 0.  1.
         24    2    1    2    0    0 -0.74427340049E+03 -0.10779806303E+03  0.14709108351E+04  0.16539193507E+04  0.79417987822E+02 0.  0.
        254    2    1    2    0    0  0.74427340049E+03  0.10779806303E+03  0.36443536148E+03  0.12388482322E+04  0.91453184348E+03 0.  0.
         23    2    4    4    0    0  0.25391147519E+03  0.31952616455E+03 -0.19460559558E+03  0.46014802884E+03  0.85421680781E+02 0.  0.
         23    2    4    4    0    0  0.49036192530E+03 -0.21172810152E+03  0.55904095707E+03  0.77870020340E+03  0.92539766261E+02 0.  0.
          2    1    3    3  502    0 -0.52759269793E+03 -0.88142985649E+02  0.96792640507E+03  0.11058954591E+04  0.00000000000E+00 0. -1.
         -1    1    3    3    0  502 -0.21668070256E+03 -0.19655077378E+02  0.50298443004E+03  0.54802389162E+03  0.00000000000E+00 0.  1.
         11    1    5    5    0    0  0.10139411738E+02  0.79188887918E+01  0.85083750503E+01  0.15424296291E+02  0.00000000000E+00 0. -1.
        -11    1    5    5    0    0  0.24377206345E+03  0.31160727576E+03 -0.20311397063E+03  0.44472373254E+03  0.00000000000E+00 0.  1.
          2    1    6    6  503    0  0.44332509732E+03 -0.21671016432E+03  0.49360240040E+03  0.69795685176E+03  0.00000000000E+00 0.  1.
         -2    1    6    6    0  503  0.47036827974E+02  0.49820627970E+01  0.65438556661E+02  0.80743351636E+02  0.00000000000E+00 0. -1.
<mgrwt>
<rscale>  0 0.22359805E+04</rscale>
<asrwt>0</asrwt>
<pdfrwt beam="1">  1        2 0.36370105E+00 0.22359805E+04</pdfrwt>
<pdfrwt beam="2">  1       -1 0.81340108E-01 0.22359805E+04</pdfrwt>
<totfact> 0.65074913E+00</totfact>
</mgrwt>
</event>
<event>
12    6  0.1521603E-007  0.1929525E+04  0.7818608E-02  0.8640298E-01
         -1   -1    0    0    0  501 -0.00000000000E+00  0.00000000000E+00  0.22959676311E+03  0.22959676311E+03  0.00000000000E+00 0.  1.
          2   -1    0    0  501    0  0.00000000000E+00 -0.00000000000E+00 -0.40539190311E+04  0.40539190311E+04  0.00000000000E+00 0. -1.
         24    2    1    2    0    0  0.34327709303E+03 -0.34279262891E+03 -0.22853650750E+03  0.54236078649E+03  0.81119285198E+02 0.  0.
        254    2    1    2    0    0 -0.34327709303E+03  0.34279262891E+03 -0.35957857605E+04  0.37411550077E+04  0.91171245874E+03 0.  0.
         23    2    4    4    0    0 -0.55121716944E+03  0.87441959493E+02 -0.12661117935E+04  0.13865881211E+04  0.90005997891E+02 0.  0.
         23    2    4    4    0    0  0.20794007641E+03  0.25535066941E+03 -0.23296739670E+04  0.23545668867E+04  0.90340420407E+02 0.  0.
          2    1    3    3  502    0  0.18546159343E+03 -0.13443237957E+03 -0.86230618948E+02  0.24475250143E+03  0.00000000000E+00 0. -1.
         -1    1    3    3    0  502  0.15781549960E+03 -0.20836024934E+03 -0.14230588855E+03  0.29760828506E+03  0.00000000000E+00 0.  1.
         11    1    5    5    0    0 -0.49737046123E+03  0.10489522093E+03 -0.11227494285E+04  0.12324555417E+04  0.00000000000E+00 0. -1.
        -11    1    5    5    0    0 -0.53846708204E+02 -0.17453261441E+02 -0.14336236504E+03  0.15413257939E+03  0.00000000000E+00 0.  1.
          3    1    6    6  503    0  0.17774845557E+03  0.18367321555E+03 -0.19746362751E+04  0.19911099373E+04  0.00000000000E+00 0. -1.
         -3    1    6    6    0  503  0.30191620837E+02  0.71677453866E+02 -0.35503769187E+03  0.36345694932E+03  0.00000000000E+00 0.  1.
<mgrwt>
<rscale>  0 0.19295250E+04</rscale>
<asrwt>0</asrwt>
<pdfrwt beam="1">  1        2 0.62367984E+00 0.19295250E+04</pdfrwt>
<pdfrwt beam="2">  1       -1 0.35322579E-01 0.19295250E+04</pdfrwt>
<totfact> 0.25409447E+00</totfact>
</mgrwt>
</event>
<event>
12    6  0.1521603E-007  0.1481391E+04  0.7818608E-02  0.8896923E-01
         -1   -1    0    0    0  501 -0.00000000000E+00  0.00000000000E+00  0.41797593955E+03  0.41797593955E+03  0.00000000000E+00 0.  1.
          2   -1    0    0  501    0  0.00000000000E+00 -0.00000000000E+00 -0.13125864185E+04  0.13125864185E+04  0.00000000000E+00 0. -1.
         24    2    1    2    0    0 -0.32775811635E+03  0.32441155021E+03 -0.18184843355E+03  0.50253972346E+03  0.82517174766E+02 0.  0.
        254    2    1    2    0    0  0.32775811635E+03 -0.32441155021E+03 -0.71276204542E+03  0.12280226346E+04  0.88732272650E+03 0.  0.
         23    2    4    4    0    0 -0.22596612109E+03  0.10430707976E+03 -0.33531533569E+03  0.42725286675E+03  0.90376894341E+02 0.  0.
         23    2    4    4    0    0  0.55372423744E+03 -0.42871862998E+03 -0.37744670973E+03  0.80076976785E+03  0.91411200602E+02 0.  0.
          4    1    3    3  502    0 -0.28616407776E+03  0.30902905191E+03 -0.14683840996E+03  0.44603851063E+03  0.00000000000E+00 0. -1.
         -3    1    3    3    0  502 -0.41594038584E+02  0.15382498302E+02 -0.35010023589E+02  0.56501212832E+02  0.00000000000E+00 0.  1.
         11    1    5    5    0    0 -0.23195121147E+03  0.10363132520E+03 -0.33595419685E+03  0.42119596205E+03  0.00000000000E+00 0.  1.
        -11    1    5    5    0    0  0.59850903736E+01  0.67575456343E+00  0.63886116458E+00  0.60569047043E+01  0.00000000000E+00 0. -1.
          1    1    6    6  503    0  0.25753624954E+02 -0.48446703951E+02 -0.20058773460E+02  0.58418205336E+02  0.00000000000E+00 0. -1.
         -1    1    6    6    0  503  0.52797061248E+03 -0.38027192602E+03 -0.35738793627E+03  0.74235156251E+03  0.00000000000E+00 0.  1.
<mgrwt>
<rscale>  0 0.14813906E+04</rscale>
<asrwt>0</asrwt>
<pdfrwt beam="1">  1        2 0.20193637E+00 0.14813906E+04</pdfrwt>
<pdfrwt beam="2">  1       -1 0.64303991E-01 0.14813906E+04</pdfrwt>
<totfact> 0.43963980E+01</totfact>
</mgrwt>
</event>
<event>
12    6  0.1521603E-007  0.2172753E+04  0.7818608E-02  0.8529855E-01
          4   -1    0    0  501    0  0.00000000000E+00  0.00000000000E+00  0.20023978139E+04  0.20023978139E+04  0.00000000000E+00 0. -1.
         -3   -1    0    0    0  501 -0.00000000000E+00 -0.00000000000E+00 -0.58940050216E+03  0.58940050216E+03  0.00000000000E+00 0.  1.
         24    2    1    2    0    0  0.23288181749E+03  0.49142206609E+02 -0.44463814556E+03  0.51120106235E+03  0.83513760974E+02 0.  0.
        254    2    1    2    0    0 -0.23288181749E+03 -0.49142206609E+02  0.18576354573E+04  0.20805972537E+04  0.90632584787E+03 0.  0.
         23    2    4    4    0    0  0.17371707048E+02  0.12952851255E+03  0.17263756277E+04  0.17338090044E+04  0.92959367945E+02 0.  0.
         23    2    4    4    0    0 -0.25025352454E+03 -0.17867071916E+03  0.13125982959E+03  0.34678824929E+03  0.92102630520E+02 0.  0.
          2    1    3    3  502    0  0.16516492948E+03 -0.11791899639E+01 -0.32811110378E+03  0.36733872766E+03  0.00000000000E+00 0. -1.
         -1    1    3    3    0  502  0.67716888006E+02  0.50321396573E+02 -0.11652704179E+03  0.14386233469E+03  0.00000000000E+00 0.  1.
         11    1    5    5    0    0 -0.69615172979E+01 -0.11432629067E+02  0.29497325054E+03  0.29527679601E+03  0.00000000000E+00 0. -1.
        -11    1    5    5    0    0  0.24333224346E+02  0.14096114162E+03  0.14314023772E+04  0.14385322084E+04  0.00000000000E+00 0.  1.
          4    1    6    6  503    0 -0.79208796531E+02 -0.86389662493E+02  0.98201521733E+01  0.11761650659E+03  0.00000000000E+00 0. -1.
         -4    1    6    6    0  503 -0.17104472801E+03 -0.92281056668E+02  0.12143967742E+03  0.22917174270E+03  0.00000000000E+00 0.  1.
<mgrwt>
<rscale>  0 0.21727533E+04</rscale>
<asrwt>0</asrwt>
<pdfrwt beam="1">  1        4 0.30806120E+00 0.21727533E+04</pdfrwt>
<pdfrwt beam="2">  1       -3 0.90677001E-01 0.21727533E+04</pdfrwt>
<totfact> 0.62958173E-02</totfact>
</mgrwt>
</event>
<event>
12    6  0.1521603E-007  0.1868475E+04  0.7818608E-02  0.8670709E-01
         -1   -1    0    0    0  501 -0.00000000000E+00  0.00000000000E+00  0.47630493553E+03  0.47630493553E+03  0.00000000000E+00 0.  1.
          2   -1    0    0  501    0  0.00000000000E+00 -0.00000000000E+00 -0.18324394703E+04  0.18324394703E+04  0.00000000000E+00 0. -1.
         24    2    1    2    0    0  0.38092333981E+03  0.53097804667E+03 -0.18528548862E+03  0.68365192667E+03  0.77517531509E+02 0.  0.
        254    2    1    2    0    0 -0.38092333981E+03 -0.53097804667E+03 -0.11708490462E+04  0.16250924792E+04  0.91814911650E+03 0.  0.
         23    2    4    4    0    0 -0.48255754746E+03 -0.36491472161E+03 -0.21920106875E+03  0.64950154175E+03  0.88196391881E+02 0.  0.
         23    2    4    4    0    0  0.10163420765E+03 -0.16606332506E+03 -0.95164797742E+03  0.97559093743E+03  0.90759375157E+02 0.  0.
          2    1    3    3  502    0 -0.24456883441E+01  0.13654322685E+02 -0.99762593038E+00  0.13907450412E+02  0.00000000000E+00 0. -1.
         -1    1    3    3    0  502  0.38336902816E+03  0.51732372398E+03 -0.18428786269E+03  0.66974447626E+03  0.00000000000E+00 0.  1.
         11    1    5    5    0    0 -0.31936444736E+03 -0.29151190554E+03 -0.15126747871E+03  0.45809899740E+03  0.00000000000E+00 0. -1.
        -11    1    5    5    0    0 -0.16319310010E+03 -0.73402816074E+02 -0.67933590036E+02  0.19140254435E+03  0.00000000000E+00 0.  1.
          1    1    6    6  503    0  0.11376319914E+03 -0.14053723827E+03 -0.88355795548E+03  0.90186886048E+03  0.00000000000E+00 0. -1.
         -1    1    6    6    0  503 -0.12128991500E+02 -0.25526086791E+02 -0.68090021937E+02  0.73722076945E+02  0.00000000000E+00 0.  1.
<mgrwt>
<rscale>  0 0.18684753E+04</rscale>
<asrwt>0</asrwt>
<pdfrwt beam="1">  1        2 0.28191376E+00 0.18684753E+04</pdfrwt>
<pdfrwt beam="2">  1       -1 0.73277683E-01 0.18684753E+04</pdfrwt>
<totfact> 0.16612727E+01</totfact>
</mgrwt>
</event>
<event>
12    6  0.1521603E-007  0.3068615E+04  0.7818608E-02  0.8224404E-01
         -1   -1    0    0    0  501 -0.00000000000E+00  0.00000000000E+00  0.13814395176E+04  0.13814395176E+04  0.00000000000E+00 0.  1.
          2   -1    0    0  501    0  0.00000000000E+00 -0.00000000000E+00 -0.17040919080E+04  0.17040919080E+04  0.00000000000E+00 0. -1.
         24    2    1    2    0    0 -0.88460995772E+03  0.50033359634E+03  0.82161879444E+03  0.13092699508E+04  0.79132015406E+02 0.  0.
        254    2    1    2    0    0  0.88460995772E+03 -0.50033359634E+03 -0.11442711848E+04  0.17762614748E+04  0.90159846800E+03 0.  0.
         23    2    4    4    0    0  0.10214773031E+04 -0.28243839061E+03 -0.77219753354E+03  0.13144995153E+04  0.91829296444E+02 0.  0.
         23    2    4    4    0    0 -0.13686734541E+03 -0.21789520574E+03 -0.37207365127E+03  0.46176195946E+03  0.92597593467E+02 0.  0.
          2    1    3    3  502    0 -0.33989139096E+03  0.16437873750E+03  0.34319381335E+03  0.51022399053E+03  0.00000000000E+00 0. -1.
         -1    1    3    3    0  502 -0.54471856675E+03  0.33595485884E+03  0.47842498109E+03  0.79904596030E+03  0.00000000000E+00 0.  1.
         11    1    5    5    0    0  0.63189069495E+03 -0.21576279569E+03 -0.50974990742E+03  0.84005023807E+03  0.00000000000E+00 0.  1.
        -11    1    5    5    0    0  0.38958660818E+03 -0.66675594914E+02 -0.26244762613E+03  0.47444927726E+03  0.00000000000E+00 0. -1.
          1    1    6    6  503    0  0.27146525757E+01 -0.15589047747E+02 -0.72776669660E+02  0.74477052808E+02  0.00000000000E+00 0. -1.
         -1    1    6    6    0  503 -0.13958199799E+03 -0.20230615799E+03 -0.29929698161E+03  0.38728490666E+03  0.00000000000E+00 0.  1.
<mgrwt>
<rscale>  0 0.30686153E+04</rscale>
<asrwt>0</asrwt>
<pdfrwt beam="1">  1        2 0.26216799E+00 0.30686153E+04</pdfrwt>
<pdfrwt beam="2">  1       -1 0.21252916E+00 0.30686153E+04</pdfrwt>
<totfact> 0.11680230E+00</totfact>
</mgrwt>
</event>
<event>
12    6  0.2195833E-007  0.1637550E+04  0.7818608E-02  0.8797806E-01
          2   -1    0    0  501    0  0.00000000000E+00  0.00000000000E+00  0.68720278719E+03  0.68720278719E+03  0.00000000000E+00 0. -1.
         -1   -1    0    0    0  501 -0.00000000000E+00 -0.00000000000E+00 -0.97553791884E+03  0.97553791884E+03  0.00000000000E+00 0.  1.
         24    2    1    2    0    0 -0.46166657776E+03 -0.17847267987E+02 -0.43167418988E+03  0.63837863828E+03  0.87921132895E+02 0.  0.
        254    2    1    2    0    0  0.46166657776E+03  0.17847267987E+02  0.14333905823E+03  0.10243620677E+04  0.90294906070E+03 0.  0.
         23    2    4    4    0    0  0.43647180832E+03 -0.36233168436E+03 -0.68869898566E+02  0.57819895312E+03  0.88199078837E+02 0.  0.
         23    2    4    4    0    0  0.25194769437E+02  0.38017895235E+03  0.21220895680E+03  0.44616311463E+03  0.94117327271E+02 0.  0.
          2    1    3    3  502    0 -0.88776534295E+02 -0.18399537238E+02 -0.13127333716E+03  0.15953841250E+03  0.00000000000E+00 0. -1.
         -1    1    3    3    0  502 -0.37289004346E+03  0.55226925098E+00 -0.30040085272E+03  0.47884022578E+03  0.00000000000E+00 0.  1.
         11    1    5    5    0    0 -0.19700491797E+01 -0.47114180710E+01  0.55374258156E+01  0.75327046055E+01  0.00000000000E+00 0. -1.
        -11    1    5    5    0    0  0.43844185750E+03 -0.35762026629E+03 -0.74407324382E+02  0.57066624851E+03  0.00000000000E+00 0.  1.
          4    1    6    6  503    0 -0.26139444611E+02  0.37309923623E+02  0.19957566121E+02  0.49735353731E+02  0.00000000000E+00 0. -1.
         -4    1    6    6    0  503  0.51334214049E+02  0.34286902872E+03  0.19225139068E+03  0.39642776089E+03  0.00000000000E+00 0.  1.
<mgrwt>
<rscale>  0 0.16375498E+04</rscale>
<asrwt>0</asrwt>
<pdfrwt beam="1">  1        2 0.10572351E+00 0.16375498E+04</pdfrwt>
<pdfrwt beam="2">  1       -1 0.15008276E+00 0.16375498E+04</pdfrwt>
<totfact> 0.15957294E+01</totfact>
</mgrwt>
</event>
<event>
12    6  0.1521603E-007  0.1140778E+04  0.7818608E-02  0.9166333E-01
         -1   -1    0    0    0  501 -0.00000000000E+00  0.00000000000E+00  0.19275497251E+03  0.19275497251E+03  0.00000000000E+00 0.  1.
          2   -1    0    0  501    0  0.00000000000E+00 -0.00000000000E+00 -0.16878615926E+04  0.16878615926E+04  0.00000000000E+00 0. -1.
         24    2    1    2    0    0  0.53138404546E+02 -0.13380261537E+03 -0.49531602167E+03  0.52221006081E+03  0.81477336542E+02 0.  0.
        254    2    1    2    0    0 -0.53138404546E+02  0.13380261537E+03 -0.99979059838E+03  0.13584065043E+04  0.90827317492E+03 0.  0.
         23    2    4    4    0    0 -0.32538590447E+03 -0.23286779668E+03 -0.26341298297E+03  0.48758020704E+03  0.90800116450E+02 0.  0.
         23    2    4    4    0    0  0.27224749992E+03  0.36667041205E+03 -0.73637761541E+03  0.87082629721E+03  0.86721134411E+02 0.  0.
          2    1    3    3  502    0  0.91565683542E+01 -0.40382600786E+02 -0.28414700796E+03  0.28714825321E+03  0.00000000000E+00 0. -1.
         -1    1    3    3    0  502  0.43981836192E+02 -0.93420014584E+02 -0.21116901371E+03  0.23506180760E+03  0.00000000000E+00 0.  1.
         11    1    5    5    0    0 -0.12035302660E+03 -0.13027012853E+03 -0.14749172879E+03  0.23067069051E+03  0.00000000000E+00 0.  1.
        -11    1    5    5    0    0 -0.20503287786E+03 -0.10259766816E+03 -0.11592125418E+03  0.25690951653E+03  0.00000000000E+00 0. -1.
          1    1    6    6  503    0  0.13652974486E+03  0.11389154680E+03 -0.27119085792E+03  0.32427787017E+03  0.00000000000E+00 0. -1.
         -1    1    6    6    0  503  0.13571775506E+03  0.25277886526E+03 -0.46518675749E+03  0.54654842704E+03  0.00000000000E+00 0.  1.
<mgrwt>
<rscale>  0 0.11407782E+04</rscale>
<asrwt>0</asrwt>
<pdfrwt beam="1">  1        2 0.25967102E+00 0.11407782E+04</pdfrwt>
<pdfrwt beam="2">  1       -1 0.29654611E-01 0.11407782E+04</pdfrwt>
<totfact> 0.11702892E+02</totfact>
</mgrwt>
</event>
<event>
12    6  0.1521603E-007  0.1268805E+04  0.7818608E-02  0.9054676E-01
          2   -1    0    0  501    0  0.00000000000E+00  0.00000000000E+00  0.91015658903E+03  0.91015658903E+03  0.00000000000E+00 0. -1.
         -1   -1    0    0    0  501 -0.00000000000E+00 -0.00000000000E+00 -0.44219475918E+03  0.44219475918E+03  0.00000000000E+00 0.  1.
         24    2    1    2    0    0 -0.15980304788E+03  0.20901306802E+03 -0.11615369969E+02  0.27509207636E+03  0.79481173493E+02 0.  0.
        254    2    1    2    0    0  0.15980304788E+03 -0.20901306802E+03  0.47957719981E+03  0.10772592719E+04  0.92804621194E+03 0.  0.
         23    2    4    4    0    0  0.18796338842E+03 -0.23558290992E+03 -0.21109318014E+03  0.37956498559E+03  0.93164933059E+02 0.  0.
         23    2    4    4    0    0 -0.28160340547E+02  0.26569841894E+02  0.69067037995E+03  0.69769428626E+03  0.90844824095E+02 0.  0.
          2    1    3    3  502    0  0.70966268438E+01  0.23940526114E+02  0.44404462195E+01  0.25361949172E+02  0.00000000000E+00 0. -1.
         -1    1    3    3    0  502 -0.16689967472E+03  0.18507254191E+03 -0.16055816189E+02  0.24973012718E+03  0.00000000000E+00 0.  1.
         11    1    5    5    0    0  0.11996020782E+02 -0.15832741738E+02 -0.53201375791E+02  0.56788789489E+02  0.00000000000E+00 0.  1.
        -11    1    5    5    0    0  0.17596736764E+03 -0.21975016818E+03 -0.15789180435E+03  0.32277619610E+03  0.00000000000E+00 0. -1.
          2    1    6    6  503    0  0.31282846903E+02 -0.12182567732E+01  0.29019521926E+03  0.29187902621E+03  0.00000000000E+00 0.  1.
         -2    1    6    6    0  503 -0.59443187450E+02  0.27788098667E+02  0.40047516069E+03  0.40581526006E+03  0.00000000000E+00 0. -1.
<mgrwt>
<rscale>  0 0.12688049E+04</rscale>
<asrwt>0</asrwt>
<pdfrwt beam="1">  1        2 0.14002409E+00 0.12688049E+04</pdfrwt>
<pdfrwt beam="2">  1       -1 0.68029963E-01 0.12688049E+04</pdfrwt>
<totfact> 0.70786047E+01</totfact>
</mgrwt>
</event>
<event>
12    6  0.1521603E-007  0.2149724E+04  0.7818608E-02  0.8539650E-01
         -1   -1    0    0    0  501 -0.00000000000E+00  0.00000000000E+00  0.39040392688E+03  0.39040392688E+03  0.00000000000E+00 0.  1.
          2   -1    0    0  501    0  0.00000000000E+00 -0.00000000000E+00 -0.29593156442E+04  0.29593156442E+04  0.00000000000E+00 0. -1.
         24    2    1    2    0    0 -0.46945169610E+03  0.21957711027E+03  0.63623037023E+02  0.52816393555E+03  0.79437079808E+02 0.  0.
        254    2    1    2    0    0  0.46945169610E+03 -0.21957711027E+03 -0.26325347543E+04  0.28215556355E+04  0.87311967635E+03 0.  0.
         23    2    4    4    0    0  0.68863672961E+03 -0.28627766860E+02 -0.16040003256E+04  0.17482868854E+04  0.93004810925E+02 0.  0.
         23    2    4    4    0    0 -0.21918503350E+03 -0.19094934341E+03 -0.10285344287E+04  0.10732687501E+04  0.97565404527E+02 0.  0.
          4    1    3    3  502    0 -0.31209667810E+03  0.15869296677E+03  0.78397682978E+02  0.35879519350E+03  0.00000000000E+00 0. -1.
         -3    1    3    3    0  502 -0.15735501800E+03  0.60884143502E+02 -0.14774645955E+02  0.16936874205E+03  0.00000000000E+00 0.  1.
         11    1    5    5    0    0  0.17743597736E+03 -0.44817262281E+02 -0.38223076017E+03  0.42378351440E+03  0.00000000000E+00 0.  1.
        -11    1    5    5    0    0  0.51120075225E+03  0.16189495420E+02 -0.12217695654E+04  0.13245033710E+04  0.00000000000E+00 0. -1.
          4    1    6    6  503    0 -0.12763854866E+03 -0.13178551895E+03 -0.47698010284E+03  0.51104700431E+03  0.00000000000E+00 0. -1.
         -4    1    6    6    0  503 -0.91546484842E+02 -0.59163824463E+02 -0.55155432590E+03  0.56222174578E+03  0.00000000000E+00 0.  1.
<mgrwt>
<rscale>  0 0.21497241E+04</rscale>
<asrwt>0</asrwt>
<pdfrwt beam="1">  1        2 0.45527933E+00 0.21497241E+04</pdfrwt>
<pdfrwt beam="2">  1       -1 0.60062143E-01 0.21497241E+04</pdfrwt>
<totfact> 0.54269863E+00</totfact>
</mgrwt>
</event>
<event>
12    6  0.1521603E-007  0.1573592E+04  0.7818608E-02  0.8836938E-01
          2   -1    0    0  501    0  0.00000000000E+00  0.00000000000E+00  0.15192516620E+04  0.15192516620E+04  0.00000000000E+00 0. -1.
         -1   -1    0    0    0  501 -0.00000000000E+00 -0.00000000000E+00 -0.40746902031E+03  0.40746902031E+03  0.00000000000E+00 0.  1.
         24    2    1    2    0    0  0.46865155017E+03 -0.28668328514E+02  0.67246395369E+03  0.82714420906E+03  0.10725495341E+03 0.  0.
        254    2    1    2    0    0 -0.46865155017E+03  0.28668328514E+02  0.43931868799E+03  0.10995764732E+04  0.89197049410E+03 0.  0.
         23    2    4    4    0    0 -0.69974778874E+03  0.14754537452E+03  0.39029454252E+03  0.81971603368E+03  0.90487239727E+02 0.  0.
         23    2    4    4    0    0  0.23109623857E+03 -0.11887704601E+03  0.49024145470E+02  0.27986043956E+03  0.91549304977E+02 0.  0.
          4    1    3    3  502    0  0.24545085008E+03  0.12823379894E+02  0.27039918449E+03  0.36541247632E+03  0.00000000000E+00 0. -1.
         -3    1    3    3    0  502  0.22320070009E+03 -0.41491708408E+02  0.40206476920E+03  0.46173173274E+03  0.00000000000E+00 0.  1.
         11    1    5    5    0    0 -0.47574849486E+03  0.14011989094E+03  0.28608551793E+03  0.57255142806E+03  0.00000000000E+00 0. -1.
        -11    1    5    5    0    0 -0.22399929388E+03  0.74254835824E+01  0.10420902459E+03  0.24716460562E+03  0.00000000000E+00 0.  1.
          2    1    6    6  503    0  0.14133048060E+03 -0.11204286394E+03  0.57843983432E+02  0.18940389258E+03  0.00000000000E+00 0. -1.
         -2    1    6    6    0  503  0.89765757978E+02 -0.68341820664E+01 -0.88198379622E+01  0.90456546980E+02  0.00000000000E+00 0.  1.
<mgrwt>
<rscale>  0 0.15735921E+04</rscale>
<asrwt>0</asrwt>
<pdfrwt beam="1">  1        2 0.23373102E+00 0.15735921E+04</pdfrwt>
<pdfrwt beam="2">  1       -1 0.62687542E-01 0.15735921E+04</pdfrwt>
<totfact> 0.34983660E+01</totfact>
</mgrwt>
</event>
<event>
12    6  0.1521603E-007  0.1987355E+04  0.7818608E-02  0.8612556E-01
         -1   -1    0    0    0  501 -0.00000000000E+00  0.00000000000E+00  0.37840349072E+03  0.37840349072E+03  0.00000000000E+00 0.  1.
          2   -1    0    0  501    0  0.00000000000E+00 -0.00000000000E+00 -0.26093704517E+04  0.26093704517E+04  0.00000000000E+00 0. -1.
         24    2    1    2    0    0  0.43297482401E+02 -0.75753285564E+03 -0.53427744924E+03  0.93186238968E+03  0.84760964919E+02 0.  0.
        254    2    1    2    0    0 -0.43297482401E+02  0.75753285564E+03 -0.16966895117E+04  0.20559115527E+04  0.87879822150E+03 0.  0.
         23    2    4    4    0    0  0.92347521305E+02  0.61826930017E+03 -0.41349650585E+03  0.75494126283E+03  0.90398881324E+02 0.  0.
         23    2    4    4    0    0 -0.13564500371E+03  0.13926355546E+03 -0.12831930059E+04  0.13009702899E+04  0.90252423682E+02 0.  0.
          4    1    3    3  502    0 -0.30861098655E+00 -0.13114512884E+03 -0.13243853587E+03  0.18638429613E+03  0.00000000000E+00 0. -1.
         -3    1    3    3    0  502  0.43606093388E+02 -0.62638772680E+03 -0.40183891337E+03  0.74547809355E+03  0.00000000000E+00 0.  1.
         11    1    5    5    0    0  0.94033903989E+02  0.62055920793E+03 -0.41421994135E+03  0.75200682541E+03  0.00000000000E+00 0.  1.
        -11    1    5    5    0    0 -0.16863826844E+01 -0.22899077537E+01  0.72343550060E+00  0.29344374251E+01  0.00000000000E+00 0. -1.
          1    1    6    6  503    0 -0.41855408639E+02  0.72455005357E+02 -0.31389785065E+03  0.32485914436E+03  0.00000000000E+00 0. -1.
         -1    1    6    6    0  503 -0.93789595067E+02  0.66808550107E+02 -0.96929515521E+03  0.97611114552E+03  0.00000000000E+00 0.  1.
<mgrwt>
<rscale>  0 0.19873549E+04</rscale>
<asrwt>0</asrwt>
<pdfrwt beam="1">  1        2 0.40144159E+00 0.19873549E+04</pdfrwt>
<pdfrwt beam="2">  1       -1 0.58215924E-01 0.19873549E+04</pdfrwt>
<totfact> 0.95187011E+00</totfact>
</mgrwt>
</event>
<event>
12    6  0.1521603E-007  0.1820780E+04  0.7818608E-02  0.8695326E-01
          2   -1    0    0  501    0  0.00000000000E+00  0.00000000000E+00  0.62451427031E+03  0.62451427031E+03  0.00000000000E+00 0. -1.
         -1   -1    0    0    0  501 -0.00000000000E+00 -0.00000000000E+00 -0.13271274004E+04  0.13271274004E+04  0.00000000000E+00 0.  1.
         24    2    1    2    0    0  0.82113969755E+02  0.33145680670E+03 -0.91013532330E+03  0.97689918491E+03  0.96847261320E+02 0.  0.
        254    2    1    2    0    0 -0.82113969755E+02 -0.33145680670E+03  0.20752219323E+03  0.97474248579E+03  0.88907318831E+03 0.  0.
         23    2    4    4    0    0  0.30251846049E+03 -0.39518001348E+03  0.26326301068E+03  0.57033785682E+03  0.91066987103E+02 0.  0.
         23    2    4    4    0    0 -0.38463243024E+03  0.63723206777E+02 -0.55740817451E+02  0.40440462897E+03  0.91833064448E+02 0.  0.
          2    1    3    3  502    0  0.78215654328E+02  0.11885005183E+03 -0.35927172544E+03  0.38641842102E+03  0.00000000000E+00 0. -1.
         -1    1    3    3    0  502  0.38983154268E+01  0.21260675488E+03 -0.55086359786E+03  0.59048076389E+03  0.00000000000E+00 0.  1.
         11    1    5    5    0    0  0.53177421286E+02 -0.25786449342E+02  0.43804481697E+02  0.73563657611E+02  0.00000000000E+00 0.  1.
        -11    1    5    5    0    0  0.24934103920E+03 -0.36939356414E+03  0.21945852898E+03  0.49677419921E+03  0.00000000000E+00 0. -1.
          2    1    6    6  503    0 -0.30239501692E+03  0.85271376556E+02 -0.30192791575E+02  0.31563516690E+03  0.00000000000E+00 0. -1.
         -2    1    6    6    0  503 -0.82237413320E+02 -0.21548169780E+02 -0.25548025876E+02  0.88769462072E+02  0.00000000000E+00 0.  1.
<mgrwt>
<rscale>  0 0.18207801E+04</rscale>
<asrwt>0</asrwt>
<pdfrwt beam="1">  1        2 0.96079118E-01 0.18207801E+04</pdfrwt>
<pdfrwt beam="2">  1       -1 0.20417345E+00 0.18207801E+04</pdfrwt>
<totfact> 0.71617297E+00</totfact>
</mgrwt>
</event>
<event>
12    6  0.1521603E-007  0.1691081E+04  0.7818608E-02  0.8766468E-01
          2   -1    0    0  501    0  0.00000000000E+00  0.00000000000E+00  0.61821998384E+03  0.61821998384E+03  0.00000000000E+00 0. -1.
         -1   -1    0    0    0  501 -0.00000000000E+00 -0.00000000000E+00 -0.11564468326E+04  0.11564468326E+04  0.00000000000E+00 0.  1.
         24    2    1    2    0    0  0.21969721362E+03  0.45773842774E+03 -0.54210833513E+03  0.74700137863E+03  0.79613307604E+02 0.  0.
        254    2    1    2    0    0 -0.21969721362E+03 -0.45773842774E+03  0.38814863218E+01  0.10276654379E+04  0.89347067794E+03 0.  0.
         23    2    4    4    0    0 -0.16903862368E+03 -0.16699492101E+03  0.43069773274E+03  0.50048863685E+03  0.92341641167E+02 0.  0.
         23    2    4    4    0    0 -0.50658589943E+02 -0.29074350673E+03 -0.42681624641E+03  0.52717680102E+03  0.92979524005E+02 0.  0.
          2    1    3    3  502    0  0.26363987380E+01 -0.22991544265E+01 -0.11214953079E+02  0.11747845843E+02  0.00000000000E+00 0. -1.
         -1    1    3    3    0  502  0.21706081488E+03  0.46003758217E+03 -0.53089338205E+03  0.73525353278E+03  0.00000000000E+00 0.  1.
         11    1    5    5    0    0 -0.12505604659E+03 -0.11670912865E+03  0.21536787895E+03  0.27503337758E+03  0.00000000000E+00 0. -1.
        -11    1    5    5    0    0 -0.43982577086E+02 -0.50285792355E+02  0.21532985379E+03  0.22545525927E+03  0.00000000000E+00 0.  1.
          4    1    6    6  503    0  0.27465880061E+02 -0.84968384235E+02 -0.12594001128E+03  0.15438551528E+03  0.00000000000E+00 0. -1.
         -4    1    6    6    0  503 -0.78124470004E+02 -0.20577512250E+03 -0.30087623514E+03  0.37279128574E+03  0.00000000000E+00 0.  1.
<mgrwt>
<rscale>  0 0.16910808E+04</rscale>
<asrwt>0</asrwt>
<pdfrwt beam="1">  1        2 0.95110768E-01 0.16910808E+04</pdfrwt>
<pdfrwt beam="2">  1       -1 0.17791489E+00 0.16910808E+04</pdfrwt>
<totfact> 0.11205892E+01</totfact>
</mgrwt>
</event>
<event>
12    6  0.1521603E-007  0.1950048E+04  0.7818608E-02  0.8630338E-01
         -1   -1    0    0    0  501 -0.00000000000E+00  0.00000000000E+00  0.10244054241E+04  0.10244054241E+04  0.00000000000E+00 0.  1.
          2   -1    0    0  501    0  0.00000000000E+00 -0.00000000000E+00 -0.92802263698E+03  0.92802263698E+03  0.00000000000E+00 0. -1.
         24    2    1    2    0    0 -0.66054283808E+03  0.35780408489E+03  0.21690576317E+03  0.78608483287E+03  0.80874286810E+02 0.  0.
        254    2    1    2    0    0  0.66054283808E+03 -0.35780408489E+03 -0.12052297605E+03  0.11663432282E+04  0.88401930644E+03 0.  0.
         23    2    4    4    0    0  0.65674284522E+03  0.11842344925E+03 -0.61395958529E+02  0.67808703826E+03  0.10342770252E+03 0.  0.
         23    2    4    4    0    0  0.37999928594E+01 -0.47622753414E+03 -0.59127017517E+02  0.48825618996E+03  0.89949978393E+02 0.  0.
          2    1    3    3  502    0 -0.32881728421E+03  0.19026018114E+03  0.69057971446E+02  0.38612011906E+03  0.00000000000E+00 0. -1.
         -1    1    3    3    0  502 -0.33172555387E+03  0.16754390375E+03  0.14784779173E+03  0.39996471381E+03  0.00000000000E+00 0.  1.
         11    1    5    5    0    0  0.56883565405E+03  0.13771053555E+03 -0.50828843664E+02  0.58747064971E+03  0.00000000000E+00 0.  1.
        -11    1    5    5    0    0  0.87907191175E+02 -0.19287086296E+02 -0.10567114865E+02  0.90616388554E+02  0.00000000000E+00 0. -1.
          3    1    6    6  503    0  0.11508580658E+02 -0.65961371558E+01 -0.86976572399E+01  0.15862083583E+02  0.00000000000E+00 0. -1.
         -3    1    6    6    0  503 -0.77085877989E+01 -0.46963139699E+03 -0.50429360277E+02  0.47239410638E+03  0.00000000000E+00 0.  1.
<mgrwt>
<rscale>  0 0.19500476E+04</rscale>
<asrwt>0</asrwt>
<pdfrwt beam="1">  1        2 0.14277271E+00 0.19500476E+04</pdfrwt>
<pdfrwt beam="2">  1       -1 0.15760083E+00 0.19500476E+04</pdfrwt>
<totfact> 0.91080431E+00</totfact>
</mgrwt>
</event>
<event>
12    6  0.1521603E-007  0.2019036E+04  0.7818608E-02  0.8597772E-01
         -1   -1    0    0    0  501 -0.00000000000E+00  0.00000000000E+00  0.15181806888E+04  0.15181806888E+04  0.00000000000E+00 0.  1.
          2   -1    0    0  501    0  0.00000000000E+00 -0.00000000000E+00 -0.67128126786E+03  0.67128126786E+03  0.00000000000E+00 0. -1.
         24    2    1    2    0    0  0.58557529223E+03  0.31177967479E+03  0.83393694632E+03  0.10686079432E+04  0.79794218878E+02 0.  0.
        254    2    1    2    0    0 -0.58557529223E+03 -0.31177967479E+03  0.12962474582E+02  0.11208540134E+04  0.90334971365E+03 0.  0.
         23    2    4    4    0    0  0.21371233127E+03 -0.15798669317E+03  0.97600318397E+02  0.29745694449E+03  0.91225303067E+02 0.  0.
         23    2    4    4    0    0 -0.79928762350E+03 -0.15379298162E+03 -0.84637843815E+02  0.82339706891E+03  0.91138258792E+02 0.  0.
          4    1    3    3  502    0  0.30938620381E+03  0.20854560428E+03  0.45205868262E+03  0.58614686274E+03  0.00000000000E+00 0. -1.
         -3    1    3    3    0  502  0.27618908842E+03  0.10323407052E+03  0.38187826371E+03  0.48246108047E+03  0.00000000000E+00 0.  1.
         11    1    5    5    0    0  0.10568331377E+03 -0.49543062129E+02  0.15164087501E+01  0.11672950488E+03  0.00000000000E+00 0. -1.
        -11    1    5    5    0    0  0.10802901751E+03 -0.10844363104E+03  0.96083909647E+02  0.18072743962E+03  0.00000000000E+00 0.  1.
          4    1    6    6  503    0 -0.17178788241E+03 -0.50651538455E+02  0.14966974362E+02  0.17972385822E+03  0.00000000000E+00 0. -1.
         -4    1    6    6    0  503 -0.62749974109E+03 -0.10314144317E+03 -0.99604818176E+02  0.64367321070E+03  0.00000000000E+00 0.  1.
<mgrwt>
<rscale>  0 0.20190357E+04</rscale>
<asrwt>0</asrwt>
<pdfrwt beam="1">  1        2 0.10327404E+00 0.20190357E+04</pdfrwt>
<pdfrwt beam="2">  1       -1 0.23356626E+00 0.20190357E+04</pdfrwt>
<totfact> 0.40888069E+00</totfact>
</mgrwt>
</event>
<event>
12    6  0.1521603E-007  0.2043055E+04  0.7818608E-02  0.8586752E-01
         -3   -1    0    0    0  501 -0.00000000000E+00  0.00000000000E+00  0.96104204415E+03  0.96104204415E+03  0.00000000000E+00 0.  1.
          4   -1    0    0  501    0  0.00000000000E+00 -0.00000000000E+00 -0.10858196461E+04  0.10858196461E+04  0.00000000000E+00 0. -1.
         24    2    1    2    0    0  0.83334698496E+02 -0.60311028610E+03  0.50518156043E+03  0.79513179633E+03  0.79620822393E+02 0.  0.
        254    2    1    2    0    0 -0.83334698496E+02  0.60311028610E+03 -0.62995916235E+03  0.12517298939E+04  0.89403159444E+03 0.  0.
         23    2    4    4    0    0 -0.18654356840E+02 -0.18365219001E+03  0.42399344929E+02  0.21070551058E+03  0.92320072639E+02 0.  0.
         23    2    4    4    0    0 -0.64680341655E+02  0.78676247611E+03 -0.67235850728E+03  0.10410243833E+04  0.92125262113E+02 0.  0.
          4    1    3    3  502    0  0.35607548625E+02 -0.70644363288E+02  0.73824901947E+02  0.10820646806E+03  0.00000000000E+00 0. -1.
         -3    1    3    3    0  502  0.47727149870E+02 -0.53246592282E+03  0.43135665848E+03  0.68692532826E+03  0.00000000000E+00 0.  1.
         11    1    5    5    0    0 -0.55015794060E+02 -0.11040466843E+03  0.36857902252E+02  0.12874173125E+03  0.00000000000E+00 0. -1.
        -11    1    5    5    0    0  0.36361437219E+02 -0.73247521582E+02  0.55414426772E+01  0.81963779326E+02  0.00000000000E+00 0.  1.
          4    1    6    6  503    0 -0.38676760734E+02  0.48183913141E+03 -0.35189391424E+03  0.59790815955E+03  0.00000000000E+00 0. -1.
         -4    1    6    6    0  503 -0.26003580922E+02  0.30492334470E+03 -0.32046459304E+03  0.44311622376E+03  0.00000000000E+00 0.  1.
<mgrwt>
<rscale>  0 0.20430549E+04</rscale>
<asrwt>0</asrwt>
<pdfrwt beam="1">  1        4 0.16704918E+00 0.20430549E+04</pdfrwt>
<pdfrwt beam="2">  1       -3 0.14785262E+00 0.20430549E+04</pdfrwt>
<totfact> 0.15724756E-01</totfact>
</mgrwt>
</event>
<event>
12    6  0.1521603E-007  0.2792219E+04  0.7818608E-02  0.8305688E-01
         -1   -1    0    0    0  501 -0.00000000000E+00  0.00000000000E+00  0.13013173597E+04  0.13013173597E+04  0.00000000000E+00 0.  1.
          2   -1    0    0  501    0  0.00000000000E+00 -0.00000000000E+00 -0.14978064149E+04  0.14978064149E+04  0.00000000000E+00 0. -1.
         24    2    1    2    0    0 -0.21109584538E+03 -0.96736341422E+03 -0.85260248578E+03  0.13091334655E+04  0.80907358073E+02 0.  0.
        254    2    1    2    0    0  0.21109584538E+03  0.96736341422E+03  0.65611343052E+03  0.14899903091E+04  0.89957370822E+03 0.  0.
         23    2    4    4    0    0 -0.26366801244E+03  0.47857047687E+03  0.57371061238E+03  0.79763038246E+03  0.92302969294E+02 0.  0.
         23    2    4    4    0    0  0.47476385782E+03  0.48879293735E+03  0.82402818140E+02  0.69235992669E+03  0.90844853195E+02 0.  0.
          4    1    3    3  502    0 -0.13606532643E+03 -0.76262225495E+03 -0.68542808923E+03  0.10343684751E+04  0.00000000000E+00 0. -1.
         -3    1    3    3    0  502 -0.75030518951E+02 -0.20474115927E+03 -0.16717439654E+03  0.27476499037E+03  0.00000000000E+00 0.  1.
         11    1    5    5    0    0 -0.22606834635E+03  0.35655742998E+03  0.48003693310E+03  0.63927736956E+03  0.00000000000E+00 0.  1.
        -11    1    5    5    0    0 -0.37599666087E+02  0.12201304689E+03  0.93673679280E+02  0.15835301289E+03  0.00000000000E+00 0. -1.
          3    1    6    6  503    0  0.65620266562E+00  0.76833694645E+01 -0.77245472762E+01  0.10914824730E+02  0.00000000000E+00 0. -1.
         -3    1    6    6    0  503  0.47410765516E+03  0.48110956789E+03  0.90127365416E+02  0.68144510196E+03  0.00000000000E+00 0.  1.
<mgrwt>
<rscale>  0 0.27922188E+04</rscale>
<asrwt>0</asrwt>
<pdfrwt beam="1">  1        2 0.23043175E+00 0.27922188E+04</pdfrwt>
<pdfrwt beam="2">  1       -1 0.20020267E+00 0.27922188E+04</pdfrwt>
<totfact> 0.18936951E+00</totfact>
</mgrwt>
</event>
<event>
12    6  0.1521603E-007  0.2442360E+04  0.7818608E-02  0.8423813E-01
          2   -1    0    0  501    0  0.00000000000E+00  0.00000000000E+00  0.12785179585E+04  0.12785179585E+04  0.00000000000E+00 0. -1.
         -1   -1    0    0    0  501 -0.00000000000E+00 -0.00000000000E+00 -0.11664131816E+04  0.11664131816E+04  0.00000000000E+00 0.  1.
         24    2    1    2    0    0 -0.97796370753E+03  0.13819605881E+03 -0.31949047081E+03  0.10413331182E+04  0.82397440254E+02 0.  0.
        254    2    1    2    0    0  0.97796370753E+03 -0.13819605881E+03  0.43159524764E+03  0.14035980220E+04  0.89905605250E+03 0.  0.
         23    2    4    4    0    0  0.51102316421E+03  0.37089466118E+03  0.18351114207E+03  0.66351310090E+03  0.88689186236E+02 0.  0.
         23    2    4    4    0    0  0.46694054332E+03 -0.50909071998E+03  0.24808410557E+03  0.74008492105E+03  0.94726631770E+02 0.  0.
          2    1    3    3  502    0 -0.34894506274E+02 -0.24108328936E+01  0.21708196883E+01  0.35044987395E+02  0.00000000000E+00 0. -1.
         -1    1    3    3    0  502 -0.94306920125E+03  0.14060689170E+03 -0.32166129050E+03  0.10062881308E+04  0.00000000000E+00 0.  1.
         11    1    5    5    0    0  0.32415600560E+02  0.22151538348E+02 -0.99901476404E+01  0.40512527207E+02  0.00000000000E+00 0. -1.
        -11    1    5    5    0    0  0.47860756365E+03  0.34874312283E+03  0.19350128971E+03  0.62300057370E+03  0.00000000000E+00 0.  1.
          4    1    6    6  503    0  0.93722347138E+02 -0.14415877464E+03  0.30802491121E+02  0.17468378321E+03  0.00000000000E+00 0.  1.
         -4    1    6    6    0  503  0.37321819618E+03 -0.36493194534E+03  0.21728161445E+03  0.56540113784E+03  0.00000000000E+00 0. -1.
<mgrwt>
<rscale>  0 0.24423597E+04</rscale>
<asrwt>0</asrwt>
<pdfrwt beam="1">  1        2 0.19669507E+00 0.24423597E+04</pdfrwt>
<pdfrwt beam="2">  1       -1 0.17944818E+00 0.24423597E+04</pdfrwt>
<totfact> 0.36497782E+00</totfact>
</mgrwt>
</event>
<event>
12    6  0.1521603E-007  0.1781514E+04  0.7818608E-02  0.8716193E-01
          2   -1    0    0  501    0  0.00000000000E+00  0.00000000000E+00  0.22254314198E+04  0.22254314198E+04  0.00000000000E+00 0. -1.
         -1   -1    0    0    0  501 -0.00000000000E+00 -0.00000000000E+00 -0.35653658401E+03  0.35653658401E+03  0.00000000000E+00 0.  1.
         24    2    1    2    0    0 -0.46455883697E+03  0.34145048521E+03  0.11528797419E+04  0.12915200248E+04  0.80553884940E+02 0.  0.
        254    2    1    2    0    0  0.46455883697E+03 -0.34145048521E+03  0.71601509394E+03  0.12904479790E+04  0.90563515003E+03 0.  0.
         23    2    4    4    0    0  0.64196152432E+03  0.29128746565E+02  0.48801244971E+03  0.81209883556E+03  0.91571202150E+02 0.  0.
         23    2    4    4    0    0 -0.17740268736E+03 -0.37057923177E+03  0.22800264423E+03  0.47834914346E+03  0.89621519609E+02 0.  0.
          4    1    3    3  502    0 -0.36488300218E+03  0.30091972573E+03  0.90019579998E+03  0.10168799167E+04  0.00000000000E+00 0. -1.
         -3    1    3    3    0  502 -0.99675834792E+02  0.40530759476E+02  0.25268394192E+03  0.27464010816E+03  0.00000000000E+00 0.  1.
         11    1    5    5    0    0  0.15249952185E+03  0.37459666009E+02  0.15037503681E+03  0.21742120972E+03  0.00000000000E+00 0. -1.
        -11    1    5    5    0    0  0.48946200248E+03 -0.83309194435E+01  0.33763741290E+03  0.59467762584E+03  0.00000000000E+00 0.  1.
          1    1    6    6  503    0  0.21157373050E+01 -0.28615234465E+02  0.38848767098E+02  0.48296321732E+02  0.00000000000E+00 0. -1.
         -1    1    6    6    0  503 -0.17951842466E+03 -0.34196399731E+03  0.18915387713E+03  0.43005282173E+03  0.00000000000E+00 0.  1.
<mgrwt>
<rscale>  0 0.17815136E+04</rscale>
<asrwt>0</asrwt>
<pdfrwt beam="1">  1        2 0.34237406E+00 0.17815136E+04</pdfrwt>
<pdfrwt beam="2">  1       -1 0.54851784E-01 0.17815136E+04</pdfrwt>
<totfact> 0.18073342E+01</totfact>
</mgrwt>
</event>
<event>
12    6  0.1521603E-007  0.1509341E+04  0.7818608E-02  0.8878265E-01
          2   -1    0    0  501    0  0.00000000000E+00  0.00000000000E+00  0.79982929940E+03  0.79982929940E+03  0.00000000000E+00 0. -1.
         -1   -1    0    0    0  501 -0.00000000000E+00 -0.00000000000E+00 -0.71206134218E+03  0.71206134218E+03  0.00000000000E+00 0.  1.
         24    2    1    2    0    0  0.18362613904E+03 -0.10673290112E+03 -0.40312254609E+03  0.46247812551E+03  0.79169175097E+02 0.  0.
        254    2    1    2    0    0 -0.18362613904E+03  0.10673290112E+03  0.49089050332E+03  0.10494125161E+04  0.90287467099E+03 0.  0.
         23    2    4    4    0    0 -0.51860578408E+03  0.11995037286E+03  0.14535175407E+03  0.55916013584E+03  0.90514495355E+02 0.  0.
         23    2    4    4    0    0  0.33497964504E+03 -0.13217471740E+02  0.34553874925E+03  0.49025238023E+03  0.92543529968E+02 0.  0.
          4    1    3    3  502    0  0.67616265386E+02  0.84105970306E+00 -0.10311488656E+03  0.12330996130E+03  0.00000000000E+00 0. -1.
         -3    1    3    3    0  502  0.11600987366E+03 -0.10757396083E+03 -0.30000765954E+03  0.33916816421E+03  0.00000000000E+00 0.  1.
         11    1    5    5    0    0 -0.12330091804E+03  0.51845041497E+02  0.38755615403E+01  0.13381346978E+03  0.00000000000E+00 0. -1.
        -11    1    5    5    0    0 -0.39530486604E+03  0.68105331367E+02  0.14147619252E+03  0.42534666606E+03  0.00000000000E+00 0.  1.
          2    1    6    6  503    0  0.10864648291E+03 -0.44950447409E+02  0.95272820051E+02  0.15133245260E+03  0.00000000000E+00 0. -1.
         -2    1    6    6    0  503  0.22633316213E+03  0.31732975669E+02  0.25026592920E+03  0.33891992763E+03  0.00000000000E+00 0.  1.
<mgrwt>
<rscale>  0 0.15093409E+04</rscale>
<asrwt>0</asrwt>
<pdfrwt beam="1">  1        2 0.12305066E+00 0.15093409E+04</pdfrwt>
<pdfrwt beam="2">  1       -1 0.10954790E+00 0.15093409E+04</pdfrwt>
<totfact> 0.29280893E+01</totfact>
</mgrwt>
</event>
<event>
12    6  0.1521603E-007  0.3194316E+04  0.7818608E-02  0.8190320E-01
          2   -1    0    0  501    0  0.00000000000E+00  0.00000000000E+00  0.21026153557E+04  0.21026153557E+04  0.00000000000E+00 0. -1.
         -1   -1    0    0    0  501 -0.00000000000E+00 -0.00000000000E+00 -0.12132097660E+04  0.12132097660E+04  0.00000000000E+00 0.  1.
         24    2    1    2    0    0 -0.59942827406E+01  0.14267215756E+04  0.47718132540E+02  0.14297653280E+04  0.79884210408E+02 0.  0.
        254    2    1    2    0    0  0.59942827406E+01 -0.14267215756E+04  0.84168745723E+03  0.18860597938E+04  0.90178344640E+03 0.  0.
         23    2    4    4    0    0 -0.40404025939E+03 -0.38976831304E+03  0.26441846453E+03  0.62716147925E+03  0.90810393711E+02 0.  0.
         23    2    4    4    0    0  0.41003454213E+03 -0.10369532626E+04  0.57726899270E+03  0.12588983145E+04  0.90471442156E+02 0.  0.
          2    1    3    3  502    0 -0.20461863833E+02  0.10360795843E+03 -0.21875729562E+01  0.10563182473E+03  0.00000000000E+00 0. -1.
         -1    1    3    3    0  502  0.14467581092E+02  0.13231136172E+04  0.49905705496E+02  0.13241335032E+04  0.00000000000E+00 0.  1.
         11    1    5    5    0    0 -0.36624928784E+03 -0.34058457928E+03  0.20267160147E+03  0.53964078286E+03  0.00000000000E+00 0. -1.
        -11    1    5    5    0    0 -0.37790971547E+02 -0.49183733768E+02  0.61746863061E+02  0.87520696385E+02  0.00000000000E+00 0.  1.
          3    1    6    6  503    0  0.25253727471E+03 -0.56923115754E+03  0.36350518957E+03  0.72106532900E+03  0.00000000000E+00 0. -1.
         -3    1    6    6    0  503  0.15749726742E+03 -0.46772210504E+03  0.21376380312E+03  0.53783298552E+03  0.00000000000E+00 0.  1.
<mgrwt>
<rscale>  0 0.31943159E+04</rscale>
<asrwt>0</asrwt>
<pdfrwt beam="1">  1        2 0.32347929E+00 0.31943159E+04</pdfrwt>
<pdfrwt beam="2">  1       -1 0.18664766E+00 0.31943159E+04</pdfrwt>
<totfact> 0.10468321E+00</totfact>
</mgrwt>
</event>
<event>
12    6  0.1521603E-007  0.1835222E+04  0.7818608E-02  0.8687790E-01
         -1   -1    0    0    0  501 -0.00000000000E+00  0.00000000000E+00  0.31622905537E+04  0.31622905537E+04  0.00000000000E+00 0.  1.
          2   -1    0    0  501    0  0.00000000000E+00 -0.00000000000E+00 -0.26626594319E+03  0.26626594319E+03  0.00000000000E+00 0. -1.
         24    2    1    2    0    0 -0.27245109528E+03 -0.21371546340E+03  0.22246805354E+04  0.22528928066E+04  0.80116258553E+02 0.  0.
        254    2    1    2    0    0  0.27245109528E+03  0.21371546340E+03  0.67134407507E+03  0.11756636902E+04  0.90087643259E+03 0.  0.
         23    2    4    4    0    0  0.43653640743E+03  0.16595635914E+03 -0.19006613550E+01  0.47559476256E+03  0.89895592266E+02 0.  0.
         23    2    4    4    0    0 -0.16408531216E+03  0.47759104256E+02  0.67324473642E+03  0.70006892767E+03  0.87367652275E+02 0.  0.
          4    1    3    3  502    0 -0.58955862477E+02 -0.91893114206E+02  0.63396249074E+03  0.64329509389E+03  0.00000000000E+00 0. -1.
         -3    1    3    3    0  502 -0.21349523280E+03 -0.12182234919E+03  0.15907180447E+04  0.16095977127E+04  0.00000000000E+00 0.  1.
         11    1    5    5    0    0  0.17700219074E+03  0.23556711027E+02  0.14180777181E+02  0.17912506414E+03  0.00000000000E+00 0. -1.
        -11    1    5    5    0    0  0.25953421669E+03  0.14239964812E+03 -0.16081438536E+02  0.29646969842E+03  0.00000000000E+00 0.  1.
          2    1    6    6  503    0 -0.36953506826E+02  0.30565482033E+02  0.81370556913E+02  0.94450928482E+02  0.00000000000E+00 0. -1.
         -2    1    6    6    0  503 -0.12713180533E+03  0.17193622223E+02  0.59187417951E+03  0.60561799919E+03  0.00000000000E+00 0.  1.
<mgrwt>
<rscale>  0 0.18352224E+04</rscale>
<asrwt>0</asrwt>
<pdfrwt beam="1">  1        2 0.40963994E-01 0.18352224E+04</pdfrwt>
<pdfrwt beam="2">  1       -1 0.48650621E+00 0.18352224E+04</pdfrwt>
<totfact> 0.24651983E-01</totfact>
</mgrwt>
</event>
<event>
12    6  0.1521603E-007  0.2121496E+04  0.7818608E-02  0.8551833E-01
         -1   -1    0    0    0  501 -0.00000000000E+00  0.00000000000E+00  0.45470071814E+03  0.45470071814E+03  0.00000000000E+00 0.  1.
          2   -1    0    0  501    0  0.00000000000E+00 -0.00000000000E+00 -0.24745653018E+04  0.24745653018E+04  0.00000000000E+00 0. -1.
         24    2    1    2    0    0 -0.41401480411E+03  0.74705295333E+03 -0.65578073125E+03  0.10797258330E+04  0.79139963669E+02 0.  0.
        254    2    1    2    0    0  0.41401480411E+03 -0.74705295333E+03 -0.13640838524E+04  0.18495401869E+04  0.91136039724E+03 0.  0.
         23    2    4    4    0    0  0.44015484078E+03 -0.19793858755E+03 -0.15040330226E+03  0.51404279572E+03  0.93289196598E+02 0.  0.
         23    2    4    4    0    0 -0.26140036671E+02 -0.54911436578E+03 -0.12136805501E+04  0.13354973912E+04  0.91230016758E+02 0.  0.
          4    1    3    3  502    0 -0.38217121997E+01  0.55810494146E+01  0.19536974435E+01  0.70406342332E+01  0.00000000000E+00 0. -1.
         -3    1    3    3    0  502 -0.41019309191E+03  0.74147190392E+03 -0.65773442869E+03  0.10726851988E+04  0.00000000000E+00 0.  1.
         11    1    5    5    0    0  0.41474093098E+03 -0.19873994688E+03 -0.12176558442E+03  0.47574621792E+03  0.00000000000E+00 0.  1.
        -11    1    5    5    0    0  0.25413909803E+02  0.80135933357E+00 -0.28637717847E+02  0.38296577807E+02  0.00000000000E+00 0. -1.
          1    1    6    6  503    0 -0.48868497983E+02 -0.32260672544E+03 -0.64195913360E+03  0.72012134992E+03  0.00000000000E+00 0. -1.
         -1    1    6    6    0  503  0.22728461312E+02 -0.22650764035E+03 -0.57172141653E+03  0.61537604130E+03  0.00000000000E+00 0.  1.
<mgrwt>
<rscale>  0 0.21214963E+04</rscale>
<asrwt>0</asrwt>
<pdfrwt beam="1">  1        2 0.38070235E+00 0.21214963E+04</pdfrwt>
<pdfrwt beam="2">  1       -1 0.69953958E-01 0.21214963E+04</pdfrwt>
<totfact> 0.77916513E+00</totfact>
</mgrwt>
</event>
<event>
12    6  0.1521603E-007  0.3280078E+04  0.7818608E-02  0.8167983E-01
          2   -1    0    0  501    0  0.00000000000E+00  0.00000000000E+00  0.21226381978E+04  0.21226381978E+04  0.00000000000E+00 0. -1.
         -1   -1    0    0    0  501 -0.00000000000E+00 -0.00000000000E+00 -0.12671630698E+04  0.12671630698E+04  0.00000000000E+00 0.  1.
         24    2    1    2    0    0  0.11128231312E+04  0.51395997332E+03 -0.52309593601E+03  0.13352182599E+04  0.81536911644E+02 0.  0.
        254    2    1    2    0    0 -0.11128231312E+04 -0.51395997332E+03  0.13785710641E+04  0.20545830076E+04  0.90461206112E+03 0.  0.
         23    2    4    4    0    0 -0.46077085670E+03 -0.16749456734E+03  0.11857911671E+04  0.12864281189E+04  0.91828104196E+02 0.  0.
         23    2    4    4    0    0 -0.65205227447E+03 -0.34646540598E+03  0.19277989696E+03  0.76815488870E+03  0.87677808910E+02 0.  0.
          4    1    3    3  502    0  0.13905978173E+03  0.39033012388E+02 -0.75693372328E+02  0.16306650657E+03  0.00000000000E+00 0. -1.
         -3    1    3    3    0  502  0.97376334944E+03  0.47492696094E+03 -0.44740256368E+03  0.11721517534E+04  0.00000000000E+00 0.  1.
         11    1    5    5    0    0 -0.31365217798E+02 -0.95193241304E+01  0.34683704367E+02  0.47721627886E+02  0.00000000000E+00 0.  1.
        -11    1    5    5    0    0 -0.42940563890E+03 -0.15797524321E+03  0.11511074628E+04  0.12387064911E+04  0.00000000000E+00 0. -1.
          3    1    6    6  503    0 -0.40336434218E+03 -0.18858450702E+03  0.78211303871E+02  0.45208839499E+03  0.00000000000E+00 0. -1.
         -3    1    6    6    0  503 -0.24868793229E+03 -0.15788089896E+03  0.11456859309E+03  0.31606649371E+03  0.00000000000E+00 0.  1.
<mgrwt>
<rscale>  0 0.32800785E+04</rscale>
<asrwt>0</asrwt>
<pdfrwt beam="1">  1        2 0.32655972E+00 0.32800785E+04</pdfrwt>
<pdfrwt beam="2">  1       -1 0.19494816E+00 0.32800785E+04</pdfrwt>
<totfact> 0.88577997E-01</totfact>
</mgrwt>
</event>
<event>
12    6  0.2073352E-007  0.1777534E+04  0.7818608E-02  0.8718339E-01
         -1   -1    0    0    0  501 -0.00000000000E+00  0.00000000000E+00  0.44510182364E+03  0.44510182364E+03  0.00000000000E+00 0.  1.
          2   -1    0    0  501    0  0.00000000000E+00 -0.00000000000E+00 -0.17746647895E+04  0.17746647895E+04  0.00000000000E+00 0. -1.
         24    2    1    2    0    0 -0.18674944087E+03  0.30382022416E+03 -0.11868868364E+04  0.12418434665E+04  0.79326859185E+02 0.  0.
        254    2    1    2    0    0  0.18674944087E+03 -0.30382022416E+03 -0.14267612941E+03  0.97792314660E+03  0.89933037338E+03 0.  0.
         23    2    4    4    0    0 -0.33915748666E+03 -0.54782879130E+00 -0.21563101673E+02  0.35188125565E+03  0.91254314124E+02 0.  0.
         23    2    4    4    0    0  0.52590692753E+03 -0.30327239537E+03 -0.12111302774E+03  0.62604189096E+03  0.93315816081E+02 0.  0.
          2    1    3    3  502    0 -0.19205559400E+03  0.29841063596E+03 -0.11773106374E+04  0.12296318944E+04  0.00000000000E+00 0. -1.
         -1    1    3    3    0  502  0.53061531345E+01  0.54095881958E+01 -0.95761990664E+01  0.12211572138E+02  0.00000000000E+00 0.  1.
         11    1    5    5    0    0  0.34161037312E+01  0.77664265095E+01  0.48370908557E+00  0.84983010013E+01  0.00000000000E+00 0.  1.
        -11    1    5    5    0    0 -0.34257359039E+03 -0.83142553008E+01 -0.22046810759E+02  0.34338295464E+03  0.00000000000E+00 0. -1.
          1    1    6    6  503    0  0.52376606397E+03 -0.30897505584E+03 -0.11947805547E+03  0.61973500840E+03  0.00000000000E+00 0. -1.
         -1    1    6    6    0  503  0.21408635608E+01  0.57026604748E+01 -0.16349722693E+01  0.63068825578E+01  0.00000000000E+00 0.  1.
<mgrwt>
<rscale>  0 0.17775337E+04</rscale>
<asrwt>0</asrwt>
<pdfrwt beam="1">  1        2 0.27302535E+00 0.17775337E+04</pdfrwt>
<pdfrwt beam="2">  1       -1 0.68477204E-01 0.17775337E+04</pdfrwt>
<totfact> 0.20723217E+01</totfact>
</mgrwt>
</event>
<event>
12    6  0.1521603E-007  0.3168895E+04  0.7818608E-02  0.8197081E-01
          2   -1    0    0  501    0  0.00000000000E+00  0.00000000000E+00  0.16661311322E+04  0.16661311322E+04  0.00000000000E+00 0. -1.
         -1   -1    0    0    0  501 -0.00000000000E+00 -0.00000000000E+00 -0.15067682842E+04  0.15067682842E+04  0.00000000000E+00 0.  1.
         24    2    1    2    0    0  0.39788964145E+03 -0.12639381199E+04  0.67626500315E+03  0.14898830394E+04  0.81002338267E+02 0.  0.
        254    2    1    2    0    0 -0.39788964145E+03  0.12639381199E+04 -0.51690215516E+03  0.16830163770E+04  0.89972248477E+03 0.  0.
         23    2    4    4    0    0 -0.26684411658E+02  0.11542272526E+04 -0.54802709357E+03  0.12812808158E+04  0.91620004438E+02 0.  0.
         23    2    4    4    0    0 -0.37120522979E+03  0.10971086737E+03  0.31124938403E+02  0.40173556127E+03  0.10292182642E+03 0.  0.
          2    1    3    3  502    0  0.27427205830E+03 -0.95098195322E+03  0.53338653261E+03  0.11243189185E+04  0.00000000000E+00 0. -1.
         -1    1    3    3    0  502  0.12361758315E+03 -0.31295616671E+03  0.14287847054E+03  0.36556412090E+03  0.00000000000E+00 0.  1.
         11    1    5    5    0    0 -0.40603269851E+02  0.11130504463E+04 -0.53673957389E+03  0.12363734434E+04  0.00000000000E+00 0.  1.
        -11    1    5    5    0    0  0.13918858193E+02  0.41176806304E+02 -0.11287519681E+02  0.44907372349E+02  0.00000000000E+00 0. -1.
          1    1    6    6  503    0 -0.21583111019E+03  0.19026223910E+02 -0.11072006047E+02  0.21695081157E+03  0.00000000000E+00 0. -1.
         -1    1    6    6    0  503 -0.15537411960E+03  0.90684643456E+02  0.42196944450E+02  0.18478474970E+03  0.00000000000E+00 0.  1.
<mgrwt>
<rscale>  0 0.31688948E+04</rscale>
<asrwt>0</asrwt>
<pdfrwt beam="1">  1        2 0.25632787E+00 0.31688948E+04</pdfrwt>
<pdfrwt beam="2">  1       -1 0.23181051E+00 0.31688948E+04</pdfrwt>
<totfact> 0.90368669E-01</totfact>
</mgrwt>
</event>
<event>
12    6  0.1521603E-007  0.3366346E+04  0.7818608E-02  0.8146216E-01
          2   -1    0    0  501    0  0.00000000000E+00  0.00000000000E+00  0.21240206984E+04  0.21240206984E+04  0.00000000000E+00 0. -1.
         -1   -1    0    0    0  501 -0.00000000000E+00 -0.00000000000E+00 -0.13338246089E+04  0.13338246089E+04  0.00000000000E+00 0.  1.
         24    2    1    2    0    0  0.71837844101E+02  0.85893126859E+02  0.19714690381E+04  0.19763522108E+04  0.82094991809E+02 0.  0.
        254    2    1    2    0    0 -0.71837844101E+02 -0.85893126859E+02 -0.11812729486E+04  0.14814930965E+04  0.88706127799E+03 0.  0.
         23    2    4    4    0    0  0.19564716144E+03 -0.35367963719E+03 -0.28323577152E+03  0.50284121675E+03  0.96227280150E+02 0.  0.
         23    2    4    4    0    0 -0.26748500555E+03  0.26778651033E+03 -0.89803717706E+03  0.97865187978E+03  0.89615216884E+02 0.  0.
          2    1    3    3  502    0  0.24748661052E+02  0.68614967262E+02  0.15800004521E+04  0.15816832612E+04  0.00000000000E+00 0. -1.
         -3    1    3    3    0  502  0.47089183050E+02  0.17278159597E+02  0.39146858599E+03  0.39466894960E+03  0.00000000000E+00 0.  1.
         11    1    5    5    0    0  0.18531265755E+03 -0.32504194303E+03 -0.28782045308E+03  0.47205260193E+03  0.00000000000E+00 0. -1.
        -11    1    5    5    0    0  0.10334503898E+02 -0.28637694160E+02  0.45846815540E+01  0.30788614821E+02  0.00000000000E+00 0.  1.
          2    1    6    6  503    0 -0.21951927528E+03  0.16663922632E+03 -0.59949010432E+03  0.65980734245E+03  0.00000000000E+00 0. -1.
         -2    1    6    6    0  503 -0.47965730266E+02  0.10114728401E+03 -0.29854707274E+03  0.31884453733E+03  0.00000000000E+00 0.  1.
<mgrwt>
<rscale>  0 0.33663458E+04</rscale>
<asrwt>0</asrwt>
<pdfrwt beam="1">  1        2 0.32677241E+00 0.33663458E+04</pdfrwt>
<pdfrwt beam="2">  1       -1 0.20520379E+00 0.33663458E+04</pdfrwt>
<totfact> 0.74592613E-01</totfact>
</mgrwt>
</event>
<event>
12    6  0.1521603E-007  0.2329359E+04  0.7818608E-02  0.8466434E-01
         -1   -1    0    0    0  501 -0.00000000000E+00  0.00000000000E+00  0.69368021471E+03  0.69368021471E+03  0.00000000000E+00 0.  1.
          2   -1    0    0  501    0  0.00000000000E+00 -0.00000000000E+00 -0.19554805241E+04  0.19554805241E+04  0.00000000000E+00 0. -1.
         24    2    1    2    0    0 -0.58790207210E+01  0.86295779277E+02 -0.16282840195E+04  0.16326232653E+04  0.81659989168E+02 0.  0.
        254    2    1    2    0    0  0.58790207210E+01 -0.86295779277E+02  0.36648371009E+03  0.10165374735E+04  0.94422274963E+03 0.  0.
         23    2    4    4    0    0 -0.45045424554E+03  0.51844088986E+02  0.18631296364E+03  0.49856524119E+03  0.90873221705E+02 0.  0.
         23    2    4    4    0    0  0.45633326626E+03 -0.13813986826E+03  0.18017074645E+03  0.51797223233E+03  0.92255419853E+02 0.  0.
          2    1    3    3  502    0  0.28973957228E+02  0.25110810513E+02 -0.93186307033E+03  0.93265150236E+03  0.00000000000E+00 0. -1.
         -1    1    3    3    0  502 -0.34852977949E+02  0.61184968765E+02 -0.69642094916E+03  0.69997176293E+03  0.00000000000E+00 0.  1.
         11    1    5    5    0    0 -0.19384728816E+03  0.61604585308E+02  0.58051578117E+02  0.21152276894E+03  0.00000000000E+00 0.  1.
        -11    1    5    5    0    0 -0.25660695738E+03 -0.97604963220E+01  0.12826138552E+03  0.28704247226E+03  0.00000000000E+00 0. -1.
          3    1    6    6  503    0  0.44116398749E+03 -0.14756201055E+03  0.18300569486E+03  0.49989128335E+03  0.00000000000E+00 0. -1.
         -3    1    6    6    0  503  0.15169278768E+02  0.94221422907E+01 -0.28349484064E+01  0.18080948984E+02  0.00000000000E+00 0.  1.
<mgrwt>
<rscale>  0 0.23293588E+04</rscale>
<asrwt>0</asrwt>
<pdfrwt beam="1">  1        2 0.30084316E+00 0.23293588E+04</pdfrwt>
<pdfrwt beam="2">  1       -1 0.10672003E+00 0.23293588E+04</pdfrwt>
<totfact> 0.59673088E+00</totfact>
</mgrwt>
</event>
<event>
12    6  0.1521603E-007  0.3581147E+04  0.7818608E-02  0.8094824E-01
          2   -1    0    0  501    0  0.00000000000E+00  0.00000000000E+00  0.19190130811E+04  0.19190130811E+04  0.00000000000E+00 0. -1.
         -1   -1    0    0    0  501 -0.00000000000E+00 -0.00000000000E+00 -0.16707303333E+04  0.16707303333E+04  0.00000000000E+00 0.  1.
         24    2    1    2    0    0 -0.10848897913E+04 -0.10497293875E+04  0.84089008723E+03  0.17298604759E+04  0.80021752243E+02 0.  0.
        254    2    1    2    0    0  0.10848897913E+04  0.10497293875E+04 -0.59260733945E+03  0.18598829385E+04  0.91052920850E+03 0.  0.
         23    2    4    4    0    0  0.32855850583E+03 -0.39020853041E+02 -0.38478996979E+03  0.51522351763E+03  0.88986704325E+02 0.  0.
         23    2    4    4    0    0  0.75633128552E+03  0.10887502406E+04 -0.20781736966E+03  0.13446594208E+04  0.86641785727E+02 0.  0.
          4    1    3    3  502    0 -0.31851931509E+03 -0.34815498505E+03  0.28965172774E+03  0.55368273504E+03  0.00000000000E+00 0. -1.
         -3    1    3    3    0  502 -0.76637047626E+03 -0.70157440250E+03  0.55123835948E+03  0.11761777409E+04  0.00000000000E+00 0.  1.
         11    1    5    5    0    0  0.44675432664E+02 -0.95846479151E+01 -0.14973401770E+02  0.48082871377E+02  0.00000000000E+00 0.  1.
        -11    1    5    5    0    0  0.28388307316E+03 -0.29436205126E+02 -0.36981656802E+03  0.46714064625E+03  0.00000000000E+00 0. -1.
          4    1    6    6  503    0  0.48986625737E+03  0.77531148348E+03 -0.14496248058E+03  0.92848853913E+03  0.00000000000E+00 0. -1.
         -4    1    6    6    0  503  0.26646502814E+03  0.31343875711E+03 -0.62854889088E+02  0.41617088169E+03  0.00000000000E+00 0.  1.
<mgrwt>
<rscale>  0 0.35811469E+04</rscale>
<asrwt>0</asrwt>
<pdfrwt beam="1">  1        2 0.29523278E+00 0.35811469E+04</pdfrwt>
<pdfrwt beam="2">  1       -1 0.25703543E+00 0.35811469E+04</pdfrwt>
<totfact> 0.43171753E-01</totfact>
</mgrwt>
</event>
<event>
12    6  0.1521603E-007  0.1688847E+04  0.7818608E-02  0.8767751E-01
          2   -1    0    0  501    0  0.00000000000E+00  0.00000000000E+00  0.97137304182E+03  0.97137304182E+03  0.00000000000E+00 0. -1.
         -1   -1    0    0    0  501 -0.00000000000E+00 -0.00000000000E+00 -0.73406484025E+03  0.73406484025E+03  0.00000000000E+00 0.  1.
         24    2    1    2    0    0 -0.26726134300E+02 -0.32580544925E+03  0.56568102066E+03  0.65848189020E+03  0.82096927902E+02 0.  0.
        254    2    1    2    0    0  0.26726134300E+02  0.32580544925E+03 -0.32837281909E+03  0.10469559919E+04  0.93884219311E+03 0.  0.
         23    2    4    4    0    0  0.32987727307E+03  0.27554467468E+03 -0.51390032584E+03  0.67615413156E+03  0.91361817485E+02 0.  0.
         23    2    4    4    0    0 -0.30315113877E+03  0.50260774564E+02  0.18552750675E+03  0.37080186030E+03  0.92988200572E+02 0.  0.
          4    1    3    3  502    0 -0.47453868798E+01 -0.30057947255E+03  0.53166306496E+03  0.61076685623E+03  0.00000000000E+00 0. -1.
         -3    1    3    3    0  502 -0.21980747420E+02 -0.25225976693E+02  0.34017955698E+02  0.47715033974E+02  0.00000000000E+00 0.  1.
         11    1    5    5    0    0  0.27865878677E+03  0.18914157878E+03 -0.36603455822E+03  0.49739979300E+03  0.00000000000E+00 0. -1.
        -11    1    5    5    0    0  0.51218486307E+02  0.86403095898E+02 -0.14786576762E+03  0.17875433856E+03  0.00000000000E+00 0.  1.
          2    1    6    6  503    0 -0.27528538632E+03  0.49435858009E+02  0.12948467539E+03  0.30820809389E+03  0.00000000000E+00 0. -1.
         -2    1    6    6    0  503 -0.27865752450E+02  0.82491655493E+00  0.56042831358E+02  0.62593766411E+02  0.00000000000E+00 0.  1.
<mgrwt>
<rscale>  0 0.16888467E+04</rscale>
<asrwt>0</asrwt>
<pdfrwt beam="1">  1        2 0.14944201E+00 0.16888467E+04</pdfrwt>
<pdfrwt beam="2">  1       -1 0.11293305E+00 0.16888467E+04</pdfrwt>
<totfact> 0.20482374E+01</totfact>
</mgrwt>
</event>
<event>
12    6  0.1521603E-007  0.1391605E+04  0.7818608E-02  0.8959918E-01
         -1   -1    0    0    0  501 -0.00000000000E+00  0.00000000000E+00  0.25961883584E+03  0.25961883584E+03  0.00000000000E+00 0.  1.
          2   -1    0    0  501    0  0.00000000000E+00 -0.00000000000E+00 -0.18648144734E+04  0.18648144734E+04  0.00000000000E+00 0. -1.
         24    2    1    2    0    0  0.10173259369E+03  0.32879678953E+03 -0.74546563719E+03  0.82489922273E+03  0.79264506534E+02 0.  0.
        254    2    1    2    0    0 -0.10173259369E+03 -0.32879678953E+03 -0.85973000041E+03  0.12995340866E+04  0.91169968691E+03 0.  0.
         23    2    4    4    0    0  0.29919796919E+03  0.11802093011E+02 -0.35910618035E+02  0.31792100130E+03  0.10062542625E+03 0.  0.
         23    2    4    4    0    0 -0.40093056288E+03 -0.34059888254E+03 -0.82381938238E+03  0.98161308527E+03  0.90182921608E+02 0.  0.
          2    1    3    3  502    0  0.85500662783E+02  0.31412969307E+03 -0.72584920510E+03  0.79551549071E+03  0.00000000000E+00 0. -1.
         -1    1    3    3    0  502  0.16231930907E+02  0.14667096460E+02 -0.19616432089E+02  0.29383732020E+02  0.00000000000E+00 0.  1.
         11    1    5    5    0    0  0.20631100672E+03  0.56547303852E+01 -0.71261328142E+02  0.21834464582E+03  0.00000000000E+00 0. -1.
        -11    1    5    5    0    0  0.92886962474E+02  0.61473626259E+01  0.35350710107E+02  0.99576355477E+02  0.00000000000E+00 0.  1.
          4    1    6    6  503    0 -0.32608129556E+03 -0.24139332433E+03 -0.67700704855E+03  0.78926439938E+03  0.00000000000E+00 0. -1.
         -4    1    6    6    0  503 -0.74849267321E+02 -0.99205558211E+02 -0.14681233383E+03  0.19234868589E+03  0.00000000000E+00 0.  1.
<mgrwt>
<rscale>  0 0.13916048E+04</rscale>
<asrwt>0</asrwt>
<pdfrwt beam="1">  1        2 0.28689453E+00 0.13916048E+04</pdfrwt>
<pdfrwt beam="2">  1       -1 0.39941360E-01 0.13916048E+04</pdfrwt>
<totfact> 0.53829956E+01</totfact>
</mgrwt>
</event>
<event>
12    6  0.1521603E-007  0.1377304E+04  0.7818608E-02  0.8970413E-01
          2   -1    0    0  501    0  0.00000000000E+00  0.00000000000E+00  0.62382449889E+03  0.62382449889E+03  0.00000000000E+00 0. -1.
         -1   -1    0    0    0  501 -0.00000000000E+00 -0.00000000000E+00 -0.76021616530E+03  0.76021616530E+03  0.00000000000E+00 0.  1.
         24    2    1    2    0    0  0.68675057590E+02 -0.62950554599E+02  0.30449619451E+03  0.32812728107E+03  0.79186768169E+02 0.  0.
        254    2    1    2    0    0 -0.68675057590E+02  0.62950554599E+02 -0.44088786091E+03  0.10559133831E+04  0.95493032777E+03 0.  0.
         23    2    4    4    0    0  0.55680168108E+02 -0.42852325468E+03 -0.19192522018E+03  0.48381272735E+03  0.10250367837E+03 0.  0.
         23    2    4    4    0    0 -0.12435522570E+03  0.49147380928E+03 -0.24896264073E+03  0.57210065577E+03  0.91137459278E+02 0.  0.
          2    1    3    3  502    0  0.84485359260E+02 -0.63222141205E+02  0.27685382444E+03  0.29628171589E+03  0.00000000000E+00 0. -1.
         -1    1    3    3    0  502 -0.15810301671E+02  0.27158660562E+00  0.27642370073E+02  0.31845565177E+02  0.00000000000E+00 0.  1.
         11    1    5    5    0    0  0.80121882725E+02 -0.38655587604E+03 -0.16167086941E+03  0.42659398895E+03  0.00000000000E+00 0. -1.
        -11    1    5    5    0    0 -0.24441714617E+02 -0.41967378644E+02 -0.30254350765E+02  0.57218738399E+02  0.00000000000E+00 0.  1.
          2    1    6    6  503    0 -0.12782663787E+03  0.33840700371E+03 -0.18283901923E+03  0.40532586453E+03  0.00000000000E+00 0. -1.
         -2    1    6    6    0  503  0.34714121714E+01  0.15306680558E+03 -0.66123621504E+02  0.16677479124E+03  0.00000000000E+00 0.  1.
<mgrwt>
<rscale>  0 0.13773038E+04</rscale>
<asrwt>0</asrwt>
<pdfrwt beam="1">  1        2 0.95973000E-01 0.13773038E+04</pdfrwt>
<pdfrwt beam="2">  1       -1 0.11695633E+00 0.13773038E+04</pdfrwt>
<totfact> 0.34737892E+01</totfact>
</mgrwt>
</event>
<event>
12    6  0.1521603E-007  0.1085078E+04  0.7818608E-02  0.9219860E-01
         -1   -1    0    0    0  501 -0.00000000000E+00  0.00000000000E+00  0.42943896603E+03  0.42943896603E+03  0.00000000000E+00 0.  1.
          2   -1    0    0  501    0  0.00000000000E+00 -0.00000000000E+00 -0.68542529781E+03  0.68542529781E+03  0.00000000000E+00 0. -1.
         24    2    1    2    0    0  0.12595600300E+03 -0.11405895078E+03  0.24164351800E+02  0.19015033112E+03  0.81846646744E+02 0.  0.
        254    2    1    2    0    0 -0.12595600300E+03  0.11405895078E+03 -0.28015068359E+03  0.92471393272E+03  0.86471792679E+03 0.  0.
         23    2    4    4    0    0  0.10851820367E+03  0.81806225088E+02 -0.53833257552E+03  0.56271657389E+03  0.91539727344E+02 0.  0.
         23    2    4    4    0    0 -0.23447420667E+03  0.32252725687E+02  0.25818189193E+03  0.36199735883E+03  0.91464783234E+02 0.  0.
          4    1    3    3  502    0  0.60650073685E+02 -0.61839805202E+02 -0.28671619676E+02  0.91239545814E+02  0.00000000000E+00 0. -1.
         -3    1    3    3    0  502  0.65305929312E+02 -0.52219145573E+02  0.52835971476E+02  0.98910785304E+02  0.00000000000E+00 0.  1.
         11    1    5    5    0    0  0.38063856473E+02  0.38831353948E+02 -0.38282594959E+03  0.38666838363E+03  0.00000000000E+00 0. -1.
        -11    1    5    5    0    0  0.70454347199E+02  0.42974871140E+02 -0.15550662593E+03  0.17604819027E+03  0.00000000000E+00 0.  1.
          4    1    6    6  503    0  0.80090072592E+01  0.41380482241E+01  0.14528304182E+02  0.17097931535E+02  0.00000000000E+00 0.  1.
         -4    1    6    6    0  503 -0.24248321393E+03  0.28114677463E+02  0.24365358775E+03  0.34489942729E+03  0.00000000000E+00 0. -1.
<mgrwt>
<rscale>  0 0.10850776E+04</rscale>
<asrwt>0</asrwt>
<pdfrwt beam="1">  1        2 0.10545005E+00 0.10850776E+04</pdfrwt>
<pdfrwt beam="2">  1       -1 0.66067533E-01 0.10850776E+04</pdfrwt>
<totfact> 0.11092156E+02</totfact>
</mgrwt>
</event>
<event>
12    6  0.1521603E-007  0.2191932E+04  0.7818608E-02  0.8521794E-01
         -1   -1    0    0    0  501 -0.00000000000E+00  0.00000000000E+00  0.41538617009E+03  0.41538617009E+03  0.00000000000E+00 0.  1.
          2   -1    0    0  501    0  0.00000000000E+00 -0.00000000000E+00 -0.28916269082E+04  0.28916269082E+04  0.00000000000E+00 0. -1.
         24    2    1    2    0    0  0.17147308897E+03 -0.80745153496E+03 -0.46517005232E+03  0.95085578133E+03  0.79765517296E+02 0.  0.
        254    2    1    2    0    0 -0.17147308897E+03  0.80745153496E+03 -0.20110706858E+04  0.23561572970E+04  0.90867535635E+03 0.  0.
         23    2    4    4    0    0 -0.49090351172E+03  0.45012428301E+03 -0.76249853495E+03  0.10160818259E+04  0.86140194341E+02 0.  0.
         23    2    4    4    0    0  0.31943042275E+03  0.35732725195E+03 -0.12485721509E+04  0.13400754711E+04  0.84565314461E+02 0.  0.
          2    1    3    3  502    0  0.54908792364E+02 -0.19173679334E+03 -0.14903968284E+03  0.24897951815E+03  0.00000000000E+00 0. -1.
         -1    1    3    3    0  502  0.11656429661E+03 -0.61571474163E+03 -0.31613036948E+03  0.70187626317E+03  0.00000000000E+00 0.  1.
         11    1    5    5    0    0 -0.71449681164E+02  0.11172376597E+03 -0.15385611590E+03  0.20312301992E+03  0.00000000000E+00 0. -1.
        -11    1    5    5    0    0 -0.41945383055E+03  0.33840051704E+03 -0.60864241905E+03  0.81295880595E+03  0.00000000000E+00 0.  1.
          3    1    6    6  503    0  0.16512181134E+03  0.19914246465E+03 -0.78497238331E+03  0.82650140736E+03  0.00000000000E+00 0. -1.
         -3    1    6    6    0  503  0.15430861141E+03  0.15818478730E+03 -0.46359976756E+03  0.51357406376E+03  0.00000000000E+00 0.  1.
<mgrwt>
<rscale>  0 0.21919323E+04</rscale>
<asrwt>0</asrwt>
<pdfrwt beam="1">  1        2 0.44486568E+00 0.21919323E+04</pdfrwt>
<pdfrwt beam="2">  1       -1 0.63905564E-01 0.21919323E+04</pdfrwt>
<totfact> 0.52593200E+00</totfact>
</mgrwt>
</event>
<event>
12    6  0.1521603E-007  0.1791389E+04  0.7818608E-02  0.8710892E-01
          2   -1    0    0  501    0  0.00000000000E+00  0.00000000000E+00  0.13793362541E+04  0.13793362541E+04  0.00000000000E+00 0. -1.
         -1   -1    0    0    0  501 -0.00000000000E+00 -0.00000000000E+00 -0.58163374314E+03  0.58163374314E+03  0.00000000000E+00 0.  1.
         24    2    1    2    0    0 -0.77742403235E+02  0.10416600153E+03 -0.42760683003E+03  0.45235868613E+03  0.69902379747E+02 0.  0.
        254    2    1    2    0    0  0.77742403235E+02 -0.10416600153E+03  0.12253093409E+04  0.15086113111E+04  0.87041982383E+03 0.  0.
         23    2    4    4    0    0  0.24613658198E+03 -0.41244450645E+03  0.88499020883E+03  0.10110298810E+04  0.90994849763E+02 0.  0.
         23    2    4    4    0    0 -0.16839417875E+03  0.30827850492E+03  0.34031913212E+03  0.49758143005E+03  0.91531042905E+02 0.  0.
          2    1    3    3  502    0 -0.47339161679E+02  0.18809199835E+02 -0.22034055836E+03  0.22615203710E+03  0.00000000000E+00 0. -1.
         -1    1    3    3    0  502 -0.30403241556E+02  0.85356801698E+02 -0.20726627167E+03  0.22620664903E+03  0.00000000000E+00 0.  1.
         11    1    5    5    0    0  0.24594088077E+03 -0.40241940353E+03  0.82570982983E+03  0.95090746987E+03  0.00000000000E+00 0. -1.
        -11    1    5    5    0    0  0.19570121365E+00 -0.10025102919E+02  0.59280378996E+02  0.60122411141E+02  0.00000000000E+00 0.  1.
          4    1    6    6  503    0 -0.15372226447E+03  0.24567987494E+03  0.23037928497E+03  0.37022121831E+03  0.00000000000E+00 0. -1.
         -4    1    6    6    0  503 -0.14671914282E+02  0.62598629978E+02  0.10993984715E+03  0.12736021174E+03  0.00000000000E+00 0.  1.
<mgrwt>
<rscale>  0 0.17913889E+04</rscale>
<asrwt>0</asrwt>
<pdfrwt beam="1">  1        2 0.21220558E+00 0.17913889E+04</pdfrwt>
<pdfrwt beam="2">  1       -1 0.89482114E-01 0.17913889E+04</pdfrwt>
<totfact> 0.19591320E+01</totfact>
</mgrwt>
</event>
<event>
12    6  0.1521603E-007  0.2040148E+04  0.7818608E-02  0.8588077E-01
         -1   -1    0    0    0  501 -0.00000000000E+00  0.00000000000E+00  0.39363852052E+03  0.39363852052E+03  0.00000000000E+00 0.  1.
          2   -1    0    0  501    0  0.00000000000E+00 -0.00000000000E+00 -0.26434181258E+04  0.26434181258E+04  0.00000000000E+00 0. -1.
         24    2    1    2    0    0  0.48550478780E+03 -0.10244035882E+03 -0.19424682760E+04  0.20063647298E+04  0.78150494063E+02 0.  0.
        254    2    1    2    0    0 -0.48550478780E+03  0.10244035882E+03 -0.30731132930E+03  0.10306919165E+04  0.84951553698E+03 0.  0.
         23    2    4    4    0    0 -0.23392335050E+03  0.46666108642E+03 -0.13347730612E+03  0.54662346227E+03  0.92132050706E+02 0.  0.
         23    2    4    4    0    0 -0.25158143729E+03 -0.36422072761E+03 -0.17383402318E+03  0.48406845424E+03  0.90299738471E+02 0.  0.
          4    1    3    3  502    0  0.30455600597E+03 -0.26333656978E+02 -0.11478761217E+04  0.11878835857E+04  0.00000000000E+00 0. -1.
         -3    1    3    3    0  502  0.18094878183E+03 -0.76106701838E+02 -0.79459215423E+03  0.81848114412E+03  0.00000000000E+00 0.  1.
         11    1    5    5    0    0 -0.17176209273E+03  0.25056294236E+03 -0.96505598859E+02  0.31874336886E+03  0.00000000000E+00 0. -1.
        -11    1    5    5    0    0 -0.62161257774E+02  0.21609814406E+03 -0.36971707262E+02  0.22788009341E+03  0.00000000000E+00 0.  1.
          3    1    6    6  503    0 -0.74135397041E+02 -0.18574209647E+03 -0.71659120946E+02  0.21244108151E+03  0.00000000000E+00 0. -1.
         -3    1    6    6    0  503 -0.17744604025E+03 -0.17847863113E+03 -0.10217490223E+03  0.27162737274E+03  0.00000000000E+00 0.  1.
<mgrwt>
<rscale>  0 0.20401482E+04</rscale>
<asrwt>0</asrwt>
<pdfrwt beam="1">  1        2 0.40667971E+00 0.20401482E+04</pdfrwt>
<pdfrwt beam="2">  1       -1 0.60559772E-01 0.20401482E+04</pdfrwt>
<totfact> 0.83687702E+00</totfact>
</mgrwt>
</event>
<event>
12    6  0.1521603E-007  0.1841155E+04  0.7818608E-02  0.8684715E-01
          2   -1    0    0  501    0  0.00000000000E+00  0.00000000000E+00  0.18852685998E+04  0.18852685998E+04  0.00000000000E+00 0. -1.
         -1   -1    0    0    0  501 -0.00000000000E+00 -0.00000000000E+00 -0.44951845255E+03  0.44951845255E+03  0.00000000000E+00 0.  1.
         24    2    1    2    0    0 -0.62188859896E+03  0.29165385370E+03  0.66224290968E+03  0.95750730858E+03  0.80294300287E+02 0.  0.
        254    2    1    2    0    0  0.62188859896E+03 -0.29165385370E+03  0.77350723752E+03  0.13772797437E+04  0.90927369153E+03 0.  0.
         23    2    4    4    0    0 -0.21641639548E+03  0.30530842679E+02  0.18440165314E+03  0.29944956921E+03  0.88870052491E+02 0.  0.
         23    2    4    4    0    0  0.83830499444E+03 -0.32218469638E+03  0.58910558438E+03  0.10778301745E+04  0.90079150089E+02 0.  0.
          4    1    3    3  502    0 -0.61585218334E+02  0.30341789981E+02  0.36061068477E+02  0.77548462243E+02  0.00000000000E+00 0. -1.
         -3    1    3    3    0  502 -0.56030338062E+03  0.26131206372E+03  0.62618184121E+03  0.87995884633E+03  0.00000000000E+00 0.  1.
         11    1    5    5    0    0 -0.20124323725E+03  0.45130371620E+02  0.13704453840E+03  0.24762228593E+03  0.00000000000E+00 0. -1.
        -11    1    5    5    0    0 -0.15173158232E+02 -0.14599528941E+02  0.47357114737E+02  0.51827283281E+02  0.00000000000E+00 0.  1.
          3    1    6    6  503    0  0.64999499671E+03 -0.20991189884E+03  0.43387468921E+03  0.80919944820E+03  0.00000000000E+00 0. -1.
         -3    1    6    6    0  503  0.18830999773E+03 -0.11227279754E+03  0.15523089517E+03  0.26863072632E+03  0.00000000000E+00 0.  1.
<mgrwt>
<rscale>  0 0.18411551E+04</rscale>
<asrwt>0</asrwt>
<pdfrwt beam="1">  1        2 0.29004132E+00 0.18411551E+04</pdfrwt>
<pdfrwt beam="2">  1       -1 0.69156686E-01 0.18411551E+04</pdfrwt>
<totfact> 0.17538787E+01</totfact>
</mgrwt>
</event>
<event>
12    6  0.1521603E-007  0.1482516E+04  0.7818608E-02  0.8896163E-01
         -1   -1    0    0    0  501 -0.00000000000E+00  0.00000000000E+00  0.38199132412E+03  0.38199132412E+03  0.00000000000E+00 0.  1.
          2   -1    0    0  501    0  0.00000000000E+00 -0.00000000000E+00 -0.14384193732E+04  0.14384193732E+04  0.00000000000E+00 0. -1.
         24    2    1    2    0    0  0.14624943195E+03 -0.26267691416E+03  0.13601088717E+03  0.33940064432E+03  0.79408931216E+02 0.  0.
        254    2    1    2    0    0 -0.14624943195E+03  0.26267691416E+03 -0.11924389362E+04  0.14810100530E+04  0.82528304406E+03 0.  0.
         23    2    4    4    0    0 -0.14829074916E+03  0.50260616392E+03 -0.10721920571E+04  0.11968822268E+04  0.91258727759E+02 0.  0.
         23    2    4    4    0    0  0.20413172175E+01 -0.23992924976E+03 -0.12024687917E+03  0.28412782614E+03  0.93268953947E+02 0.  0.
          4    1    3    3  502    0  0.73255728118E+02 -0.99972591244E+02  0.17220152608E+02  0.12512975009E+03  0.00000000000E+00 0. -1.
         -3    1    3    3    0  502  0.72993703828E+02 -0.16270432292E+03  0.11879073457E+03  0.21427089423E+03  0.00000000000E+00 0.  1.
         11    1    5    5    0    0 -0.14170210482E+03  0.37875594196E+03 -0.87499525132E+03  0.96392543275E+03  0.00000000000E+00 0.  1.
        -11    1    5    5    0    0 -0.65886443442E+01  0.12385022196E+03 -0.19719680576E+03  0.23295679410E+03  0.00000000000E+00 0. -1.
          3    1    6    6  503    0  0.62635168821E+00 -0.12698064294E+01  0.11451546096E+02  0.11538744854E+02  0.00000000000E+00 0. -1.
         -3    1    6    6    0  503  0.14149655293E+01 -0.23865944333E+03 -0.13169842527E+03  0.27258908129E+03  0.00000000000E+00 0.  1.
<mgrwt>
<rscale>  0 0.14825164E+04</rscale>
<asrwt>0</asrwt>
<pdfrwt beam="1">  1        2 0.22129529E+00 0.14825164E+04</pdfrwt>
<pdfrwt beam="2">  1       -1 0.58767896E-01 0.14825164E+04</pdfrwt>
<totfact> 0.44508081E+01</totfact>
</mgrwt>
</event>
<event>
12    6  0.1521603E-007  0.1362137E+04  0.7818608E-02  0.8981691E-01
          2   -1    0    0  501    0  0.00000000000E+00  0.00000000000E+00  0.16655013547E+04  0.16655013547E+04  0.00000000000E+00 0. -1.
         -1   -1    0    0    0  501 -0.00000000000E+00 -0.00000000000E+00 -0.27850713228E+03  0.27850713228E+03  0.00000000000E+00 0.  1.
         24    2    1    2    0    0 -0.22878907094E+02  0.12681271792E+03 -0.11618598802E+03  0.19279794196E+03  0.84065169932E+02 0.  0.
        254    2    1    2    0    0  0.22878907094E+02 -0.12681271792E+03  0.15031802104E+04  0.17512105450E+04  0.88914718585E+03 0.  0.
         23    2    4    4    0    0 -0.12989904006E+02 -0.48503648733E+03  0.10883331611E+04  0.11945446797E+04  0.83897500986E+02 0.  0.
         23    2    4    4    0    0  0.35868811100E+02  0.35822376941E+03  0.41484704934E+03  0.55666586529E+03  0.90376825864E+02 0.  0.
          2    1    3    3  502    0 -0.29642549346E+02  0.29506802212E+01 -0.23767472429E+02  0.38108791520E+02  0.00000000000E+00 0. -1.
         -1    1    3    3    0  502  0.67636422519E+01  0.12386203770E+03 -0.92418515590E+02  0.15468915044E+03  0.00000000000E+00 0.  1.
         11    1    5    5    0    0 -0.16577652296E+02 -0.45988415773E+03  0.10644930587E+04  0.11597041558E+04  0.00000000000E+00 0. -1.
        -11    1    5    5    0    0  0.35877482892E+01 -0.25152329600E+02  0.23840102444E+02  0.34840523914E+02  0.00000000000E+00 0.  1.
          1    1    6    6  503    0  0.37231088049E+02  0.32940733731E+03  0.41026000065E+03  0.52745484729E+03  0.00000000000E+00 0. -1.
         -1    1    6    6    0  503 -0.13622769490E+01  0.28816432093E+02  0.45870486923E+01  0.29211018003E+02  0.00000000000E+00 0.  1.
<mgrwt>
<rscale>  0 0.13621366E+04</rscale>
<asrwt>0</asrwt>
<pdfrwt beam="1">  1        2 0.25623097E+00 0.13621366E+04</pdfrwt>
<pdfrwt beam="2">  1       -1 0.42847252E-01 0.13621366E+04</pdfrwt>
<totfact> 0.61148681E+01</totfact>
</mgrwt>
</event>
<event>
12    6  0.1521603E-007  0.1212508E+04  0.7818608E-02  0.9101978E-01
         -1   -1    0    0    0  501 -0.00000000000E+00  0.00000000000E+00  0.27738018230E+03  0.27738018230E+03  0.00000000000E+00 0.  1.
          2   -1    0    0  501    0  0.00000000000E+00 -0.00000000000E+00 -0.13250550877E+04  0.13250550877E+04  0.00000000000E+00 0. -1.
         24    2    1    2    0    0 -0.22505400331E+03  0.86231934033E+02 -0.97846454422E+02  0.27170534223E+03  0.78515052695E+02 0.  0.
        254    2    1    2    0    0  0.22505400331E+03 -0.86231934033E+02 -0.94982845094E+03  0.13307299277E+04  0.90032372149E+03 0.  0.
         23    2    4    4    0    0  0.22861038776E+03 -0.47005865080E+03 -0.45787089447E+03  0.70045015615E+03  0.88129567449E+02 0.  0.
         23    2    4    4    0    0 -0.35563844444E+01  0.38382671677E+03 -0.49195755646E+03  0.63027977157E+03  0.88852443501E+02 0.  0.
          4    1    3    3  502    0 -0.72312924074E+01 -0.77097816451E+01 -0.18974652895E+02  0.21720261862E+02  0.00000000000E+00 0. -1.
         -3    1    3    3    0  502 -0.21782271090E+03  0.93941715678E+02 -0.78871801528E+02  0.24998508037E+03  0.00000000000E+00 0.  1.
         11    1    5    5    0    0  0.45675348066E+02 -0.15362949449E+03 -0.18207080869E+03  0.24256553419E+03  0.00000000000E+00 0.  1.
        -11    1    5    5    0    0  0.18293503969E+03 -0.31642915631E+03 -0.27580008578E+03  0.45788462196E+03  0.00000000000E+00 0. -1.
          1    1    6    6  503    0 -0.19174836907E+01  0.38413219637E+03 -0.46445555839E+03  0.60272729053E+03  0.00000000000E+00 0. -1.
         -1    1    6    6    0  503 -0.16389007537E+01 -0.30547960098E+00 -0.27501998076E+02  0.27552481043E+02  0.00000000000E+00 0.  1.
<mgrwt>
<rscale>  0 0.12125082E+04</rscale>
<asrwt>0</asrwt>
<pdfrwt beam="1">  1        2 0.20385463E+00 0.12125082E+04</pdfrwt>
<pdfrwt beam="2">  1       -1 0.42673873E-01 0.12125082E+04</pdfrwt>
<totfact> 0.97058613E+01</totfact>
</mgrwt>
</event>
<event>
12    6  0.1521603E-007  0.1863735E+04  0.7818608E-02  0.8673121E-01
         -1   -1    0    0    0  501 -0.00000000000E+00  0.00000000000E+00  0.64126719450E+03  0.64126719450E+03  0.00000000000E+00 0.  1.
          2   -1    0    0  501    0  0.00000000000E+00 -0.00000000000E+00 -0.13541584395E+04  0.13541584395E+04  0.00000000000E+00 0. -1.
         24    2    1    2    0    0 -0.46948231254E+03  0.10077164271E+03 -0.85845638102E+03  0.98697279513E+03  0.81236533979E+02 0.  0.
        254    2    1    2    0    0  0.46948231254E+03 -0.10077164271E+03  0.14556513602E+03  0.10084528389E+04  0.87476817136E+03 0.  0.
         23    2    4    4    0    0  0.58326512360E+03  0.47100719420E+02  0.37275343801E+03  0.69985415541E+03  0.91836981197E+02 0.  0.
         23    2    4    4    0    0 -0.11378281106E+03 -0.14787236213E+03 -0.22718830199E+03  0.30859868346E+03  0.93839540134E+02 0.  0.
          4    1    3    3  502    0 -0.35692224418E+03  0.40246364798E+02 -0.63642925786E+03  0.73079098142E+03  0.00000000000E+00 0. -1.
         -3    1    3    3    0  502 -0.11256006836E+03  0.60525277916E+02 -0.22202712316E+03  0.25618181371E+03  0.00000000000E+00 0.  1.
         11    1    5    5    0    0  0.37498295207E+03  0.31087390289E+02  0.18636960588E+03  0.41989554674E+03  0.00000000000E+00 0. -1.
        -11    1    5    5    0    0  0.20828217153E+03  0.16013329131E+02  0.18638383213E+03  0.27995860867E+03  0.00000000000E+00 0.  1.
          1    1    6    6  503    0 -0.13042220399E+03 -0.13536767044E+03 -0.20673992656E+03  0.27942039068E+03  0.00000000000E+00 0. -1.
         -1    1    6    6    0  503  0.16639392930E+02 -0.12504691689E+02 -0.20448375433E+02  0.29178292773E+02  0.00000000000E+00 0.  1.
<mgrwt>
<rscale>  0 0.18637354E+04</rscale>
<asrwt>0</asrwt>
<pdfrwt beam="1">  1        2 0.20833206E+00 0.18637354E+04</pdfrwt>
<pdfrwt beam="2">  1       -1 0.98656493E-01 0.18637354E+04</pdfrwt>
<totfact> 0.16183515E+01</totfact>
</mgrwt>
</event>
<event>
12    6  0.1521603E-007  0.1438656E+04  0.7818608E-02  0.8926303E-01
          2   -1    0    0  501    0  0.00000000000E+00  0.00000000000E+00  0.36557695449E+03  0.36557695449E+03  0.00000000000E+00 0. -1.
         -1   -1    0    0    0  501 -0.00000000000E+00 -0.00000000000E+00 -0.14153864836E+04  0.14153864836E+04  0.00000000000E+00 0.  1.
         24    2    1    2    0    0 -0.25998361323E+03 -0.31185429731E+03 -0.43996634724E+03  0.60408798075E+03  0.80667960711E+02 0.  0.
        254    2    1    2    0    0  0.25998361323E+03  0.31185429731E+03 -0.60984318186E+03  0.11768754573E+04  0.92102255874E+03 0.  0.
         23    2    4    4    0    0 -0.76620187203E+02  0.10401123419E+03  0.20972384507E+03  0.26221003376E+03  0.89894497559E+02 0.  0.
         23    2    4    4    0    0  0.33660380044E+03  0.20784306312E+03 -0.81956702693E+03  0.91466542356E+03  0.91770736553E+02 0.  0.
          4    1    3    3  502    0 -0.35077570350E+02 -0.78384121435E+02 -0.12833110674E+03  0.15441301561E+03  0.00000000000E+00 0. -1.
         -3    1    3    3    0  502 -0.22490604288E+03 -0.23347017587E+03 -0.31163524051E+03  0.44967496514E+03  0.00000000000E+00 0.  1.
         11    1    5    5    0    0 -0.21700306578E+02  0.56956561038E+02  0.28889914094E+02  0.67450576626E+02  0.00000000000E+00 0. -1.
        -11    1    5    5    0    0 -0.54919880625E+02  0.47054673156E+02  0.18083393097E+03  0.19475945714E+03  0.00000000000E+00 0.  1.
          2    1    6    6  503    0  0.33180011346E+02 -0.73628185411E+01 -0.62516818796E+02  0.71158111851E+02  0.00000000000E+00 0. -1.
         -2    1    6    6    0  503  0.30342378909E+03  0.21520588166E+03 -0.75705020813E+03  0.84350731171E+03  0.00000000000E+00 0.  1.
<mgrwt>
<rscale>  0 0.14386559E+04</rscale>
<asrwt>0</asrwt>
<pdfrwt beam="1">  1        2 0.56242607E-01 0.14386559E+04</pdfrwt>
<pdfrwt beam="2">  1       -1 0.21775177E+00 0.14386559E+04</pdfrwt>
<totfact> 0.11139449E+01</totfact>
</mgrwt>
</event>
<event>
12    6  0.1521603E-007  0.1445001E+04  0.7818608E-02  0.8921874E-01
          2   -1    0    0  501    0  0.00000000000E+00  0.00000000000E+00  0.78979978473E+03  0.78979978473E+03  0.00000000000E+00 0. -1.
         -1   -1    0    0    0  501 -0.00000000000E+00 -0.00000000000E+00 -0.66093560069E+03  0.66093560069E+03  0.00000000000E+00 0.  1.
         24    2    1    2    0    0  0.76322871756E+02  0.13013686741E+03 -0.37665491998E+03  0.41336257145E+03  0.78986718616E+02 0.  0.
        254    2    1    2    0    0 -0.76322871756E+02 -0.13013686741E+03  0.50551910402E+03  0.10373728140E+04  0.89321442309E+03 0.  0.
         23    2    4    4    0    0 -0.32923498576E+03 -0.35620956397E+03  0.10327792180E+03  0.50416231072E+03  0.90732447904E+02 0.  0.
         23    2    4    4    0    0  0.25291211400E+03  0.22607269656E+03  0.40224118221E+03  0.53321050325E+03  0.86267436313E+02 0.  0.
          4    1    3    3  502    0 -0.97830073200E+01  0.40672217080E+02 -0.13992110212E+03  0.14604058098E+03  0.00000000000E+00 0. -1.
         -3    1    3    3    0  502  0.86105879076E+02  0.89464650334E+02 -0.23673381786E+03  0.26732199047E+03  0.00000000000E+00 0.  1.
         11    1    5    5    0    0 -0.17080695456E+03 -0.16091225112E+03  0.93164407795E+02  0.25248242546E+03  0.00000000000E+00 0.  1.
        -11    1    5    5    0    0 -0.15842803120E+03 -0.19529731286E+03  0.10113514009E+02  0.25167988526E+03  0.00000000000E+00 0. -1.
          1    1    6    6  503    0  0.21361976862E+03  0.16690890006E+03  0.35971395305E+03  0.45042881178E+03  0.00000000000E+00 0. -1.
         -1    1    6    6    0  503  0.39292345381E+02  0.59163796499E+02  0.42527229164E+02  0.82781691467E+02  0.00000000000E+00 0.  1.
<mgrwt>
<rscale>  0 0.14450008E+04</rscale>
<asrwt>0</asrwt>
<pdfrwt beam="1">  1        2 0.12150766E+00 0.14450008E+04</pdfrwt>
<pdfrwt beam="2">  1       -1 0.10168240E+00 0.14450008E+04</pdfrwt>
<totfact> 0.35612413E+01</totfact>
</mgrwt>
</event>
<event>
12    6  0.1521603E-007  0.2916447E+04  0.7818608E-02  0.8268001E-01
          2   -1    0    0  501    0  0.00000000000E+00  0.00000000000E+00  0.15804285161E+04  0.15804285161E+04  0.00000000000E+00 0. -1.
         -1   -1    0    0    0  501 -0.00000000000E+00 -0.00000000000E+00 -0.13454679048E+04  0.13454679048E+04  0.00000000000E+00 0.  1.
         24    2    1    2    0    0 -0.99964686763E+03  0.58922180562E+01  0.97350114032E+03  0.13974081925E+04  0.75608254183E+02 0.  0.
        254    2    1    2    0    0  0.99964686763E+03 -0.58922180562E+01 -0.73854052900E+03  0.15284882284E+04  0.88966598965E+03 0.  0.
         23    2    4    4    0    0  0.25423120445E+03 -0.30863651294E+03  0.31160127330E+02  0.41126653444E+03  0.90990144396E+02 0.  0.
         23    2    4    4    0    0  0.74541566318E+03  0.30274429488E+03 -0.76970065633E+03  0.11172216940E+04  0.91905353953E+02 0.  0.
          4    1    3    3  502    0 -0.76417078428E+03  0.16508330247E+02  0.70126587923E+03  0.10373058112E+04  0.00000000000E+00 0. -1.
         -3    1    3    3    0  502 -0.23547608335E+03 -0.10616112191E+02  0.27223526109E+03  0.36010238134E+03  0.00000000000E+00 0.  1.
         11    1    5    5    0    0  0.26167275720E+03 -0.30464470822E+03  0.31349275408E+02  0.40281981974E+03  0.00000000000E+00 0. -1.
        -11    1    5    5    0    0 -0.74415527472E+01 -0.39918047204E+01 -0.18914807779E+00  0.84467146993E+01  0.00000000000E+00 0.  1.
          1    1    6    6  503    0  0.65735812998E+03  0.23835431486E+03 -0.68774233526E+03  0.98077622839E+03  0.00000000000E+00 0. -1.
         -1    1    6    6    0  503  0.88057533199E+02  0.64389980016E+02 -0.81958321065E+02  0.13644546556E+03  0.00000000000E+00 0.  1.
<mgrwt>
<rscale>  0 0.29164470E+04</rscale>
<asrwt>0</asrwt>
<pdfrwt beam="1">  1        2 0.24314285E+00 0.29164470E+04</pdfrwt>
<pdfrwt beam="2">  1       -1 0.20699506E+00 0.29164470E+04</pdfrwt>
<totfact> 0.15124441E+00</totfact>
</mgrwt>
</event>
<event>
12    6  0.1521603E-007  0.2321251E+04  0.7818608E-02  0.8469589E-01
         -1   -1    0    0    0  501 -0.00000000000E+00  0.00000000000E+00  0.10391687746E+04  0.10391687746E+04  0.00000000000E+00 0.  1.
          2   -1    0    0  501    0  0.00000000000E+00 -0.00000000000E+00 -0.12962776036E+04  0.12962776036E+04  0.00000000000E+00 0. -1.
         24    2    1    2    0    0 -0.82144656977E+03 -0.51256654485E+03  0.76739485736E+02  0.97443766968E+03  0.78363853533E+02 0.  0.
        254    2    1    2    0    0  0.82144656977E+03  0.51256654485E+03 -0.33384831467E+03  0.13610087085E+04  0.89632085635E+03 0.  0.
         23    2    4    4    0    0 -0.51456044883E+02  0.18154442968E+03 -0.36657145380E+03  0.42216619193E+03  0.90794043665E+02 0.  0.
         23    2    4    4    0    0  0.87290261465E+03  0.33102211518E+03  0.32723139131E+02  0.93884251657E+03  0.93914065430E+02 0.  0.
          4    1    3    3  502    0 -0.59246858148E+02 -0.54286011324E+02 -0.94322200091E+01  0.80908145450E+02  0.00000000000E+00 0. -1.
         -3    1    3    3    0  502 -0.76219971162E+03 -0.45828053353E+03  0.86171705745E+02  0.89352952423E+03  0.00000000000E+00 0.  1.
         11    1    5    5    0    0  0.15261376626E+02  0.62328623035E+02 -0.66252689525E+02  0.92234406462E+02  0.00000000000E+00 0. -1.
        -11    1    5    5    0    0 -0.66717421509E+02  0.11921580664E+03 -0.30031876428E+03  0.32993178547E+03  0.00000000000E+00 0.  1.
          4    1    6    6  503    0  0.20845539482E+03  0.45145596988E+02 -0.15856939260E+02  0.21387664454E+03  0.00000000000E+00 0. -1.
         -4    1    6    6    0  503  0.66444721983E+03  0.28587651819E+03  0.48580078391E+02  0.72496587203E+03  0.00000000000E+00 0.  1.
<mgrwt>
<rscale>  0 0.23212507E+04</rscale>
<asrwt>0</asrwt>
<pdfrwt beam="1">  1        2 0.19942732E+00 0.23212507E+04</pdfrwt>
<pdfrwt beam="2">  1       -1 0.15987212E+00 0.23212507E+04</pdfrwt>
<totfact> 0.50194086E+00</totfact>
</mgrwt>
</event>
<event>
12    6  0.1521603E-007  0.1395534E+04  0.7818608E-02  0.8957057E-01
          2   -1    0    0  501    0  0.00000000000E+00  0.00000000000E+00  0.11627284391E+04  0.11627284391E+04  0.00000000000E+00 0. -1.
         -1   -1    0    0    0  501 -0.00000000000E+00 -0.00000000000E+00 -0.41873832763E+03  0.41873832763E+03  0.00000000000E+00 0.  1.
         24    2    1    2    0    0  0.97246974080E+02 -0.18978346634E+03  0.67591335644E+03  0.71344176847E+03  0.81642841170E+02 0.  0.
        254    2    1    2    0    0 -0.97246974080E+02  0.18978346634E+03  0.68076755023E+02  0.86802499825E+03  0.83866454256E+03 0.  0.
         23    2    4    4    0    0  0.19211494758E+03  0.38346287954E+03 -0.12941703815E+03  0.45788748404E+03  0.94658571744E+02 0.  0.
         23    2    4    4    0    0 -0.28936192166E+03 -0.19367941320E+03  0.19749379317E+03  0.41013751421E+03  0.89257747090E+02 0.  0.
          4    1    3    3  502    0  0.87143810974E+02 -0.15969736723E+03  0.64073861605E+03  0.66606551254E+03  0.00000000000E+00 0. -1.
         -3    1    3    3    0  502  0.10103163105E+02 -0.30086099112E+02  0.35174740387E+02  0.47376255929E+02  0.00000000000E+00 0.  1.
         11    1    5    5    0    0  0.49028428453E+02  0.20231986455E+03 -0.54416738971E+02  0.21517038799E+03  0.00000000000E+00 0.  1.
        -11    1    5    5    0    0  0.14308651913E+03  0.18114301499E+03 -0.75000299177E+02  0.24271709605E+03  0.00000000000E+00 0. -1.
          1    1    6    6  503    0 -0.34368074819E+02  0.68608481419E+01  0.19952039505E+02  0.40327654090E+02  0.00000000000E+00 0. -1.
         -1    1    6    6    0  503 -0.25499384684E+03 -0.20054026134E+03  0.17754175367E+03  0.36980986012E+03  0.00000000000E+00 0.  1.
<mgrwt>
<rscale>  0 0.13955343E+04</rscale>
<asrwt>0</asrwt>
<pdfrwt beam="1">  1        2 0.17888130E+00 0.13955343E+04</pdfrwt>
<pdfrwt beam="2">  1       -1 0.64421282E-01 0.13955343E+04</pdfrwt>
<totfact> 0.54107011E+01</totfact>
</mgrwt>
</event>
<event>
12    6  0.1521603E-007  0.3253499E+04  0.7818608E-02  0.8174829E-01
         -1   -1    0    0    0  501 -0.00000000000E+00  0.00000000000E+00  0.12082582289E+04  0.12082582289E+04  0.00000000000E+00 0.  1.
          2   -1    0    0  501    0  0.00000000000E+00 -0.00000000000E+00 -0.21901891725E+04  0.21901891725E+04  0.00000000000E+00 0. -1.
         24    2    1    2    0    0  0.37181862662E+03  0.10216486389E+04 -0.15335868914E+04  0.18816079867E+04  0.80900122775E+02 0.  0.
        254    2    1    2    0    0 -0.37181862662E+03 -0.10216486389E+04  0.55165594778E+03  0.15168394147E+04  0.90247575752E+03 0.  0.
         23    2    4    4    0    0 -0.61909128406E+03 -0.41241486957E+03  0.31938882022E+03  0.81485946159E+03  0.92879927992E+02 0.  0.
         23    2    4    4    0    0  0.24727265744E+03 -0.60923376928E+03  0.23226712756E+03  0.70197995311E+03  0.80735885951E+02 0.  0.
          2    1    3    3  502    0  0.31144575212E+03  0.76745398660E+03 -0.11364500648E+04  0.14062371165E+04  0.00000000000E+00 0. -1.
         -1    1    3    3    0  502  0.60372874497E+02  0.25419465226E+03 -0.39713682660E+03  0.47537087022E+03  0.00000000000E+00 0.  1.
         11    1    5    5    0    0 -0.18058840676E+03 -0.17286369111E+03  0.10619277323E+03  0.27160805114E+03  0.00000000000E+00 0. -1.
        -11    1    5    5    0    0 -0.43850287730E+03 -0.23955117847E+03  0.21319604699E+03  0.54325141045E+03  0.00000000000E+00 0.  1.
          3    1    6    6  503    0  0.27920378048E+01 -0.18537056767E+02 -0.60722102637E+01  0.19705067525E+02  0.00000000000E+00 0. -1.
         -3    1    6    6    0  503  0.24448061963E+03 -0.59069671251E+03  0.23833933782E+03  0.68227488559E+03  0.00000000000E+00 0.  1.
<mgrwt>
<rscale>  0 0.32534991E+04</rscale>
<asrwt>0</asrwt>
<pdfrwt beam="1">  1        2 0.33695218E+00 0.32534991E+04</pdfrwt>
<pdfrwt beam="2">  1       -1 0.18588588E+00 0.32534991E+04</pdfrwt>
<totfact> 0.94180345E-01</totfact>
</mgrwt>
</event>
<event>
12    6  0.1521603E-007  0.1659928E+04  0.7818608E-02  0.8784555E-01
         -1   -1    0    0    0  501 -0.00000000000E+00  0.00000000000E+00  0.19744651407E+04  0.19744651407E+04  0.00000000000E+00 0.  1.
          2   -1    0    0  501    0  0.00000000000E+00 -0.00000000000E+00 -0.34887415242E+03  0.34887415242E+03  0.00000000000E+00 0. -1.
         24    2    1    2    0    0 -0.47483658256E+03  0.77361533116E+02  0.10437265167E+04  0.11519118178E+04  0.77982096432E+02 0.  0.
        254    2    1    2    0    0  0.47483658256E+03 -0.77361533116E+02  0.58186447159E+03  0.11714274753E+04  0.89566817502E+03 0.  0.
         23    2    4    4    0    0 -0.15719616245E+03  0.19929996987E+03  0.82991508222E+01  0.26956638116E+03  0.90366179879E+02 0.  0.
         23    2    4    4    0    0  0.63203274501E+03 -0.27666150299E+03  0.57356532077E+03  0.90186109419E+03  0.91483758230E+02 0.  0.
          4    1    3    3  502    0 -0.13262233600E+03 -0.81024921385E+01  0.24339396566E+03  0.27729939940E+03  0.00000000000E+00 0. -1.
         -3    1    3    3    0  502 -0.34221424656E+03  0.85464025254E+02  0.80033255104E+03  0.87461241839E+03  0.00000000000E+00 0.  1.
         11    1    5    5    0    0 -0.13816613955E+03  0.10583507811E+03  0.66331624642E+01  0.17416929902E+03  0.00000000000E+00 0.  1.
        -11    1    5    5    0    0 -0.19030022901E+02  0.93464891759E+02  0.16659883580E+01  0.95397082138E+02  0.00000000000E+00 0. -1.
          3    1    6    6  503    0  0.45351810785E+03 -0.24220468381E+03  0.42071566846E+03  0.66433685483E+03  0.00000000000E+00 0. -1.
         -3    1    6    6    0  503  0.17851463716E+03 -0.34456819181E+02  0.15284965231E+03  0.23752423935E+03  0.00000000000E+00 0.  1.
<mgrwt>
<rscale>  0 0.16599275E+04</rscale>
<asrwt>0</asrwt>
<pdfrwt beam="1">  1        2 0.53672948E-01 0.16599275E+04</pdfrwt>
<pdfrwt beam="2">  1       -1 0.30376386E+00 0.16599275E+04</pdfrwt>
<totfact> 0.31678323E+00</totfact>
</mgrwt>
</event>
<event>
12    6  0.1521603E-007  0.1197837E+04  0.7818608E-02  0.9114752E-01
          2   -1    0    0  501    0  0.00000000000E+00  0.00000000000E+00  0.19946848529E+04  0.19946848529E+04  0.00000000000E+00 0. -1.
         -1   -1    0    0    0  501 -0.00000000000E+00 -0.00000000000E+00 -0.17982964795E+03  0.17982964795E+03  0.00000000000E+00 0.  1.
         24    2    1    2    0    0  0.20673745439E+03 -0.16243930773E+03  0.48568717292E+03  0.55811964312E+03  0.80489765513E+02 0.  0.
        254    2    1    2    0    0 -0.20673745439E+03  0.16243930773E+03  0.13291680320E+04  0.16163948577E+04  0.88142939307E+03 0.  0.
         23    2    4    4    0    0 -0.48533510617E+03  0.22063059211E+03  0.50592717664E+03  0.74057618933E+03  0.90899728684E+02 0.  0.
         23    2    4    4    0    0  0.27859765178E+03 -0.58191284375E+02  0.82324085539E+03  0.87581866840E+03  0.91268596939E+02 0.  0.
          2    1    3    3  502    0  0.17205098262E+02 -0.51704506816E+02  0.11627285796E+03  0.12840852358E+03  0.00000000000E+00 0. -1.
         -1    1    3    3    0  502  0.18953235613E+03 -0.11073480092E+03  0.36941431496E+03  0.42971111954E+03  0.00000000000E+00 0.  1.
         11    1    5    5    0    0 -0.23844740969E+03  0.92139144578E+02  0.18369798479E+03  0.31478840317E+03  0.00000000000E+00 0. -1.
        -11    1    5    5    0    0 -0.24688769648E+03  0.12849144753E+03  0.32222919185E+03  0.42578778616E+03  0.00000000000E+00 0.  1.
          3    1    6    6  503    0  0.62059411258E+01 -0.61745477616E+01  0.19445824961E+01  0.89677280512E+01  0.00000000000E+00 0.  1.
         -3    1    6    6    0  503  0.27239171065E+03 -0.52016736613E+02  0.82129627289E+03  0.86685094035E+03  0.00000000000E+00 0. -1.
<mgrwt>
<rscale>  0 0.11978372E+04</rscale>
<asrwt>0</asrwt>
<pdfrwt beam="1">  1        2 0.30687458E+00 0.11978372E+04</pdfrwt>
<pdfrwt beam="2">  1       -1 0.27666101E-01 0.11978372E+04</pdfrwt>
<totfact> 0.89026498E+01</totfact>
</mgrwt>
</event>
<event>
12    6  0.1521603E-007  0.1797470E+04  0.7818608E-02  0.8707646E-01
          2   -1    0    0  501    0  0.00000000000E+00  0.00000000000E+00  0.56811725960E+03  0.56811725960E+03  0.00000000000E+00 0. -1.
         -1   -1    0    0    0  501 -0.00000000000E+00 -0.00000000000E+00 -0.14217574955E+04  0.14217574955E+04  0.00000000000E+00 0.  1.
         24    2    1    2    0    0 -0.45965966262E+03 -0.13737225611E+03  0.19617585139E+03  0.52431643253E+03  0.79149318121E+02 0.  0.
        254    2    1    2    0    0  0.45965966262E+03  0.13737225611E+03 -0.10498160872E+04  0.14655583225E+04  0.90309979377E+03 0.  0.
         23    2    4    4    0    0  0.37479010224E+03  0.48760777021E+03 -0.48245006050E+03  0.78730666406E+03  0.94152876130E+02 0.  0.
         23    2    4    4    0    0  0.84869560382E+02 -0.35023551411E+03 -0.56736602673E+03  0.67825165847E+03  0.90847929522E+02 0.  0.
          2    1    3    3  502    0 -0.42019798941E+03 -0.10148708886E+03  0.16617583339E+03  0.46312027283E+03  0.00000000000E+00 0. -1.
         -1    1    3    3    0  502 -0.39461673217E+02 -0.35885167245E+02  0.30000017999E+02  0.61196159693E+02  0.00000000000E+00 0.  1.
         11    1    5    5    0    0  0.29619088791E+03  0.35518972160E+03 -0.40590228939E+03  0.61534173347E+03  0.00000000000E+00 0.  1.
        -11    1    5    5    0    0  0.78599214333E+02  0.13241804861E+03 -0.76547771111E+02  0.17196493060E+03  0.00000000000E+00 0. -1.
          1    1    6    6  503    0 -0.32446018577E+01  0.34609691316E+01 -0.11974905582E+01  0.48928245607E+01  0.00000000000E+00 0. -1.
         -1    1    6    6    0  503  0.88114162240E+02 -0.35369648324E+03 -0.56616853618E+03  0.67335883391E+03  0.00000000000E+00 0.  1.
<mgrwt>
<rscale>  0 0.17974704E+04</rscale>
<asrwt>0</asrwt>
<pdfrwt beam="1">  1        2 0.87402657E-01 0.17974704E+04</pdfrwt>
<pdfrwt beam="2">  1       -1 0.21873192E+00 0.17974704E+04</pdfrwt>
<totfact> 0.64113626E+00</totfact>
</mgrwt>
</event>
<event>
12    6  0.1521603E-007  0.1390425E+04  0.7818608E-02  0.8960779E-01
          2   -1    0    0  501    0  0.00000000000E+00  0.00000000000E+00  0.19763252589E+04  0.19763252589E+04  0.00000000000E+00 0. -1.
         -1   -1    0    0    0  501 -0.00000000000E+00 -0.00000000000E+00 -0.24455507792E+03  0.24455507792E+03  0.00000000000E+00 0.  1.
         24    2    1    2    0    0 -0.66276659036E+02 -0.33688923406E+03  0.18790304624E+03  0.39947460211E+03  0.79909019440E+02 0.  0.
        254    2    1    2    0    0  0.66276659036E+02  0.33688923406E+03  0.15438671347E+04  0.18214057347E+04  0.90338594696E+03 0.  0.
         23    2    4    4    0    0  0.24302613697E+03 -0.23150552877E+03  0.73953115628E+03  0.81684855180E+03  0.87628262410E+02 0.  0.
         23    2    4    4    0    0 -0.17674947793E+03  0.56839476283E+03  0.80433597845E+03  0.10045571829E+04  0.88689250381E+02 0.  0.
          2    1    3    3  502    0 -0.10436796472E+02 -0.93345853284E+01  0.26714993799E+02  0.30162097035E+02  0.00000000000E+00 0. -1.
         -1    1    3    3    0  502 -0.55839862564E+02 -0.32755464873E+03  0.16118805244E+03  0.36931250508E+03  0.00000000000E+00 0.  1.
         11    1    5    5    0    0  0.42471980747E+02 -0.94435408442E+02  0.20283682243E+03  0.22773820947E+03  0.00000000000E+00 0. -1.
        -11    1    5    5    0    0  0.20055415622E+03 -0.13707012033E+03  0.53669433385E+03  0.58911034234E+03  0.00000000000E+00 0.  1.
          2    1    6    6  503    0  0.10177951227E+02  0.27738294510E+02  0.34045139623E+02  0.45078544846E+02  0.00000000000E+00 0. -1.
         -2    1    6    6    0  503 -0.18692742916E+03  0.54065646832E+03  0.77029083883E+03  0.95947863806E+03  0.00000000000E+00 0.  1.
<mgrwt>
<rscale>  0 0.13904249E+04</rscale>
<asrwt>0</asrwt>
<pdfrwt beam="1">  1        2 0.30405003E+00 0.13904249E+04</pdfrwt>
<pdfrwt beam="2">  1       -1 0.37623859E-01 0.13904249E+04</pdfrwt>
<totfact> 0.52068486E+01</totfact>
</mgrwt>
</event>
<event>
12    6  0.1521603E-007  0.1378798E+04  0.7818608E-02  0.8969311E-01
         -1   -1    0    0    0  501 -0.00000000000E+00  0.00000000000E+00  0.22687021509E+03  0.22687021509E+03  0.00000000000E+00 0.  1.
          2   -1    0    0  501    0  0.00000000000E+00 -0.00000000000E+00 -0.20949011112E+04  0.20949011112E+04  0.00000000000E+00 0. -1.
         24    2    1    2    0    0 -0.15400755835E+03 -0.28620813177E+03 -0.15915321064E+03  0.37055622079E+03  0.79679015989E+02 0.  0.
        254    2    1    2    0    0  0.15400755835E+03  0.28620813177E+03 -0.17088776854E+04  0.19512151055E+04  0.88393666135E+03 0.  0.
         23    2    4    4    0    0  0.32001485812E+03 -0.13127677881E+02 -0.17361691735E+03  0.37563040543E+03  0.91506951346E+02 0.  0.
         23    2    4    4    0    0 -0.16600729977E+03  0.29933580965E+03 -0.15352607681E+04  0.15755847000E+04  0.91000936448E+02 0.  0.
          4    1    3    3  502    0 -0.71822272293E+02 -0.19401802140E+03 -0.70654501963E+02  0.21861722273E+03  0.00000000000E+00 0. -1.
         -3    1    3    3    0  502 -0.82185286061E+02 -0.92190110364E+02 -0.88498708676E+02  0.15193899806E+03  0.00000000000E+00 0.  1.
         11    1    5    5    0    0  0.19718025598E+03 -0.52238885405E+02 -0.11279476589E+03  0.23309142779E+03  0.00000000000E+00 0. -1.
        -11    1    5    5    0    0  0.12283460214E+03  0.39111207524E+02 -0.60822151460E+02  0.14253897764E+03  0.00000000000E+00 0.  1.
          2    1    6    6  503    0 -0.14704170322E+03  0.30114303498E+03 -0.14536349946E+04  0.14917650913E+04  0.00000000000E+00 0. -1.
         -2    1    6    6    0  503 -0.18965596546E+02 -0.18072253345E+01 -0.81625773480E+02  0.83819608756E+02  0.00000000000E+00 0.  1.
<mgrwt>
<rscale>  0 0.13787975E+04</rscale>
<asrwt>0</asrwt>
<pdfrwt beam="1">  1        2 0.32229247E+00 0.13787975E+04</pdfrwt>
<pdfrwt beam="2">  1       -1 0.34903111E-01 0.13787975E+04</pdfrwt>
<totfact> 0.51270277E+01</totfact>
</mgrwt>
</event>
<event>
12    6  0.1521603E-007  0.2526777E+04  0.7818608E-02  0.8393508E-01
         -1   -1    0    0    0  501 -0.00000000000E+00  0.00000000000E+00  0.59589415921E+03  0.59589415921E+03  0.00000000000E+00 0.  1.
          2   -1    0    0  501    0  0.00000000000E+00 -0.00000000000E+00 -0.26785798852E+04  0.26785798852E+04  0.00000000000E+00 0. -1.
         24    2    1    2    0    0 -0.10294326180E+04  0.33469625812E+03 -0.66677417962E+03  0.12737035348E+04  0.77329087533E+02 0.  0.
        254    2    1    2    0    0  0.10294326180E+04 -0.33469625812E+03 -0.14159115464E+04  0.20007705096E+04  0.90913366705E+03 0.  0.
         23    2    4    4    0    0  0.72045581012E+03 -0.44137758415E+03 -0.14272037181E+04  0.16612213765E+04  0.94208613985E+02 0.  0.
         23    2    4    4    0    0  0.30897680791E+03  0.10668132602E+03  0.11292171664E+02  0.33954913304E+03  0.91205961742E+02 0.  0.
          4    1    3    3  502    0 -0.91152314960E+03  0.28422740025E+03 -0.56072187816E+03  0.11072798616E+04  0.00000000000E+00 0. -1.
         -3    1    3    3    0  502 -0.11790946843E+03  0.50468857877E+02 -0.10605230146E+03  0.16642367322E+03  0.00000000000E+00 0.  1.
         11    1    5    5    0    0  0.37073971485E+02 -0.35625407484E+02 -0.53666614039E+02  0.74321965007E+02  0.00000000000E+00 0.  1.
        -11    1    5    5    0    0  0.68338183864E+03 -0.40575217666E+03 -0.13735371040E+04  0.15868994115E+04  0.00000000000E+00 0. -1.
          4    1    6    6  503    0  0.21166396816E+03  0.11474556284E+03  0.19525363235E+02  0.24155624483E+03  0.00000000000E+00 0. -1.
         -4    1    6    6    0  503  0.97312839751E+02 -0.80642368109E+01 -0.82331915709E+01  0.97992888208E+02  0.00000000000E+00 0.  1.
<mgrwt>
<rscale>  0 0.25267767E+04</rscale>
<asrwt>0</asrwt>
<pdfrwt beam="1">  1        2 0.41208922E+00 0.25267767E+04</pdfrwt>
<pdfrwt beam="2">  1       -1 0.91676022E-01 0.25267767E+04</pdfrwt>
<totfact> 0.32085815E+00</totfact>
</mgrwt>
</event>
<event>
12    6  0.1521603E-007  0.2144755E+04  0.7818608E-02  0.8541781E-01
          2   -1    0    0  501    0  0.00000000000E+00  0.00000000000E+00  0.23745706301E+04  0.23745706301E+04  0.00000000000E+00 0. -1.
         -1   -1    0    0    0  501 -0.00000000000E+00 -0.00000000000E+00 -0.48429530102E+03  0.48429530102E+03  0.00000000000E+00 0.  1.
         24    2    1    2    0    0 -0.41497911471E+03 -0.16615267952E+03 -0.23351283401E+03  0.51026236844E+03  0.77621275649E+02 0.  0.
        254    2    1    2    0    0  0.41497911471E+03  0.16615267952E+03  0.21237881631E+04  0.23486035627E+04  0.89757905191E+03 0.  0.
         23    2    4    4    0    0  0.19413875332E+03 -0.97633481361E+02  0.19302342525E+04  0.19445558220E+04  0.90944616182E+02 0.  0.
         23    2    4    4    0    0  0.22084036140E+03  0.26378616088E+03  0.19355391063E+03  0.40404774070E+03  0.86243008710E+02 0.  0.
          4    1    3    3  502    0 -0.32811205468E+02  0.52734885644E+01 -0.65620044320E+01  0.33873954420E+02  0.00000000000E+00 0. -1.
         -3    1    3    3    0  502 -0.38216790925E+03 -0.17142616809E+03 -0.22695082958E+03  0.47638841402E+03  0.00000000000E+00 0.  1.
         11    1    5    5    0    0  0.28439967918E+02 -0.40978069466E+02  0.23111908184E+03  0.23644040252E+03  0.00000000000E+00 0. -1.
        -11    1    5    5    0    0  0.16569878540E+03 -0.56655411894E+02  0.16991151706E+04  0.17081154195E+04  0.00000000000E+00 0.  1.
          1    1    6    6  503    0  0.21499268017E+02  0.39836767294E+02  0.61682926068E+02  0.76511240494E+02  0.00000000000E+00 0. -1.
         -1    1    6    6    0  503  0.19934109338E+03  0.22394939359E+03  0.13187098456E+03  0.32753650021E+03  0.00000000000E+00 0.  1.
<mgrwt>
<rscale>  0 0.21447549E+04</rscale>
<asrwt>0</asrwt>
<pdfrwt beam="1">  1        2 0.36531855E+00 0.21447549E+04</pdfrwt>
<pdfrwt beam="2">  1       -1 0.74506971E-01 0.21447549E+04</pdfrwt>
<totfact> 0.77881416E+00</totfact>
</mgrwt>
</event>
<event>
12    6  0.1521603E-007  0.1483738E+04  0.7818608E-02  0.8895340E-01
         -1   -1    0    0    0  501 -0.00000000000E+00  0.00000000000E+00  0.74600646045E+03  0.74600646045E+03  0.00000000000E+00 0.  1.
          2   -1    0    0  501    0  0.00000000000E+00 -0.00000000000E+00 -0.73775432853E+03  0.73775432853E+03  0.00000000000E+00 0. -1.
         24    2    1    2    0    0 -0.38688406433E+03 -0.35171151383E+02 -0.23573269546E+03  0.46402627087E+03  0.93990357117E+02 0.  0.
        254    2    1    2    0    0  0.38688406433E+03  0.35171151383E+02  0.24398482737E+03  0.10197345181E+04  0.91072147351E+03 0.  0.
         23    2    4    4    0    0 -0.23058901790E+03 -0.20401099194E+03  0.96098687360E+02  0.33513444251E+03  0.91040413191E+02 0.  0.
         23    2    4    4    0    0  0.61747308223E+03  0.23918214333E+03  0.14788614001E+03  0.68460007560E+03  0.91246085589E+02 0.  0.
          4    1    3    3  502    0 -0.96503812362E+02  0.27191357970E+01 -0.10706525074E+03  0.14416430701E+03  0.00000000000E+00 0. -1.
         -3    1    3    3    0  502 -0.29038025197E+03 -0.37890287180E+02 -0.12866744472E+03  0.31986196386E+03  0.00000000000E+00 0.  1.
         11    1    5    5    0    0 -0.11164157250E+03 -0.58639076192E+02  0.45707991765E+01  0.12618745648E+03  0.00000000000E+00 0.  1.
        -11    1    5    5    0    0 -0.11894744540E+03 -0.14537191575E+03  0.91527888184E+02  0.20894698603E+03  0.00000000000E+00 0. -1.
          2    1    6    6  503    0  0.45553126071E+03  0.20767763213E+03  0.83755335416E+02  0.50759598559E+03  0.00000000000E+00 0. -1.
         -2    1    6    6    0  503  0.16194182152E+03  0.31504511194E+02  0.64130804594E+02  0.17700409001E+03  0.00000000000E+00 0.  1.
<mgrwt>
<rscale>  0 0.14837378E+04</rscale>
<asrwt>0</asrwt>
<pdfrwt beam="1">  1        2 0.11350067E+00 0.14837378E+04</pdfrwt>
<pdfrwt beam="2">  1       -1 0.11477023E+00 0.14837378E+04</pdfrwt>
<totfact> 0.29198603E+01</totfact>
</mgrwt>
</event>
<event>
12    6  0.1521603E-007  0.2442338E+04  0.7818608E-02  0.8423821E-01
          2   -1    0    0  501    0  0.00000000000E+00  0.00000000000E+00  0.17620273407E+04  0.17620273407E+04  0.00000000000E+00 0. -1.
         -1   -1    0    0    0  501 -0.00000000000E+00 -0.00000000000E+00 -0.84632844470E+03  0.84632844470E+03  0.00000000000E+00 0.  1.
         24    2    1    2    0    0 -0.92439192274E+03 -0.32167542338E+03  0.80859241860E+03  0.12719750881E+04  0.78252288033E+02 0.  0.
        254    2    1    2    0    0  0.92439192274E+03  0.32167542338E+03  0.10710647741E+03  0.13363806973E+04  0.90358511813E+03 0.  0.
         23    2    4    4    0    0  0.75651064562E+03  0.38802045125E+03 -0.28028125375E+03  0.89968609108E+03  0.89494434161E+02 0.  0.
         23    2    4    4    0    0  0.16788127712E+03 -0.66345027867E+02  0.38738773116E+03  0.43669460620E+03  0.89705846502E+02 0.  0.
          2    1    3    3  502    0 -0.88786054039E+03 -0.32360930560E+03  0.78424844156E+03  0.12280329556E+04  0.00000000000E+00 0. -1.
         -1    1    3    3    0  502 -0.36531382350E+02  0.19338822244E+01  0.24343977033E+02  0.43942132568E+02  0.00000000000E+00 0.  1.
         11    1    5    5    0    0  0.71847490201E+03  0.35198417220E+03 -0.27887182435E+03  0.84727122972E+03  0.00000000000E+00 0. -1.
        -11    1    5    5    0    0  0.38035743615E+02  0.36036279045E+02 -0.14094294020E+01  0.52414861357E+02  0.00000000000E+00 0.  1.
          3    1    6    6  503    0  0.15769358776E+03 -0.47589831895E+02  0.37990547556E+03  0.41407756529E+03  0.00000000000E+00 0. -1.
         -3    1    6    6    0  503  0.10187689356E+02 -0.18755195971E+02  0.74822556081E+01  0.22617040906E+02  0.00000000000E+00 0.  1.
<mgrwt>
<rscale>  0 0.24423381E+04</rscale>
<asrwt>0</asrwt>
<pdfrwt beam="1">  1        2 0.27108113E+00 0.24423381E+04</pdfrwt>
<pdfrwt beam="2">  1       -1 0.13020438E+00 0.24423381E+04</pdfrwt>
<totfact> 0.46677719E+00</totfact>
</mgrwt>
</event>
<event>
12    6  0.1521603E-007  0.1191635E+04  0.7818608E-02  0.9120210E-01
          2   -1    0    0  501    0  0.00000000000E+00  0.00000000000E+00  0.13398730972E+04  0.13398730972E+04  0.00000000000E+00 0. -1.
         -1   -1    0    0    0  501 -0.00000000000E+00 -0.00000000000E+00 -0.26494923631E+03  0.26494923631E+03  0.00000000000E+00 0.  1.
         24    2    1    2    0    0 -0.23231101516E+03  0.55692970444E+02  0.12668616812E+03  0.28189538414E+03  0.79658694978E+02 0.  0.
        254    2    1    2    0    0  0.23231101516E+03 -0.55692970444E+02  0.94823769279E+03  0.13229269494E+04  0.89101676564E+03 0.  0.
         23    2    4    4    0    0  0.50408833759E+03  0.18208203463E+03  0.63672788091E+03  0.83734265396E+03  0.91985903171E+02 0.  0.
         23    2    4    4    0    0 -0.27177732243E+03 -0.23777500508E+03  0.31150981188E+03  0.48558429542E+03  0.91399557110E+02 0.  0.
          4    1    3    3  502    0 -0.12003955543E+03  0.11535130593E+02  0.10377294661E+03  0.15909550137E+03  0.00000000000E+00 0. -1.
         -3    1    3    3    0  502 -0.11227145973E+03  0.44157839851E+02  0.22913221505E+02  0.12279988277E+03  0.00000000000E+00 0.  1.
         11    1    5    5    0    0  0.84747081395E+02  0.35781748854E+02  0.61686801162E+02  0.11075948173E+03  0.00000000000E+00 0. -1.
        -11    1    5    5    0    0  0.41934125619E+03  0.14630028578E+03  0.57504107975E+03  0.72658317223E+03  0.00000000000E+00 0.  1.
          2    1    6    6  503    0 -0.17764238242E+03 -0.20819666447E+03  0.22301767831E+03  0.35304327209E+03  0.00000000000E+00 0.  1.
         -2    1    6    6    0  503 -0.94134940008E+02 -0.29578340609E+02  0.88492133568E+02  0.13254102334E+03  0.00000000000E+00 0. -1.
<mgrwt>
<rscale>  0 0.11916348E+04</rscale>
<asrwt>0</asrwt>
<pdfrwt beam="1">  1        2 0.20613432E+00 0.11916348E+04</pdfrwt>
<pdfrwt beam="2">  1       -1 0.40761422E-01 0.11916348E+04</pdfrwt>
<totfact> 0.10369023E+02</totfact>
</mgrwt>
</event>
<event>
12    6  0.1521603E-007  0.1464506E+04  0.7818608E-02  0.8908405E-01
         -1   -1    0    0    0  501 -0.00000000000E+00  0.00000000000E+00  0.29938772534E+03  0.29938772534E+03  0.00000000000E+00 0.  1.
          2   -1    0    0  501    0  0.00000000000E+00 -0.00000000000E+00 -0.17909693347E+04  0.17909693347E+04  0.00000000000E+00 0. -1.
         24    2    1    2    0    0  0.64753373971E+02  0.25810663690E+03 -0.97505571839E+03  0.10138212315E+04  0.79295649166E+02 0.  0.
        254    2    1    2    0    0 -0.64753373971E+02 -0.25810663690E+03 -0.51652589101E+03  0.10765358286E+04  0.90626616330E+03 0.  0.
         23    2    4    4    0    0 -0.31051399961E+03 -0.49687770737E+02  0.12714525170E+03  0.35096303114E+03  0.90118342659E+02 0.  0.
         23    2    4    4    0    0  0.24576062563E+03 -0.20841886616E+03 -0.64367114271E+03  0.72557279747E+03  0.91140746048E+02 0.  0.
          4    1    3    3  502    0  0.79937231648E+02  0.24113990761E+03 -0.91435274587E+03  0.94898859842E+03  0.00000000000E+00 0. -1.
         -1    1    3    3    0  502 -0.15183857676E+02  0.16966729294E+02 -0.60702972514E+02  0.64832633056E+02  0.00000000000E+00 0.  1.
         11    1    5    5    0    0 -0.49365557558E+02 -0.40896261019E+02  0.11108776138E+02  0.65060489897E+02  0.00000000000E+00 0. -1.
        -11    1    5    5    0    0 -0.26114844205E+03 -0.87915097182E+01  0.11603647556E+03  0.28590254124E+03  0.00000000000E+00 0.  1.
          4    1    6    6  503    0  0.21366700526E+02 -0.37831876322E+02 -0.38811911207E+02  0.58259344392E+02  0.00000000000E+00 0. -1.
         -4    1    6    6    0  503  0.22439392511E+03 -0.17058698984E+03 -0.60485923150E+03  0.66731345308E+03  0.00000000000E+00 0.  1.
<mgrwt>
<rscale>  0 0.14645057E+04</rscale>
<asrwt>0</asrwt>
<pdfrwt beam="1">  1        2 0.27553375E+00 0.14645057E+04</pdfrwt>
<pdfrwt beam="2">  1       -1 0.46059650E-01 0.14645057E+04</pdfrwt>
<totfact> 0.45166076E+01</totfact>
</mgrwt>
</event>
<event>
12    6  0.1521603E-007  0.1344289E+04  0.7818608E-02  0.8995163E-01
         -1   -1    0    0    0  501 -0.00000000000E+00  0.00000000000E+00  0.30286825337E+03  0.30286825337E+03  0.00000000000E+00 0.  1.
          2   -1    0    0  501    0  0.00000000000E+00 -0.00000000000E+00 -0.14916653863E+04  0.14916653863E+04  0.00000000000E+00 0. -1.
         24    2    1    2    0    0 -0.34179630705E+03  0.19330421139E+03 -0.64310537387E+03  0.75771604081E+03  0.79736083128E+02 0.  0.
        254    2    1    2    0    0  0.34179630705E+03 -0.19330421139E+03 -0.54569175907E+03  0.10368175989E+04  0.78931616210E+03 0.  0.
         23    2    4    4    0    0 -0.22135798187E+03 -0.90932857097E+02 -0.24531872251E+02  0.25726169170E+03  0.91179079968E+02 0.  0.
         23    2    4    4    0    0  0.56315428892E+03 -0.10237135429E+03 -0.52115988682E+03  0.77955590717E+03  0.92071371557E+02 0.  0.
          4    1    3    3  502    0 -0.11019167783E+03  0.10074111874E+03 -0.27791381267E+03  0.31547910571E+03  0.00000000000E+00 0. -1.
         -3    1    3    3    0  502 -0.23160462922E+03  0.92563092645E+02 -0.36519156120E+03  0.44223693510E+03  0.00000000000E+00 0.  1.
         11    1    5    5    0    0 -0.88489612149E+02 -0.42460937304E+02  0.34452946140E+02  0.10402090248E+03  0.00000000000E+00 0. -1.
        -11    1    5    5    0    0 -0.13286836972E+03 -0.48471919793E+02 -0.58984818391E+02  0.15324078922E+03  0.00000000000E+00 0.  1.
          4    1    6    6  503    0  0.19064315293E+03 -0.72310217121E+01 -0.21984162934E+03  0.29107978532E+03  0.00000000000E+00 0. -1.
         -4    1    6    6    0  503  0.37251113599E+03 -0.95140332576E+02 -0.30131825748E+03  0.48847612184E+03  0.00000000000E+00 0.  1.
<mgrwt>
<rscale>  0 0.13442888E+04</rscale>
<asrwt>0</asrwt>
<pdfrwt beam="1">  1        2 0.22948699E+00 0.13442888E+04</pdfrwt>
<pdfrwt beam="2">  1       -1 0.46595115E-01 0.13442888E+04</pdfrwt>
<totfact> 0.65536189E+01</totfact>
</mgrwt>
</event>
<event>
12    6  0.1521603E-007  0.1473999E+04  0.7818608E-02  0.8901930E-01
          4   -1    0    0  501    0  0.00000000000E+00  0.00000000000E+00  0.36137872205E+03  0.36137872205E+03  0.00000000000E+00 0. -1.
         -1   -1    0    0    0  501 -0.00000000000E+00 -0.00000000000E+00 -0.15030435994E+04  0.15030435994E+04  0.00000000000E+00 0.  1.
         24    2    1    2    0    0 -0.40200502556E+03  0.21619375434E+03 -0.31618944406E+03  0.56088408972E+03  0.79167023246E+02 0.  0.
        254    2    1    2    0    0  0.40200502556E+03 -0.21619375434E+03 -0.82547543333E+03  0.13035382318E+04  0.89969686599E+03 0.  0.
         23    2    4    4    0    0  0.10992050302E+03 -0.49026834923E+03 -0.71427452543E+03  0.87806754711E+03  0.91481956433E+02 0.  0.
         23    2    4    4    0    0  0.29208452254E+03  0.27407459489E+03 -0.11120090789E+03  0.42547068467E+03  0.90716094093E+02 0.  0.
          4    1    3    3  502    0 -0.13370905022E+03  0.53929641026E+02 -0.14124214584E+03  0.20183126629E+03  0.00000000000E+00 0. -1.
         -3    1    3    3    0  502 -0.26829597534E+03  0.16226411331E+03 -0.17494729822E+03  0.35905282343E+03  0.00000000000E+00 0.  1.
         11    1    5    5    0    0  0.12136798337E+03 -0.43011031462E+03 -0.59672894987E+03  0.74552700135E+03  0.00000000000E+00 0. -1.
        -11    1    5    5    0    0 -0.11447480344E+02 -0.60158034610E+02 -0.11754557556E+03  0.13254054575E+03  0.00000000000E+00 0.  1.
          3    1    6    6  503    0  0.58892894237E+02  0.96966241073E+02 -0.36111096082E+01  0.11350711437E+03  0.00000000000E+00 0. -1.
         -3    1    6    6    0  503  0.23319162830E+03  0.17710835382E+03 -0.10758979829E+03  0.31196357030E+03  0.00000000000E+00 0.  1.
<mgrwt>
<rscale>  0 0.14739986E+04</rscale>
<asrwt>0</asrwt>
<pdfrwt beam="1">  1        4 0.55596727E-01 0.14739986E+04</pdfrwt>
<pdfrwt beam="2">  1       -1 0.23123747E+00 0.14739986E+04</pdfrwt>
<totfact> 0.11648740E+00</totfact>
</mgrwt>
</event>
<event>
12    6  0.1521603E-007  0.1515921E+04  0.7818608E-02  0.8873934E-01
         -1   -1    0    0    0  501 -0.00000000000E+00  0.00000000000E+00  0.43057445891E+03  0.43057445891E+03  0.00000000000E+00 0.  1.
          2   -1    0    0  501    0  0.00000000000E+00 -0.00000000000E+00 -0.13342740695E+04  0.13342740695E+04  0.00000000000E+00 0. -1.
         24    2    1    2    0    0  0.16441836751E+03  0.42924287544E+03 -0.10574807809E+03  0.47828006087E+03  0.79286284569E+02 0.  0.
        254    2    1    2    0    0 -0.16441836751E+03 -0.42924287544E+03 -0.79795153250E+03  0.12865684675E+04  0.89847032659E+03 0.  0.
         23    2    4    4    0    0  0.97775630176E+02 -0.11544376904E+02  0.15709707425E+03  0.20767284211E+03  0.93569076734E+02 0.  0.
         23    2    4    4    0    0 -0.26219399768E+03 -0.41769849854E+03 -0.95504860674E+03  0.10788956254E+04  0.93167597439E+02 0.  0.
          4    1    3    3  502    0  0.43088459995E+02  0.47366724565E+02 -0.29066259157E+02  0.70321187434E+02  0.00000000000E+00 0. -1.
         -3    1    3    3    0  502  0.12132990751E+03  0.38187615087E+03 -0.76681818932E+02  0.40795887344E+03  0.00000000000E+00 0.  1.
         11    1    5    5    0    0  0.87291187999E+02  0.26507933688E+02  0.13347942647E+03  0.16167615576E+03  0.00000000000E+00 0.  1.
        -11    1    5    5    0    0  0.10484442176E+02 -0.38052310592E+02  0.23617647778E+02  0.45996686356E+02  0.00000000000E+00 0. -1.
          1    1    6    6  503    0 -0.13228177407E+02 -0.86425766402E+02 -0.15992800302E+03  0.18226728705E+03  0.00000000000E+00 0. -1.
         -1    1    6    6    0  503 -0.24896582027E+03 -0.33127273213E+03 -0.79512060372E+03  0.89662833838E+03  0.00000000000E+00 0.  1.
<mgrwt>
<rscale>  0 0.15159213E+04</rscale>
<asrwt>0</asrwt>
<pdfrwt beam="1">  1        2 0.20527293E+00 0.15159213E+04</pdfrwt>
<pdfrwt beam="2">  1       -1 0.66242225E-01 0.15159213E+04</pdfrwt>
<totfact> 0.40112691E+01</totfact>
</mgrwt>
</event>
<event>
12    6  0.1521603E-007  0.1621381E+04  0.7818608E-02  0.8807519E-01
          2   -1    0    0  501    0  0.00000000000E+00  0.00000000000E+00  0.20196575644E+04  0.20196575644E+04  0.00000000000E+00 0. -1.
         -1   -1    0    0    0  501 -0.00000000000E+00 -0.00000000000E+00 -0.32541113343E+03  0.32541113343E+03  0.00000000000E+00 0.  1.
         24    2    1    2    0    0  0.47154265470E+03 -0.26715186374E+03  0.38754101641E+03  0.67095158497E+03  0.79154257462E+02 0.  0.
        254    2    1    2    0    0 -0.47154265470E+03  0.26715186374E+03  0.13067054146E+04  0.16741171129E+04  0.89524659934E+03 0.  0.
         23    2    4    4    0    0  0.15539813559E+02  0.31864624062E+03  0.10728156415E+04  0.11231868715E+04  0.94012952287E+02 0.  0.
         23    2    4    4    0    0 -0.48708246826E+03 -0.51494376875E+02  0.23388977313E+03  0.55093024142E+03  0.94438886066E+02 0.  0.
          4    1    3    3  502    0  0.43968051059E+02 -0.84725884587E+01  0.13593806333E+02  0.46794933911E+02  0.00000000000E+00 0. -1.
         -3    1    3    3    0  502  0.42757460364E+03 -0.25867927528E+03  0.37394721007E+03  0.62415665106E+03  0.00000000000E+00 0.  1.
         11    1    5    5    0    0 -0.38488494512E+02  0.10193229055E+03  0.33025027203E+03  0.34775968462E+03  0.00000000000E+00 0. -1.
        -11    1    5    5    0    0  0.54028308071E+02  0.21671395007E+03  0.74256536944E+03  0.77542718685E+03  0.00000000000E+00 0.  1.
          3    1    6    6  503    0 -0.18639939634E+03  0.24645343358E+02  0.10168969301E+03  0.21375902687E+03  0.00000000000E+00 0. -1.
         -3    1    6    6    0  503 -0.30068307192E+03 -0.76139720233E+02  0.13220008013E+03  0.33717121456E+03  0.00000000000E+00 0.  1.
<mgrwt>
<rscale>  0 0.16213810E+04</rscale>
<asrwt>0</asrwt>
<pdfrwt beam="1">  1        2 0.31071654E+00 0.16213810E+04</pdfrwt>
<pdfrwt beam="2">  1       -1 0.50063252E-01 0.16213810E+04</pdfrwt>
<totfact> 0.28453374E+01</totfact>
</mgrwt>
</event>
<event>
12    6  0.1521603E-007  0.1653573E+04  0.7818608E-02  0.8788296E-01
          2   -1    0    0  501    0  0.00000000000E+00  0.00000000000E+00  0.12475088794E+04  0.12475088794E+04  0.00000000000E+00 0. -1.
         -3   -1    0    0    0  501 -0.00000000000E+00 -0.00000000000E+00 -0.54795274865E+03  0.54795274865E+03  0.00000000000E+00 0.  1.
         24    2    1    2    0    0  0.45256247038E+03  0.36014953520E+03  0.11375436785E+03  0.59496315406E+03  0.80750363356E+02 0.  0.
        254    2    1    2    0    0 -0.45256247038E+03 -0.36014953520E+03  0.58580176295E+03  0.12004984740E+04  0.87379196802E+03 0.  0.
         23    2    4    4    0    0 -0.37132975517E+03 -0.23888072257E+03  0.80499794234E+03  0.92270527469E+03  0.91725405912E+02 0.  0.
         23    2    4    4    0    0 -0.81232715213E+02 -0.12126881263E+03 -0.21919617939E+03  0.27779319934E+03  0.88415030407E+02 0.  0.
          2    1    3    3  502    0  0.41750213775E+03  0.32429279828E+03  0.12574190462E+03  0.54340121514E+03  0.00000000000E+00 0. -1.
         -1    1    3    3    0  502  0.35060332637E+02  0.35856736916E+02 -0.11987536778E+02  0.51561938917E+02  0.00000000000E+00 0.  1.
         11    1    5    5    0    0 -0.23043896630E+03 -0.19490580653E+03  0.57561201128E+03  0.64993813409E+03  0.00000000000E+00 0.  1.
        -11    1    5    5    0    0 -0.14089078886E+03 -0.43974916042E+02  0.22938593106E+03  0.27276714061E+03  0.00000000000E+00 0. -1.
          1    1    6    6  503    0  0.13594157784E+02 -0.14700791402E+02 -0.63718288135E+02  0.66790228601E+02  0.00000000000E+00 0. -1.
         -1    1    6    6    0  503 -0.94826872998E+02 -0.10656802123E+03 -0.15547789125E+03  0.21100297074E+03  0.00000000000E+00 0.  1.
<mgrwt>
<rscale>  0 0.16535730E+04</rscale>
<asrwt>0</asrwt>
<pdfrwt beam="1">  1        2 0.19192444E+00 0.16535730E+04</pdfrwt>
<pdfrwt beam="2">  1       -3 0.84300423E-01 0.16535730E+04</pdfrwt>
<totfact> 0.13942829E+01</totfact>
</mgrwt>
</event>
<event>
12    6  0.1521603E-007  0.1864254E+04  0.7818608E-02  0.8672857E-01
          2   -1    0    0  501    0  0.00000000000E+00  0.00000000000E+00  0.41053077366E+03  0.41053077366E+03  0.00000000000E+00 0. -1.
         -1   -1    0    0    0  501 -0.00000000000E+00 -0.00000000000E+00 -0.21164336190E+04  0.21164336190E+04  0.00000000000E+00 0.  1.
         24    2    1    2    0    0 -0.23497906589E+03  0.65226955068E+03 -0.46884920113E+03  0.84071400161E+03  0.79433814933E+02 0.  0.
        254    2    1    2    0    0  0.23497906589E+03 -0.65226955068E+03 -0.12370536442E+04  0.16862503911E+04  0.91239680760E+03 0.  0.
         23    2    4    4    0    0  0.30789599389E+03 -0.12482835604E+03 -0.10648745304E+04  0.11192972843E+04  0.92122655371E+02 0.  0.
         23    2    4    4    0    0 -0.72916927994E+02 -0.52744119464E+03 -0.17217911387E+03  0.56695310679E+03  0.90989482159E+02 0.  0.
          2    1    3    3  502    0 -0.20936419678E+03  0.56737497429E+03 -0.43840653138E+03  0.74695917900E+03  0.00000000000E+00 0. -1.
         -1    1    3    3    0  502 -0.25614869116E+02  0.84894576393E+02 -0.30442669742E+02  0.93754822605E+02  0.00000000000E+00 0.  1.
         11    1    5    5    0    0  0.29050663948E+03 -0.87204424305E+02 -0.93375367598E+03  0.98178136395E+03  0.00000000000E+00 0.  1.
        -11    1    5    5    0    0  0.17389354407E+02 -0.37623931738E+02 -0.13112085440E+03  0.13751592033E+03  0.00000000000E+00 0. -1.
          1    1    6    6  503    0  0.14529856694E+02 -0.22000661711E+03 -0.66111030238E+02  0.23018404947E+03  0.00000000000E+00 0. -1.
         -1    1    6    6    0  503 -0.87446784688E+02 -0.30743457752E+03 -0.10606808363E+03  0.33676905733E+03  0.00000000000E+00 0.  1.
<mgrwt>
<rscale>  0 0.18642544E+04</rscale>
<asrwt>0</asrwt>
<pdfrwt beam="1">  1        2 0.63158582E-01 0.18642544E+04</pdfrwt>
<pdfrwt beam="2">  1       -1 0.32560516E+00 0.18642544E+04</pdfrwt>
<totfact> 0.18678873E+00</totfact>
</mgrwt>
</event>
<event>
12    6  0.1521603E-007  0.1636173E+04  0.7818608E-02  0.8798628E-01
         -1   -1    0    0    0  501 -0.00000000000E+00  0.00000000000E+00  0.76632674171E+03  0.76632674171E+03  0.00000000000E+00 0.  1.
          2   -1    0    0  501    0  0.00000000000E+00 -0.00000000000E+00 -0.87334248150E+03  0.87334248150E+03  0.00000000000E+00 0. -1.
         24    2    1    2    0    0  0.68892590738E+02 -0.43870740183E+03 -0.40193056348E+03  0.60462138218E+03  0.82513419831E+02 0.  0.
        254    2    1    2    0    0 -0.68892590738E+02  0.43870740183E+03  0.29491482369E+03  0.10350478410E+04  0.88720849100E+03 0.  0.
         23    2    4    4    0    0  0.38421710361E+03  0.12341535002E+03  0.27852574286E+02  0.41506959697E+03  0.93020820817E+02 0.  0.
         23    2    4    4    0    0 -0.45310969435E+03  0.31529205181E+03  0.26706224941E+03  0.61997824406E+03  0.91286937769E+02 0.  0.
          2    1    3    3  502    0  0.28472004777E+02 -0.20535281077E+03 -0.24293493950E+03  0.31937097046E+03  0.00000000000E+00 0. -1.
         -1    1    3    3    0  502  0.40420585962E+02 -0.23335459106E+03 -0.15899562398E+03  0.28525041172E+03  0.00000000000E+00 0.  1.
         11    1    5    5    0    0  0.17468238214E+03  0.65891546403E+02  0.58464020195E+02  0.19563658190E+03  0.00000000000E+00 0. -1.
        -11    1    5    5    0    0  0.20953472146E+03  0.57523803620E+02 -0.30611445910E+02  0.21943301507E+03  0.00000000000E+00 0.  1.
          3    1    6    6  503    0 -0.23413775089E+03  0.10976143978E+03  0.10924958438E+03  0.28071966754E+03  0.00000000000E+00 0. -1.
         -3    1    6    6    0  503 -0.21897194345E+03  0.20553061203E+03  0.15781266503E+03  0.33925857653E+03  0.00000000000E+00 0.  1.
<mgrwt>
<rscale>  0 0.16361732E+04</rscale>
<asrwt>0</asrwt>
<pdfrwt beam="1">  1        2 0.13436038E+00 0.16361732E+04</pdfrwt>
<pdfrwt beam="2">  1       -1 0.11789642E+00 0.16361732E+04</pdfrwt>
<totfact> 0.21578120E+01</totfact>
</mgrwt>
</event>
<event>
12    6  0.1521603E-007  0.1475338E+04  0.7818608E-02  0.8901020E-01
          2   -1    0    0  501    0  0.00000000000E+00  0.00000000000E+00  0.11838379299E+04  0.11838379299E+04  0.00000000000E+00 0. -1.
         -1   -1    0    0    0  501 -0.00000000000E+00 -0.00000000000E+00 -0.45965405522E+03  0.45965405522E+03  0.00000000000E+00 0.  1.
         24    2    1    2    0    0  0.37071668888E+03 -0.63728679881E+01  0.53333881599E+03  0.65434496556E+03  0.79028883632E+02 0.  0.
        254    2    1    2    0    0 -0.37071668888E+03  0.63728679881E+01  0.19084505870E+03  0.98914701957E+03  0.89694955991E+03 0.  0.
         23    2    4    4    0    0  0.21917627561E+03  0.10547752511E+03  0.27420711745E+03  0.37828147508E+03  0.93507128256E+02 0.  0.
         23    2    4    4    0    0 -0.58989296450E+03 -0.99104657117E+02 -0.83362058751E+02  0.61086554449E+03  0.91717162957E+02 0.  0.
          2    1    3    3  502    0  0.21983923974E+03 -0.12801412646E+02  0.37955595170E+03  0.43881190499E+03  0.00000000000E+00 0. -1.
         -1    1    3    3    0  502  0.15087744915E+03  0.64285446583E+01  0.15378286429E+03  0.21553306056E+03  0.00000000000E+00 0.  1.
         11    1    5    5    0    0  0.41163315609E+02 -0.15734279508E+02  0.33947641271E+02  0.55627587144E+02  0.00000000000E+00 0.  1.
        -11    1    5    5    0    0  0.17801296000E+03  0.12121180461E+03  0.24025947618E+03  0.32265388793E+03  0.00000000000E+00 0. -1.
          2    1    6    6  503    0 -0.33430374937E+03 -0.10195458199E+03 -0.44648533895E+02  0.35234532097E+03  0.00000000000E+00 0. -1.
         -2    1    6    6    0  503 -0.25558921513E+03  0.28499248746E+01 -0.38713524856E+02  0.25852022352E+03  0.00000000000E+00 0.  1.
<mgrwt>
<rscale>  0 0.14753385E+04</rscale>
<asrwt>0</asrwt>
<pdfrwt beam="1">  1        2 0.18212891E+00 0.14753385E+04</pdfrwt>
<pdfrwt beam="2">  1       -1 0.70716009E-01 0.14753385E+04</pdfrwt>
<totfact> 0.43196909E+01</totfact>
</mgrwt>
</event>
<event>
12    6  0.1521603E-007  0.1312423E+04  0.7818608E-02  0.9019771E-01
          2   -1    0    0  501    0  0.00000000000E+00  0.00000000000E+00  0.14175654634E+04  0.14175654634E+04  0.00000000000E+00 0. -1.
         -1   -1    0    0    0  501 -0.00000000000E+00 -0.00000000000E+00 -0.30376992368E+03  0.30376992368E+03  0.00000000000E+00 0.  1.
         24    2    1    2    0    0  0.24050055841E+03  0.75409283103E+02 -0.29036029378E+00  0.26451410004E+03  0.80253013891E+02 0.  0.
        254    2    1    2    0    0 -0.24050055841E+03 -0.75409283103E+02  0.11140859000E+04  0.14568212870E+04  0.90421999047E+03 0.  0.
         23    2    4    4    0    0 -0.50496265274E+03  0.12816095576E+03  0.91740435209E+03  0.10590023774E+04  0.91884595312E+02 0.  0.
         23    2    4    4    0    0  0.26446209433E+03 -0.20357023886E+03  0.19668154790E+03  0.39781890961E+03  0.90527410613E+02 0.  0.
          4    1    3    3  502    0  0.57419211467E+01  0.14044539897E+02  0.15066002129E+02  0.21382309967E+02  0.00000000000E+00 0. -1.
         -3    1    3    3    0  502  0.23475863726E+03  0.61364743206E+02 -0.15356362423E+02  0.24313179008E+03  0.00000000000E+00 0.  1.
         11    1    5    5    0    0 -0.12129704265E+03  0.68727988872E+02  0.27694756632E+03  0.31005880652E+03  0.00000000000E+00 0.  1.
        -11    1    5    5    0    0 -0.38366561010E+03  0.59432966887E+02  0.64045678577E+03  0.74894357088E+03  0.00000000000E+00 0. -1.
          2    1    6    6  503    0  0.19635210237E+03 -0.96236018484E+02  0.12291935525E+03  0.25084793651E+03  0.00000000000E+00 0. -1.
         -2    1    6    6    0  503  0.68109991968E+02 -0.10733422038E+03  0.73762192642E+02  0.14697097310E+03  0.00000000000E+00 0.  1.
<mgrwt>
<rscale>  0 0.13124233E+04</rscale>
<asrwt>0</asrwt>
<pdfrwt beam="1">  1        2 0.21808699E+00 0.13124233E+04</pdfrwt>
<pdfrwt beam="2">  1       -1 0.46733835E-01 0.13124233E+04</pdfrwt>
<totfact> 0.71971846E+01</totfact>
</mgrwt>
</event>
<event>
12    6  0.1521603E-007  0.1284596E+04  0.7818608E-02  0.9041870E-01
         -1   -1    0    0    0  501 -0.00000000000E+00  0.00000000000E+00  0.16418476742E+03  0.16418476742E+03  0.00000000000E+00 0.  1.
          2   -1    0    0  501    0  0.00000000000E+00 -0.00000000000E+00 -0.25126996882E+04  0.25126996882E+04  0.00000000000E+00 0. -1.
         24    2    1    2    0    0  0.15574955268E+02 -0.47623553324E-01 -0.12415666961E+04  0.12443435241E+04  0.81611050927E+02 0.  0.
        254    2    1    2    0    0 -0.15574955268E+02  0.47623553324E-01 -0.11069482247E+04  0.14325409315E+04  0.90917356255E+03 0.  0.
         23    2    4    4    0    0  0.71166884539E+02  0.42073193522E+03 -0.74620809774E+03  0.86446376380E+03  0.91602330909E+02 0.  0.
         23    2    4    4    0    0 -0.86741839807E+02 -0.42068431166E+03 -0.36074012696E+03  0.56807716773E+03  0.89882103022E+02 0.  0.
          2    1    3    3  502    0  0.24878099899E+02 -0.23508000441E+02 -0.11008216001E+04  0.11013535950E+04  0.00000000000E+00 0. -1.
         -1    1    3    3    0  502 -0.93031446310E+01  0.23460376888E+02 -0.14074509605E+03  0.14298992918E+03  0.00000000000E+00 0.  1.
         11    1    5    5    0    0  0.18961114262E+02  0.30814001600E+03 -0.57983706535E+03  0.65690243999E+03  0.00000000000E+00 0. -1.
        -11    1    5    5    0    0  0.52205770277E+02  0.11259191922E+03 -0.16637103239E+03  0.20756132381E+03  0.00000000000E+00 0.  1.
          1    1    6    6  503    0 -0.60616535282E+02 -0.29912654077E+03 -0.20014926349E+03  0.36498051924E+03  0.00000000000E+00 0. -1.
         -1    1    6    6    0  503 -0.26125304525E+02 -0.12155777089E+03 -0.16059086347E+03  0.20309664849E+03  0.00000000000E+00 0.  1.
<mgrwt>
<rscale>  0 0.12845965E+04</rscale>
<asrwt>0</asrwt>
<pdfrwt beam="1">  1        2 0.38656915E+00 0.12845965E+04</pdfrwt>
<pdfrwt beam="2">  1       -1 0.25259197E-01 0.12845965E+04</pdfrwt>
<totfact> 0.52904593E+01</totfact>
</mgrwt>
</event>
<event>
12    6  0.1521603E-007  0.1266456E+04  0.7818608E-02  0.9056597E-01
          2   -1    0    0  501    0  0.00000000000E+00  0.00000000000E+00  0.10157227417E+04  0.10157227417E+04  0.00000000000E+00 0. -1.
         -1   -1    0    0    0  501 -0.00000000000E+00 -0.00000000000E+00 -0.39477080007E+03  0.39477080007E+03  0.00000000000E+00 0.  1.
         24    2    1    2    0    0  0.25186570088E+03  0.53030946787E+02  0.35962706393E+03  0.44921091365E+03  0.78804868110E+02 0.  0.
        254    2    1    2    0    0 -0.25186570088E+03 -0.53030946787E+02  0.26132487773E+03  0.96128262815E+03  0.88855218578E+03 0.  0.
         23    2    4    4    0    0 -0.41938804566E+03  0.11598307822E+03 -0.15702966950E+03  0.47185113694E+03  0.92988015648E+02 0.  0.
         23    2    4    4    0    0  0.16752234478E+03 -0.16901402500E+03  0.41835454723E+03  0.48943149121E+03  0.88843574593E+02 0.  0.
          2    1    3    3  502    0  0.24666396263E+03  0.64322834400E+02  0.32931217977E+03  0.41644573384E+03  0.00000000000E+00 0. -1.
         -1    1    3    3    0  502  0.52017382446E+01 -0.11291887613E+02  0.30314884160E+02  0.32765179814E+02  0.00000000000E+00 0.  1.
         11    1    5    5    0    0 -0.28680790543E+03  0.12090495227E+03 -0.95233748325E+02  0.32549385390E+03  0.00000000000E+00 0.  1.
        -11    1    5    5    0    0 -0.13258014022E+03 -0.49218740568E+01 -0.61795921176E+02  0.14635728304E+03  0.00000000000E+00 0. -1.
          4    1    6    6  503    0  0.13159689251E+03 -0.10856294855E+03  0.35875631068E+03  0.39725274872E+03  0.00000000000E+00 0. -1.
         -4    1    6    6    0  503  0.35925452268E+02 -0.60451076460E+02  0.59598236553E+02  0.92178742485E+02  0.00000000000E+00 0.  1.
<mgrwt>
<rscale>  0 0.12664560E+04</rscale>
<asrwt>0</asrwt>
<pdfrwt beam="1">  1        2 0.15626504E+00 0.12664560E+04</pdfrwt>
<pdfrwt beam="2">  1       -1 0.60733970E-01 0.12664560E+04</pdfrwt>
<totfact> 0.75827783E+01</totfact>
</mgrwt>
</event>
<event>
12    6  0.1521603E-007  0.2338516E+04  0.7818608E-02  0.8462888E-01
         -1   -1    0    0    0  501 -0.00000000000E+00  0.00000000000E+00  0.13466514393E+04  0.13466514393E+04  0.00000000000E+00 0.  1.
          2   -1    0    0  501    0  0.00000000000E+00 -0.00000000000E+00 -0.10152327779E+04  0.10152327779E+04  0.00000000000E+00 0. -1.
         24    2    1    2    0    0 -0.58400160510E+03  0.57101127473E+03 -0.42907525812E+03  0.92606556679E+03  0.79875567183E+02 0.  0.
        254    2    1    2    0    0  0.58400160510E+03 -0.57101127473E+03  0.76049391950E+03  0.14358186504E+04  0.90338942022E+03 0.  0.
         23    2    4    4    0    0  0.30255904780E+03 -0.56235325352E+03  0.90113426424E+03  0.11081511708E+04  0.90404071226E+02 0.  0.
         23    2    4    4    0    0  0.28144255730E+03 -0.86580212117E+01 -0.14064034474E+03  0.32766747955E+03  0.91111998060E+02 0.  0.
          4    1    3    3  502    0 -0.41943425268E+03  0.41421095982E+03 -0.34907649675E+03  0.68509138963E+03  0.00000000000E+00 0. -1.
         -1    1    3    3    0  502 -0.16456735243E+03  0.15680031491E+03 -0.79998761369E+02  0.24097417717E+03  0.00000000000E+00 0.  1.
         11    1    5    5    0    0  0.16110898020E+02 -0.54802479921E+02  0.12615620603E+03  0.13848559911E+03  0.00000000000E+00 0.  1.
        -11    1    5    5    0    0  0.28644814978E+03 -0.50755077360E+03  0.77497805821E+03  0.96966557173E+03  0.00000000000E+00 0. -1.
          3    1    6    6  503    0  0.12338283371E+03  0.34103220625E+02 -0.89248365753E+02  0.15605006921E+03  0.00000000000E+00 0. -1.
         -3    1    6    6    0  503  0.15805972359E+03 -0.42761241837E+02 -0.51391978989E+02  0.17161741033E+03  0.00000000000E+00 0.  1.
<mgrwt>
<rscale>  0 0.23385164E+04</rscale>
<asrwt>0</asrwt>
<pdfrwt beam="1">  1        2 0.15618966E+00 0.23385164E+04</pdfrwt>
<pdfrwt beam="2">  1       -1 0.20717715E+00 0.23385164E+04</pdfrwt>
<totfact> 0.34102410E+00</totfact>
</mgrwt>
</event>
<event>
12    6  0.1521603E-007  0.3288598E+04  0.7818608E-02  0.8165803E-01
          4   -1    0    0  501    0  0.00000000000E+00  0.00000000000E+00  0.75770413366E+03  0.75770413366E+03  0.00000000000E+00 0. -1.
         -3   -1    0    0    0  501 -0.00000000000E+00 -0.00000000000E+00 -0.35683048039E+04  0.35683048039E+04  0.00000000000E+00 0.  1.
         24    2    1    2    0    0 -0.85550536530E+01 -0.73913280781E+03  0.44574653649E+03  0.86687232551E+03  0.79919693565E+02 0.  0.
        254    2    1    2    0    0  0.85550536530E+01  0.73913280781E+03 -0.32563472067E+04  0.34591366120E+04  0.90301631959E+03 0.  0.
         23    2    4    4    0    0 -0.31931973874E+03  0.29944845099E+03 -0.61716991719E+03  0.76203313425E+03  0.90340028007E+02 0.  0.
         23    2    4    4    0    0  0.32787479240E+03  0.43968435682E+03 -0.26391772895E+04  0.26971034778E+04  0.91028518370E+02 0.  0.
          4    1    3    3  502    0  0.10880843534E+02 -0.64386460249E+03  0.40935754591E+03  0.76305544981E+03  0.00000000000E+00 0. -1.
         -3    1    3    3    0  502 -0.19435897187E+02 -0.95268205321E+02  0.36388990584E+02  0.10381687570E+03  0.00000000000E+00 0.  1.
         11    1    5    5    0    0 -0.13052150662E+03  0.79600565183E+02 -0.16469484831E+03  0.22471427798E+03  0.00000000000E+00 0.  1.
        -11    1    5    5    0    0 -0.18879823212E+03  0.21984788580E+03 -0.45247506888E+03  0.53731885627E+03  0.00000000000E+00 0. -1.
          2    1    6    6  503    0  0.31374059438E+03  0.38349714124E+03 -0.24330054995E+04  0.24829456254E+04  0.00000000000E+00 0. -1.
         -2    1    6    6    0  503  0.14134198021E+02  0.56187215584E+02 -0.20617179002E+03  0.21415785241E+03  0.00000000000E+00 0.  1.
<mgrwt>
<rscale>  0 0.32885981E+04</rscale>
<asrwt>0</asrwt>
<pdfrwt beam="1">  1        4 0.11656987E+00 0.32885981E+04</pdfrwt>
<pdfrwt beam="2">  1       -3 0.54896997E+00 0.32885981E+04</pdfrwt>
<totfact> 0.18181802E-03</totfact>
</mgrwt>
</event>
<event>
12    6  0.1521603E-007  0.1142390E+04  0.7818608E-02  0.9164833E-01
         -1   -1    0    0    0  501 -0.00000000000E+00  0.00000000000E+00  0.71316969000E+02  0.71316969000E+02  0.00000000000E+00 0.  1.
          2   -1    0    0  501    0  0.00000000000E+00 -0.00000000000E+00 -0.45748412186E+04  0.45748412186E+04  0.00000000000E+00 0. -1.
         24    2    1    2    0    0 -0.97170893027E+02 -0.17490431926E+03 -0.82885934492E+03  0.85646189743E+03  0.80532383167E+02 0.  0.
        254    2    1    2    0    0  0.97170893027E+02  0.17490431926E+03 -0.36746649046E+04  0.37896962901E+04  0.90476632712E+03 0.  0.
         23    2    4    4    0    0  0.35980483689E+03  0.39821090569E+03 -0.17569482270E+04  0.18390954330E+04  0.85869046071E+02 0.  0.
         23    2    4    4    0    0 -0.26263394386E+03 -0.22330658643E+03 -0.19177166776E+04  0.19506008572E+04  0.91455061853E+02 0.  0.
          2    1    3    3  502    0 -0.75003705917E+02 -0.16770842575E+03 -0.79058341244E+03  0.81164881814E+03  0.00000000000E+00 0. -1.
         -1    1    3    3    0  502 -0.22167187110E+02 -0.71958935178E+01 -0.38275932476E+02  0.44813079283E+02  0.00000000000E+00 0.  1.
         11    1    5    5    0    0  0.27831039916E+03  0.31004484477E+03 -0.14734694029E+04  0.15312402049E+04  0.00000000000E+00 0.  1.
        -11    1    5    5    0    0  0.81494437727E+02  0.88166060916E+02 -0.28347882415E+03  0.30785522802E+03  0.00000000000E+00 0. -1.
          1    1    6    6  503    0 -0.28101254639E+02 -0.71608491563E+02 -0.37649693026E+03  0.38427515541E+03  0.00000000000E+00 0. -1.
         -1    1    6    6    0  503 -0.23453268922E+03 -0.15169809486E+03 -0.15412197474E+04  0.15663257017E+04  0.00000000000E+00 0.  1.
<mgrwt>
<rscale>  0 0.11423901E+04</rscale>
<asrwt>0</asrwt>
<pdfrwt beam="1">  1        2 0.70382181E+00 0.11423901E+04</pdfrwt>
<pdfrwt beam="2">  1       -1 0.10971840E-01 0.11423901E+04</pdfrwt>
<totfact> 0.68026501E+00</totfact>
</mgrwt>
</event>
<event>
12    6  0.1521603E-007  0.2434104E+04  0.7818608E-02  0.8426845E-01
         -1   -1    0    0    0  501 -0.00000000000E+00  0.00000000000E+00  0.61455932549E+03  0.61455932549E+03  0.00000000000E+00 0.  1.
          2   -1    0    0  501    0  0.00000000000E+00 -0.00000000000E+00 -0.24102083572E+04  0.24102083572E+04  0.00000000000E+00 0. -1.
         24    2    1    2    0    0  0.32372201600E+03  0.10211111217E+04 -0.68163050085E+03  0.12722583819E+04  0.80977677019E+02 0.  0.
        254    2    1    2    0    0 -0.32372201600E+03 -0.10211111217E+04 -0.11140185308E+04  0.17525093008E+04  0.82630968513E+03 0.  0.
         23    2    4    4    0    0 -0.38218275101E+03 -0.20128081590E+03 -0.70133199191E+03  0.82856399824E+03  0.89856075355E+02 0.  0.
         23    2    4    4    0    0  0.58460735016E+02 -0.81983030578E+03 -0.41268653893E+03  0.92394530252E+03  0.88461035669E+02 0.  0.
          2    1    3    3  502    0  0.29822221565E+03  0.91155523285E+03 -0.58114545156E+03  0.11214274245E+04  0.00000000000E+00 0. -1.
         -1    1    3    3    0  502  0.25499800347E+02  0.10955588883E+03 -0.10048504929E+03  0.15083095746E+03  0.00000000000E+00 0.  1.
         11    1    5    5    0    0 -0.29574180000E+03 -0.17040549987E+03 -0.61045707154E+03  0.69939908697E+03  0.00000000000E+00 0. -1.
        -11    1    5    5    0    0 -0.86440951013E+02 -0.30875316031E+02 -0.90874920368E+02  0.12916491127E+03  0.00000000000E+00 0.  1.
          3    1    6    6  503    0  0.80954918070E+02 -0.65713827654E+03 -0.32042124685E+03  0.73556385765E+03  0.00000000000E+00 0. -1.
         -3    1    6    6    0  503 -0.22494183054E+02 -0.16269202924E+03 -0.92265292078E+02  0.18838144487E+03  0.00000000000E+00 0.  1.
<mgrwt>
<rscale>  0 0.24341044E+04</rscale>
<asrwt>0</asrwt>
<pdfrwt beam="1">  1        2 0.37080128E+00 0.24341044E+04</pdfrwt>
<pdfrwt beam="2">  1       -1 0.94547591E-01 0.24341044E+04</pdfrwt>
<totfact> 0.43295653E+00</totfact>
</mgrwt>
</event>
<event>
12    6  0.1521603E-007  0.1180657E+04  0.7818608E-02  0.9129958E-01
          2   -1    0    0  501    0  0.00000000000E+00  0.00000000000E+00  0.11848970327E+04  0.11848970327E+04  0.00000000000E+00 0. -1.
         -1   -1    0    0    0  501 -0.00000000000E+00 -0.00000000000E+00 -0.29410801257E+03  0.29410801257E+03  0.00000000000E+00 0.  1.
         24    2    1    2    0    0 -0.42904878746E+02 -0.15473181802E+03  0.40650865956E+03  0.44440628467E+03  0.80404548507E+02 0.  0.
        254    2    1    2    0    0  0.42904878746E+02  0.15473181802E+03  0.48428036055E+03  0.10345987606E+04  0.90004686747E+03 0.  0.
         23    2    4    4    0    0 -0.39893776558E+03 -0.59565530373E+02  0.21473225940E+03  0.46563355659E+03  0.89472188863E+02 0.  0.
         23    2    4    4    0    0  0.44184264433E+03  0.21429734839E+03  0.26954810114E+03  0.56896520398E+03  0.99583877386E+02 0.  0.
          4    1    3    3  502    0  0.67414502977E+00 -0.22801117513E+02  0.15847201549E+03  0.16010535633E+03  0.00000000000E+00 0. -1.
         -3    1    3    3    0  502 -0.43579023776E+02 -0.13193070051E+03  0.24803664408E+03  0.28430092834E+03  0.00000000000E+00 0.  1.
         11    1    5    5    0    0 -0.35089302286E+03 -0.78509743379E+02  0.17193992865E+03  0.39856371180E+03  0.00000000000E+00 0.  1.
        -11    1    5    5    0    0 -0.48044742728E+02  0.18944213007E+02  0.42792330752E+02  0.67069844800E+02  0.00000000000E+00 0. -1.
          3    1    6    6  503    0  0.75117068529E+02  0.72851765470E+01  0.70097294527E+02  0.10300135184E+03  0.00000000000E+00 0. -1.
         -3    1    6    6    0  503  0.36672557580E+03  0.20701217185E+03  0.19945080662E+03  0.46596385214E+03  0.00000000000E+00 0.  1.
<mgrwt>
<rscale>  0 0.11806570E+04</rscale>
<asrwt>0</asrwt>
<pdfrwt beam="1">  1        2 0.18229185E+00 0.11806570E+04</pdfrwt>
<pdfrwt beam="2">  1       -1 0.45247387E-01 0.11806570E+04</pdfrwt>
<totfact> 0.10554009E+02</totfact>
</mgrwt>
</event>
<event>
12    6  0.1521603E-007  0.1874348E+04  0.7818608E-02  0.8667732E-01
          2   -1    0    0  501    0  0.00000000000E+00  0.00000000000E+00  0.50323898033E+03  0.50323898033E+03  0.00000000000E+00 0. -1.
         -1   -1    0    0    0  501 -0.00000000000E+00 -0.00000000000E+00 -0.17452836047E+04  0.17452836047E+04  0.00000000000E+00 0.  1.
         24    2    1    2    0    0  0.70932937627E+03 -0.54058983192E+02 -0.60968396599E+03  0.94021177954E+03  0.78823310666E+02 0.  0.
        254    2    1    2    0    0 -0.70932937627E+03  0.54058983192E+02 -0.63236065841E+03  0.13083108055E+04  0.89762276253E+03 0.  0.
         23    2    4    4    0    0 -0.87088587406E+03 -0.20546936961E+02 -0.30993699241E+03  0.92881737227E+03  0.88183839255E+02 0.  0.
         23    2    4    4    0    0  0.16155649779E+03  0.74605920153E+02 -0.32242366601E+03  0.37949343325E+03  0.91606223460E+02 0.  0.
          4    1    3    3  502    0  0.29748162974E+03 -0.86338602648E+01 -0.20773142682E+03  0.36293554423E+03  0.00000000000E+00 0. -1.
         -3    1    3    3    0  502  0.41184774653E+03 -0.45425122928E+02 -0.40195253917E+03  0.57727623531E+03  0.00000000000E+00 0.  1.
         11    1    5    5    0    0 -0.78563298061E+03 -0.36267170252E+02 -0.29922029868E+03  0.84146733448E+03  0.00000000000E+00 0. -1.
        -11    1    5    5    0    0 -0.85252893451E+02  0.15720233291E+02 -0.10716693728E+02  0.87350037785E+02  0.00000000000E+00 0.  1.
          3    1    6    6  503    0  0.69730554726E+02  0.29974550769E+02 -0.56431581541E+02  0.94579846434E+02  0.00000000000E+00 0. -1.
         -3    1    6    6    0  503  0.91825943066E+02  0.44631369384E+02 -0.26599208447E+03  0.28491358682E+03  0.00000000000E+00 0.  1.
<mgrwt>
<rscale>  0 0.18743476E+04</rscale>
<asrwt>0</asrwt>
<pdfrwt beam="1">  1        2 0.77421381E-01 0.18743476E+04</pdfrwt>
<pdfrwt beam="2">  1       -1 0.26850517E+00 0.18743476E+04</pdfrwt>
<totfact> 0.34638479E+00</totfact>
</mgrwt>
</event>
<event>
12    6  0.1521603E-007  0.1029508E+04  0.7818608E-02  0.9276760E-01
         -1   -1    0    0    0  501 -0.00000000000E+00  0.00000000000E+00  0.27820455707E+03  0.27820455707E+03  0.00000000000E+00 0.  1.
          2   -1    0    0  501    0  0.00000000000E+00 -0.00000000000E+00 -0.95243557429E+03  0.95243557429E+03  0.00000000000E+00 0. -1.
         24    2    1    2    0    0 -0.53847304342E+02  0.59928669332E+02 -0.13140651844E+03  0.17244277858E+03  0.77316629535E+02 0.  0.
        254    2    1    2    0    0  0.53847304342E+02 -0.59928669332E+02 -0.54282449878E+03  0.10581973528E+04  0.90478297032E+03 0.  0.
         23    2    4    4    0    0 -0.14346242662E+03  0.18022005853E+03  0.15269517293E+03  0.29134181835E+03  0.92214434520E+02 0.  0.
         23    2    4    4    0    0  0.19730973096E+03 -0.24014872786E+03 -0.69551967171E+03  0.76685553444E+03  0.87847911384E+02 0.  0.
          4    1    3    3  502    0 -0.28517622758E+01  0.17006280108E+01 -0.78768000341E+02  0.78837951276E+02  0.00000000000E+00 0. -1.
         -3    1    3    3    0  502 -0.50995542066E+02  0.58228041321E+02 -0.52638518099E+02  0.93604827303E+02  0.00000000000E+00 0.  1.
         11    1    5    5    0    0 -0.16510061591E+02  0.91618582494E+02  0.51515067750E+02  0.10639712871E+03  0.00000000000E+00 0.  1.
        -11    1    5    5    0    0 -0.12695236503E+03  0.88601476039E+02  0.10118010518E+03  0.18494468964E+03  0.00000000000E+00 0. -1.
          2    1    6    6  503    0  0.56635035504E+02 -0.21093343131E+02 -0.98795372640E+02  0.11581442927E+03  0.00000000000E+00 0. -1.
         -2    1    6    6    0  503  0.14067469545E+03 -0.21905538473E+03 -0.59672429907E+03  0.65104110517E+03  0.00000000000E+00 0.  1.
<mgrwt>
<rscale>  0 0.10295085E+04</rscale>
<asrwt>0</asrwt>
<pdfrwt beam="1">  1        2 0.14652855E+00 0.10295085E+04</pdfrwt>
<pdfrwt beam="2">  1       -1 0.42800701E-01 0.10295085E+04</pdfrwt>
<totfact> 0.16521264E+02</totfact>
</mgrwt>
</event>
<event>
12    6  0.1521603E-007  0.1234290E+04  0.7818608E-02  0.9083361E-01
         -1   -1    0    0    0  501 -0.00000000000E+00  0.00000000000E+00  0.36517292749E+03  0.36517292749E+03  0.00000000000E+00 0.  1.
          2   -1    0    0  501    0  0.00000000000E+00 -0.00000000000E+00 -0.10429804063E+04  0.10429804063E+04  0.00000000000E+00 0. -1.
         24    2    1    2    0    0 -0.63417958760E+02  0.17231102744E+03 -0.41298711075E+03  0.45936551587E+03  0.82130358931E+02 0.  0.
        254    2    1    2    0    0  0.63417958760E+02 -0.17231102744E+03 -0.26482036804E+03  0.94878781790E+03  0.89238756624E+03 0.  0.
         23    2    4    4    0    0 -0.55953776590E+02 -0.39421302763E+03  0.16622920242E+03  0.44140333238E+03  0.93112930543E+02 0.  0.
         23    2    4    4    0    0  0.11937173535E+03  0.22190200019E+03 -0.43104957046E+03  0.50738448551E+03  0.90250623555E+02 0.  0.
          4    1    3    3  502    0 -0.43527126442E+02  0.17433568071E+03 -0.38604870389E+03  0.42581820308E+03  0.00000000000E+00 0. -1.
         -3    1    3    3    0  502 -0.19890832318E+02 -0.20246532691E+01 -0.26938406862E+02  0.33547312790E+02  0.00000000000E+00 0.  1.
         11    1    5    5    0    0 -0.44517986935E+02 -0.29034930943E+03  0.16498514678E+03  0.33690454331E+03  0.00000000000E+00 0.  1.
        -11    1    5    5    0    0 -0.11435789655E+02 -0.10386371820E+03  0.12440556465E+01  0.10449878907E+03  0.00000000000E+00 0. -1.
          2    1    6    6  503    0  0.13093873097E+02  0.79215406737E+01 -0.88084542201E+02  0.89404065311E+02  0.00000000000E+00 0. -1.
         -2    1    6    6    0  503  0.10627786225E+03  0.21398045952E+03 -0.34296502826E+03  0.41798042020E+03  0.00000000000E+00 0.  1.
<mgrwt>
<rscale>  0 0.12342904E+04</rscale>
<asrwt>0</asrwt>
<pdfrwt beam="1">  1        2 0.16045852E+00 0.12342904E+04</pdfrwt>
<pdfrwt beam="2">  1       -1 0.56180451E-01 0.12342904E+04</pdfrwt>
<totfact> 0.85119664E+01</totfact>
</mgrwt>
</event>
<event>
12    6  0.1521603E-007  0.1850150E+04  0.7818608E-02  0.8680076E-01
         -1   -1    0    0    0  501 -0.00000000000E+00  0.00000000000E+00  0.12392295474E+04  0.12392295474E+04  0.00000000000E+00 0.  1.
          2   -1    0    0  501    0  0.00000000000E+00 -0.00000000000E+00 -0.69056099969E+03  0.69056099969E+03  0.00000000000E+00 0. -1.
         24    2    1    2    0    0 -0.37066743236E+03  0.14596499489E+03 -0.39416235158E+03  0.56719320159E+03  0.87430220044E+02 0.  0.
        254    2    1    2    0    0  0.37066743236E+03 -0.14596499489E+03  0.94283089925E+03  0.13625973454E+04  0.89946722903E+03 0.  0.
         23    2    4    4    0    0  0.21376202507E+03 -0.35389109597E+03  0.47811679440E+02  0.42623130916E+03  0.91945968074E+02 0.  0.
         23    2    4    4    0    0  0.15690540729E+03  0.20792610108E+03  0.89501921981E+03  0.93636603629E+03  0.88709524513E+02 0.  0.
          4    1    3    3  502    0 -0.30543139579E+03  0.10131360508E+03 -0.35441554505E+03  0.47870989407E+03  0.00000000000E+00 0. -1.
         -3    1    3    3    0  502 -0.65236036573E+02  0.44651389814E+02 -0.39746806532E+02  0.88483307519E+02  0.00000000000E+00 0.  1.
         11    1    5    5    0    0  0.24042154902E+02 -0.67716072706E+02  0.41170947197E+02  0.82816294340E+02  0.00000000000E+00 0. -1.
        -11    1    5    5    0    0  0.18971987017E+03 -0.28617502327E+03  0.66407322432E+01  0.34341501482E+03  0.00000000000E+00 0.  1.
          1    1    6    6  503    0  0.26198818599E+02  0.57022909992E+02  0.11288671880E+03  0.12915650058E+03  0.00000000000E+00 0. -1.
         -1    1    6    6    0  503  0.13070658870E+03  0.15090319109E+03  0.78213250101E+03  0.80720953571E+03  0.00000000000E+00 0.  1.
<mgrwt>
<rscale>  0 0.18501498E+04</rscale>
<asrwt>0</asrwt>
<pdfrwt beam="1">  1        2 0.10624015E+00 0.18501498E+04</pdfrwt>
<pdfrwt beam="2">  1       -1 0.19065070E+00 0.18501498E+04</pdfrwt>
<totfact> 0.78240016E+00</totfact>
</mgrwt>
</event>
<event>
12    6  0.1521603E-007  0.1425644E+04  0.7818608E-02  0.8935463E-01
         -1   -1    0    0    0  501 -0.00000000000E+00  0.00000000000E+00  0.24660602952E+03  0.24660602952E+03  0.00000000000E+00 0.  1.
          2   -1    0    0  501    0  0.00000000000E+00 -0.00000000000E+00 -0.20604318301E+04  0.20604318301E+04  0.00000000000E+00 0. -1.
         24    2    1    2    0    0  0.38703351645E+03 -0.16924830642E+03 -0.44722204377E+03  0.62028234385E+03  0.79389530604E+02 0.  0.
        254    2    1    2    0    0 -0.38703351645E+03  0.16924830642E+03 -0.13666037568E+04  0.16867555158E+04  0.89392304466E+03 0.  0.
         23    2    4    4    0    0 -0.40400690294E+03  0.45400813334E+03 -0.11841579249E+04  0.13341275758E+04  0.91221898207E+02 0.  0.
         23    2    4    4    0    0  0.16973386487E+02 -0.28475982692E+03 -0.18244583195E+03  0.35262793998E+03  0.98405932662E+02 0.  0.
          2    1    3    3  502    0  0.13855831863E+03 -0.40904670802E+02 -0.10649198948E+03  0.17947741802E+03  0.00000000000E+00 0. -1.
         -1    1    3    3    0  502  0.24847519782E+03 -0.12834363562E+03 -0.34073005429E+03  0.44080492583E+03  0.00000000000E+00 0.  1.
         11    1    5    5    0    0 -0.11441923139E+03  0.74833946105E+02 -0.23768786268E+03  0.27420320944E+03  0.00000000000E+00 0.  1.
        -11    1    5    5    0    0 -0.28958767155E+03  0.37917418724E+03 -0.94647006223E+03  0.10599243664E+04  0.00000000000E+00 0. -1.
          3    1    6    6  503    0  0.13718714001E+02 -0.12345806690E+03 -0.24030143964E+02  0.12652092798E+03  0.00000000000E+00 0. -1.
         -3    1    6    6    0  503  0.32546724862E+01 -0.16130176001E+03 -0.15841568798E+03  0.22610701200E+03  0.00000000000E+00 0.  1.
<mgrwt>
<rscale>  0 0.14256436E+04</rscale>
<asrwt>0</asrwt>
<pdfrwt beam="1">  1        2 0.31698951E+00 0.14256436E+04</pdfrwt>
<pdfrwt beam="2">  1       -1 0.37939389E-01 0.14256436E+04</pdfrwt>
<totfact> 0.45931370E+01</totfact>
</mgrwt>
</event>
<event>
12    6  0.1521603E-007  0.1668432E+04  0.7818608E-02  0.8779576E-01
          2   -1    0    0  501    0  0.00000000000E+00  0.00000000000E+00  0.67769077695E+03  0.67769077695E+03  0.00000000000E+00 0. -1.
         -1   -1    0    0    0  501 -0.00000000000E+00 -0.00000000000E+00 -0.10268934217E+04  0.10268934217E+04  0.00000000000E+00 0.  1.
         24    2    1    2    0    0 -0.31099522810E+03  0.37734159926E+03 -0.46733505633E+03  0.68164566152E+03  0.84463237869E+02 0.  0.
        254    2    1    2    0    0  0.31099522810E+03 -0.37734159926E+03  0.11813241159E+03  0.10229385371E+04  0.89069819222E+03 0.  0.
         23    2    4    4    0    0  0.54761886517E+03 -0.11355591161E+03  0.26909004825E+03  0.62730772138E+03  0.91236816496E+02 0.  0.
         23    2    4    4    0    0 -0.23662363706E+03 -0.26378568765E+03 -0.15095763666E+03  0.39563081574E+03  0.90343232594E+02 0.  0.
          4    1    3    3  502    0 -0.36239476014E+02  0.73702432563E+02 -0.11572850568E+03  0.14190995460E+03  0.00000000000E+00 0. -1.
         -3    1    3    3    0  502 -0.27475575209E+03  0.30363916670E+03 -0.35160655065E+03  0.53973570692E+03  0.00000000000E+00 0.  1.
         11    1    5    5    0    0  0.43308241168E+03 -0.12321163585E+03  0.23204002398E+03  0.50654126707E+03  0.00000000000E+00 0.  1.
        -11    1    5    5    0    0  0.11453645349E+03  0.96557242356E+01  0.37050024267E+02  0.12076645431E+03  0.00000000000E+00 0. -1.
          3    1    6    6  503    0 -0.71359479782E+02 -0.11630919286E+03 -0.18911843066E+02  0.13775943346E+03  0.00000000000E+00 0. -1.
         -3    1    6    6    0  503 -0.16526415728E+03 -0.14747649479E+03 -0.13204579359E+03  0.25787138228E+03  0.00000000000E+00 0.  1.
<mgrwt>
<rscale>  0 0.16684318E+04</rscale>
<asrwt>0</asrwt>
<pdfrwt beam="1">  1        2 0.10426012E+00 0.16684318E+04</pdfrwt>
<pdfrwt beam="2">  1       -1 0.15798360E+00 0.16684318E+04</pdfrwt>
<totfact> 0.14078068E+01</totfact>
</mgrwt>
</event>
<event>
12    6  0.1521603E-007  0.1831750E+04  0.7818608E-02  0.8689595E-01
          2   -1    0    0  501    0  0.00000000000E+00  0.00000000000E+00  0.24066155261E+04  0.24066155261E+04  0.00000000000E+00 0. -1.
         -1   -1    0    0    0  501 -0.00000000000E+00 -0.00000000000E+00 -0.34855053149E+03  0.34855053149E+03  0.00000000000E+00 0.  1.
         24    2    1    2    0    0  0.36679197850E+03  0.44853148587E+03  0.21135844379E+03  0.62178290702E+03  0.78897036718E+02 0.  0.
        254    2    1    2    0    0 -0.36679197850E+03 -0.44853148587E+03  0.18467065508E+04  0.21333831506E+04  0.89737491215E+03 0.  0.
         23    2    4    4    0    0  0.51446789394E+02 -0.92700391573E+02 -0.58169971123E+02  0.14852374532E+03  0.86228896814E+02 0.  0.
         23    2    4    4    0    0 -0.41823876789E+03 -0.35583109430E+03  0.19048765220E+04  0.19848594053E+04  0.97840993982E+02 0.  0.
          4    1    3    3  502    0  0.55274783596E+02  0.10065955794E+03  0.17447758339E+02  0.11615538118E+03  0.00000000000E+00 0. -1.
         -3    1    3    3    0  502  0.31151719490E+03  0.34787192793E+03  0.19391068545E+03  0.50562752584E+03  0.00000000000E+00 0.  1.
         11    1    5    5    0    0  0.19907948547E+02  0.14394128972E+02 -0.59730398227E+01  0.25282297541E+02  0.00000000000E+00 0.  1.
        -11    1    5    5    0    0  0.31538840847E+02 -0.10709452055E+03 -0.52196931301E+02  0.12324144778E+03  0.00000000000E+00 0. -1.
          1    1    6    6  503    0 -0.30993904526E+03 -0.23172850327E+03  0.11939063071E+04  0.12550587959E+04  0.00000000000E+00 0. -1.
         -1    1    6    6    0  503 -0.10829972263E+03 -0.12410259102E+03  0.71097021489E+03  0.72980060940E+03  0.00000000000E+00 0.  1.
<mgrwt>
<rscale>  0 0.18317501E+04</rscale>
<asrwt>0</asrwt>
<pdfrwt beam="1">  1        2 0.37024853E+00 0.18317501E+04</pdfrwt>
<pdfrwt beam="2">  1       -1 0.53623160E-01 0.18317501E+04</pdfrwt>
<totfact> 0.14839443E+01</totfact>
</mgrwt>
</event>
<event>
12    6  0.1521603E-007  0.2670477E+04  0.7818608E-02  0.8344648E-01
          2   -1    0    0  501    0  0.00000000000E+00  0.00000000000E+00  0.18957310207E+04  0.18957310207E+04  0.00000000000E+00 0. -1.
         -1   -1    0    0    0  501 -0.00000000000E+00 -0.00000000000E+00 -0.94046161740E+03  0.94046161740E+03  0.00000000000E+00 0.  1.
         24    2    1    2    0    0 -0.68988086730E+03  0.67899621716E+03 -0.27233710349E+03  0.10086406739E+04  0.78848190031E+02 0.  0.
        254    2    1    2    0    0  0.68988086730E+03 -0.67899621716E+03  0.12276065068E+04  0.18275519642E+04  0.94655003695E+03 0.  0.
         23    2    4    4    0    0  0.22450630801E+03  0.14799975133E+03  0.13246447325E+02  0.28432687807E+03  0.91429188422E+02 0.  0.
         23    2    4    4    0    0  0.46537455929E+03 -0.82699596848E+03  0.12143600594E+04  0.15432250861E+04  0.79859252505E+02 0.  0.
          4    1    3    3  502    0 -0.13937702578E+03  0.15231273284E+03 -0.90180906840E+02  0.22529473997E+03  0.00000000000E+00 0. -1.
         -3    1    3    3    0  502 -0.55050384151E+03  0.52668348432E+03 -0.18215619665E+03  0.78334593390E+03  0.00000000000E+00 0.  1.
         11    1    5    5    0    0  0.63477820116E+02  0.70112503115E+02 -0.31949216414E+02  0.99829600666E+02  0.00000000000E+00 0. -1.
        -11    1    5    5    0    0  0.16102848789E+03  0.77887248214E+02  0.45195663739E+02  0.18449727740E+03  0.00000000000E+00 0.  1.
          3    1    6    6  503    0  0.19524031625E+03 -0.29673310504E+03  0.50278457699E+03  0.61559860914E+03  0.00000000000E+00 0. -1.
         -3    1    6    6    0  503  0.27013424304E+03 -0.53026286345E+03  0.71157548245E+03  0.92762647701E+03  0.00000000000E+00 0.  1.
<mgrwt>
<rscale>  0 0.26704773E+04</rscale>
<asrwt>0</asrwt>
<pdfrwt beam="1">  1        2 0.29165093E+00 0.26704773E+04</pdfrwt>
<pdfrwt beam="2">  1       -1 0.14468640E+00 0.26704773E+04</pdfrwt>
<totfact> 0.29361721E+00</totfact>
</mgrwt>
</event>
<event>
12    6  0.1521603E-007  0.1414652E+04  0.7818608E-02  0.8943280E-01
          2   -1    0    0  501    0  0.00000000000E+00  0.00000000000E+00  0.18941814490E+03  0.18941814490E+03  0.00000000000E+00 0. -1.
         -3   -1    0    0    0  501 -0.00000000000E+00 -0.00000000000E+00 -0.26413002004E+04  0.26413002004E+04  0.00000000000E+00 0.  1.
         24    2    1    2    0    0  0.23244332142E+03 -0.49375184516E+02 -0.54791994110E+02  0.25797745978E+03  0.84156999797E+02 0.  0.
        254    2    1    2    0    0 -0.23244332142E+03  0.49375184516E+02 -0.23970900614E+04  0.25727408855E+04  0.90359675470E+03 0.  0.
         23    2    4    4    0    0 -0.47267234865E+02  0.44198955848E+03 -0.15684938759E+04  0.16328286782E+04  0.91473998488E+02 0.  0.
         23    2    4    4    0    0 -0.18517608656E+03 -0.39261437397E+03 -0.82859618548E+03  0.93991220729E+03  0.91799178334E+02 0.  0.
          2    1    3    3  502    0  0.23921689777E+03 -0.48147260801E+02 -0.48789212959E+02  0.24884386712E+03  0.00000000000E+00 0. -1.
         -1    1    3    3    0  502 -0.67735763520E+01 -0.12279237152E+01 -0.60027811504E+01  0.91335926549E+01  0.00000000000E+00 0.  1.
         11    1    5    5    0    0 -0.14789354777E+02  0.30365583977E+03 -0.11993211675E+04  0.12372537560E+04  0.00000000000E+00 0.  1.
        -11    1    5    5    0    0 -0.32477880088E+02  0.13833371871E+03 -0.36917270838E+03  0.39557492215E+03  0.00000000000E+00 0. -1.
          1    1    6    6  503    0 -0.16908745641E+03 -0.39273177451E+03 -0.79689365245E+03  0.90436071782E+03  0.00000000000E+00 0. -1.
         -1    1    6    6    0  503 -0.16088630145E+02  0.11740054290E+00 -0.31702533029E+02  0.35551489467E+02  0.00000000000E+00 0.  1.
<mgrwt>
<rscale>  0 0.14146522E+04</rscale>
<asrwt>0</asrwt>
<pdfrwt beam="1">  1        2 0.29141254E-01 0.14146522E+04</pdfrwt>
<pdfrwt beam="2">  1       -3 0.40635387E+00 0.14146522E+04</pdfrwt>
<totfact> 0.10899571E+00</totfact>
</mgrwt>
</event>
<event>
12    6  0.1521603E-007  0.2123893E+04  0.7818608E-02  0.8550791E-01
         -1   -1    0    0    0  501 -0.00000000000E+00  0.00000000000E+00  0.62882381756E+03  0.62882381756E+03  0.00000000000E+00 0.  1.
          2   -1    0    0  501    0  0.00000000000E+00 -0.00000000000E+00 -0.17933964331E+04  0.17933964331E+04  0.00000000000E+00 0. -1.
         24    2    1    2    0    0  0.20306940390E+03  0.34940337611E+03  0.40012086884E+03  0.57398935360E+03  0.77763528225E+02 0.  0.
        254    2    1    2    0    0 -0.20306940390E+03 -0.34940337611E+03 -0.15646934844E+04  0.18482308971E+04  0.89686779783E+03 0.  0.
         23    2    4    4    0    0  0.28668415682E+03 -0.37752059485E+03 -0.82813068804E+03  0.95850771433E+03  0.90702792967E+02 0.  0.
         23    2    4    4    0    0 -0.48975356072E+03  0.28117218741E+02 -0.73656279635E+03  0.88972318274E+03  0.91833875661E+02 0.  0.
          2    1    3    3  502    0  0.73013786536E+02  0.93040173650E+02  0.75173437371E+02  0.14013754894E+03  0.00000000000E+00 0. -1.
         -1    1    3    3    0  502  0.13005561737E+03  0.25636320246E+03  0.32494743147E+03  0.43385180466E+03  0.00000000000E+00 0.  1.
         11    1    5    5    0    0  0.50583764125E+02 -0.12241278398E+03 -0.18612442462E+03  0.22844235228E+03  0.00000000000E+00 0.  1.
        -11    1    5    5    0    0  0.23610039269E+03 -0.25510781087E+03 -0.64200626342E+03  0.73006536205E+03  0.00000000000E+00 0. -1.
          2    1    6    6  503    0 -0.48199616829E+03  0.13757738871E+02 -0.71927804475E+03  0.86595062635E+03  0.00000000000E+00 0. -1.
         -2    1    6    6    0  503 -0.77573924306E+01  0.14359479869E+02 -0.17284751599E+02  0.23772556389E+02  0.00000000000E+00 0.  1.
<mgrwt>
<rscale>  0 0.21238930E+04</rscale>
<asrwt>0</asrwt>
<pdfrwt beam="1">  1        2 0.27590714E+00 0.21238930E+04</pdfrwt>
<pdfrwt beam="2">  1       -1 0.96742126E-01 0.21238930E+04</pdfrwt>
<totfact> 0.93659408E+00</totfact>
</mgrwt>
</event>
<event>
12    6  0.1521603E-007  0.2626437E+04  0.7818608E-02  0.8359276E-01
          2   -1    0    0  501    0  0.00000000000E+00  0.00000000000E+00  0.14593780774E+04  0.14593780774E+04  0.00000000000E+00 0. -1.
         -1   -1    0    0    0  501 -0.00000000000E+00 -0.00000000000E+00 -0.11816968997E+04  0.11816968997E+04  0.00000000000E+00 0.  1.
         24    2    1    2    0    0 -0.90529463007E+03  0.65532397243E+03  0.42636334521E+03  0.11988887426E+04  0.80874216861E+02 0.  0.
        254    2    1    2    0    0  0.90529463007E+03 -0.65532397243E+03 -0.14868216747E+03  0.14421862345E+04  0.89932578743E+03 0.  0.
         23    2    4    4    0    0  0.43464127807E+03 -0.80170093172E+03 -0.20195880209E+03  0.93820759697E+03  0.88366921115E+02 0.  0.
         23    2    4    4    0    0  0.47065335200E+03  0.14637695930E+03  0.53276634621E+02  0.50397863751E+03  0.90638155939E+02 0.  0.
          4    1    3    3  502    0 -0.77123956823E+03  0.53376582353E+03  0.38073966053E+03  0.10122643504E+04  0.00000000000E+00 0. -1.
         -3    1    3    3    0  502 -0.13405506184E+03  0.12155814890E+03  0.45623684682E+02  0.18662439222E+03  0.00000000000E+00 0.  1.
         11    1    5    5    0    0  0.33077826317E+03 -0.55772941224E+03 -0.11095247388E+03  0.65786534194E+03  0.00000000000E+00 0. -1.
        -11    1    5    5    0    0  0.10386301490E+03 -0.24397151948E+03 -0.91006328212E+02  0.28034225503E+03  0.00000000000E+00 0.  1.
          3    1    6    6  503    0  0.43922269053E+03  0.15702848234E+03  0.59452504074E+02  0.47022241161E+03  0.00000000000E+00 0. -1.
         -3    1    6    6    0  503  0.31430661473E+02 -0.10651523043E+02 -0.61758694534E+01  0.33756225904E+02  0.00000000000E+00 0.  1.
<mgrwt>
<rscale>  0 0.26264368E+04</rscale>
<asrwt>0</asrwt>
<pdfrwt beam="1">  1        2 0.22451970E+00 0.26264368E+04</pdfrwt>
<pdfrwt beam="2">  1       -1 0.18179952E+00 0.26264368E+04</pdfrwt>
<totfact> 0.27183951E+00</totfact>
</mgrwt>
</event>
<event>
12    6  0.1521603E-007  0.2975482E+04  0.7818608E-02  0.8250767E-01
          2   -1    0    0  501    0  0.00000000000E+00  0.00000000000E+00  0.15717099874E+04  0.15717099874E+04  0.00000000000E+00 0. -1.
         -1   -1    0    0    0  501 -0.00000000000E+00 -0.00000000000E+00 -0.14082582859E+04  0.14082582859E+04  0.00000000000E+00 0.  1.
         24    2    1    2    0    0 -0.34052830678E+03  0.25141013223E+03  0.13555392042E+04  0.14222839724E+04  0.78984693701E+02 0.  0.
        254    2    1    2    0    0  0.34052830678E+03 -0.25141013223E+03 -0.11920875027E+04  0.15576843008E+04  0.90892309068E+03 0.  0.
         23    2    4    4    0    0 -0.24257015942E+03 -0.29013886290E+03 -0.32121741901E+03  0.50504574769E+03  0.94179270444E+02 0.  0.
         23    2    4    4    0    0  0.58309846619E+03  0.38728730667E+02 -0.87087008365E+03  0.10526385531E+04  0.90163657391E+02 0.  0.
          2    1    3    3  502    0 -0.29524313053E+03  0.21057440231E+03  0.12358342217E+04  0.12879426651E+04  0.00000000000E+00 0. -1.
         -1    1    3    3    0  502 -0.45285176248E+02  0.40835729925E+02  0.11970498250E+03  0.13434130736E+03  0.00000000000E+00 0.  1.
         11    1    5    5    0    0  0.21437107751E+01 -0.67125292684E+01 -0.29619684002E+02  0.30446333531E+02  0.00000000000E+00 0.  1.
        -11    1    5    5    0    0 -0.24471387019E+03 -0.28342633363E+03 -0.29159773501E+03  0.47459941416E+03  0.00000000000E+00 0. -1.
          1    1    6    6  503    0  0.50657066605E+03  0.50237293175E+02 -0.79670149334E+03  0.94544745746E+03  0.00000000000E+00 0. -1.
         -1    1    6    6    0  503  0.76527800142E+02 -0.11508562508E+02 -0.74168590319E+02  0.10719109569E+03  0.00000000000E+00 0.  1.
<mgrwt>
<rscale>  0 0.29754822E+04</rscale>
<asrwt>0</asrwt>
<pdfrwt beam="1">  1        2 0.24180154E+00 0.29754822E+04</pdfrwt>
<pdfrwt beam="2">  1       -1 0.21665512E+00 0.29754822E+04</pdfrwt>
<totfact> 0.13091214E+00</totfact>
</mgrwt>
</event>
<event>
12    6  0.1521603E-007  0.1450466E+04  0.7818608E-02  0.8918078E-01
         -1   -1    0    0    0  501 -0.00000000000E+00  0.00000000000E+00  0.26291359634E+03  0.26291359634E+03  0.00000000000E+00 0.  1.
          2   -1    0    0  501    0  0.00000000000E+00 -0.00000000000E+00 -0.20005160425E+04  0.20005160425E+04  0.00000000000E+00 0. -1.
         24    2    1    2    0    0 -0.15653485437E+03  0.19914997049E+03  0.23295702466E+02  0.26639241567E+03  0.79109784472E+02 0.  0.
        254    2    1    2    0    0  0.15653485437E+03 -0.19914997049E+03 -0.17608981486E+04  0.19970372232E+04  0.90732106199E+03 0.  0.
         23    2    4    4    0    0  0.36171976547E+03 -0.43222405295E+03 -0.14018067259E+04  0.15136261566E+04  0.91341253380E+02 0.  0.
         23    2    4    4    0    0 -0.20518491110E+03  0.23307408246E+03 -0.35909142274E+03  0.48341106656E+03  0.91187903398E+02 0.  0.
          2    1    3    3  502    0 -0.58833854127E+02  0.29907571942E+02 -0.13946566164E+02  0.67456593144E+02  0.00000000000E+00 0. -1.
         -1    1    3    3    0  502 -0.97701000239E+02  0.16924239855E+03  0.37242268631E+02  0.19893582253E+03  0.00000000000E+00 0.  1.
         11    1    5    5    0    0  0.89846588479E+02 -0.52956125576E+02 -0.25037353498E+03  0.27122622977E+03  0.00000000000E+00 0. -1.
        -11    1    5    5    0    0  0.27187317699E+03 -0.37926792737E+03 -0.11514331909E+04  0.12423999268E+04  0.00000000000E+00 0.  1.
          2    1    6    6  503    0 -0.20550094743E+03  0.19295440997E+03 -0.32907745833E+03  0.43330591653E+03  0.00000000000E+00 0. -1.
         -2    1    6    6    0  503  0.31603632175E+00  0.40119672489E+02 -0.30013964409E+02  0.50105150027E+02  0.00000000000E+00 0.  1.
<mgrwt>
<rscale>  0 0.14504659E+04</rscale>
<asrwt>0</asrwt>
<pdfrwt beam="1">  1        2 0.30777169E+00 0.14504659E+04</pdfrwt>
<pdfrwt beam="2">  1       -1 0.40448247E-01 0.14504659E+04</pdfrwt>
<totfact> 0.44035633E+01</totfact>
</mgrwt>
</event>
<event>
12    6  0.1521603E-007  0.2802731E+04  0.7818608E-02  0.8302421E-01
          2   -1    0    0  501    0  0.00000000000E+00  0.00000000000E+00  0.23037826301E+04  0.23037826301E+04  0.00000000000E+00 0. -1.
         -1   -1    0    0    0  501 -0.00000000000E+00 -0.00000000000E+00 -0.85243534021E+03  0.85243534021E+03  0.00000000000E+00 0.  1.
         24    2    1    2    0    0 -0.58268824408E+03  0.45395787106E+03 -0.49458837978E+03  0.89239997518E+03  0.78464716940E+02 0.  0.
        254    2    1    2    0    0  0.58268824408E+03 -0.45395787106E+03  0.19459356696E+04  0.22638179951E+04  0.89028250914E+03 0.  0.
         23    2    4    4    0    0 -0.68394287060E+02 -0.20076966158E+03  0.42588099197E+02  0.23422800417E+03  0.89792963143E+02 0.  0.
         23    2    4    4    0    0  0.65108253114E+03 -0.25318820948E+03  0.19033475704E+04  0.20295899909E+04  0.92145676015E+02 0.  0.
          4    1    3    3  502    0 -0.37893525646E+03  0.32359560673E+03 -0.36746607490E+03  0.61914244039E+03  0.00000000000E+00 0. -1.
         -3    1    3    3    0  502 -0.20375298762E+03  0.13036226433E+03 -0.12712230488E+03  0.27325753479E+03  0.00000000000E+00 0.  1.
         11    1    5    5    0    0  0.12344797098E+02 -0.33176018741E+02 -0.16481177231E+02  0.39047041345E+02  0.00000000000E+00 0. -1.
        -11    1    5    5    0    0 -0.80739084159E+02 -0.16759364284E+03  0.59069276427E+02  0.19518096282E+03  0.00000000000E+00 0.  1.
          1    1    6    6  503    0  0.56741278240E+03 -0.24260175702E+03  0.17311179316E+04  0.18378199507E+04  0.00000000000E+00 0. -1.
         -1    1    6    6    0  503  0.83669748737E+02 -0.10586452457E+02  0.17222963889E+03  0.19177004026E+03  0.00000000000E+00 0.  1.
<mgrwt>
<rscale>  0 0.28027313E+04</rscale>
<asrwt>0</asrwt>
<pdfrwt beam="1">  1        2 0.35442809E+00 0.28027313E+04</pdfrwt>
<pdfrwt beam="2">  1       -1 0.13114390E+00 0.28027313E+04</pdfrwt>
<totfact> 0.22131812E+00</totfact>
</mgrwt>
</event>
<event>
12    6  0.1521603E-007  0.3032145E+04  0.7818608E-02  0.8234611E-01
         -1   -1    0    0    0  501 -0.00000000000E+00  0.00000000000E+00  0.15989054572E+04  0.15989054572E+04  0.00000000000E+00 0.  1.
          2   -1    0    0  501    0  0.00000000000E+00 -0.00000000000E+00 -0.14375310918E+04  0.14375310918E+04  0.00000000000E+00 0. -1.
         24    2    1    2    0    0  0.20222375044E+02  0.25923504566E+03 -0.12827521679E+04  0.13113518950E+04  0.81110510681E+02 0.  0.
        254    2    1    2    0    0 -0.20222375044E+02 -0.25923504566E+03  0.14441265333E+04  0.17250846540E+04  0.90708536860E+03 0.  0.
         23    2    4    4    0    0 -0.34850895938E+03  0.10156831900E+03  0.30678578118E+03  0.48412905840E+03  0.92134746220E+02 0.  0.
         23    2    4    4    0    0  0.32828658433E+03 -0.36080336466E+03  0.11373407521E+04  0.12409555956E+04  0.92063317431E+02 0.  0.
          4    1    3    3  502    0  0.25488670493E+02  0.84952655306E+02 -0.60800988189E+03  0.61444498732E+03  0.00000000000E+00 0. -1.
         -3    1    3    3    0  502 -0.52662954495E+01  0.17428239035E+03 -0.67474228598E+03  0.69690690766E+03  0.00000000000E+00 0.  1.
         11    1    5    5    0    0 -0.28862211588E+03  0.45463002056E+02  0.24705796199E+03  0.38263199933E+03  0.00000000000E+00 0. -1.
        -11    1    5    5    0    0 -0.59886843496E+02  0.56105316949E+02  0.59727819195E+02  0.10149705907E+03  0.00000000000E+00 0.  1.
          1    1    6    6  503    0  0.19950304809E+03 -0.16037540931E+03  0.53051176303E+03  0.58903689937E+03  0.00000000000E+00 0. -1.
         -1    1    6    6    0  503  0.12878353624E+03 -0.20042795535E+03  0.60682898907E+03  0.65191869621E+03  0.00000000000E+00 0.  1.
<mgrwt>
<rscale>  0 0.30321453E+04</rscale>
<asrwt>0</asrwt>
<pdfrwt beam="1">  1        2 0.22115863E+00 0.30321453E+04</pdfrwt>
<pdfrwt beam="2">  1       -1 0.24598545E+00 0.30321453E+04</pdfrwt>
<totfact> 0.99180115E-01</totfact>
</mgrwt>
</event>
<event>
12    6  0.1521603E-007  0.1394742E+04  0.7818608E-02  0.8957633E-01
          2   -1    0    0  501    0  0.00000000000E+00  0.00000000000E+00  0.41181662230E+03  0.41181662230E+03  0.00000000000E+00 0. -1.
         -1   -1    0    0    0  501 -0.00000000000E+00 -0.00000000000E+00 -0.11809298608E+04  0.11809298608E+04  0.00000000000E+00 0.  1.
         24    2    1    2    0    0 -0.57329157866E+02  0.30362018498E+03  0.72728945914E+02  0.32650112361E+03  0.76430589921E+02 0.  0.
        254    2    1    2    0    0  0.57329157866E+02 -0.30362018498E+03 -0.84184218441E+03  0.12662453595E+04  0.89398389129E+03 0.  0.
         23    2    4    4    0    0 -0.10072973615E+03 -0.21464925557E+03 -0.98513002755E+03  0.10174505373E+04  0.92215194541E+02 0.  0.
         23    2    4    4    0    0  0.15805889402E+03 -0.88970929413E+02  0.14328784313E+03  0.24879482214E+03  0.92027263771E+02 0.  0.
          2    1    3    3  502    0 -0.16329315097E+02  0.22389112110E+03  0.75394042344E+02  0.23680823943E+03  0.00000000000E+00 0. -1.
         -3    1    3    3    0  502 -0.40999842768E+02  0.79729063877E+02 -0.26650964298E+01  0.89692884181E+02  0.00000000000E+00 0.  1.
         11    1    5    5    0    0 -0.11334800540E+03 -0.16021756250E+03 -0.81855713659E+03  0.84175603564E+03  0.00000000000E+00 0. -1.
        -11    1    5    5    0    0  0.12618269253E+02 -0.54431693071E+02 -0.16657289095E+03  0.17569450171E+03  0.00000000000E+00 0.  1.
          1    1    6    6  503    0  0.15431698409E+03 -0.10022404435E+03  0.14789210699E+03  0.23607343340E+03  0.00000000000E+00 0. -1.
         -1    1    6    6    0  503  0.37419099227E+01  0.11253114942E+02 -0.46042638639E+01  0.12721388741E+02  0.00000000000E+00 0.  1.
<mgrwt>
<rscale>  0 0.13947423E+04</rscale>
<asrwt>0</asrwt>
<pdfrwt beam="1">  1        2 0.63356404E-01 0.13947423E+04</pdfrwt>
<pdfrwt beam="2">  1       -1 0.18168152E+00 0.13947423E+04</pdfrwt>
<totfact> 0.17347366E+01</totfact>
</mgrwt>
</event>
<event>
12    6  0.1521603E-007  0.1730902E+04  0.7818608E-02  0.8743934E-01
         -1   -1    0    0    0  501 -0.00000000000E+00  0.00000000000E+00  0.10118292331E+04  0.10118292331E+04  0.00000000000E+00 0.  1.
          2   -1    0    0  501    0  0.00000000000E+00 -0.00000000000E+00 -0.74024873870E+03  0.74024873870E+03  0.00000000000E+00 0. -1.
         24    2    1    2    0    0 -0.54476204356E+03  0.30616868118E+03  0.21214874894E+03  0.66470972000E+03  0.79542282703E+02 0.  0.
        254    2    1    2    0    0  0.54476204356E+03 -0.30616868118E+03  0.59431745492E+02  0.10873682518E+04  0.88788098148E+03 0.  0.
         23    2    4    4    0    0  0.34238596670E+03 -0.32195038747E+03 -0.36921406767E+03  0.60394769055E+03  0.86911351188E+02 0.  0.
         23    2    4    4    0    0  0.20237607686E+03  0.15781706287E+02  0.42864581316E+03  0.48342056128E+03  0.93557828034E+02 0.  0.
          4    1    3    3  502    0 -0.39770411500E+03  0.22223033827E+03  0.19125442695E+03  0.49409831224E+03  0.00000000000E+00 0. -1.
         -3    1    3    3    0  502 -0.14705792856E+03  0.83938342912E+02  0.20894321996E+02  0.17061140775E+03  0.00000000000E+00 0.  1.
         11    1    5    5    0    0  0.18399436816E+03 -0.21817449466E+03 -0.18735874421E+03  0.34140494529E+03  0.00000000000E+00 0.  1.
        -11    1    5    5    0    0  0.15839159854E+03 -0.10377589281E+03 -0.18185532346E+03  0.26254274526E+03  0.00000000000E+00 0. -1.
          2    1    6    6  503    0  0.35146967123E+02 -0.21290516991E+02  0.15692762314E+03  0.16221860040E+03  0.00000000000E+00 0. -1.
         -2    1    6    6    0  503  0.16722910974E+03  0.37072223277E+02  0.27171819002E+03  0.32120196088E+03  0.00000000000E+00 0.  1.
<mgrwt>
<rscale>  0 0.17309019E+04</rscale>
<asrwt>0</asrwt>
<pdfrwt beam="1">  1        2 0.11388442E+00 0.17309019E+04</pdfrwt>
<pdfrwt beam="2">  1       -1 0.15566604E+00 0.17309019E+04</pdfrwt>
<totfact> 0.13038103E+01</totfact>
</mgrwt>
</event>
<event>
12    6  0.1521603E-007  0.1182705E+04  0.7818608E-02  0.9128131E-01
         -1   -1    0    0    0  501 -0.00000000000E+00  0.00000000000E+00  0.17793012797E+03  0.17793012797E+03  0.00000000000E+00 0.  1.
          2   -1    0    0  501    0  0.00000000000E+00 -0.00000000000E+00 -0.19653652946E+04  0.19653652946E+04  0.00000000000E+00 0. -1.
         24    2    1    2    0    0  0.12840392092E+02 -0.23554208358E+03 -0.27886779969E+03  0.37402862225E+03  0.80530812404E+02 0.  0.
        254    2    1    2    0    0 -0.12840392092E+02  0.23554208358E+03 -0.15085673669E+04  0.17692668003E+04  0.89380342431E+03 0.  0.
         23    2    4    4    0    0  0.44304702641E+02  0.74027390270E+02 -0.15638876257E+04  0.15688718306E+04  0.90395542002E+02 0.  0.
         23    2    4    4    0    0 -0.57145094733E+02  0.16151469331E+03  0.55320258780E+02  0.20039496965E+03  0.88007129384E+02 0.  0.
          4    1    3    3  502    0 -0.12103652935E+02 -0.20311795504E+01 -0.27031410921E+02  0.29687055783E+02  0.00000000000E+00 0. -1.
         -3    1    3    3    0  502  0.24944045027E+02 -0.23351090403E+03 -0.25183638877E+03  0.34434156646E+03  0.00000000000E+00 0.  1.
         11    1    5    5    0    0  0.56292544002E+02  0.85588078253E+02 -0.14662353521E+04  0.14698096058E+04  0.00000000000E+00 0.  1.
        -11    1    5    5    0    0 -0.11987841362E+02 -0.11560687983E+02 -0.97652273570E+02  0.99062224791E+02  0.00000000000E+00 0. -1.
          4    1    6    6  503    0 -0.12138262071E+01  0.92037221610E+02 -0.58663940214E+01  0.92231979890E+02  0.00000000000E+00 0. -1.
         -4    1    6    6    0  503 -0.55931268526E+02  0.69477471703E+02  0.61186652801E+02  0.10816298976E+03  0.00000000000E+00 0.  1.
<mgrwt>
<rscale>  0 0.11827049E+04</rscale>
<asrwt>0</asrwt>
<pdfrwt beam="1">  1        2 0.30236390E+00 0.11827049E+04</pdfrwt>
<pdfrwt beam="2">  1       -1 0.27373865E-01 0.11827049E+04</pdfrwt>
<totfact> 0.94238108E+01</totfact>
</mgrwt>
</event>
<event>
12    6  0.1521603E-007  0.1631870E+04  0.7818608E-02  0.8801205E-01
          2   -1    0    0  501    0  0.00000000000E+00  0.00000000000E+00  0.16294033244E+04  0.16294033244E+04  0.00000000000E+00 0. -1.
         -1   -1    0    0    0  501 -0.00000000000E+00 -0.00000000000E+00 -0.40858495153E+03  0.40858495153E+03  0.00000000000E+00 0.  1.
         24    2    1    2    0    0 -0.16871022580E+03  0.50567744101E+03  0.11178056288E+03  0.55063414556E+03  0.80809983192E+02 0.  0.
        254    2    1    2    0    0  0.16871022580E+03 -0.50567744101E+03  0.11090378100E+04  0.14873541303E+04  0.83551459023E+03 0.  0.
         23    2    4    4    0    0  0.12320777559E+02 -0.17695997781E+03  0.10946900185E+04  0.11126427683E+04  0.90338573918E+02 0.  0.
         23    2    4    4    0    0  0.15638944824E+03 -0.32871746320E+03  0.14347791445E+02  0.37471136203E+03  0.87692163737E+02 0.  0.
          4    1    3    3  502    0 -0.12440382815E+02  0.13257314918E+03  0.45602985025E+02  0.14074812699E+03  0.00000000000E+00 0. -1.
         -3    1    3    3    0  502 -0.15626984299E+03  0.37310429183E+03  0.66177577855E+02  0.40988601857E+03  0.00000000000E+00 0.  1.
         11    1    5    5    0    0  0.17236190018E+02 -0.20312565968E+02  0.53955077195E+02  0.60173390612E+02  0.00000000000E+00 0. -1.
        -11    1    5    5    0    0 -0.49154124597E+01 -0.15664741184E+03  0.10407349413E+04  0.10524693777E+04  0.00000000000E+00 0.  1.
          1    1    6    6  503    0  0.38574196018E+02 -0.32902146643E+02 -0.19890529107E+02  0.54462399876E+02  0.00000000000E+00 0. -1.
         -1    1    6    6    0  503  0.11781525222E+03 -0.29581531656E+03  0.34238320551E+02  0.32024896215E+03  0.00000000000E+00 0.  1.
<mgrwt>
<rscale>  0 0.16318697E+04</rscale>
<asrwt>0</asrwt>
<pdfrwt beam="1">  1        2 0.25067743E+00 0.16318697E+04</pdfrwt>
<pdfrwt beam="2">  1       -1 0.62859224E-01 0.16318697E+04</pdfrwt>
<totfact> 0.30037385E+01</totfact>
</mgrwt>
</event>
<event>
12    6  0.1521603E-007  0.1715085E+04  0.7818608E-02  0.8752807E-01
         -1   -1    0    0    0  501 -0.00000000000E+00  0.00000000000E+00  0.25877138132E+03  0.25877138132E+03  0.00000000000E+00 0.  1.
          2   -1    0    0  501    0  0.00000000000E+00 -0.00000000000E+00 -0.28418111958E+04  0.28418111958E+04  0.00000000000E+00 0. -1.
         24    2    1    2    0    0  0.17590663545E+03  0.50576804324E+03 -0.36271394050E+03  0.65197091037E+03  0.82220480328E+02 0.  0.
        254    2    1    2    0    0 -0.17590663545E+03 -0.50576804324E+03 -0.22203258740E+04  0.24486116668E+04  0.88267074830E+03 0.  0.
         23    2    4    4    0    0 -0.36773711172E+03 -0.56353541953E+02 -0.37128367268E+03  0.53379827337E+03  0.93181146318E+02 0.  0.
         23    2    4    4    0    0  0.19183047627E+03 -0.44941450128E+03 -0.18490422013E+04  0.19148133934E+04  0.93706689585E+02 0.  0.
          4    1    3    3  502    0  0.72213189937E+02  0.22611597880E+03 -0.11259117920E+03  0.26271649035E+03  0.00000000000E+00 0. -1.
         -3    1    3    3    0  502  0.10369344551E+03  0.27965206444E+03 -0.25012276130E+03  0.38925442002E+03  0.00000000000E+00 0.  1.
         11    1    5    5    0    0 -0.31128721783E+00 -0.48172176002E+01 -0.27718108544E+02  0.28135316355E+02  0.00000000000E+00 0. -1.
        -11    1    5    5    0    0 -0.36742582450E+03 -0.51536324352E+02 -0.34356556414E+03  0.50566295702E+03  0.00000000000E+00 0.  1.
          1    1    6    6  503    0  0.44035314451E+02 -0.31154701995E+02 -0.20178246184E+03  0.20886810738E+03  0.00000000000E+00 0. -1.
         -1    1    6    6    0  503  0.14779516182E+03 -0.41825979929E+03 -0.16472597395E+04  0.17059452860E+04  0.00000000000E+00 0.  1.
<mgrwt>
<rscale>  0 0.17150853E+04</rscale>
<asrwt>0</asrwt>
<pdfrwt beam="1">  1        2 0.43720172E+00 0.17150853E+04</pdfrwt>
<pdfrwt beam="2">  1       -1 0.39810982E-01 0.17150853E+04</pdfrwt>
<totfact> 0.14552200E+01</totfact>
</mgrwt>
</event>
<event>
12    6  0.1521603E-007  0.1757195E+04  0.7818608E-02  0.8729400E-01
         -1   -1    0    0    0  501 -0.00000000000E+00  0.00000000000E+00  0.83004725516E+03  0.83004725516E+03  0.00000000000E+00 0.  1.
          2   -1    0    0  501    0  0.00000000000E+00 -0.00000000000E+00 -0.92998797847E+03  0.92998797847E+03  0.00000000000E+00 0. -1.
         24    2    1    2    0    0  0.57334242521E+03  0.28471649892E+03 -0.51263963562E+02  0.65033770911E+03  0.10259688411E+03 0.  0.
        254    2    1    2    0    0 -0.57334242521E+03 -0.28471649892E+03 -0.48676759750E+02  0.11096975245E+04  0.90513764020E+03 0.  0.
         23    2    4    4    0    0 -0.68272228361E+03  0.57601595234E+02  0.12181721959E+03  0.70192204334E+03  0.91801196157E+02 0.  0.
         23    2    4    4    0    0  0.10937985840E+03 -0.34231809415E+03 -0.17049397934E+03  0.40777548119E+03  0.89816563394E+02 0.  0.
          4    1    3    3  502    0  0.44950559980E+03  0.23439417997E+03 -0.81056924568E+02  0.51338693095E+03  0.00000000000E+00 0. -1.
         -3    1    3    3    0  502  0.12383682541E+03  0.50322318951E+02  0.29792961006E+02  0.13695077816E+03  0.00000000000E+00 0.  1.
         11    1    5    5    0    0 -0.37364528435E+03  0.65825813710E+02  0.97813939006E+02  0.39180531254E+03  0.00000000000E+00 0. -1.
        -11    1    5    5    0    0 -0.30907699926E+03 -0.82242184758E+01  0.24003280586E+02  0.31011673079E+03  0.00000000000E+00 0.  1.
          1    1    6    6  503    0  0.58455719117E+02 -0.14212974813E+03 -0.12038918060E+03  0.19522164635E+03  0.00000000000E+00 0. -1.
         -1    1    6    6    0  503  0.50924139286E+02 -0.20018834603E+03 -0.50104798744E+02  0.21255383484E+03  0.00000000000E+00 0.  1.
<mgrwt>
<rscale>  0 0.17571955E+04</rscale>
<asrwt>0</asrwt>
<pdfrwt beam="1">  1        2 0.14307507E+00 0.17571955E+04</pdfrwt>
<pdfrwt beam="2">  1       -1 0.12769958E+00 0.17571955E+04</pdfrwt>
<totfact> 0.16053994E+01</totfact>
</mgrwt>
</event>
<event>
12    6  0.1521603E-007  0.2419879E+04  0.7818608E-02  0.8432099E-01
         -1   -1    0    0    0  501 -0.00000000000E+00  0.00000000000E+00  0.15647168197E+04  0.15647168197E+04  0.00000000000E+00 0.  1.
          2   -1    0    0  501    0  0.00000000000E+00 -0.00000000000E+00 -0.93560265896E+03  0.93560265896E+03  0.00000000000E+00 0. -1.
         24    2    1    2    0    0 -0.89451463103E+03  0.10072174580E+03 -0.25757735610E+03  0.93968596067E+03  0.79764121655E+02 0.  0.
        254    2    1    2    0    0  0.89451463103E+03 -0.10072174580E+03  0.88669151682E+03  0.15606335180E+04  0.91599881887E+03 0.  0.
         23    2    4    4    0    0  0.10384011400E+04 -0.54134888158E+02  0.55158234286E+03  0.11806747096E+04  0.92423888203E+02 0.  0.
         23    2    4    4    0    0 -0.14388650901E+03 -0.46586857641E+02  0.33510917396E+03  0.37995880838E+03  0.95900337940E+02 0.  0.
          2    1    3    3  502    0 -0.61891063049E+03  0.63478104205E+02 -0.21544012263E+03  0.65840282859E+03  0.00000000000E+00 0. -1.
         -3    1    3    3    0  502 -0.27560400054E+03  0.37243641594E+02 -0.42137233470E+02  0.28128313209E+03  0.00000000000E+00 0.  1.
         11    1    5    5    0    0  0.82921520532E+03 -0.24399358425E+02  0.47498012740E+03  0.95592850509E+03  0.00000000000E+00 0.  1.
        -11    1    5    5    0    0  0.20918593472E+03 -0.29735529733E+02  0.76602215463E+02  0.22474620448E+03  0.00000000000E+00 0. -1.
          4    1    6    6  503    0 -0.50242504264E+02  0.16334480482E+02  0.18365379120E+03  0.19110164706E+03  0.00000000000E+00 0. -1.
         -4    1    6    6    0  503 -0.93644004748E+02 -0.62921338124E+02  0.15145538276E+03  0.18885716132E+03  0.00000000000E+00 0.  1.
<mgrwt>
<rscale>  0 0.24198787E+04</rscale>
<asrwt>0</asrwt>
<pdfrwt beam="1">  1        2 0.14393887E+00 0.24198787E+04</pdfrwt>
<pdfrwt beam="2">  1       -1 0.24072566E+00 0.24198787E+04</pdfrwt>
<totfact> 0.22781702E+00</totfact>
</mgrwt>
</event>
<event>
12    6  0.1521603E-007  0.2817216E+04  0.7818608E-02  0.8297943E-01
          2   -1    0    0  501    0  0.00000000000E+00  0.00000000000E+00  0.36913586158E+03  0.36913586158E+03  0.00000000000E+00 0. -1.
         -1   -1    0    0    0  501 -0.00000000000E+00 -0.00000000000E+00 -0.53751916673E+04  0.53751916673E+04  0.00000000000E+00 0.  1.
         24    2    1    2    0    0  0.87139020034E+03  0.51144916948E+03 -0.70245855730E+03  0.12331434924E+04  0.79332931264E+02 0.  0.
        254    2    1    2    0    0 -0.87139020034E+03 -0.51144916948E+03 -0.43035972484E+04  0.45111840364E+04  0.89940591502E+03 0.  0.
         23    2    4    4    0    0 -0.45131351102E+03 -0.34350789742E+03 -0.84313135343E+03  0.10201262891E+04  0.90031138245E+02 0.  0.
         23    2    4    4    0    0 -0.42007668932E+03 -0.16794127206E+03 -0.34604658950E+04  0.34910577473E+04  0.89394009347E+02 0.  0.
          4    1    3    3  502    0  0.72017485449E+03  0.44913778881E+03 -0.61055503547E+03  0.10455400641E+04  0.00000000000E+00 0. -1.
         -3    1    3    3    0  502  0.15121534585E+03  0.62311380668E+02 -0.91903521825E+02  0.18760342829E+03  0.00000000000E+00 0.  1.
         11    1    5    5    0    0 -0.26958483538E+03 -0.19569940942E+03 -0.41566076664E+03  0.53268012469E+03  0.00000000000E+00 0.  1.
        -11    1    5    5    0    0 -0.18172867564E+03 -0.14780848800E+03 -0.42747058679E+03  0.48744616445E+03  0.00000000000E+00 0. -1.
          4    1    6    6  503    0 -0.20083473413E+03 -0.34595896554E+02 -0.14335780022E+04  0.14479907993E+04  0.00000000000E+00 0. -1.
         -4    1    6    6    0  503 -0.21924195520E+03 -0.13334537550E+03 -0.20268878928E+04  0.20430669480E+04  0.00000000000E+00 0.  1.
<mgrwt>
<rscale>  0 0.28172157E+04</rscale>
<asrwt>0</asrwt>
<pdfrwt beam="1">  1        2 0.56790132E-01 0.28172157E+04</pdfrwt>
<pdfrwt beam="2">  1       -1 0.82695257E+00 0.28172157E+04</pdfrwt>
<totfact> 0.39796533E-03</totfact>
</mgrwt>
</event>
<event>
12    6  0.1521603E-007  0.3250914E+04  0.7818608E-02  0.8175499E-01
         -1   -1    0    0    0  501 -0.00000000000E+00  0.00000000000E+00  0.15378768658E+04  0.15378768658E+04  0.00000000000E+00 0.  1.
          2   -1    0    0  501    0  0.00000000000E+00 -0.00000000000E+00 -0.17180242288E+04  0.17180242288E+04  0.00000000000E+00 0. -1.
         24    2    1    2    0    0  0.30312895630E+03 -0.51632041160E+03 -0.14668854140E+04  0.15865355207E+04  0.82874657645E+02 0.  0.
        254    2    1    2    0    0 -0.30312895630E+03  0.51632041160E+03  0.12867380511E+04  0.16693655739E+04  0.87898388816E+03 0.  0.
         23    2    4    4    0    0 -0.33856387761E+03  0.61183214588E+03  0.13462587518E+04  0.15191000285E+04  0.79298145660E+02 0.  0.
         23    2    4    4    0    0  0.35434921310E+02 -0.95511734287E+02 -0.59520700723E+02  0.15026554537E+03  0.93053185207E+02 0.  0.
          4    1    3    3  502    0  0.27878003559E+03 -0.49634642813E+03 -0.14218629481E+04  0.15315914364E+04  0.00000000000E+00 0. -1.
         -3    1    3    3    0  502  0.24348920715E+02 -0.19973983467E+02 -0.45022465971E+02  0.54944084282E+02  0.00000000000E+00 0.  1.
         11    1    5    5    0    0 -0.52965040644E+02  0.11403842305E+03  0.18383432406E+03  0.22272206034E+03  0.00000000000E+00 0.  1.
        -11    1    5    5    0    0 -0.28559883697E+03  0.49779372283E+03  0.11624244277E+04  0.12963779682E+04  0.00000000000E+00 0. -1.
          2    1    6    6  503    0  0.28758976357E+02 -0.63186913625E+02 -0.84143465482E+02  0.10908614742E+03  0.00000000000E+00 0. -1.
         -2    1    6    6    0  503  0.66759449533E+01 -0.32324820662E+02  0.24622764759E+02  0.41179397958E+02  0.00000000000E+00 0.  1.
<mgrwt>
<rscale>  0 0.32509135E+04</rscale>
<asrwt>0</asrwt>
<pdfrwt beam="1">  1        2 0.26431142E+00 0.32509135E+04</pdfrwt>
<pdfrwt beam="2">  1       -1 0.23659644E+00 0.32509135E+04</pdfrwt>
<totfact> 0.78073103E-01</totfact>
</mgrwt>
</event>
<event>
12    6  0.1521603E-007  0.1685807E+04  0.7818608E-02  0.8769501E-01
         -1   -1    0    0    0  501 -0.00000000000E+00  0.00000000000E+00  0.47141483186E+03  0.47141483186E+03  0.00000000000E+00 0.  1.
          2   -1    0    0  501    0  0.00000000000E+00 -0.00000000000E+00 -0.15071367422E+04  0.15071367422E+04  0.00000000000E+00 0. -1.
         24    2    1    2    0    0  0.33989969334E+03  0.49021599666E+03 -0.28981563342E+03  0.66787890209E+03  0.78902481338E+02 0.  0.
        254    2    1    2    0    0 -0.33989969334E+03 -0.49021599666E+03 -0.74590627694E+03  0.13106726720E+04  0.89757626652E+03 0.  0.
         23    2    4    4    0    0  0.80595358764E+02 -0.57851905919E+03 -0.61682050970E+03  0.85346275838E+03  0.82165838694E+02 0.  0.
         23    2    4    4    0    0 -0.42049505210E+03  0.88303062531E+02 -0.12908576723E+03  0.45720991361E+03  0.88114982321E+02 0.  0.
          2    1    3    3  502    0  0.29729712235E+03  0.37466494892E+03 -0.23860528909E+03  0.53450153123E+03  0.00000000000E+00 0. -1.
         -1    1    3    3    0  502  0.42602570985E+02  0.11555104775E+03 -0.51210344325E+02  0.13337737085E+03  0.00000000000E+00 0.  1.
         11    1    5    5    0    0  0.35432639522E+02 -0.12621317335E+03 -0.18304827423E+03  0.22514863484E+03  0.00000000000E+00 0.  1.
        -11    1    5    5    0    0  0.45162719241E+02 -0.45230588584E+03 -0.43377223548E+03  0.62831412355E+03  0.00000000000E+00 0. -1.
          1    1    6    6  503    0 -0.41944051670E+03  0.93753737680E+02 -0.13357598279E+03  0.45006960968E+03  0.00000000000E+00 0. -1.
         -1    1    6    6    0  503 -0.10545354032E+01 -0.54506751487E+01  0.44902155602E+01  0.71403039340E+01  0.00000000000E+00 0.  1.
<mgrwt>
<rscale>  0 0.16858074E+04</rscale>
<asrwt>0</asrwt>
<pdfrwt beam="1">  1        2 0.23186719E+00 0.16858074E+04</pdfrwt>
<pdfrwt beam="2">  1       -1 0.72525360E-01 0.16858074E+04</pdfrwt>
<totfact> 0.26176552E+01</totfact>
</mgrwt>
</event>
<event>
12    6  0.1521603E-007  0.1846682E+04  0.7818608E-02  0.8681861E-01
         -1   -1    0    0    0  501 -0.00000000000E+00  0.00000000000E+00  0.94668789045E+03  0.94668789045E+03  0.00000000000E+00 0.  1.
          2   -1    0    0  501    0  0.00000000000E+00 -0.00000000000E+00 -0.90057027046E+03  0.90057027046E+03  0.00000000000E+00 0. -1.
         24    2    1    2    0    0 -0.48389563838E+03  0.39857054110E+03 -0.28403494047E+03  0.69448598478E+03  0.92851874363E+02 0.  0.
        254    2    1    2    0    0  0.48389563838E+03 -0.39857054110E+03  0.33015256045E+03  0.11527721761E+04  0.90932365625E+03 0.  0.
         23    2    4    4    0    0  0.11572184456E+03 -0.29498936978E+02 -0.29627895117E+03  0.33255881754E+03  0.92479282121E+02 0.  0.
         23    2    4    4    0    0  0.36817379383E+03 -0.36907160412E+03  0.62643151163E+03  0.82021335860E+03  0.92561997745E+02 0.  0.
          4    1    3    3  502    0 -0.40359919990E+03  0.32858852014E+03 -0.27216711319E+03  0.58731394265E+03  0.00000000000E+00 0. -1.
         -3    1    3    3    0  502 -0.80296438487E+02  0.69982020955E+02 -0.11867827279E+02  0.10717204213E+03  0.00000000000E+00 0.  1.
         11    1    5    5    0    0  0.34097992242E+02  0.31416168778E+02 -0.64940620962E+02  0.79793063524E+02  0.00000000000E+00 0. -1.
        -11    1    5    5    0    0  0.81623852315E+02 -0.60915105756E+02 -0.23133833021E+03  0.25276575401E+03  0.00000000000E+00 0.  1.
          3    1    6    6  503    0  0.66619370609E+02 -0.11204931205E+03  0.11984594698E+03  0.17707693209E+03  0.00000000000E+00 0. -1.
         -3    1    6    6    0  503  0.30155442322E+03 -0.25702229207E+03  0.50658556465E+03  0.64313642650E+03  0.00000000000E+00 0.  1.
<mgrwt>
<rscale>  0 0.18466824E+04</rscale>
<asrwt>0</asrwt>
<pdfrwt beam="1">  1        2 0.13854927E+00 0.18466824E+04</pdfrwt>
<pdfrwt beam="2">  1       -1 0.14564429E+00 0.18466824E+04</pdfrwt>
<totfact> 0.11873543E+01</totfact>
</mgrwt>
</event>
<event>
12    6  0.1521603E-007  0.2137181E+04  0.7818608E-02  0.8545040E-01
          2   -1    0    0  501    0  0.00000000000E+00  0.00000000000E+00  0.20469458657E+04  0.20469458657E+04  0.00000000000E+00 0. -1.
         -1   -1    0    0    0  501 -0.00000000000E+00 -0.00000000000E+00 -0.55784838063E+03  0.55784838063E+03  0.00000000000E+00 0.  1.
         24    2    1    2    0    0 -0.16814118332E+03  0.78390724394E+03  0.10608101913E+04  0.13321144958E+04  0.80179444340E+02 0.  0.
        254    2    1    2    0    0  0.16814118332E+03 -0.78390724394E+03  0.42828729378E+03  0.12726797505E+04  0.89078713327E+03 0.  0.
         23    2    4    4    0    0  0.12038250269E+03 -0.39257711931E+03 -0.24468381771E+03  0.48680210428E+03  0.92181215683E+02 0.  0.
         23    2    4    4    0    0  0.47758680625E+02 -0.39133012463E+03  0.67297111148E+03  0.78587764626E+03  0.96402282061E+02 0.  0.
          2    1    3    3  502    0 -0.11338463693E+03  0.63738167978E+03  0.81634034997E+03  0.10418843739E+04  0.00000000000E+00 0. -1.
         -1    1    3    3    0  502 -0.54756546393E+02  0.14652556416E+03  0.24446984134E+03  0.29023012189E+03  0.00000000000E+00 0.  1.
         11    1    5    5    0    0 -0.11993068383E+02 -0.40304301764E+02 -0.97523655797E+01  0.43166874619E+02  0.00000000000E+00 0. -1.
        -11    1    5    5    0    0  0.13237557108E+03 -0.35227281755E+03 -0.23493145213E+03  0.44363522966E+03  0.00000000000E+00 0.  1.
          1    1    6    6  503    0  0.44407667928E+02 -0.61335580986E+02  0.13296963408E+03  0.15301966558E+03  0.00000000000E+00 0. -1.
         -1    1    6    6    0  503  0.33510126973E+01 -0.32999454364E+03  0.54000147740E+03  0.63285798069E+03  0.00000000000E+00 0.  1.
<mgrwt>
<rscale>  0 0.21371808E+04</rscale>
<asrwt>0</asrwt>
<pdfrwt beam="1">  1        2 0.31491475E+00 0.21371808E+04</pdfrwt>
<pdfrwt beam="2">  1       -1 0.85822829E-01 0.21371808E+04</pdfrwt>
<totfact> 0.88198126E+00</totfact>
</mgrwt>
</event>
<event>
12    6  0.1521603E-007  0.1647332E+04  0.7818608E-02  0.8791986E-01
         -3   -1    0    0    0  501 -0.00000000000E+00  0.00000000000E+00  0.48394610865E+03  0.48394610865E+03  0.00000000000E+00 0.  1.
          4   -1    0    0  501    0  0.00000000000E+00 -0.00000000000E+00 -0.14018627340E+04  0.14018627340E+04  0.00000000000E+00 0. -1.
         24    2    1    2    0    0 -0.27626109384E+03 -0.25718687987E+03 -0.81075203262E+03  0.89817956160E+03  0.83320965688E+02 0.  0.
        254    2    1    2    0    0  0.27626109384E+03  0.25718687987E+03 -0.10716459273E+03  0.98762928105E+03  0.90634544392E+03 0.  0.
         23    2    4    4    0    0  0.48083932892E+03  0.29750442785E+03  0.19776833615E+03  0.60593935194E+03  0.91295337346E+02 0.  0.
         23    2    4    4    0    0 -0.20457823509E+03 -0.40317547976E+02 -0.30493292888E+03  0.38168992911E+03  0.96048695561E+02 0.  0.
          2    1    3    3  502    0 -0.23061268814E+03 -0.17141202626E+03 -0.56378257080E+03  0.63278359793E+03  0.00000000000E+00 0. -1.
         -3    1    3    3    0  502 -0.45648405694E+02 -0.85774853616E+02 -0.24696946183E+03  0.26539596366E+03  0.00000000000E+00 0.  1.
         11    1    5    5    0    0  0.12018984644E+02  0.31523807587E+02  0.11160386747E+02  0.35535343941E+02  0.00000000000E+00 0. -1.
        -11    1    5    5    0    0  0.46882034428E+03  0.26598062026E+03  0.18660794940E+03  0.57040400800E+03  0.00000000000E+00 0.  1.
          3    1    6    6  503    0 -0.10070424303E+03 -0.63508277986E+02 -0.12492373798E+03  0.17257052544E+03  0.00000000000E+00 0. -1.
         -3    1    6    6    0  503 -0.10387399205E+03  0.23190730009E+02 -0.18000919090E+03  0.20911940367E+03  0.00000000000E+00 0.  1.
<mgrwt>
<rscale>  0 0.16473324E+04</rscale>
<asrwt>0</asrwt>
<pdfrwt beam="1">  1        4 0.21567119E+00 0.16473324E+04</pdfrwt>
<pdfrwt beam="2">  1       -3 0.74453249E-01 0.16473324E+04</pdfrwt>
<totfact> 0.38722274E-01</totfact>
</mgrwt>
</event>
<event>
12    6  0.1521603E-007  0.1710562E+04  0.7818608E-02  0.8755363E-01
         -1   -1    0    0    0  501 -0.00000000000E+00  0.00000000000E+00  0.28483152432E+03  0.28483152432E+03  0.00000000000E+00 0.  1.
          2   -1    0    0  501    0  0.00000000000E+00 -0.00000000000E+00 -0.25682036779E+04  0.25682036779E+04  0.00000000000E+00 0. -1.
         24    2    1    2    0    0 -0.30581054557E+03 -0.52995399664E+03 -0.70314885767E+03  0.93539098323E+03  0.78528002176E+02 0.  0.
        254    2    1    2    0    0  0.30581054557E+03  0.52995399664E+03 -0.15802232959E+04  0.19176442190E+04  0.89770950608E+03 0.  0.
         23    2    4    4    0    0  0.20934014601E+03 -0.20970015220E+03 -0.29005053623E+03  0.42447574921E+03  0.90845459649E+02 0.  0.
         23    2    4    4    0    0  0.96470399570E+02  0.73965414884E+03 -0.12901727597E+04  0.14931684697E+04  0.92798337253E+02 0.  0.
          2    1    3    3  502    0 -0.46349796478E+02 -0.61102881157E+02 -0.12865780105E+03  0.14978216012E+03  0.00000000000E+00 0. -1.
         -1    1    3    3    0  502 -0.25946074910E+03 -0.46885111548E+03 -0.57449105662E+03  0.78560882311E+03  0.00000000000E+00 0.  1.
         11    1    5    5    0    0  0.27028744517E+02 -0.61722950012E+02 -0.28991130037E+02  0.73353672090E+02  0.00000000000E+00 0. -1.
        -11    1    5    5    0    0  0.18231140149E+03 -0.14797720219E+03 -0.26105940619E+03  0.35112207712E+03  0.00000000000E+00 0.  1.
          1    1    6    6  503    0  0.17604001589E+02  0.36666805387E+02 -0.41947664079E+02  0.58429119546E+02  0.00000000000E+00 0. -1.
         -1    1    6    6    0  503  0.78866397981E+02  0.70298734346E+03 -0.12482250956E+04  0.14347393502E+04  0.00000000000E+00 0.  1.
<mgrwt>
<rscale>  0 0.17105617E+04</rscale>
<asrwt>0</asrwt>
<pdfrwt beam="1">  1        2 0.39510828E+00 0.17105617E+04</pdfrwt>
<pdfrwt beam="2">  1       -1 0.43820232E-01 0.17105617E+04</pdfrwt>
<totfact> 0.17733045E+01</totfact>
</mgrwt>
</event>
<event>
12    6  0.1521603E-007  0.1589268E+04  0.7818608E-02  0.8827169E-01
         -1   -1    0    0    0  501 -0.00000000000E+00  0.00000000000E+00  0.23592025395E+03  0.23592025395E+03  0.00000000000E+00 0.  1.
          2   -1    0    0  501    0  0.00000000000E+00 -0.00000000000E+00 -0.26765098504E+04  0.26765098504E+04  0.00000000000E+00 0. -1.
         24    2    1    2    0    0  0.47922705426E+03  0.14667517424E+03 -0.12294985315E+04  0.13304155686E+04  0.84656777195E+02 0.  0.
        254    2    1    2    0    0 -0.47922705426E+03 -0.14667517424E+03 -0.12110910649E+04  0.15820145357E+04  0.88592112936E+03 0.  0.
         23    2    4    4    0    0 -0.20871452503E+03 -0.18115184370E+03  0.43237596252E+02  0.29484591322E+03  0.93203430071E+02 0.  0.
         23    2    4    4    0    0 -0.27051252923E+03  0.34476669459E+02 -0.12543286611E+04  0.12871686225E+04  0.95378212085E+02 0.  0.
          2    1    3    3  502    0  0.31159172383E+03  0.57918484587E+02 -0.82014851790E+03  0.87925397050E+03  0.00000000000E+00 0. -1.
         -1    1    3    3    0  502  0.16763533043E+03  0.88756689654E+02 -0.40935001363E+03  0.45116159813E+03  0.00000000000E+00 0.  1.
         11    1    5    5    0    0 -0.15564895056E+03 -0.75559820448E+02  0.33826265159E+02  0.17629548631E+03  0.00000000000E+00 0. -1.
        -11    1    5    5    0    0 -0.53065574470E+02 -0.10559202325E+03  0.94113310932E+01  0.11855042691E+03  0.00000000000E+00 0.  1.
          4    1    6    6  503    0 -0.16291611411E+03 -0.23604902344E+02 -0.79341330977E+03  0.81031076247E+03  0.00000000000E+00 0. -1.
         -4    1    6    6    0  503 -0.10759641512E+03  0.58081571802E+02 -0.46091535137E+03  0.47685786002E+03  0.00000000000E+00 0.  1.
<mgrwt>
<rscale>  0 0.15892676E+04</rscale>
<asrwt>0</asrwt>
<pdfrwt beam="1">  1        2 0.41177074E+00 0.15892676E+04</pdfrwt>
<pdfrwt beam="2">  1       -1 0.36295424E-01 0.15892676E+04</pdfrwt>
<totfact> 0.21857396E+01</totfact>
</mgrwt>
</event>
<event>
12    6  0.1521603E-007  0.2306679E+04  0.7818608E-02  0.8475292E-01
         -1   -1    0    0    0  501 -0.00000000000E+00  0.00000000000E+00  0.84980276145E+03  0.84980276145E+03  0.00000000000E+00 0.  1.
          2   -1    0    0  501    0  0.00000000000E+00 -0.00000000000E+00 -0.15652945058E+04  0.15652945058E+04  0.00000000000E+00 0. -1.
         24    2    1    2    0    0  0.15339631427E+03 -0.94938143396E+03 -0.47531032545E+03  0.10756020595E+04  0.78385895003E+02 0.  0.
        254    2    1    2    0    0 -0.15339631427E+03  0.94938143396E+03 -0.24018141894E+03  0.13394952078E+04  0.90094659183E+03 0.  0.
         23    2    4    4    0    0  0.17769424003E+03  0.15493545595E+03  0.24101407753E+03  0.34922598144E+03  0.91053622080E+02 0.  0.
         23    2    4    4    0    0 -0.33109055429E+03  0.79444597801E+03 -0.48119549647E+03  0.99026922636E+03  0.91206730720E+02 0.  0.
          2    1    3    3  502    0  0.61820527801E+02 -0.34603556090E+03 -0.13254719227E+03  0.37567425417E+03  0.00000000000E+00 0. -1.
         -1    1    3    3    0  502  0.91575786464E+02 -0.60334587305E+03 -0.34276313319E+03  0.69992780533E+03  0.00000000000E+00 0.  1.
         11    1    5    5    0    0  0.16784115813E+03  0.14487820809E+03  0.24870045978E+03  0.33318503603E+03  0.00000000000E+00 0. -1.
        -11    1    5    5    0    0  0.98530818967E+01  0.10057247859E+02 -0.76863822491E+01  0.16040945404E+02  0.00000000000E+00 0.  1.
          1    1    6    6  503    0 -0.25985972440E+03  0.69457488291E+03 -0.39394523789E+03  0.83973459783E+03  0.00000000000E+00 0. -1.
         -1    1    6    6    0  503 -0.71230829892E+02  0.99871095098E+02 -0.87250258582E+02  0.15053462853E+03  0.00000000000E+00 0.  1.
<mgrwt>
<rscale>  0 0.23066786E+04</rscale>
<asrwt>0</asrwt>
<pdfrwt beam="1">  1        2 0.24081453E+00 0.23066786E+04</pdfrwt>
<pdfrwt beam="2">  1       -1 0.13073889E+00 0.23066786E+04</pdfrwt>
<totfact> 0.60175867E+00</totfact>
</mgrwt>
</event>
<event>
12    6  0.1521603E-007  0.2493496E+04  0.7818608E-02  0.8405306E-01
          2   -1    0    0  501    0  0.00000000000E+00  0.00000000000E+00  0.14744703143E+04  0.14744703143E+04  0.00000000000E+00 0. -1.
         -1   -1    0    0    0  501 -0.00000000000E+00 -0.00000000000E+00 -0.10541962360E+04  0.10541962360E+04  0.00000000000E+00 0.  1.
         24    2    1    2    0    0  0.10414842760E+04  0.90427490394E+02  0.49127314211E+03  0.11579138462E+04  0.80923091954E+02 0.  0.
        254    2    1    2    0    0 -0.10414842760E+04 -0.90427490394E+02 -0.70999063811E+02  0.13707527041E+04  0.88377343289E+03 0.  0.
         23    2    4    4    0    0 -0.29088068976E+03  0.28151700317E+03 -0.28279523587E+03  0.50199899905E+03  0.90368417433E+02 0.  0.
         23    2    4    4    0    0 -0.75060358622E+03 -0.37194449356E+03  0.21179617206E+03  0.86875370508E+03  0.90149496104E+02 0.  0.
          4    1    3    3  502    0  0.10385492671E+04  0.89725933516E+02  0.48256334308E+03  0.11486960884E+04  0.00000000000E+00 0. -1.
         -3    1    3    3    0  502  0.29350088548E+01  0.70155687811E+00  0.87097990271E+01  0.92177577601E+01  0.00000000000E+00 0.  1.
         11    1    5    5    0    0 -0.27805478126E+03  0.22787708617E+03 -0.24120365676E+03  0.43292220065E+03  0.00000000000E+00 0. -1.
        -11    1    5    5    0    0 -0.12825908502E+02  0.53639916995E+02 -0.41591579110E+02  0.69076798399E+02  0.00000000000E+00 0.  1.
          4    1    6    6  503    0 -0.13819232741E+03 -0.33043651314E+02  0.47300815750E+02  0.14975436360E+03  0.00000000000E+00 0.  1.
         -4    1    6    6    0  503 -0.61241125881E+03 -0.33890084225E+03  0.16449535631E+03  0.71899934148E+03  0.00000000000E+00 0. -1.
<mgrwt>
<rscale>  0 0.24934964E+04</rscale>
<asrwt>0</asrwt>
<pdfrwt beam="1">  1        2 0.22684159E+00 0.24934964E+04</pdfrwt>
<pdfrwt beam="2">  1       -1 0.16218403E+00 0.24934964E+04</pdfrwt>
<totfact> 0.37530328E+00</totfact>
</mgrwt>
</event>
<event>
12    6  0.1521603E-007  0.2068514E+04  0.7818608E-02  0.8575242E-01
          2   -1    0    0  501    0  0.00000000000E+00  0.00000000000E+00  0.17533561112E+04  0.17533561112E+04  0.00000000000E+00 0. -1.
         -1   -1    0    0    0  501 -0.00000000000E+00 -0.00000000000E+00 -0.61007992834E+03  0.61007992834E+03  0.00000000000E+00 0.  1.
         24    2    1    2    0    0  0.43569351036E+02  0.63228622810E+03  0.10865772422E+04  0.12608953157E+04  0.86733679423E+02 0.  0.
        254    2    1    2    0    0 -0.43569351036E+02 -0.63228622810E+03  0.56698940630E+02  0.11025407239E+04  0.90038720301E+03 0.  0.
         23    2    4    4    0    0 -0.78270866300E+02  0.17969506327E+03 -0.14512496316E+03  0.26022003052E+03  0.90755523683E+02 0.  0.
         23    2    4    4    0    0  0.34701515264E+02 -0.81198129137E+03  0.20182390378E+03  0.84232069336E+03  0.90848498205E+02 0.  0.
          4    1    3    3  502    0  0.75542368091E+01  0.33206528625E+03  0.48848370817E+03  0.59071207366E+03  0.00000000000E+00 0. -1.
         -3    1    3    3    0  502  0.36015114227E+02  0.30022094185E+03  0.59809353405E+03  0.67018324199E+03  0.00000000000E+00 0.  1.
         11    1    5    5    0    0 -0.46687605312E+02  0.24285380692E+02 -0.14030733664E+02  0.54464425934E+02  0.00000000000E+00 0.  1.
        -11    1    5    5    0    0 -0.31583260988E+02  0.15540968257E+03 -0.13109422949E+03  0.20575560459E+03  0.00000000000E+00 0. -1.
          2    1    6    6  503    0 -0.19378930525E+02 -0.54134924907E+03  0.14010161140E+03  0.55952034274E+03  0.00000000000E+00 0. -1.
         -2    1    6    6    0  503  0.54080445789E+02 -0.27063204230E+03  0.61722292380E+02  0.28280035062E+03  0.00000000000E+00 0.  1.
<mgrwt>
<rscale>  0 0.20685138E+04</rscale>
<asrwt>0</asrwt>
<pdfrwt beam="1">  1        2 0.26974709E+00 0.20685138E+04</pdfrwt>
<pdfrwt beam="2">  1       -1 0.93858451E-01 0.20685138E+04</pdfrwt>
<totfact> 0.10602159E+01</totfact>
</mgrwt>
</event>
<event>
12    6  0.1521603E-007  0.1358760E+04  0.7818608E-02  0.8984223E-01
         -1   -1    0    0    0  501 -0.00000000000E+00  0.00000000000E+00  0.18679240255E+03  0.18679240255E+03  0.00000000000E+00 0.  1.
          2   -1    0    0  501    0  0.00000000000E+00 -0.00000000000E+00 -0.24709626236E+04  0.24709626236E+04  0.00000000000E+00 0. -1.
         24    2    1    2    0    0 -0.49250008046E+02 -0.33021632054E+03 -0.99291241750E+03  0.10505420131E+04  0.79341482637E+02 0.  0.
        254    2    1    2    0    0  0.49250008046E+02  0.33021632054E+03 -0.12912578035E+04  0.16072130130E+04  0.89683809707E+03 0.  0.
         23    2    4    4    0    0 -0.18402400635E+03  0.50337407486E+03 -0.11516027869E+04  0.12734027393E+04  0.90084757986E+02 0.  0.
         23    2    4    4    0    0  0.23327401440E+03 -0.17315775432E+03 -0.13965501665E+03  0.33381027368E+03  0.86749071833E+02 0.  0.
          4    1    3    3  502    0 -0.40045004850E+02 -0.21749553795E+03 -0.76164370772E+03  0.79310090717E+03  0.00000000000E+00 0. -1.
         -3    1    3    3    0  502 -0.92050031961E+01 -0.11272078259E+03 -0.23126870978E+03  0.25744110596E+03  0.00000000000E+00 0.  1.
         11    1    5    5    0    0  0.10296786906E+01  0.95706308121E+02 -0.21016645747E+03  0.23093440086E+03  0.00000000000E+00 0. -1.
        -11    1    5    5    0    0 -0.18505368504E+03  0.40766776674E+03 -0.94143632939E+03  0.10424683385E+04  0.00000000000E+00 0.  1.
          2    1    6    6  503    0  0.18686314046E+03 -0.88802424159E+02 -0.97185871734E+02  0.22857995858E+03  0.00000000000E+00 0. -1.
         -2    1    6    6    0  503  0.46410873937E+02 -0.84355330160E+02 -0.42469144918E+02  0.10523031510E+03  0.00000000000E+00 0.  1.
<mgrwt>
<rscale>  0 0.13587598E+04</rscale>
<asrwt>0</asrwt>
<pdfrwt beam="1">  1        2 0.38014808E+00 0.13587598E+04</pdfrwt>
<pdfrwt beam="2">  1       -1 0.28737294E-01 0.13587598E+04</pdfrwt>
<totfact> 0.44435571E+01</totfact>
</mgrwt>
</event>
<event>
12    6  0.1521603E-007  0.1627514E+04  0.7818608E-02  0.8803821E-01
         -1   -1    0    0    0  501 -0.00000000000E+00  0.00000000000E+00  0.10033005216E+04  0.10033005216E+04  0.00000000000E+00 0.  1.
          2   -1    0    0  501    0  0.00000000000E+00 -0.00000000000E+00 -0.66002208079E+03  0.66002208079E+03  0.00000000000E+00 0. -1.
         24    2    1    2    0    0  0.13882590290E+02 -0.24060401843E+03  0.65523733456E+03  0.70276949460E+03  0.80411304823E+02 0.  0.
        254    2    1    2    0    0 -0.13882590290E+02  0.24060401843E+03 -0.31195889373E+03  0.96055310781E+03  0.87593430207E+03 0.  0.
         23    2    4    4    0    0  0.22808489854E+02 -0.22111525195E+03  0.16345942047E+03  0.29055485176E+03  0.91054697229E+02 0.  0.
         23    2    4    4    0    0 -0.36691080144E+02  0.46171927037E+03 -0.47541831420E+03  0.66999825605E+03  0.91346426553E+02 0.  0.
          2    1    3    3  502    0 -0.84935453390E+01 -0.20807516074E+02  0.14531932277E+03  0.14704692655E+03  0.00000000000E+00 0. -1.
         -1    1    3    3    0  502  0.22376135629E+02 -0.21979650235E+03  0.50991801179E+03  0.55572256805E+03  0.00000000000E+00 0.  1.
         11    1    5    5    0    0 -0.14845455419E+02 -0.14356427677E+03  0.61103374029E+02  0.15673133518E+03  0.00000000000E+00 0.  1.
        -11    1    5    5    0    0  0.37653945272E+02 -0.77550975177E+02  0.10235604644E+03  0.13382351657E+03  0.00000000000E+00 0. -1.
          2    1    6    6  503    0 -0.47173480763E+02  0.13155341581E+03 -0.11391609104E+03  0.18030117664E+03  0.00000000000E+00 0. -1.
         -2    1    6    6    0  503  0.10482400619E+02  0.33016585456E+03 -0.36150222315E+03  0.48969707942E+03  0.00000000000E+00 0.  1.
<mgrwt>
<rscale>  0 0.16275141E+04</rscale>
<asrwt>0</asrwt>
<pdfrwt beam="1">  1        2 0.10154186E+00 0.16275141E+04</pdfrwt>
<pdfrwt beam="2">  1       -1 0.15435393E+00 0.16275141E+04</pdfrwt>
<totfact> 0.15565640E+01</totfact>
</mgrwt>
</event>
<event>
12    6  0.1521603E-007  0.3550185E+04  0.7818608E-02  0.8101999E-01
          2   -1    0    0  501    0  0.00000000000E+00  0.00000000000E+00  0.32635072041E+04  0.32635072041E+04  0.00000000000E+00 0. -1.
         -1   -1    0    0    0  501 -0.00000000000E+00 -0.00000000000E+00 -0.96551163859E+03  0.96551163859E+03  0.00000000000E+00 0.  1.
         24    2    1    2    0    0 -0.10565627658E+04 -0.19846247845E+03  0.25820146413E+04  0.27982947223E+04  0.89115158681E+02 0.  0.
        254    2    1    2    0    0  0.10565627658E+04  0.19846247845E+03 -0.28401907573E+03  0.14307241205E+04  0.90032907314E+03 0.  0.
         23    2    4    4    0    0  0.75087410679E+01  0.22996387896E+03 -0.28439084178E+03  0.37718432099E+03  0.91924394432E+02 0.  0.
         23    2    4    4    0    0  0.10490540248E+04 -0.31501400512E+02  0.37176605812E+00  0.10535397995E+04  0.91865584985E+02 0.  0.
          4    1    3    3  502    0 -0.10328674944E+04 -0.19274226275E+03  0.24797028913E+04  0.26931192454E+04  0.00000000000E+00 0. -1.
         -3    1    3    3    0  502 -0.23695271477E+02 -0.57202156938E+01  0.10231174995E+03  0.10517547687E+03  0.00000000000E+00 0.  1.
         11    1    5    5    0    0 -0.29080627872E+02  0.16846037806E+03 -0.16263918587E+03  0.23595780697E+03  0.00000000000E+00 0. -1.
        -11    1    5    5    0    0  0.36589368940E+02  0.61503500903E+02 -0.12175165592E+03  0.14122651402E+03  0.00000000000E+00 0.  1.
          3    1    6    6  503    0  0.84463554074E+03 -0.21751776773E+02 -0.35999071659E+02  0.84568213274E+03  0.00000000000E+00 0. -1.
         -3    1    6    6    0  503  0.20441848403E+03 -0.97496237393E+01  0.36370837717E+02  0.20785766672E+03  0.00000000000E+00 0.  1.
<mgrwt>
<rscale>  0 0.35501855E+04</rscale>
<asrwt>0</asrwt>
<pdfrwt beam="1">  1        2 0.50207803E+00 0.35501855E+04</pdfrwt>
<pdfrwt beam="2">  1       -1 0.14854025E+00 0.35501855E+04</pdfrwt>
<totfact> 0.39154958E-01</totfact>
</mgrwt>
</event>
<event>
12    6  0.1521603E-007  0.1314690E+04  0.7818608E-02  0.9017996E-01
         -1   -1    0    0    0  501 -0.00000000000E+00  0.00000000000E+00  0.42962698676E+03  0.42962698676E+03  0.00000000000E+00 0.  1.
          2   -1    0    0  501    0  0.00000000000E+00 -0.00000000000E+00 -0.10057623308E+04  0.10057623308E+04  0.00000000000E+00 0. -1.
         24    2    1    2    0    0  0.26926987543E+03 -0.78869827337E+02  0.61127424576E+02  0.29808245061E+03  0.79936661456E+02 0.  0.
        254    2    1    2    0    0 -0.26926987543E+03  0.78869827337E+02 -0.63726276859E+03  0.11373068669E+04  0.89924210192E+03 0.  0.
         23    2    4    4    0    0 -0.70894940007E+02  0.45677392743E+03 -0.48236029176E+03  0.67419314651E+03  0.90534161671E+02 0.  0.
         23    2    4    4    0    0 -0.19837493543E+03 -0.37790410010E+03 -0.15490247683E+03  0.46311372042E+03  0.91188907440E+02 0.  0.
          4    1    3    3  502    0  0.71655318237E+02  0.14522065807E+02  0.18029549210E+02  0.75302321821E+02  0.00000000000E+00 0. -1.
         -3    1    3    3    0  502  0.19761455720E+03 -0.93391893144E+02  0.43097875366E+02  0.22278012879E+03  0.00000000000E+00 0.  1.
         11    1    5    5    0    0 -0.23260583203E+02  0.20382159972E+03 -0.27819936697E+03  0.34565761532E+03  0.00000000000E+00 0.  1.
        -11    1    5    5    0    0 -0.47634356804E+02  0.25295232772E+03 -0.20416092479E+03  0.32853553119E+03  0.00000000000E+00 0. -1.
          4    1    6    6  503    0 -0.64119053369E+02 -0.71227127520E+02 -0.40568211537E+01  0.95921918755E+02  0.00000000000E+00 0.  1.
         -4    1    6    6    0  503 -0.13425588206E+03 -0.30667697258E+03 -0.15084565567E+03  0.36719180167E+03  0.00000000000E+00 0. -1.
<mgrwt>
<rscale>  0 0.13146903E+04</rscale>
<asrwt>0</asrwt>
<pdfrwt beam="1">  1        2 0.15473266E+00 0.13146903E+04</pdfrwt>
<pdfrwt beam="2">  1       -1 0.66096460E-01 0.13146903E+04</pdfrwt>
<totfact> 0.64725815E+01</totfact>
</mgrwt>
</event>
<event>
12    6  0.1521603E-007  0.1340350E+04  0.7818608E-02  0.8998165E-01
          2   -1    0    0  501    0  0.00000000000E+00  0.00000000000E+00  0.22472948575E+04  0.22472948575E+04  0.00000000000E+00 0. -1.
         -1   -1    0    0    0  501 -0.00000000000E+00 -0.00000000000E+00 -0.19985570395E+03  0.19985570395E+03  0.00000000000E+00 0.  1.
         24    2    1    2    0    0 -0.31570976937E+03 -0.17861068312E+03  0.55452133356E+03  0.66724473525E+03  0.78404035202E+02 0.  0.
        254    2    1    2    0    0  0.31570976937E+03  0.17861068312E+03  0.14929178200E+04  0.17799058262E+04  0.89871391350E+03 0.  0.
         23    2    4    4    0    0  0.15956779834E+03  0.52524982951E+03  0.68517737865E+03  0.88272848773E+03  0.91609372700E+02 0.  0.
         23    2    4    4    0    0  0.15614197104E+03 -0.34663914638E+03  0.80774044137E+03  0.89717733851E+03  0.89126557062E+02 0.  0.
          2    1    3    3  502    0 -0.27500449312E+03 -0.13994805092E+03  0.41736674370E+03  0.51904520703E+03  0.00000000000E+00 0. -1.
         -1    1    3    3    0  502 -0.40705276251E+02 -0.38662632199E+02  0.13715458986E+03  0.14819952822E+03  0.00000000000E+00 0.  1.
         11    1    5    5    0    0  0.28205749097E+02  0.13768195177E+03  0.11907008220E+03  0.18419980619E+03  0.00000000000E+00 0. -1.
        -11    1    5    5    0    0  0.13136204924E+03  0.38756787774E+03  0.56610729645E+03  0.69852868154E+03  0.00000000000E+00 0.  1.
          1    1    6    6  503    0  0.16240759422E+03 -0.31295615062E+03  0.69463077937E+03  0.77899274613E+03  0.00000000000E+00 0. -1.
         -1    1    6    6    0  503 -0.62656231798E+01 -0.33682995769E+02  0.11310966200E+03  0.11818459238E+03  0.00000000000E+00 0.  1.
<mgrwt>
<rscale>  0 0.13403502E+04</rscale>
<asrwt>0</asrwt>
<pdfrwt beam="1">  1        2 0.34573765E+00 0.13403502E+04</pdfrwt>
<pdfrwt beam="2">  1       -1 0.30747033E-01 0.13403502E+04</pdfrwt>
<totfact> 0.52944370E+01</totfact>
</mgrwt>
</event>
<event>
12    6  0.1750822E-007  0.2324983E+04  0.7818608E-02  0.8468135E-01
          2   -1    0    0  501    0  0.00000000000E+00  0.00000000000E+00  0.19176345534E+04  0.19176345534E+04  0.00000000000E+00 0. -1.
         -1   -1    0    0    0  501 -0.00000000000E+00 -0.00000000000E+00 -0.70471540111E+03  0.70471540111E+03  0.00000000000E+00 0.  1.
         24    2    1    2    0    0 -0.65605717912E+03 -0.52450101389E+03  0.10928033874E+04  0.13805729096E+04  0.79056811222E+02 0.  0.
        254    2    1    2    0    0  0.65605717912E+03  0.52450101389E+03  0.12011576486E+03  0.12417770449E+04  0.90668081281E+03 0.  0.
         23    2    4    4    0    0  0.35234028297E+03  0.75233086886E+03  0.11696718542E+02  0.83598744988E+03  0.92697313351E+02 0.  0.
         23    2    4    4    0    0  0.30371689616E+03 -0.22782985496E+03  0.10841904632E+03  0.40578959498E+03  0.93595459091E+02 0.  0.
          2    1    3    3  502    0 -0.60154720148E+03 -0.48426541300E+03  0.96537272781E+03  0.12362509977E+04  0.00000000000E+00 0. -1.
         -1    1    3    3    0  502 -0.54509977644E+02 -0.40235600892E+02  0.12743065958E+03  0.14432191186E+03  0.00000000000E+00 0.  1.
         11    1    5    5    0    0  0.16226647914E+03  0.43237185241E+03 -0.21745049129E+02  0.46232961853E+03  0.00000000000E+00 0. -1.
        -11    1    5    5    0    0  0.19007380382E+03  0.31995901644E+03  0.33441767671E+02  0.37365783135E+03  0.00000000000E+00 0.  1.
          4    1    6    6  503    0  0.19684922304E+03 -0.19469991200E+03  0.57106861001E+02  0.28269924994E+03  0.00000000000E+00 0.  1.
         -4    1    6    6    0  503  0.10686767312E+03 -0.33129942961E+02  0.51312185321E+02  0.12309034503E+03  0.00000000000E+00 0. -1.
<mgrwt>
<rscale>  0 0.23249831E+04</rscale>
<asrwt>0</asrwt>
<pdfrwt beam="1">  1        2 0.29502070E+00 0.23249831E+04</pdfrwt>
<pdfrwt beam="2">  1       -1 0.10841775E+00 0.23249831E+04</pdfrwt>
<totfact> 0.60377666E+00</totfact>
</mgrwt>
</event>
<event>
12    6  0.1521603E-007  0.1318422E+04  0.7818608E-02  0.9015083E-01
          2   -1    0    0  501    0  0.00000000000E+00  0.00000000000E+00  0.21797399820E+04  0.21797399820E+04  0.00000000000E+00 0. -1.
         -1   -1    0    0    0  501 -0.00000000000E+00 -0.00000000000E+00 -0.19936281105E+03  0.19936281105E+03  0.00000000000E+00 0.  1.
         24    2    1    2    0    0 -0.20096750767E+03  0.10668075457E+03  0.96243021140E+03  0.99342816793E+03  0.94121679153E+02 0.  0.
        254    2    1    2    0    0  0.20096750767E+03 -0.10668075457E+03  0.10179469595E+04  0.13856746251E+04  0.91220032432E+03 0.  0.
         23    2    4    4    0    0 -0.18041185883E+03 -0.21792139223E+03  0.92893058160E+01  0.29771274701E+03  0.92241078352E+02 0.  0.
         23    2    4    4    0    0  0.38137936650E+03  0.11124063766E+03  0.10086576537E+04  0.10879618781E+04  0.91902584874E+02 0.  0.
          4    1    3    3  502    0 -0.86828210967E+02  0.13810617756E+02  0.51420327725E+03  0.52166548834E+03  0.00000000000E+00 0. -1.
         -3    1    3    3    0  502 -0.11413929670E+03  0.92870136810E+02  0.44822693415E+03  0.47176267960E+03  0.00000000000E+00 0.  1.
         11    1    5    5    0    0 -0.11921649000E+03 -0.89010177125E+02 -0.25215861182E+02  0.15090136771E+03  0.00000000000E+00 0. -1.
        -11    1    5    5    0    0 -0.61195368827E+02 -0.12891121510E+03  0.34505166998E+02  0.14681137931E+03  0.00000000000E+00 0.  1.
          3    1    6    6  503    0  0.36881527257E+03  0.98623808192E+02  0.89656786941E+03  0.97446667736E+03  0.00000000000E+00 0. -1.
         -3    1    6    6    0  503  0.12564093929E+02  0.12616829467E+02  0.11208978431E+03  0.11349520073E+03  0.00000000000E+00 0.  1.
<mgrwt>
<rscale>  0 0.13184219E+04</rscale>
<asrwt>0</asrwt>
<pdfrwt beam="1">  1        2 0.33534460E+00 0.13184219E+04</pdfrwt>
<pdfrwt beam="2">  1       -1 0.30671203E-01 0.13184219E+04</pdfrwt>
<totfact> 0.58118737E+01</totfact>
</mgrwt>
</event>
<event>
12    6  0.1521603E-007  0.2467165E+04  0.7818608E-02  0.8414778E-01
          2   -1    0    0  501    0  0.00000000000E+00  0.00000000000E+00  0.20405847291E+04  0.20405847291E+04  0.00000000000E+00 0. -1.
         -1   -1    0    0    0  501 -0.00000000000E+00 -0.00000000000E+00 -0.74573009629E+03  0.74573009629E+03  0.00000000000E+00 0.  1.
         24    2    1    2    0    0 -0.84839804312E+03  0.20758534171E+03 -0.12790272776E+03  0.88625903861E+03  0.78899062665E+02 0.  0.
        254    2    1    2    0    0  0.84839804312E+03 -0.20758534171E+03  0.14227573605E+04  0.19000557867E+04  0.90725000531E+03 0.  0.
         23    2    4    4    0    0  0.45534275752E+03  0.69753109488E+02  0.84943020006E+02  0.47555467570E+03  0.82063449979E+02 0.  0.
         23    2    4    4    0    0  0.39305528560E+03 -0.27733845120E+03  0.13378143405E+04  0.14245011110E+04  0.89705805861E+02 0.  0.
          4    1    3    3  502    0 -0.29305737636E+03  0.87149589806E+02 -0.99894133034E+01  0.30590433999E+03  0.00000000000E+00 0. -1.
         -3    1    3    3    0  502 -0.55534066676E+03  0.12043575191E+03 -0.11791331446E+03  0.58035469863E+03  0.00000000000E+00 0.  1.
         11    1    5    5    0    0  0.11793056110E+02 -0.51215816211E+01  0.15922246860E+02  0.20465207445E+02  0.00000000000E+00 0.  1.
        -11    1    5    5    0    0  0.44354970141E+03  0.74874691109E+02  0.69020773146E+02  0.45508946825E+03  0.00000000000E+00 0. -1.
          4    1    6    6  503    0  0.34782113761E+03 -0.20432120931E+03  0.10947087814E+04  0.11666679118E+04  0.00000000000E+00 0. -1.
         -4    1    6    6    0  503  0.45234147993E+02 -0.73017241894E+02  0.24310555912E+03  0.25783319925E+03  0.00000000000E+00 0.  1.
<mgrwt>
<rscale>  0 0.24671647E+04</rscale>
<asrwt>0</asrwt>
<pdfrwt beam="1">  1        2 0.31393611E+00 0.24671647E+04</pdfrwt>
<pdfrwt beam="2">  1       -1 0.11472771E+00 0.24671647E+04</pdfrwt>
<totfact> 0.44548416E+00</totfact>
</mgrwt>
</event>
<event>
12    6  0.1521603E-007  0.1978273E+04  0.7818608E-02  0.8616847E-01
          2   -1    0    0  501    0  0.00000000000E+00  0.00000000000E+00  0.25116303563E+04  0.25116303563E+04  0.00000000000E+00 0. -1.
         -1   -1    0    0    0  501 -0.00000000000E+00 -0.00000000000E+00 -0.38954410118E+03  0.38954410118E+03  0.00000000000E+00 0.  1.
         24    2    1    2    0    0 -0.25256241627E+02 -0.64848922310E+03  0.14607805736E+04  0.16004846740E+04  0.80592537834E+02 0.  0.
        254    2    1    2    0    0  0.25256241627E+02  0.64848922310E+03  0.66130568148E+03  0.13006897835E+04  0.91284859549E+03 0.  0.
         23    2    4    4    0    0  0.14876511995E+03  0.35791046696E+03  0.83717066527E+03  0.92699085140E+03  0.90699242024E+02 0.  0.
         23    2    4    4    0    0 -0.12350887833E+03  0.29057875614E+03 -0.17586498379E+03  0.37369893209E+03  0.95036533929E+02 0.  0.
          2    1    3    3  502    0  0.79138147984E+01 -0.54402991242E+03  0.12329185108E+04  0.13476346791E+04  0.00000000000E+00 0. -1.
         -3    1    3    3    0  502 -0.33170056425E+02 -0.10445931068E+03  0.22786206281E+03  0.25284999485E+03  0.00000000000E+00 0.  1.
         11    1    5    5    0    0  0.16790065022E+02  0.55002680875E+02  0.63224935663E+02  0.85466915684E+02  0.00000000000E+00 0. -1.
        -11    1    5    5    0    0  0.13197505493E+03  0.30290778609E+03  0.77394572961E+03  0.84152393571E+03  0.00000000000E+00 0.  1.
          1    1    6    6  503    0  0.22071443412E+01  0.10705473172E+03 -0.63274573320E+02  0.12437547467E+03  0.00000000000E+00 0. -1.
         -1    1    6    6    0  503 -0.12571602267E+03  0.18352402442E+03 -0.11259041047E+03  0.24932345743E+03  0.00000000000E+00 0.  1.
<mgrwt>
<rscale>  0 0.19782728E+04</rscale>
<asrwt>0</asrwt>
<pdfrwt beam="1">  1        2 0.38640466E+00 0.19782728E+04</pdfrwt>
<pdfrwt beam="2">  1       -1 0.59929863E-01 0.19782728E+04</pdfrwt>
<totfact> 0.10257697E+01</totfact>
</mgrwt>
</event>
<event>
12    6  0.1521603E-007  0.1920840E+04  0.7818608E-02  0.8644552E-01
         -1   -1    0    0    0  501 -0.00000000000E+00  0.00000000000E+00  0.18818787242E+04  0.18818787242E+04  0.00000000000E+00 0.  1.
          2   -1    0    0  501    0  0.00000000000E+00 -0.00000000000E+00 -0.49015220638E+03  0.49015220638E+03  0.00000000000E+00 0. -1.
         24    2    1    2    0    0 -0.65751768454E+03  0.19568043038E+03  0.30187080817E+03  0.75370442883E+03  0.79523863712E+02 0.  0.
        254    2    1    2    0    0  0.65751768454E+03 -0.19568043038E+03  0.10898557096E+04  0.16183265017E+04  0.98008921128E+03 0.  0.
         23    2    4    4    0    0 -0.32561358491E+02 -0.12118926849E+03 -0.13593989971E+03  0.20676774583E+03  0.92337227143E+02 0.  0.
         23    2    4    4    0    0  0.69007904303E+03 -0.74491161888E+02  0.12257956094E+04  0.14115587559E+04  0.90361643661E+02 0.  0.
          2    1    3    3  502    0 -0.15894892023E+03  0.17733069174E+02  0.89897294006E+02  0.18346864706E+03  0.00000000000E+00 0. -1.
         -1    1    3    3    0  502 -0.49856876430E+03  0.17794736121E+03  0.21197351416E+03  0.57023578177E+03  0.00000000000E+00 0.  1.
         11    1    5    5    0    0 -0.11643877140E+02 -0.78092836308E+02 -0.20190236593E+02  0.81496727610E+02  0.00000000000E+00 0. -1.
        -11    1    5    5    0    0 -0.20917481350E+02 -0.43096432185E+02 -0.11574966312E+03  0.12527101822E+03  0.00000000000E+00 0.  1.
          4    1    6    6  503    0  0.17121654560E+03 -0.44795378707E+02  0.25491372216E+03  0.31032682319E+03  0.00000000000E+00 0. -1.
         -4    1    6    6    0  503  0.51886249743E+03 -0.29695783181E+02  0.97088188720E+03  0.11012319327E+04  0.00000000000E+00 0.  1.
<mgrwt>
<rscale>  0 0.19208405E+04</rscale>
<asrwt>0</asrwt>
<pdfrwt beam="1">  1        2 0.75408032E-01 0.19208405E+04</pdfrwt>
<pdfrwt beam="2">  1       -1 0.28951980E+00 0.19208405E+04</pdfrwt>
<totfact> 0.26015393E+00</totfact>
</mgrwt>
</event>
<event>
12    6  0.1521603E-007  0.1921066E+04  0.7818608E-02  0.8644441E-01
         -1   -1    0    0    0  501 -0.00000000000E+00  0.00000000000E+00  0.62908631176E+03  0.62908631176E+03  0.00000000000E+00 0.  1.
          2   -1    0    0  501    0  0.00000000000E+00 -0.00000000000E+00 -0.14666089879E+04  0.14666089879E+04  0.00000000000E+00 0. -1.
         24    2    1    2    0    0 -0.79531459216E+02 -0.63977067707E+03  0.85231317228E+02  0.65523280909E+03  0.80211498114E+02 0.  0.
        254    2    1    2    0    0  0.79531459216E+02  0.63977067707E+03 -0.92275399339E+03  0.14404624906E+04  0.89879112269E+03 0.  0.
         23    2    4    4    0    0  0.30817334783E+03  0.47066061543E+03 -0.98204717088E+03  0.11353872352E+04  0.90527900793E+02 0.  0.
         23    2    4    4    0    0 -0.22864188862E+03  0.16911006164E+03  0.59293177494E+02  0.30507525537E+03  0.93166004321E+02 0.  0.
          4    1    3    3  502    0 -0.31700525819E+02 -0.59883547920E+02  0.11447857184E+02  0.68716927192E+02  0.00000000000E+00 0. -1.
         -3    1    3    3    0  502 -0.47830933397E+02 -0.57988712915E+03  0.73783460044E+02  0.58651588190E+03  0.00000000000E+00 0.  1.
         11    1    5    5    0    0  0.22830463108E+03  0.29166057886E+03 -0.58132576406E+03  0.68929568531E+03  0.00000000000E+00 0.  1.
        -11    1    5    5    0    0  0.79868716756E+02  0.17900003657E+03 -0.40072140683E+03  0.44609154991E+03  0.00000000000E+00 0. -1.
          1    1    6    6  503    0 -0.97028926091E+02  0.46373966366E+02 -0.18320098340E+02  0.10909071114E+03  0.00000000000E+00 0. -1.
         -1    1    6    6    0  503 -0.13161296253E+03  0.12273609527E+03  0.77613275834E+02  0.19598454422E+03  0.00000000000E+00 0.  1.
<mgrwt>
<rscale>  0 0.19210660E+04</rscale>
<asrwt>0</asrwt>
<pdfrwt beam="1">  1        2 0.22563215E+00 0.19210660E+04</pdfrwt>
<pdfrwt beam="2">  1       -1 0.96782512E-01 0.19210660E+04</pdfrwt>
<totfact> 0.14504681E+01</totfact>
</mgrwt>
</event>
<event>
12    6  0.1521603E-007  0.3217332E+04  0.7818608E-02  0.8184255E-01
          2   -1    0    0  501    0  0.00000000000E+00  0.00000000000E+00  0.19387493735E+04  0.19387493735E+04  0.00000000000E+00 0. -1.
         -1   -1    0    0    0  501 -0.00000000000E+00 -0.00000000000E+00 -0.13347813761E+04  0.13347813761E+04  0.00000000000E+00 0.  1.
         24    2    1    2    0    0 -0.80062105965E+03  0.85498889330E+03  0.11883070602E+04  0.16705884088E+04  0.82412822335E+02 0.  0.
        254    2    1    2    0    0  0.80062105965E+03 -0.85498889330E+03 -0.58433906282E+03  0.16029423408E+04  0.92518750472E+03 0.  0.
         23    2    4    4    0    0 -0.89260160254E+02  0.78878684815E+02 -0.20357520175E+03  0.25476101497E+03  0.96286493634E+02 0.  0.
         23    2    4    4    0    0  0.88988121991E+03 -0.93386757812E+03 -0.38076386107E+03  0.13481813259E+04  0.92814495171E+02 0.  0.
          4    1    3    3  502    0 -0.77859423753E+03  0.82328881358E+03  0.11271955541E+04  0.15983063769E+04  0.00000000000E+00 0. -1.
         -3    1    3    3    0  502 -0.22026822125E+02  0.31700079727E+02  0.61111506188E+02  0.72282031904E+02  0.00000000000E+00 0.  1.
         11    1    5    5    0    0 -0.70814905407E+01  0.64976951208E+02 -0.12048707607E+03  0.13707402086E+03  0.00000000000E+00 0.  1.
        -11    1    5    5    0    0 -0.82178669713E+02  0.13901733607E+02 -0.83088125678E+02  0.11768699411E+03  0.00000000000E+00 0. -1.
          1    1    6    6  503    0  0.58904919559E+03 -0.55633135671E+03 -0.25314884031E+03  0.84886269127E+03  0.00000000000E+00 0. -1.
         -1    1    6    6    0  503  0.30083202432E+03 -0.37753622140E+03 -0.12761502077E+03  0.49931863459E+03  0.00000000000E+00 0.  1.
<mgrwt>
<rscale>  0 0.32173322E+04</rscale>
<asrwt>0</asrwt>
<pdfrwt beam="1">  1        2 0.29826913E+00 0.32173322E+04</pdfrwt>
<pdfrwt beam="2">  1       -1 0.20535098E+00 0.32173322E+04</pdfrwt>
<totfact> 0.95591228E-01</totfact>
</mgrwt>
</event>
<event>
12    6  0.1521603E-007  0.2684638E+04  0.7818608E-02  0.8340007E-01
         -1   -1    0    0    0  501 -0.00000000000E+00  0.00000000000E+00  0.10159904138E+04  0.10159904138E+04  0.00000000000E+00 0.  1.
          2   -1    0    0  501    0  0.00000000000E+00 -0.00000000000E+00 -0.17734616785E+04  0.17734616785E+04  0.00000000000E+00 0. -1.
         24    2    1    2    0    0 -0.19255133535E+03 -0.11354327406E+04 -0.64556622258E+03  0.13225505363E+04  0.78106646150E+02 0.  0.
        254    2    1    2    0    0  0.19255133535E+03  0.11354327406E+04 -0.11190504210E+03  0.14669015559E+04  0.90166174991E+03 0.  0.
         23    2    4    4    0    0 -0.19815248673E+03  0.62315185749E+03 -0.38260866662E+03  0.76341663116E+03  0.93983591520E+02 0.  0.
         23    2    4    4    0    0  0.39070382209E+03  0.51228088308E+03  0.27070362452E+03  0.70348492477E+03  0.80804747933E+02 0.  0.
          4    1    3    3  502    0 -0.84088876341E+02 -0.61132626784E+03 -0.38440354247E+03  0.72701913891E+03  0.00000000000E+00 0. -1.
         -1    1    3    3    0  502 -0.10846245901E+03 -0.52410647273E+03 -0.26116268011E+03  0.59553139737E+03  0.00000000000E+00 0.  1.
         11    1    5    5    0    0 -0.13185221895E+03  0.36175314845E+03 -0.17425467450E+03  0.42262872553E+03  0.00000000000E+00 0.  1.
        -11    1    5    5    0    0 -0.66300267779E+02  0.26139870903E+03 -0.20835399212E+03  0.34078790563E+03  0.00000000000E+00 0. -1.
          3    1    6    6  503    0  0.33807409290E+03  0.44425031413E+03  0.26306348184E+03  0.61713436898E+03  0.00000000000E+00 0. -1.
         -3    1    6    6    0  503  0.52629729181E+02  0.68030568950E+02  0.76401426835E+01  0.86350555792E+02  0.00000000000E+00 0.  1.
<mgrwt>
<rscale>  0 0.26846378E+04</rscale>
<asrwt>0</asrwt>
<pdfrwt beam="1">  1        2 0.27284026E+00 0.26846378E+04</pdfrwt>
<pdfrwt beam="2">  1       -1 0.15630622E+00 0.26846378E+04</pdfrwt>
<totfact> 0.27831197E+00</totfact>
</mgrwt>
</event>
<event>
12    6  0.1521603E-007  0.4289840E+04  0.7818608E-02  0.7948499E-01
         -1   -1    0    0    0  501 -0.00000000000E+00  0.00000000000E+00  0.16834071146E+04  0.16834071146E+04  0.00000000000E+00 0.  1.
          2   -1    0    0  501    0  0.00000000000E+00 -0.00000000000E+00 -0.27329582581E+04  0.27329582581E+04  0.00000000000E+00 0. -1.
         24    2    1    2    0    0 -0.38893262702E+03 -0.95671567909E+03 -0.23360507802E+04  0.25554115939E+04  0.80135430767E+02 0.  0.
        254    2    1    2    0    0  0.38893262702E+03  0.95671567909E+03  0.12864996368E+04  0.18609537788E+04  0.86110055891E+03 0.  0.
         23    2    4    4    0    0  0.33860767173E+02  0.48474482240E+03  0.11444107046E+04  0.12467128950E+04  0.92157948621E+02 0.  0.
         23    2    4    4    0    0  0.35507185984E+03  0.47197085668E+03  0.14208893217E+03  0.61424088377E+03  0.90939999139E+02 0.  0.
          4    1    3    3  502    0 -0.37760018632E+03 -0.89187244791E+03 -0.21505169040E+04  0.23585464419E+04  0.00000000000E+00 0. -1.
         -3    1    3    3    0  502 -0.11332440691E+02 -0.64843231174E+02 -0.18553387620E+03  0.19686515197E+03  0.00000000000E+00 0.  1.
         11    1    5    5    0    0  0.36848798516E+02  0.15815830583E+03  0.29619667119E+03  0.33779335648E+03  0.00000000000E+00 0. -1.
        -11    1    5    5    0    0 -0.29880313427E+01  0.32658651657E+03  0.84821403339E+03  0.90891953856E+03  0.00000000000E+00 0.  1.
          2    1    6    6  503    0 -0.56074373494E+01  0.53539332125E+01  0.83715717015E+00  0.77979988843E+01  0.00000000000E+00 0. -1.
         -2    1    6    6    0  503  0.36067929719E+03  0.46661692347E+03  0.14125177500E+03  0.60644288489E+03  0.00000000000E+00 0.  1.
<mgrwt>
<rscale>  0 0.42898398E+04</rscale>
<asrwt>0</asrwt>
<pdfrwt beam="1">  1        2 0.42045511E+00 0.42898398E+04</pdfrwt>
<pdfrwt beam="2">  1       -1 0.25898571E+00 0.42898398E+04</pdfrwt>
<totfact> 0.13537149E-01</totfact>
</mgrwt>
</event>
<event>
12    6  0.1521603E-007  0.1723844E+04  0.7818608E-02  0.8747881E-01
         -1   -1    0    0    0  501 -0.00000000000E+00  0.00000000000E+00  0.22131126583E+04  0.22131126583E+04  0.00000000000E+00 0.  1.
          2   -1    0    0  501    0  0.00000000000E+00 -0.00000000000E+00 -0.33568548660E+03  0.33568548660E+03  0.00000000000E+00 0. -1.
         24    2    1    2    0    0  0.28436284900E+03 -0.10839434987E+02 -0.13303642053E+03  0.32385883674E+03  0.78779018186E+02 0.  0.
        254    2    1    2    0    0 -0.28436284900E+03  0.10839434987E+02  0.20104635922E+04  0.22249393082E+04  0.90962154004E+03 0.  0.
         23    2    4    4    0    0 -0.35501880216E+03  0.37402238404E+03  0.79874339721E+03  0.95508809808E+03  0.90945955706E+02 0.  0.
         23    2    4    4    0    0  0.70655953163E+02 -0.36318294906E+03  0.12117201950E+04  0.12698512101E+04  0.85802951748E+02 0.  0.
          4    1    3    3  502    0  0.21608300197E+03 -0.41933723772E+02 -0.94978220863E+02  0.23973144009E+03  0.00000000000E+00 0. -1.
         -3    1    3    3    0  502  0.68279847031E+02  0.31094288784E+02 -0.38058199672E+02  0.84127396654E+02  0.00000000000E+00 0.  1.
         11    1    5    5    0    0 -0.49283797038E+02  0.76434430902E+02  0.20181776759E+03  0.22136288350E+03  0.00000000000E+00 0.  1.
        -11    1    5    5    0    0 -0.30573500512E+03  0.29758795314E+03  0.59692562962E+03  0.73372521458E+03  0.00000000000E+00 0. -1.
          4    1    6    6  503    0  0.28889143404E+02 -0.25211751689E+03  0.93363195914E+03  0.96750527650E+03  0.00000000000E+00 0. -1.
         -4    1    6    6    0  503  0.41766809759E+02 -0.11106543216E+03  0.27808823590E+03  0.30234593360E+03  0.00000000000E+00 0.  1.
<mgrwt>
<rscale>  0 0.17238443E+04</rscale>
<asrwt>0</asrwt>
<pdfrwt beam="1">  1        2 0.51643922E-01 0.17238443E+04</pdfrwt>
<pdfrwt beam="2">  1       -1 0.34047886E+00 0.17238443E+04</pdfrwt>
<totfact> 0.18952373E+00</totfact>
</mgrwt>
</event>
<event>
12    6  0.1521603E-007  0.2310225E+04  0.7818608E-02  0.8473900E-01
          2   -1    0    0  501    0  0.00000000000E+00  0.00000000000E+00  0.28448641137E+04  0.28448641137E+04  0.00000000000E+00 0. -1.
         -1   -1    0    0    0  501 -0.00000000000E+00 -0.00000000000E+00 -0.46901539049E+03  0.46901539049E+03  0.00000000000E+00 0.  1.
         24    2    1    2    0    0  0.25793719577E+03  0.56193300756E+03  0.20519771673E+04  0.21446131062E+04  0.80341635793E+02 0.  0.
        254    2    1    2    0    0 -0.25793719577E+03 -0.56193300756E+03  0.32387155596E+03  0.11692663980E+04  0.93807826045E+03 0.  0.
         23    2    4    4    0    0 -0.27611672757E+03  0.19802101616E+03  0.15950875349E+03  0.38620077822E+03  0.90858288395E+02 0.  0.
         23    2    4    4    0    0  0.18179531800E+02 -0.75995402373E+03  0.16436280247E+03  0.78306561976E+03  0.91192217081E+02 0.  0.
          2    1    3    3  502    0  0.12308646939E+03  0.28223310745E+03  0.11584230050E+04  0.11986449284E+04  0.00000000000E+00 0. -1.
         -1    1    3    3    0  502  0.13485072639E+03  0.27969990011E+03  0.89355416227E+03  0.94596817781E+03  0.00000000000E+00 0.  1.
         11    1    5    5    0    0 -0.54623543787E+02  0.84005817011E+02  0.66629978720E+02  0.12033396400E+03  0.00000000000E+00 0.  1.
        -11    1    5    5    0    0 -0.22149318379E+03  0.11401519915E+03  0.92878774770E+02  0.26586681422E+03  0.00000000000E+00 0. -1.
          4    1    6    6  503    0  0.37435586234E+02 -0.60786458638E+03  0.10169805269E+03  0.61744900390E+03  0.00000000000E+00 0. -1.
         -4    1    6    6    0  503 -0.19256054434E+02 -0.15208943734E+03  0.62664749773E+02  0.16561661586E+03  0.00000000000E+00 0.  1.
<mgrwt>
<rscale>  0 0.23102251E+04</rscale>
<asrwt>0</asrwt>
<pdfrwt beam="1">  1        2 0.43767139E+00 0.23102251E+04</pdfrwt>
<pdfrwt beam="2">  1       -1 0.72156215E-01 0.23102251E+04</pdfrwt>
<totfact> 0.43389805E+00</totfact>
</mgrwt>
</event>
<event>
12    6  0.1521603E-007  0.2852683E+04  0.7818608E-02  0.8287096E-01
          2   -1    0    0  501    0  0.00000000000E+00  0.00000000000E+00  0.46833153002E+04  0.46833153002E+04  0.00000000000E+00 0. -1.
         -1   -1    0    0    0  501 -0.00000000000E+00 -0.00000000000E+00 -0.43440385723E+03  0.43440385723E+03  0.00000000000E+00 0.  1.
         24    2    1    2    0    0  0.12570334309E+04  0.13597059801E+03  0.23036533601E+04  0.26290687094E+04  0.81008796830E+02 0.  0.
        254    2    1    2    0    0 -0.12570334309E+04 -0.13597059801E+03  0.19452580828E+04  0.24886504480E+04  0.90040601608E+03 0.  0.
         23    2    4    4    0    0 -0.13315825830E+04 -0.30376348020E+02  0.19055376401E+04  0.23266823241E+04  0.91334777586E+02 0.  0.
         23    2    4    4    0    0  0.74549152078E+02 -0.10559424999E+03  0.39720442716E+02  0.16196812394E+03  0.89152890562E+02 0.  0.
          2    1    3    3  502    0  0.13901442461E+03  0.16857834802E+02  0.20599721516E+03  0.24908642978E+03  0.00000000000E+00 0. -1.
         -1    1    3    3    0  502  0.11180190063E+04  0.11911276321E+03  0.20976561450E+04  0.23799822796E+04  0.00000000000E+00 0.  1.
         11    1    5    5    0    0 -0.35794331628E+03  0.29923008053E+02  0.48907910987E+03  0.60680901427E+03  0.00000000000E+00 0. -1.
        -11    1    5    5    0    0 -0.97363926667E+03 -0.60299356072E+02  0.14164585302E+04  0.17198733098E+04  0.00000000000E+00 0.  1.
          1    1    6    6  503    0  0.74710267750E+02 -0.12021110091E+03  0.40833113905E+02  0.14730809917E+03  0.00000000000E+00 0. -1.
         -1    1    6    6    0  503 -0.16111567146E+00  0.14616850920E+02 -0.11126711884E+01  0.14660024770E+02  0.00000000000E+00 0.  1.
<mgrwt>
<rscale>  0 0.28526831E+04</rscale>
<asrwt>0</asrwt>
<pdfrwt beam="1">  1        2 0.72051001E+00 0.28526831E+04</pdfrwt>
<pdfrwt beam="2">  1       -1 0.66831366E-01 0.28526831E+04</pdfrwt>
<totfact> 0.17882360E-01</totfact>
</mgrwt>
</event>
<event>
12    6  0.1521603E-007  0.2743763E+04  0.7818608E-02  0.8320943E-01
         -1   -1    0    0    0  501 -0.00000000000E+00  0.00000000000E+00  0.91495506644E+03  0.91495506644E+03  0.00000000000E+00 0.  1.
          2   -1    0    0  501    0  0.00000000000E+00 -0.00000000000E+00 -0.20569960320E+04  0.20569960320E+04  0.00000000000E+00 0. -1.
         24    2    1    2    0    0 -0.11192753858E+04  0.41347006081E+03 -0.23402566064E+03  0.12184809837E+04  0.78695726574E+02 0.  0.
        254    2    1    2    0    0  0.11192753858E+04 -0.41347006081E+03 -0.90801530489E+03  0.17534701147E+04  0.90908237737E+03 0.  0.
         23    2    4    4    0    0  0.93908693150E+03  0.23553165852E+02 -0.32655719082E+03  0.99848758328E+03  0.88875410280E+02 0.  0.
         23    2    4    4    0    0  0.18018845429E+03 -0.43702322666E+03 -0.58145811406E+03  0.75498253143E+03  0.91912483661E+02 0.  0.
          2    1    3    3  502    0 -0.27584360635E+03  0.76722709000E+02 -0.31881547644E+02  0.28808419311E+03  0.00000000000E+00 0. -1.
         -1    1    3    3    0  502 -0.84343177944E+03  0.33674735181E+03 -0.20214411300E+03  0.93039679059E+03  0.00000000000E+00 0.  1.
         11    1    5    5    0    0  0.28575324216E+03  0.46138268377E+02 -0.86877033552E+02  0.30221064536E+03  0.00000000000E+00 0. -1.
        -11    1    5    5    0    0  0.65333368934E+03 -0.22585102526E+02 -0.23968015727E+03  0.69627693791E+03  0.00000000000E+00 0.  1.
          1    1    6    6  503    0  0.31710871566E+02 -0.58630997568E+02 -0.13898324699E+03  0.15414122160E+03  0.00000000000E+00 0. -1.
         -1    1    6    6    0  503  0.14847758273E+03 -0.37839222909E+03 -0.44247486707E+03  0.60084130983E+03  0.00000000000E+00 0.  1.
<mgrwt>
<rscale>  0 0.27437631E+04</rscale>
<asrwt>0</asrwt>
<pdfrwt beam="1">  1        2 0.31646092E+00 0.27437631E+04</pdfrwt>
<pdfrwt beam="2">  1       -1 0.14076232E+00 0.27437631E+04</pdfrwt>
<totfact> 0.25517410E+00</totfact>
</mgrwt>
</event>
<event>
12    6  0.1521603E-007  0.3105954E+04  0.7818608E-02  0.8214106E-01
         -1   -1    0    0    0  501 -0.00000000000E+00  0.00000000000E+00  0.12537828904E+04  0.12537828904E+04  0.00000000000E+00 0.  1.
          2   -1    0    0  501    0  0.00000000000E+00 -0.00000000000E+00 -0.19235685098E+04  0.19235685098E+04  0.00000000000E+00 0. -1.
         24    2    1    2    0    0  0.51574065441E+03 -0.17715827483E+03 -0.16486636192E+04  0.17382986557E+04  0.78848020047E+02 0.  0.
        254    2    1    2    0    0 -0.51574065441E+03  0.17715827483E+03  0.97887799986E+03  0.14390527444E+04  0.90293808521E+03 0.  0.
         23    2    4    4    0    0 -0.33768804353E+03  0.23852206602E+03  0.11127682622E+04  0.11906837569E+04  0.92458709243E+02 0.  0.
         23    2    4    4    0    0 -0.17805261088E+03 -0.61363791186E+02 -0.13389026229E+03  0.24836898756E+03  0.91062091643E+02 0.  0.
          4    1    3    3  502    0  0.26729815476E+03 -0.51540566495E+02 -0.78308098346E+03  0.82904798425E+03  0.00000000000E+00 0. -1.
         -3    1    3    3    0  502  0.24844249965E+03 -0.12561770834E+03 -0.86558263577E+03  0.90925067150E+03  0.00000000000E+00 0.  1.
         11    1    5    5    0    0 -0.46629201038E+02  0.50114487343E+02  0.10890001841E+03  0.12862720645E+03  0.00000000000E+00 0.  1.
        -11    1    5    5    0    0 -0.29105884250E+03  0.18840757868E+03  0.10038682438E+04  0.10620565504E+04  0.00000000000E+00 0. -1.
          4    1    6    6  503    0 -0.68860990664E+02 -0.15802567511E+02 -0.10503456926E+03  0.12658521997E+03  0.00000000000E+00 0. -1.
         -4    1    6    6    0  503 -0.10919162021E+03 -0.45561223675E+02 -0.28855693035E+02  0.12178376759E+03  0.00000000000E+00 0.  1.
<mgrwt>
<rscale>  0 0.31059538E+04</rscale>
<asrwt>0</asrwt>
<pdfrwt beam="1">  1        2 0.29593362E+00 0.31059538E+04</pdfrwt>
<pdfrwt beam="2">  1       -1 0.19288967E+00 0.31059538E+04</pdfrwt>
<totfact> 0.11996477E+00</totfact>
</mgrwt>
</event>
<event>
12    6  0.1521603E-007  0.2306612E+04  0.7818608E-02  0.8475319E-01
         -1   -1    0    0    0  501 -0.00000000000E+00  0.00000000000E+00  0.11956844330E+04  0.11956844330E+04  0.00000000000E+00 0.  1.
          2   -1    0    0  501    0  0.00000000000E+00 -0.00000000000E+00 -0.11124299262E+04  0.11124299262E+04  0.00000000000E+00 0. -1.
         24    2    1    2    0    0  0.51028999775E+03  0.70410249180E+03  0.45750230363E+03  0.98582965599E+03  0.79972195348E+02 0.  0.
        254    2    1    2    0    0 -0.51028999775E+03 -0.70410249180E+03 -0.37424779687E+03  0.13222847033E+04  0.92315720342E+03 0.  0.
         23    2    4    4    0    0 -0.67791137876E+03 -0.23916966773E+03 -0.37579435747E+03  0.81751159197E+03  0.10167515171E+03 0.  0.
         23    2    4    4    0    0  0.16762138101E+03 -0.46493282407E+03  0.15465606071E+01  0.50477311129E+03  0.10263548974E+03 0.  0.
          2    1    3    3  502    0  0.16699483613E+03  0.17184958904E+03  0.13634340207E+03  0.27569744256E+03  0.00000000000E+00 0. -1.
         -1    1    3    3    0  502  0.34329516163E+03  0.53225290277E+03  0.32115890156E+03  0.71013221343E+03  0.00000000000E+00 0.  1.
         11    1    5    5    0    0 -0.18265408899E+02 -0.27936301222E+02 -0.17244723512E+02  0.37569170569E+02  0.00000000000E+00 0.  1.
        -11    1    5    5    0    0 -0.65964596987E+03 -0.21123336651E+03 -0.35854963396E+03  0.77994242140E+03  0.00000000000E+00 0. -1.
          4    1    6    6  503    0  0.71405776904E+02 -0.31376709498E+03  0.30612733639E+02  0.32324250081E+03  0.00000000000E+00 0. -1.
         -4    1    6    6    0  503  0.96215604106E+02 -0.15116572909E+03 -0.29066173032E+02  0.18153061047E+03  0.00000000000E+00 0.  1.
<mgrwt>
<rscale>  0 0.23066124E+04</rscale>
<asrwt>0</asrwt>
<pdfrwt beam="1">  1        2 0.17114307E+00 0.23066124E+04</pdfrwt>
<pdfrwt beam="2">  1       -1 0.18395145E+00 0.23066124E+04</pdfrwt>
<totfact> 0.43118392E+00</totfact>
</mgrwt>
</event>
<event>
12    6  0.1521603E-007  0.1865992E+04  0.7818608E-02  0.8671972E-01
          2   -1    0    0  501    0  0.00000000000E+00  0.00000000000E+00  0.18432483623E+04  0.18432483623E+04  0.00000000000E+00 0. -1.
         -1   -1    0    0    0  501 -0.00000000000E+00 -0.00000000000E+00 -0.47225415798E+03  0.47225415798E+03  0.00000000000E+00 0.  1.
         24    2    1    2    0    0  0.11444115134E+03 -0.70244253182E+03  0.61502956049E+03  0.94398340639E+03  0.79504865444E+02 0.  0.
        254    2    1    2    0    0 -0.11444115134E+03  0.70244253182E+03  0.75596464386E+03  0.13715191139E+04  0.89613606637E+03 0.  0.
         23    2    4    4    0    0 -0.42026932308E+03  0.69567775088E+02  0.28914762774E+03  0.52291839675E+03  0.91494916668E+02 0.  0.
         23    2    4    4    0    0  0.30582817174E+03  0.63287475673E+03  0.46681701612E+03  0.84860071717E+03  0.90242574832E+02 0.  0.
          4    1    3    3  502    0 -0.20297892739E+01 -0.95169637148E+02  0.56251522353E+02  0.11056949691E+03  0.00000000000E+00 0. -1.
         -3    1    3    3    0  502  0.11647094062E+03 -0.60727289467E+03  0.55877803813E+03  0.83341390948E+03  0.00000000000E+00 0.  1.
         11    1    5    5    0    0 -0.18723263156E+02  0.25081627538E+02  0.26827765522E+02  0.41223508173E+02  0.00000000000E+00 0.  1.
        -11    1    5    5    0    0 -0.40154605992E+03  0.44486147550E+02  0.26231986222E+03  0.48169488857E+03  0.00000000000E+00 0. -1.
          2    1    6    6  503    0  0.60428813742E+02  0.15222591202E+03  0.66968965653E+02  0.17694409338E+03  0.00000000000E+00 0. -1.
         -2    1    6    6    0  503  0.24539935800E+03  0.48064884471E+03  0.39984805047E+03  0.67165662380E+03  0.00000000000E+00 0.  1.
<mgrwt>
<rscale>  0 0.18659922E+04</rscale>
<asrwt>0</asrwt>
<pdfrwt beam="1">  1        2 0.28357667E+00 0.18659922E+04</pdfrwt>
<pdfrwt beam="2">  1       -1 0.72654487E-01 0.18659922E+04</pdfrwt>
<totfact> 0.16681613E+01</totfact>
</mgrwt>
</event>
<event>
12    6  0.1521603E-007  0.1929325E+04  0.7818608E-02  0.8640395E-01
         -1   -1    0    0    0  501 -0.00000000000E+00  0.00000000000E+00  0.60427482918E+03  0.60427482918E+03  0.00000000000E+00 0.  1.
          2   -1    0    0  501    0  0.00000000000E+00 -0.00000000000E+00 -0.15399850206E+04  0.15399850206E+04  0.00000000000E+00 0. -1.
         24    2    1    2    0    0 -0.21815554862E+03 -0.43602195142E+03 -0.99461530511E+03  0.11106281100E+04  0.80797326905E+02 0.  0.
        254    2    1    2    0    0  0.21815554862E+03  0.43602195142E+03  0.58905113711E+02  0.10336317398E+04  0.90951513209E+03 0.  0.
         23    2    4    4    0    0  0.77807057733E+02  0.47271352458E+03 -0.34243193285E+03  0.59689645901E+03  0.97538400622E+02 0.  0.
         23    2    4    4    0    0  0.14034849089E+03 -0.36691573158E+02  0.40133704656E+03  0.43673528075E+03  0.92856394914E+02 0.  0.
          4    1    3    3  502    0 -0.16616265882E+03 -0.38776760661E+03 -0.82006639097E+03  0.92221615227E+03  0.00000000000E+00 0. -1.
         -3    1    3    3    0  502 -0.51992889806E+02 -0.48254344810E+02 -0.17454891415E+03  0.18841195772E+03  0.00000000000E+00 0.  1.
         11    1    5    5    0    0  0.89401845086E+01 -0.37823226643E+00 -0.20091742878E+00  0.89504372244E+01  0.00000000000E+00 0.  1.
        -11    1    5    5    0    0  0.68866873224E+02  0.47309175685E+03 -0.34223101542E+03  0.58794602179E+03  0.00000000000E+00 0. -1.
          3    1    6    6  503    0  0.14319245555E+03 -0.43576579633E+02  0.30137927920E+03  0.33650032325E+03  0.00000000000E+00 0. -1.
         -3    1    6    6    0  503 -0.28439646587E+01  0.68850064755E+01  0.99957767363E+02  0.10023495750E+03  0.00000000000E+00 0.  1.
<mgrwt>
<rscale>  0 0.19293255E+04</rscale>
<asrwt>0</asrwt>
<pdfrwt beam="1">  1        2 0.23692077E+00 0.19293255E+04</pdfrwt>
<pdfrwt beam="2">  1       -1 0.92965360E-01 0.19293255E+04</pdfrwt>
<totfact> 0.14420100E+01</totfact>
</mgrwt>
</event>
<event>
12    6  0.1521603E-007  0.1565261E+04  0.7818608E-02  0.8842179E-01
         -1   -1    0    0    0  501 -0.00000000000E+00  0.00000000000E+00  0.63295595027E+03  0.63295595027E+03  0.00000000000E+00 0.  1.
          2   -1    0    0  501    0  0.00000000000E+00 -0.00000000000E+00 -0.96769795117E+03  0.96769795117E+03  0.00000000000E+00 0. -1.
         24    2    1    2    0    0  0.35613411014E+03 -0.37642655648E+03 -0.13666854722E+03  0.54135777092E+03  0.76560352048E+02 0.  0.
        254    2    1    2    0    0 -0.35613411014E+03  0.37642655648E+03 -0.19807345369E+03  0.10592961305E+04  0.90241162573E+03 0.  0.
         23    2    4    4    0    0  0.16256619302E+03  0.31015917630E+03 -0.35406599066E+03  0.50620791791E+03  0.90869404439E+02 0.  0.
         23    2    4    4    0    0 -0.51870030316E+03  0.66267380185E+02  0.15599253697E+03  0.55308821261E+03  0.90174991885E+02 0.  0.
          2    1    3    3  502    0  0.10133065416E+03 -0.81425916572E+02 -0.56310437098E+01  0.13011452653E+03  0.00000000000E+00 0. -1.
         -1    1    3    3    0  502  0.25480345599E+03 -0.29500063991E+03 -0.13103750351E+03  0.41124324439E+03  0.00000000000E+00 0.  1.
         11    1    5    5    0    0  0.41981179807E+02  0.12530803077E+03 -0.18892842730E+03  0.23056121242E+03  0.00000000000E+00 0. -1.
        -11    1    5    5    0    0  0.12058501321E+03  0.18485114553E+03 -0.16513756336E+03  0.27564670549E+03  0.00000000000E+00 0.  1.
          4    1    6    6  503    0 -0.16129712425E+03  0.66385375101E+01  0.89863255096E+02  0.18475994449E+03  0.00000000000E+00 0. -1.
         -4    1    6    6    0  503 -0.35740317891E+03  0.59628842675E+02  0.66129281871E+02  0.36832826812E+03  0.00000000000E+00 0.  1.
<mgrwt>
<rscale>  0 0.15652606E+04</rscale>
<asrwt>0</asrwt>
<pdfrwt beam="1">  1        2 0.14887661E+00 0.15652606E+04</pdfrwt>
<pdfrwt beam="2">  1       -1 0.97377839E-01 0.15652606E+04</pdfrwt>
<totfact> 0.29372279E+01</totfact>
</mgrwt>
</event>
<event>
12    6  0.1521603E-007  0.1332004E+04  0.7818608E-02  0.9004564E-01
          2   -1    0    0  501    0  0.00000000000E+00  0.00000000000E+00  0.11604702727E+04  0.11604702727E+04  0.00000000000E+00 0. -1.
         -1   -1    0    0    0  501 -0.00000000000E+00 -0.00000000000E+00 -0.38222330014E+03  0.38222330014E+03  0.00000000000E+00 0.  1.
         24    2    1    2    0    0 -0.19048403480E+03  0.48969798665E+02  0.54470611432E+03  0.58452853655E+03  0.79288399999E+02 0.  0.
        254    2    1    2    0    0  0.19048403480E+03 -0.48969798665E+02  0.23354085825E+03  0.95816503630E+03  0.90821621634E+03 0.  0.
         23    2    4    4    0    0 -0.12996210997E+03 -0.17376749577E+02 -0.29346080826E+03  0.33401049585E+03  0.90838669622E+02 0.  0.
         23    2    4    4    0    0  0.32044614476E+03 -0.31593049088E+02  0.52700166651E+03  0.62415454045E+03  0.90301059890E+02 0.  0.
          4    1    3    3  502    0 -0.16417083270E+03  0.45311156261E+02  0.52359097462E+03  0.55059301839E+03  0.00000000000E+00 0. -1.
         -3    1    3    3    0  502 -0.26313202092E+02  0.36586424037E+01  0.21115139694E+02  0.33935518161E+02  0.00000000000E+00 0.  1.
         11    1    5    5    0    0 -0.94291521764E+02  0.21322317404E+02 -0.24114892524E+03  0.25980441959E+03  0.00000000000E+00 0. -1.
        -11    1    5    5    0    0 -0.35670588204E+02 -0.38699066981E+02 -0.52311883022E+02  0.74206076256E+02  0.00000000000E+00 0.  1.
          2    1    6    6  503    0  0.31206527127E+03 -0.23979674361E+02  0.52687983278E+03  0.61283123004E+03  0.00000000000E+00 0. -1.
         -2    1    6    6    0  503  0.83808734979E+01 -0.76133747265E+01  0.12183372603E+00  0.11323310416E+02  0.00000000000E+00 0.  1.
<mgrwt>
<rscale>  0 0.13320042E+04</rscale>
<asrwt>0</asrwt>
<pdfrwt beam="1">  1        2 0.17853389E+00 0.13320042E+04</pdfrwt>
<pdfrwt beam="2">  1       -1 0.58803585E-01 0.13320042E+04</pdfrwt>
<totfact> 0.65395157E+01</totfact>
</mgrwt>
</event>
<event>
12    6  0.1521603E-007  0.1402236E+04  0.7818608E-02  0.8952202E-01
          2   -1    0    0  501    0  0.00000000000E+00  0.00000000000E+00  0.22881351456E+04  0.22881351456E+04  0.00000000000E+00 0. -1.
         -1   -1    0    0    0  501 -0.00000000000E+00 -0.00000000000E+00 -0.21483276385E+03  0.21483276385E+03  0.00000000000E+00 0.  1.
         24    2    1    2    0    0  0.16086989252E+03 -0.20988047663E+03  0.59466870397E+02  0.28206196772E+03  0.78062207054E+02 0.  0.
        254    2    1    2    0    0 -0.16086989252E+03  0.20988047663E+03  0.20138355113E+04  0.22209059417E+04  0.89830996788E+03 0.  0.
         23    2    4    4    0    0 -0.49615329062E+03  0.81622746032E+02  0.15212684243E+04  0.16048449341E+04  0.91865572608E+02 0.  0.
         23    2    4    4    0    0  0.33528339809E+03  0.12825773060E+03  0.49256708708E+03  0.61606100759E+03  0.89687386580E+02 0.  0.
          4    1    3    3  502    0  0.10679274764E+03 -0.18280745467E+03  0.64646877860E+02  0.22136502716E+03  0.00000000000E+00 0. -1.
         -3    1    3    3    0  502  0.54077144884E+02 -0.27073021963E+02 -0.51800074630E+01  0.60696940568E+02  0.00000000000E+00 0.  1.
         11    1    5    5    0    0 -0.14361331248E+03  0.10633392150E+01  0.32999572003E+03  0.35989316394E+03  0.00000000000E+00 0.  1.
        -11    1    5    5    0    0 -0.35253997814E+03  0.80559406817E+02  0.11912727042E+04  0.12449517702E+04  0.00000000000E+00 0. -1.
          1    1    6    6  503    0  0.26235168852E+03  0.87262935102E+02  0.43150542084E+03  0.51248429881E+03  0.00000000000E+00 0. -1.
         -1    1    6    6    0  503  0.72931709576E+02  0.40994795497E+02  0.61061666239E+02  0.10357670879E+03  0.00000000000E+00 0.  1.
<mgrwt>
<rscale>  0 0.14022359E+04</rscale>
<asrwt>0</asrwt>
<pdfrwt beam="1">  1        2 0.35202077E+00 0.14022359E+04</pdfrwt>
<pdfrwt beam="2">  1       -1 0.33051196E-01 0.14022359E+04</pdfrwt>
<totfact> 0.43965000E+01</totfact>
</mgrwt>
</event>
<event>
12    6  0.1521603E-007  0.1726342E+04  0.7818608E-02  0.8746482E-01
         -1   -1    0    0    0  501 -0.00000000000E+00  0.00000000000E+00  0.60039397522E+03  0.60039397522E+03  0.00000000000E+00 0.  1.
          2   -1    0    0  501    0  0.00000000000E+00 -0.00000000000E+00 -0.12409585779E+04  0.12409585779E+04  0.00000000000E+00 0. -1.
         24    2    1    2    0    0  0.18172333153E+03  0.38269282935E+03 -0.76961470206E+03  0.88215259126E+03  0.80057690291E+02 0.  0.
        254    2    1    2    0    0 -0.18172333153E+03 -0.38269282935E+03  0.12905009939E+03  0.95919996185E+03  0.85084279853E+03 0.  0.
         23    2    4    4    0    0 -0.51135049504E+03 -0.27862888199E+03  0.38931243995E+02  0.59077546454E+03  0.91578518709E+02 0.  0.
         23    2    4    4    0    0  0.32962716350E+03 -0.10406394736E+03  0.90118855395E+02  0.36842449731E+03  0.90176660304E+02 0.  0.
          4    1    3    3  502    0  0.95280133279E+02  0.21495035492E+03 -0.50598314834E+03  0.55794346065E+03  0.00000000000E+00 0. -1.
         -3    1    3    3    0  502  0.86443198256E+02  0.16774247443E+03 -0.26363155373E+03  0.32420913061E+03  0.00000000000E+00 0.  1.
         11    1    5    5    0    0 -0.29248165807E+03 -0.16093180935E+03 -0.23135958664E+02  0.33463388973E+03  0.00000000000E+00 0.  1.
        -11    1    5    5    0    0 -0.21886883696E+03 -0.11769707264E+03  0.62067202658E+02  0.25614157481E+03  0.00000000000E+00 0. -1.
          1    1    6    6  503    0  0.71953391907E+02 -0.43872169502E+02 -0.11332378018E+02  0.85032233038E+02  0.00000000000E+00 0. -1.
         -1    1    6    6    0  503  0.25767377159E+03 -0.60191777854E+02  0.10145123341E+03  0.28339226427E+03  0.00000000000E+00 0.  1.
<mgrwt>
<rscale>  0 0.17263419E+04</rscale>
<asrwt>0</asrwt>
<pdfrwt beam="1">  1        2 0.19091670E+00 0.17263419E+04</pdfrwt>
<pdfrwt beam="2">  1       -1 0.92368306E-01 0.17263419E+04</pdfrwt>
<totfact> 0.22108985E+01</totfact>
</mgrwt>
</event>
<event>
12    6  0.1521603E-007  0.1808858E+04  0.7818608E-02  0.8701603E-01
          2   -1    0    0  501    0  0.00000000000E+00  0.00000000000E+00  0.33070443115E+04  0.33070443115E+04  0.00000000000E+00 0. -1.
         -1   -1    0    0    0  501 -0.00000000000E+00 -0.00000000000E+00 -0.24734828267E+03  0.24734828267E+03  0.00000000000E+00 0.  1.
         24    2    1    2    0    0 -0.47383085576E+03 -0.47706771845E+03  0.12633685959E+04  0.14334192303E+04  0.80505855404E+02 0.  0.
        254    2    1    2    0    0  0.47383085576E+03  0.47706771845E+03  0.17963274329E+04  0.21209733639E+04  0.90533224630E+03 0.  0.
         23    2    4    4    0    0  0.18367613203E+03 -0.43654617542E+02  0.13622023078E+04  0.13779540530E+04  0.86715615006E+02 0.  0.
         23    2    4    4    0    0  0.29015472373E+03  0.52072233599E+03  0.43412512518E+03  0.74301931087E+03  0.90948101185E+02 0.  0.
          2    1    3    3  502    0 -0.13396609270E+02 -0.18995766243E+02  0.82647525111E+02  0.85854072018E+02  0.00000000000E+00 0. -1.
         -1    1    3    3    0  502 -0.46043424649E+03 -0.45807195221E+03  0.11807210708E+04  0.13475651583E+04  0.00000000000E+00 0.  1.
         11    1    5    5    0    0 -0.33654728812E+01 -0.14099654900E+02  0.46857073215E+02  0.49048057926E+02  0.00000000000E+00 0. -1.
        -11    1    5    5    0    0  0.18704160491E+03 -0.29554962641E+02  0.13153452345E+04  0.13289059951E+04  0.00000000000E+00 0.  1.
          2    1    6    6  503    0  0.42275007252E+02  0.31727908326E+02  0.22447356170E+02  0.57425779959E+02  0.00000000000E+00 0. -1.
         -2    1    6    6    0  503  0.24787971648E+03  0.48899442767E+03  0.41167776901E+03  0.68559353091E+03  0.00000000000E+00 0.  1.
<mgrwt>
<rscale>  0 0.18088579E+04</rscale>
<asrwt>0</asrwt>
<pdfrwt beam="1">  1        2 0.50877602E+00 0.18088579E+04</pdfrwt>
<pdfrwt beam="2">  1       -1 0.38053584E-01 0.18088579E+04</pdfrwt>
<totfact> 0.79443550E+00</totfact>
</mgrwt>
</event>
<event>
12    6  0.1521603E-007  0.1624131E+04  0.7818608E-02  0.8805859E-01
         -1   -1    0    0    0  501 -0.00000000000E+00  0.00000000000E+00  0.22336617352E+03  0.22336617352E+03  0.00000000000E+00 0.  1.
          2   -1    0    0  501    0  0.00000000000E+00 -0.00000000000E+00 -0.29523300526E+04  0.29523300526E+04  0.00000000000E+00 0. -1.
         24    2    1    2    0    0  0.31464045968E+03  0.19146603251E+03 -0.11878802995E+03  0.39510632747E+03  0.79627592381E+02 0.  0.
        254    2    1    2    0    0 -0.31464045968E+03 -0.19146603251E+03 -0.26101758491E+04  0.27805898987E+04  0.88487533621E+03 0.  0.
         23    2    4    4    0    0 -0.28193338105E+03  0.89434467101E+01 -0.25262105987E+04  0.25435796781E+04  0.92147562130E+02 0.  0.
         23    2    4    4    0    0 -0.32707078637E+02 -0.20040947922E+03 -0.83965250396E+02  0.23701022053E+03  0.88825497508E+02 0.  0.
          2    1    3    3  502    0  0.72969028184E+02  0.83122304873E+01 -0.27644920041E+02  0.78471739205E+02  0.00000000000E+00 0. -1.
         -1    1    3    3    0  502  0.24167143150E+03  0.18315380203E+03 -0.91143109909E+02  0.31663458826E+03  0.00000000000E+00 0.  1.
         11    1    5    5    0    0 -0.94108053043E+02  0.44390219164E+02 -0.77016008212E+03  0.77715723589E+03  0.00000000000E+00 0.  1.
        -11    1    5    5    0    0 -0.18782532800E+03 -0.35446772454E+02 -0.17560505166E+04  0.17664224422E+04  0.00000000000E+00 0. -1.
          2    1    6    6  503    0 -0.13737868897E+02 -0.56385356577E+02  0.16560985926E+02  0.60351501498E+02  0.00000000000E+00 0. -1.
         -2    1    6    6    0  503 -0.18969209740E+02 -0.14402412265E+03 -0.10052623632E+03  0.17665871903E+03  0.00000000000E+00 0.  1.
<mgrwt>
<rscale>  0 0.16241314E+04</rscale>
<asrwt>0</asrwt>
<pdfrwt beam="1">  1        2 0.45420461E+00 0.16241314E+04</pdfrwt>
<pdfrwt beam="2">  1       -1 0.34364028E-01 0.16241314E+04</pdfrwt>
<totfact> 0.16383326E+01</totfact>
</mgrwt>
</event>
<event>
12    6  0.1521603E-007  0.4406939E+04  0.7818608E-02  0.7927135E-01
         -1   -1    0    0    0  501 -0.00000000000E+00  0.00000000000E+00  0.18705350998E+04  0.18705350998E+04  0.00000000000E+00 0.  1.
          2   -1    0    0  501    0  0.00000000000E+00 -0.00000000000E+00 -0.25956625217E+04  0.25956625217E+04  0.00000000000E+00 0. -1.
         24    2    1    2    0    0 -0.97760548971E+03 -0.12650516132E+03  0.15446663254E+04  0.18340456482E+04  0.77545686221E+02 0.  0.
        254    2    1    2    0    0  0.97760548971E+03  0.12650516132E+03 -0.22697937473E+04  0.26321519733E+04  0.89696393795E+03 0.  0.
         23    2    4    4    0    0  0.76165731928E+03  0.43701192531E+03 -0.11707462324E+04  0.14662472882E+04  0.90183559707E+02 0.  0.
         23    2    4    4    0    0  0.21594817042E+03 -0.31050676399E+03 -0.10990475149E+04  0.11659046851E+04  0.91543607611E+02 0.  0.
          4    1    3    3  502    0 -0.41084045185E+03 -0.63767404098E+02  0.58372277552E+03  0.71665084760E+03  0.00000000000E+00 0. -1.
         -3    1    3    3    0  502 -0.56676503785E+03 -0.62737757227E+02  0.96094354993E+03  0.11173948006E+04  0.00000000000E+00 0.  1.
         11    1    5    5    0    0  0.11949728678E+03  0.32667224640E+02 -0.16289010366E+03  0.20464587703E+03  0.00000000000E+00 0. -1.
        -11    1    5    5    0    0  0.64216003250E+03  0.40434470067E+03 -0.10078561288E+04  0.12616014111E+04  0.00000000000E+00 0.  1.
          4    1    6    6  503    0  0.65944282966E+02 -0.90905394928E+02 -0.46445034529E+03  0.47783528807E+03  0.00000000000E+00 0. -1.
         -4    1    6    6    0  503  0.15000388746E+03 -0.21960136906E+03 -0.63459716956E+03  0.68806939705E+03  0.00000000000E+00 0.  1.
<mgrwt>
<rscale>  0 0.44069390E+04</rscale>
<asrwt>0</asrwt>
<pdfrwt beam="1">  1        2 0.39933269E+00 0.44069390E+04</pdfrwt>
<pdfrwt beam="2">  1       -1 0.28777463E+00 0.44069390E+04</pdfrwt>
<totfact> 0.10528942E-01</totfact>
</mgrwt>
</event>
<event>
12    6  0.1521603E-007  0.1788132E+04  0.7818608E-02  0.8712637E-01
          2   -1    0    0  501    0  0.00000000000E+00  0.00000000000E+00  0.41719324728E+04  0.41719324728E+04  0.00000000000E+00 0. -1.
         -1   -1    0    0    0  501 -0.00000000000E+00 -0.00000000000E+00 -0.19160271925E+03  0.19160271925E+03  0.00000000000E+00 0.  1.
         24    2    1    2    0    0 -0.22172356231E+03 -0.62660550872E+03  0.14157860757E+04  0.15660554783E+04  0.79270089948E+02 0.  0.
        254    2    1    2    0    0  0.22172356231E+03  0.62660550872E+03  0.25645436778E+04  0.27974797137E+04  0.89845014989E+03 0.  0.
         23    2    4    4    0    0  0.21559094297E+03 -0.15040825794E+03  0.11259757301E+04  0.11598912337E+04  0.91783606721E+02 0.  0.
         23    2    4    4    0    0  0.61326193430E+01  0.77701376666E+03  0.14385679476E+04  0.16375884800E+04  0.91816595811E+02 0.  0.
          4    1    3    3  502    0 -0.25448054311E+02 -0.14120991534E+03  0.25365016813E+03  0.29142108958E+03  0.00000000000E+00 0. -1.
         -3    1    3    3    0  502 -0.19627550800E+03 -0.48539559338E+03  0.11621359076E+04  0.12746343887E+04  0.00000000000E+00 0.  1.
         11    1    5    5    0    0  0.21325961796E+02  0.11083108772E+02  0.66373316943E+02  0.70590715740E+02  0.00000000000E+00 0. -1.
        -11    1    5    5    0    0  0.19426498117E+03 -0.16149136671E+03  0.10596024132E+04  0.10893005180E+04  0.00000000000E+00 0.  1.
          1    1    6    6  503    0 -0.26156371626E+02  0.78722797284E+02  0.13609966427E+03  0.15938805853E+03  0.00000000000E+00 0. -1.
         -1    1    6    6    0  503  0.32288990968E+02  0.69829096938E+03  0.13024682834E+04  0.14782004215E+04  0.00000000000E+00 0.  1.
<mgrwt>
<rscale>  0 0.17881315E+04</rscale>
<asrwt>0</asrwt>
<pdfrwt beam="1">  1        2 0.64183570E+00 0.17881315E+04</pdfrwt>
<pdfrwt beam="2">  1       -1 0.29477344E-01 0.17881315E+04</pdfrwt>
<totfact> 0.28329996E+00</totfact>
</mgrwt>
</event>
<event>
12    6  0.1521603E-007  0.1377107E+04  0.7818608E-02  0.8970558E-01
          2   -1    0    0  501    0  0.00000000000E+00  0.00000000000E+00  0.62473315931E+03  0.62473315931E+03  0.00000000000E+00 0. -1.
         -1   -1    0    0    0  501 -0.00000000000E+00 -0.00000000000E+00 -0.75889391969E+03  0.75889391969E+03  0.00000000000E+00 0.  1.
         24    2    1    2    0    0  0.15161109864E+03 -0.98053447585E+02 -0.31776576943E+03  0.37379523118E+03  0.78405272920E+02 0.  0.
        254    2    1    2    0    0 -0.15161109864E+03  0.98053447585E+02  0.18360500905E+03  0.10098318478E+04  0.97644721194E+03 0.  0.
         23    2    4    4    0    0  0.96104174497E+01 -0.34159726769E+03 -0.19429434222E+03  0.40285114308E+03  0.88077798838E+02 0.  0.
         23    2    4    4    0    0 -0.16122151609E+03  0.43965071528E+03  0.37789935127E+03  0.60698070473E+03  0.79577179713E+02 0.  0.
          2    1    3    3  502    0  0.47643521180E+02 -0.77184958129E+01 -0.14515734911E+03  0.15297103088E+03  0.00000000000E+00 0. -1.
         -1    1    3    3    0  502  0.10396757746E+03 -0.90334951772E+02 -0.17260842031E+03  0.22082420030E+03  0.00000000000E+00 0.  1.
         11    1    5    5    0    0 -0.33437992186E+02 -0.10266857113E+03 -0.80773359570E+02  0.13484535749E+03  0.00000000000E+00 0.  1.
        -11    1    5    5    0    0  0.43048409636E+02 -0.23892869656E+03 -0.11352098265E+03  0.26800578560E+03  0.00000000000E+00 0. -1.
          1    1    6    6  503    0 -0.96796945537E+02  0.15193038756E+03  0.14255289606E+03  0.22972553081E+03  0.00000000000E+00 0. -1.
         -1    1    6    6    0  503 -0.64424570556E+02  0.28772032772E+03  0.23534645520E+03  0.37725517392E+03  0.00000000000E+00 0.  1.
<mgrwt>
<rscale>  0 0.13771074E+04</rscale>
<asrwt>0</asrwt>
<pdfrwt beam="1">  1        2 0.96112795E-01 0.13771074E+04</pdfrwt>
<pdfrwt beam="2">  1       -1 0.11675291E+00 0.13771074E+04</pdfrwt>
<totfact> 0.34822550E+01</totfact>
</mgrwt>
</event>
<event>
12    6  0.1521603E-007  0.1524802E+04  0.7818608E-02  0.8868125E-01
          2   -1    0    0  501    0  0.00000000000E+00  0.00000000000E+00  0.41644950767E+04  0.41644950767E+04  0.00000000000E+00 0. -1.
         -1   -1    0    0    0  501 -0.00000000000E+00 -0.00000000000E+00 -0.13957406288E+03  0.13957406288E+03  0.00000000000E+00 0.  1.
         24    2    1    2    0    0 -0.15848936432E+03 -0.46507833802E+03  0.15925289232E+04  0.16684835848E+04  0.79198247724E+02 0.  0.
        254    2    1    2    0    0  0.15848936432E+03  0.46507833802E+03  0.24323920906E+04  0.26355855548E+04  0.88789818950E+03 0.  0.
         23    2    4    4    0    0  0.97499671350E+02  0.15952084177E+03  0.27828896730E+02  0.20919624669E+03  0.89641158321E+02 0.  0.
         23    2    4    4    0    0  0.60989692972E+02  0.30555749625E+03  0.24045631939E+04  0.24263893081E+04  0.91410036639E+02 0.  0.
          4    1    3    3  502    0 -0.48548575981E+02 -0.25780201586E+03  0.88537577592E+03  0.92342249712E+03  0.00000000000E+00 0. -1.
         -3    1    3    3    0  502 -0.10994078834E+03 -0.20727632216E+03  0.70715314728E+03  0.74506108768E+03  0.00000000000E+00 0.  1.
         11    1    5    5    0    0  0.38943501398E+02  0.14029434888E+03  0.16488431146E+02  0.14652975463E+03  0.00000000000E+00 0. -1.
        -11    1    5    5    0    0  0.58556169952E+02  0.19226492887E+02  0.11340465585E+02  0.62666492066E+02  0.00000000000E+00 0.  1.
          1    1    6    6  503    0  0.64561873390E+02  0.11533582864E+03  0.11301131443E+04  0.11378164649E+04  0.00000000000E+00 0. -1.
         -1    1    6    6    0  503 -0.35721804181E+01  0.19022166761E+03  0.12744500496E+04  0.12885728432E+04  0.00000000000E+00 0.  1.
<mgrwt>
<rscale>  0 0.15248023E+04</rscale>
<asrwt>0</asrwt>
<pdfrwt beam="1">  1        2 0.64069145E+00 0.15248023E+04</pdfrwt>
<pdfrwt beam="2">  1       -1 0.21472936E-01 0.15248023E+04</pdfrwt>
<totfact> 0.51057335E+00</totfact>
</mgrwt>
</event>
<event>
12    6  0.1521603E-007  0.1206429E+04  0.7818608E-02  0.9107248E-01
          2   -1    0    0  501    0  0.00000000000E+00  0.00000000000E+00  0.13061716996E+04  0.13061716996E+04  0.00000000000E+00 0. -1.
         -3   -1    0    0    0  501 -0.00000000000E+00 -0.00000000000E+00 -0.27857566287E+03  0.27857566287E+03  0.00000000000E+00 0.  1.
         24    2    1    2    0    0  0.23231696839E+03  0.10867552356E+03  0.22766246263E+03  0.35170840341E+03  0.78019618801E+02 0.  0.
        254    2    1    2    0    0 -0.23231696839E+03 -0.10867552356E+03  0.79993357415E+03  0.12330389591E+04  0.90261276767E+03 0.  0.
         23    2    4    4    0    0 -0.25610714562E+03 -0.34513469878E+03  0.51426684093E+02  0.44245027215E+03  0.91699013916E+02 0.  0.
         23    2    4    4    0    0  0.23790177227E+02  0.23645917522E+03  0.74850689006E+03  0.79058868694E+03  0.91043909072E+02 0.  0.
          2    1    3    3  502    0  0.17953025874E+03  0.58288799050E+02  0.12750311669E+03  0.22778442147E+03  0.00000000000E+00 0. -1.
         -1    1    3    3    0  502  0.52786709655E+02  0.50386724512E+02  0.10015934594E+03  0.12392398195E+03  0.00000000000E+00 0.  1.
         11    1    5    5    0    0 -0.78138886536E+02 -0.83197048024E+02 -0.24637688996E+02  0.11676664810E+03  0.00000000000E+00 0. -1.
        -11    1    5    5    0    0 -0.17796825908E+03 -0.26193765075E+03  0.76064373090E+02  0.32568362406E+03  0.00000000000E+00 0.  1.
          2    1    6    6  503    0  0.58548167590E+02  0.13430887136E+03  0.44070421934E+03  0.46442111257E+03  0.00000000000E+00 0. -1.
         -2    1    6    6    0  503 -0.34757990363E+02  0.10215030386E+03  0.30780267071E+03  0.32616757437E+03  0.00000000000E+00 0.  1.
<mgrwt>
<rscale>  0 0.12064289E+04</rscale>
<asrwt>0</asrwt>
<pdfrwt beam="1">  1        2 0.20094949E+00 0.12064289E+04</pdfrwt>
<pdfrwt beam="2">  1       -3 0.42857795E-01 0.12064289E+04</pdfrwt>
<totfact> 0.56100327E+01</totfact>
</mgrwt>
</event>
<event>
12    6  0.1521603E-007  0.1420780E+04  0.7818608E-02  0.8938913E-01
         -1   -1    0    0    0  501 -0.00000000000E+00  0.00000000000E+00  0.33106401697E+03  0.33106401697E+03  0.00000000000E+00 0.  1.
          2   -1    0    0  501    0  0.00000000000E+00 -0.00000000000E+00 -0.15243396255E+04  0.15243396255E+04  0.00000000000E+00 0. -1.
         24    2    1    2    0    0  0.12031664633E+02 -0.29251469701E+03 -0.79080268472E+03  0.84708704987E+03  0.80485868130E+02 0.  0.
        254    2    1    2    0    0 -0.12031664633E+02  0.29251469701E+03 -0.40247292378E+03  0.10083165926E+04  0.87693117606E+03 0.  0.
         23    2    4    4    0    0  0.35273473668E+03 -0.66760928904E+02 -0.30262178227E+03  0.47885129025E+03  0.94020205155E+02 0.  0.
         23    2    4    4    0    0 -0.36476640131E+03  0.35927562592E+03 -0.99851141508E+02  0.52946530232E+03  0.90717986076E+02 0.  0.
          4    1    3    3  502    0  0.35261511896E+02 -0.25467773006E+03 -0.70610974346E+03  0.75146196858E+03  0.00000000000E+00 0. -1.
         -3    1    3    3    0  502 -0.23229847263E+02 -0.37836966959E+02 -0.84692941254E+02  0.95625081285E+02  0.00000000000E+00 0.  1.
         11    1    5    5    0    0  0.36962247635E+02 -0.27076721495E+02 -0.10840888928E+02  0.47083770770E+02  0.00000000000E+00 0.  1.
        -11    1    5    5    0    0  0.31577248904E+03 -0.39684207409E+02 -0.29178089335E+03  0.43176751948E+03  0.00000000000E+00 0. -1.
          3    1    6    6  503    0 -0.36339501097E+03  0.34721269051E+03 -0.84124063714E+02  0.50959733569E+03  0.00000000000E+00 0. -1.
         -3    1    6    6    0  503 -0.13713903444E+01  0.12062935410E+02 -0.15727077794E+02  0.19867966633E+02  0.00000000000E+00 0.  1.
<mgrwt>
<rscale>  0 0.14207801E+04</rscale>
<asrwt>0</asrwt>
<pdfrwt beam="1">  1        2 0.23451379E+00 0.14207801E+04</pdfrwt>
<pdfrwt beam="2">  1       -1 0.50932926E-01 0.14207801E+04</pdfrwt>
<totfact> 0.52762646E+01</totfact>
</mgrwt>
</event>
<event>
12    6  0.1521603E-007  0.2879663E+04  0.7818608E-02  0.8278954E-01
          2   -1    0    0  501    0  0.00000000000E+00  0.00000000000E+00  0.22960481490E+04  0.22960481490E+04  0.00000000000E+00 0. -1.
         -1   -1    0    0    0  501 -0.00000000000E+00 -0.00000000000E+00 -0.90290559702E+03  0.90290559702E+03  0.00000000000E+00 0.  1.
         24    2    1    2    0    0 -0.10547452961E+04 -0.11654306785E+03  0.14549746042E+04  0.18019572491E+04  0.63473635891E+02 0.  0.
        254    2    1    2    0    0  0.10547452961E+04  0.11654306785E+03 -0.61832052199E+02  0.13969964969E+04  0.90648005135E+03 0.  0.
         23    2    4    4    0    0  0.68249365196E+03 -0.36562215050E+03 -0.41567896780E+02  0.78052469257E+03  0.89519627857E+02 0.  0.
         23    2    4    4    0    0  0.37225164411E+03  0.48216521835E+03 -0.20264155419E+02  0.61647180435E+03  0.92586528356E+02 0.  0.
          2    1    3    3  502    0 -0.84537799780E+03 -0.78433883153E+02  0.11972740955E+04  0.14677469445E+04  0.00000000000E+00 0. -1.
         -1    1    3    3    0  502 -0.20936729827E+03 -0.38109184698E+02  0.25770050860E+03  0.33421030457E+03  0.00000000000E+00 0.  1.
         11    1    5    5    0    0  0.58814314377E+03 -0.31434856145E+03 -0.66804527630E+02  0.67021654751E+03  0.00000000000E+00 0.  1.
        -11    1    5    5    0    0  0.94350508187E+02 -0.51273589055E+02  0.25236630850E+02  0.11030814506E+03  0.00000000000E+00 0. -1.
          2    1    6    6  503    0  0.27125402504E+03  0.28205542503E+03 -0.26632420314E+02  0.39222862555E+03  0.00000000000E+00 0. -1.
         -2    1    6    6    0  503  0.10099761907E+03  0.20010979332E+03  0.63682648952E+01  0.22424317880E+03  0.00000000000E+00 0.  1.
<mgrwt>
<rscale>  0 0.28796630E+04</rscale>
<asrwt>0</asrwt>
<pdfrwt beam="1">  1        2 0.35323817E+00 0.28796630E+04</pdfrwt>
<pdfrwt beam="2">  1       -1 0.13890855E+00 0.28796630E+04</pdfrwt>
<totfact> 0.19161829E+00</totfact>
</mgrwt>
</event>
<event>
12    6  0.1521603E-007  0.1898421E+04  0.7818608E-02  0.8655643E-01
          2   -1    0    0  501    0  0.00000000000E+00  0.00000000000E+00  0.32149737714E+04  0.32149737714E+04  0.00000000000E+00 0. -1.
         -1   -1    0    0    0  501 -0.00000000000E+00 -0.00000000000E+00 -0.28025137408E+03  0.28025137408E+03  0.00000000000E+00 0.  1.
         24    2    1    2    0    0  0.58141355939E+03  0.59546459668E+02  0.32992577353E+03  0.67593335961E+03  0.80295595772E+02 0.  0.
        254    2    1    2    0    0 -0.58141355939E+03 -0.59546459668E+02  0.26047966238E+04  0.28192917858E+04  0.90656120289E+03 0.  0.
         23    2    4    4    0    0  0.19693677305E+03  0.69454404048E+02  0.10413712993E+04  0.10656680582E+04  0.87098911347E+02 0.  0.
         23    2    4    4    0    0 -0.77835033244E+03 -0.12900086372E+03  0.15634253245E+04  0.17536237277E+04  0.91798530679E+02 0.  0.
          2    1    3    3  502    0  0.37364597300E+03  0.66280908537E+02  0.18247664348E+03  0.42107267471E+03  0.00000000000E+00 0. -1.
         -1    1    3    3    0  502  0.20776758639E+03 -0.67344488690E+01  0.14744913005E+03  0.25486068490E+03  0.00000000000E+00 0.  1.
         11    1    5    5    0    0  0.20257578827E+03  0.70412442866E+02  0.94083142411E+03  0.96496561115E+03  0.00000000000E+00 0.  1.
        -11    1    5    5    0    0 -0.56390152263E+01 -0.95803881737E+00  0.10053987520E+03  0.10070244702E+03  0.00000000000E+00 0. -1.
          3    1    6    6  503    0 -0.86606445775E+02 -0.32258049349E+02  0.24015163022E+03  0.25732093520E+03  0.00000000000E+00 0. -1.
         -3    1    6    6    0  503 -0.69174388666E+03 -0.96742814367E+02  0.13232736942E+04  0.14963027925E+04  0.00000000000E+00 0.  1.
<mgrwt>
<rscale>  0 0.18984213E+04</rscale>
<asrwt>0</asrwt>
<pdfrwt beam="1">  1        2 0.49461132E+00 0.18984213E+04</pdfrwt>
<pdfrwt beam="2">  1       -1 0.43115598E-01 0.18984213E+04</pdfrwt>
<totfact> 0.72022914E+00</totfact>
</mgrwt>
</event>
<event>
12    6  0.1521603E-007  0.1345736E+04  0.7818608E-02  0.8994062E-01
         -1   -1    0    0    0  501 -0.00000000000E+00  0.00000000000E+00  0.14647311853E+03  0.14647311853E+03  0.00000000000E+00 0.  1.
          2   -1    0    0  501    0  0.00000000000E+00 -0.00000000000E+00 -0.30910196357E+04  0.30910196357E+04  0.00000000000E+00 0. -1.
         24    2    1    2    0    0  0.34337562195E+03  0.58081481372E+02 -0.96373835135E+03  0.10277847281E+04  0.79180560503E+02 0.  0.
        254    2    1    2    0    0 -0.34337562195E+03 -0.58081481372E+02 -0.19808081658E+04  0.22097080262E+04  0.91538423348E+03 0.  0.
         23    2    4    4    0    0 -0.40067471560E+03  0.15003060870E+03 -0.19173158911E+04  0.19665335536E+04  0.90025439266E+02 0.  0.
         23    2    4    4    0    0  0.57299093642E+02 -0.20811209007E+03 -0.63492274733E+02  0.24317447263E+03  0.92242761353E+02 0.  0.
          4    1    3    3  502    0  0.49274215859E+02 -0.85733610460E+01 -0.83607038132E+02  0.97424779668E+02  0.00000000000E+00 0. -1.
         -3    1    3    3    0  502  0.29410140609E+03  0.66654842418E+02 -0.88013131321E+03  0.93035994840E+03  0.00000000000E+00 0.  1.
         11    1    5    5    0    0 -0.11942890936E+03  0.75333159162E+01 -0.62124922793E+03  0.63266943852E+03  0.00000000000E+00 0.  1.
        -11    1    5    5    0    0 -0.28124580624E+03  0.14249729278E+03 -0.12960666632E+04  0.13338641150E+04  0.00000000000E+00 0. -1.
          2    1    6    6  503    0  0.58397138355E+02 -0.14256704672E+03 -0.82709877248E+02  0.17486140905E+03  0.00000000000E+00 0. -1.
         -2    1    6    6    0  503 -0.10980447132E+01 -0.65545043344E+02  0.19217602515E+02  0.68313063579E+02  0.00000000000E+00 0.  1.
<mgrwt>
<rscale>  0 0.13457359E+04</rscale>
<asrwt>0</asrwt>
<pdfrwt beam="1">  1        2 0.47554146E+00 0.13457359E+04</pdfrwt>
<pdfrwt beam="2">  1       -1 0.22534327E-01 0.13457359E+04</pdfrwt>
<totfact> 0.28713737E+01</totfact>
</mgrwt>
</event>
<event>
12    6  0.1521603E-007  0.2771172E+04  0.7818608E-02  0.8312275E-01
         -1   -1    0    0    0  501 -0.00000000000E+00  0.00000000000E+00  0.15936475316E+04  0.15936475316E+04  0.00000000000E+00 0.  1.
          2   -1    0    0  501    0  0.00000000000E+00 -0.00000000000E+00 -0.12046883041E+04  0.12046883041E+04  0.00000000000E+00 0. -1.
         24    2    1    2    0    0  0.16195431065E+03 -0.12398405875E+04  0.27875051209E+03  0.12835814250E+04  0.80284154998E+02 0.  0.
        254    2    1    2    0    0 -0.16195431065E+03  0.12398405875E+04  0.11020871542E+03  0.15147544107E+04  0.84788034682E+03 0.  0.
         23    2    4    4    0    0  0.89022490543E+02  0.16220801438E+03  0.32420772300E+03  0.38391310381E+03  0.89678201776E+02 0.  0.
         23    2    4    4    0    0 -0.25097680119E+03  0.10776325731E+04 -0.21399900758E+03  0.11308413069E+04  0.93408611294E+02 0.  0.
          4    1    3    3  502    0  0.36063957875E+02 -0.11239197734E+03  0.36484288674E+02  0.12354622191E+03  0.00000000000E+00 0. -1.
         -3    1    3    3    0  502  0.12589035277E+03 -0.11274486102E+04  0.24226622341E+03  0.11600352031E+04  0.00000000000E+00 0.  1.
         11    1    5    5    0    0  0.55643337057E+01  0.39216507367E+02  0.14889026571E+03  0.15406884008E+03  0.00000000000E+00 0.  1.
        -11    1    5    5    0    0  0.83458156838E+02  0.12299150702E+03  0.17531745728E+03  0.22984426373E+03  0.00000000000E+00 0. -1.
          4    1    6    6  503    0 -0.60543466492E+02  0.12583979388E+03 -0.21772753462E+02  0.14133371095E+03  0.00000000000E+00 0. -1.
         -4    1    6    6    0  503 -0.19043333470E+03  0.95179277925E+03 -0.19222625412E+03  0.98950759591E+03  0.00000000000E+00 0.  1.
<mgrwt>
<rscale>  0 0.27711720E+04</rscale>
<asrwt>0</asrwt>
<pdfrwt beam="1">  1        2 0.18533666E+00 0.27711720E+04</pdfrwt>
<pdfrwt beam="2">  1       -1 0.24517654E+00 0.27711720E+04</pdfrwt>
<totfact> 0.14021791E+00</totfact>
</mgrwt>
</event>
<event>
12    6  0.1521603E-007  0.1155646E+04  0.7818608E-02  0.9152591E-01
         -1   -1    0    0    0  501 -0.00000000000E+00  0.00000000000E+00  0.13049103388E+03  0.13049103388E+03  0.00000000000E+00 0.  1.
          2   -1    0    0  501    0  0.00000000000E+00 -0.00000000000E+00 -0.25586387530E+04  0.25586387530E+04  0.00000000000E+00 0. -1.
         24    2    1    2    0    0  0.20534269757E+03 -0.12526684346E+02 -0.67801124922E+03  0.71296728659E+03  0.79376044291E+02 0.  0.
        254    2    1    2    0    0 -0.20534269757E+03  0.12526684346E+02 -0.17501364699E+04  0.19761625003E+04  0.89438136330E+03 0.  0.
         23    2    4    4    0    0  0.32671006061E+03  0.12761792162E+03 -0.76425092482E+03  0.84601513728E+03  0.92931904030E+02 0.  0.
         23    2    4    4    0    0 -0.53205275818E+03 -0.11509123727E+03 -0.98588554505E+03  0.11301473630E+04  0.94533717541E+02 0.  0.
          4    1    3    3  502    0  0.15899484549E+03  0.13667637298E+02 -0.57853709380E+03  0.60014276144E+03  0.00000000000E+00 0. -1.
         -3    1    3    3    0  502  0.46347852079E+02 -0.26194321644E+02 -0.99474155418E+02  0.11282452515E+03  0.00000000000E+00 0.  1.
         11    1    5    5    0    0  0.31840776354E+03  0.12810021428E+03 -0.68343286420E+03  0.76477032412E+03  0.00000000000E+00 0. -1.
        -11    1    5    5    0    0  0.83022970737E+01 -0.48229265693E+00 -0.80818060622E+02  0.81244813161E+02  0.00000000000E+00 0.  1.
          3    1    6    6  503    0 -0.10791161732E+03 -0.65102851574E+01 -0.27204408527E+03  0.29273757070E+03  0.00000000000E+00 0. -1.
         -3    1    6    6    0  503 -0.42414114087E+03 -0.10858095212E+03 -0.71384145978E+03  0.83740979230E+03  0.00000000000E+00 0.  1.
<mgrwt>
<rscale>  0 0.11556460E+04</rscale>
<asrwt>0</asrwt>
<pdfrwt beam="1">  1        2 0.39363671E+00 0.11556460E+04</pdfrwt>
<pdfrwt beam="2">  1       -1 0.20075545E-01 0.11556460E+04</pdfrwt>
<totfact> 0.74330444E+01</totfact>
</mgrwt>
</event>
<event>
12    6  0.1521603E-007  0.2466361E+04  0.7818608E-02  0.8415069E-01
          2   -1    0    0  501    0  0.00000000000E+00  0.00000000000E+00  0.15062700165E+04  0.15062700165E+04  0.00000000000E+00 0. -1.
         -1   -1    0    0    0  501 -0.00000000000E+00 -0.00000000000E+00 -0.10096023365E+04  0.10096023365E+04  0.00000000000E+00 0.  1.
         24    2    1    2    0    0  0.30362905427E+03 -0.69223123947E+03 -0.55361467158E+03  0.94037022533E+03  0.80201400277E+02 0.  0.
        254    2    1    2    0    0 -0.30362905427E+03  0.69223123947E+03  0.10502823516E+04  0.15755021277E+04  0.89874314735E+03 0.  0.
         23    2    4    4    0    0  0.26954381026E+03  0.23656552708E+02  0.20978247575E+03  0.35415802526E+03  0.90585438064E+02 0.  0.
         23    2    4    4    0    0 -0.57317286453E+03  0.66857468676E+03  0.84049987582E+03  0.12213441025E+04  0.98600866763E+02 0.  0.
          2    1    3    3  502    0  0.16550515890E+03 -0.28715316501E+03 -0.26200614934E+03  0.42248801177E+03  0.00000000000E+00 0. -1.
         -1    1    3    3    0  502  0.13812389537E+03 -0.40507807446E+03 -0.29160852224E+03  0.51788221356E+03  0.00000000000E+00 0.  1.
         11    1    5    5    0    0  0.59205728815E+02  0.12326934223E+02  0.99385261348E+02  0.11633873734E+03  0.00000000000E+00 0. -1.
        -11    1    5    5    0    0  0.21033808144E+03  0.11329618486E+02  0.11039721440E+03  0.23781928792E+03  0.00000000000E+00 0.  1.
          2    1    6    6  503    0 -0.43610275474E+02  0.18555207828E+02  0.37879534369E+02  0.60671335806E+02  0.00000000000E+00 0. -1.
         -2    1    6    6    0  503 -0.52956258906E+03  0.65001947894E+03  0.80262034145E+03  0.11606727666E+04  0.00000000000E+00 0.  1.
<mgrwt>
<rscale>  0 0.24663607E+04</rscale>
<asrwt>0</asrwt>
<pdfrwt beam="1">  1        2 0.23173385E+00 0.24663607E+04</pdfrwt>
<pdfrwt beam="2">  1       -1 0.15532344E+00 0.24663607E+04</pdfrwt>
<totfact> 0.40698183E+00</totfact>
</mgrwt>
</event>
<event>
12    6  0.1521603E-007  0.1617020E+04  0.7818608E-02  0.8810160E-01
         -1   -1    0    0    0  501 -0.00000000000E+00  0.00000000000E+00  0.46105023527E+03  0.46105023527E+03  0.00000000000E+00 0.  1.
          2   -1    0    0  501    0  0.00000000000E+00 -0.00000000000E+00 -0.14178250995E+04  0.14178250995E+04  0.00000000000E+00 0. -1.
         24    2    1    2    0    0  0.39633067965E+03 -0.36405044272E+03 -0.49191531516E+03  0.73337175935E+03  0.79010933754E+02 0.  0.
        254    2    1    2    0    0 -0.39633067965E+03  0.36405044272E+03 -0.46485954906E+03  0.11455035754E+04  0.89803858963E+03 0.  0.
         23    2    4    4    0    0 -0.16477676362E+03 -0.16225534399E+03  0.15680629801E+03  0.29391914822E+03  0.91225391830E+02 0.  0.
         23    2    4    4    0    0 -0.23155391603E+03  0.52630578670E+03 -0.62166584708E+03  0.85158442719E+03  0.90070050854E+02 0.  0.
          4    1    3    3  502    0  0.30190751154E+02 -0.15359218968E+02 -0.57653794974E+02  0.66868132451E+02  0.00000000000E+00 0. -1.
         -3    1    3    3    0  502  0.36613992849E+03 -0.34869122375E+03 -0.43426152018E+03  0.66650362690E+03  0.00000000000E+00 0.  1.
         11    1    5    5    0    0 -0.13922296323E+03 -0.15470805480E+03  0.99434184963E+02  0.23066159813E+03  0.00000000000E+00 0. -1.
        -11    1    5    5    0    0 -0.25553800386E+02 -0.75472891878E+01  0.57372113052E+02  0.63257550098E+02  0.00000000000E+00 0.  1.
          4    1    6    6  503    0 -0.23869877184E+03  0.49286880764E+03 -0.58998727343E+03  0.80497313498E+03  0.00000000000E+00 0. -1.
         -4    1    6    6    0  503  0.71448558107E+01  0.33436979061E+02 -0.31678573646E+02  0.46611292211E+02  0.00000000000E+00 0.  1.
<mgrwt>
<rscale>  0 0.16170202E+04</rscale>
<asrwt>0</asrwt>
<pdfrwt beam="1">  1        2 0.21812694E+00 0.16170202E+04</pdfrwt>
<pdfrwt beam="2">  1       -1 0.70930806E-01 0.16170202E+04</pdfrwt>
<totfact> 0.30975802E+01</totfact>
</mgrwt>
</event>
<event>
12    6  0.1521603E-007  0.3022199E+04  0.7818608E-02  0.8237420E-01
         -1   -1    0    0    0  501 -0.00000000000E+00  0.00000000000E+00  0.75195473812E+03  0.75195473812E+03  0.00000000000E+00 0.  1.
          2   -1    0    0  501    0  0.00000000000E+00 -0.00000000000E+00 -0.30366475326E+04  0.30366475326E+04  0.00000000000E+00 0. -1.
         24    2    1    2    0    0  0.99828323408E+03 -0.31202628963E+03 -0.21616676422E+04  0.24026465147E+04  0.77288153162E+02 0.  0.
        254    2    1    2    0    0 -0.99828323408E+03  0.31202628963E+03 -0.12302515232E+03  0.13859557560E+04  0.90100407803E+03 0.  0.
         23    2    4    4    0    0  0.29578095703E+02  0.30775624246E+03 -0.14627190547E+03  0.35401056446E+03  0.91319444278E+02 0.  0.
         23    2    4    4    0    0 -0.10278613298E+04  0.42700471698E+01  0.23246753152E+02  0.10319451915E+04  0.88618960964E+02 0.  0.
          4    1    3    3  502    0  0.78905371031E+03 -0.26213567158E+03 -0.17777732518E+04  0.19625999600E+04  0.00000000000E+00 0. -1.
         -3    1    3    3    0  502  0.20922952377E+03 -0.49890618051E+02 -0.38389439037E+03  0.44004655475E+03  0.00000000000E+00 0.  1.
         11    1    5    5    0    0  0.17336253055E+02  0.12996955769E+02 -0.29785001632E+02  0.36832225720E+02  0.00000000000E+00 0. -1.
        -11    1    5    5    0    0  0.12241842648E+02  0.29475928669E+03 -0.11648690384E+03  0.31717833875E+03  0.00000000000E+00 0.  1.
          2    1    6    6  503    0 -0.68141314488E+03  0.44660127619E+02  0.17891435458E+02  0.68310943814E+03  0.00000000000E+00 0. -1.
         -2    1    6    6    0  503 -0.34644818490E+03 -0.40390080450E+02  0.53553176948E+01  0.34883575339E+03  0.00000000000E+00 0.  1.
<mgrwt>
<rscale>  0 0.30221989E+04</rscale>
<asrwt>0</asrwt>
<pdfrwt beam="1">  1        2 0.46717654E+00 0.30221989E+04</pdfrwt>
<pdfrwt beam="2">  1       -1 0.11568534E+00 0.30221989E+04</pdfrwt>
<totfact> 0.10838654E+00</totfact>
</mgrwt>
</event>
<event>
12    6  0.1521603E-007  0.2578009E+04  0.7818608E-02  0.8375710E-01
          2   -1    0    0  501    0  0.00000000000E+00  0.00000000000E+00  0.14247305207E+04  0.14247305207E+04  0.00000000000E+00 0. -1.
         -1   -1    0    0    0  501 -0.00000000000E+00 -0.00000000000E+00 -0.11662085154E+04  0.11662085154E+04  0.00000000000E+00 0.  1.
         24    2    1    2    0    0 -0.44940382057E+03 -0.54501424558E+03 -0.78392070149E+03  0.10582477976E+04  0.79702027404E+02 0.  0.
        254    2    1    2    0    0  0.44940382057E+03  0.54501424558E+03  0.10424427068E+04  0.15326912384E+04  0.87375701063E+03 0.  0.
         23    2    4    4    0    0 -0.92469803246E+02  0.47551579178E+02 -0.99855784362E+02  0.17113317710E+03  0.92214800539E+02 0.  0.
         23    2    4    4    0    0  0.54187362382E+03  0.49746266640E+03  0.11422984912E+04  0.13615580613E+04  0.88872846584E+02 0.  0.
          2    1    3    3  502    0 -0.10662767677E+03 -0.11559301128E+03 -0.12925435072E+03  0.20356299489E+03  0.00000000000E+00 0. -1.
         -1    1    3    3    0  502 -0.34277614380E+03 -0.42942123430E+03 -0.65466635077E+03  0.85468480275E+03  0.00000000000E+00 0.  1.
         11    1    5    5    0    0 -0.10073788659E+03  0.16498716966E+02 -0.54998419632E+02  0.11595324756E+03  0.00000000000E+00 0. -1.
        -11    1    5    5    0    0  0.82680833470E+01  0.31052862212E+02 -0.44857364729E+02  0.55179929542E+02  0.00000000000E+00 0.  1.
          4    1    6    6  503    0  0.53955968741E+03  0.49691594029E+03  0.11180500951E+04  0.13371933754E+04  0.00000000000E+00 0. -1.
         -4    1    6    6    0  503  0.23139364087E+01  0.54672611012E+00  0.24248396048E+02  0.24364685962E+02  0.00000000000E+00 0.  1.
<mgrwt>
<rscale>  0 0.25780092E+04</rscale>
<asrwt>0</asrwt>
<pdfrwt beam="1">  1        2 0.21918931E+00 0.25780092E+04</pdfrwt>
<pdfrwt beam="2">  1       -1 0.17941669E+00 0.25780092E+04</pdfrwt>
<totfact> 0.29712093E+00</totfact>
</mgrwt>
</event>
<event>
12    6  0.1521603E-007  0.2295344E+04  0.7818608E-02  0.8479759E-01
         -1   -1    0    0    0  501 -0.00000000000E+00  0.00000000000E+00  0.10960917391E+04  0.10960917391E+04  0.00000000000E+00 0.  1.
          2   -1    0    0  501    0  0.00000000000E+00 -0.00000000000E+00 -0.12016796371E+04  0.12016796371E+04  0.00000000000E+00 0. -1.
         24    2    1    2    0    0 -0.84339510506E+02  0.58376513050E+03  0.72620763460E+03  0.93955588766E+03  0.86561289718E+02 0.  0.
        254    2    1    2    0    0  0.84339510506E+02 -0.58376513050E+03 -0.83179553266E+03  0.13582154885E+04  0.89720155175E+03 0.  0.
         23    2    4    4    0    0 -0.10829279670E+02 -0.51953110716E+03 -0.14228515168E+02  0.52739851602E+03  0.88976960212E+02 0.  0.
         23    2    4    4    0    0  0.95168790176E+02 -0.64234023338E+02 -0.81756701749E+03  0.83081697249E+03  0.93047865701E+02 0.  0.
          4    1    3    3  502    0 -0.18286571023E+02  0.33413861688E+03  0.36053099793E+03  0.49190000451E+03  0.00000000000E+00 0. -1.
         -3    1    3    3    0  502 -0.66052939483E+02  0.24962651361E+03  0.36567663667E+03  0.44765588315E+03  0.00000000000E+00 0.  1.
         11    1    5    5    0    0  0.36440163793E+02 -0.29646122703E+03 -0.19342203025E+02  0.29931800061E+03  0.00000000000E+00 0. -1.
        -11    1    5    5    0    0 -0.47269443463E+02 -0.22306988012E+03  0.51136878563E+01  0.22808051540E+03  0.00000000000E+00 0.  1.
          4    1    6    6  503    0  0.20219648317E+02 -0.27303447496E+02 -0.53697963413E+03  0.53805338015E+03  0.00000000000E+00 0. -1.
         -4    1    6    6    0  503  0.74949141859E+02 -0.36930575842E+02 -0.28058738337E+03  0.29276359234E+03  0.00000000000E+00 0.  1.
<mgrwt>
<rscale>  0 0.22953441E+04</rscale>
<asrwt>0</asrwt>
<pdfrwt beam="1">  1        2 0.18487379E+00 0.22953441E+04</pdfrwt>
<pdfrwt beam="2">  1       -1 0.16862950E+00 0.22953441E+04</pdfrwt>
<totfact> 0.49205613E+00</totfact>
</mgrwt>
</event>
<event>
12    6  0.1521603E-007  0.1289186E+04  0.7818608E-02  0.9038185E-01
         -1   -1    0    0    0  501 -0.00000000000E+00  0.00000000000E+00  0.22057120677E+03  0.22057120677E+03  0.00000000000E+00 0.  1.
          2   -1    0    0  501    0  0.00000000000E+00 -0.00000000000E+00 -0.18837459296E+04  0.18837459296E+04  0.00000000000E+00 0. -1.
         24    2    1    2    0    0  0.61132153549E+02  0.42241791868E+02 -0.10074425700E+04  0.10132696173E+04  0.79077659832E+02 0.  0.
        254    2    1    2    0    0 -0.61132153549E+02 -0.42241791868E+02 -0.65573215286E+03  0.10910475191E+04  0.86883745518E+03 0.  0.
         23    2    4    4    0    0  0.84007689782E+02  0.36452339253E+03 -0.13431055340E+03  0.40780994648E+03  0.91296396721E+02 0.  0.
         23    2    4    4    0    0 -0.14513984333E+03 -0.40676518440E+03 -0.52142159947E+03  0.68323757265E+03  0.91703908991E+02 0.  0.
          2    1    3    3  502    0  0.40270602167E+02  0.26804301535E+02 -0.93617112307E+03  0.93742016388E+03  0.00000000000E+00 0. -1.
         -1    1    3    3    0  502  0.20861551382E+02  0.15437490333E+02 -0.71271446902E+02  0.75849453376E+02  0.00000000000E+00 0.  1.
         11    1    5    5    0    0  0.88590730217E+02  0.27684150972E+03 -0.13384705792E+03  0.32000714663E+03  0.00000000000E+00 0.  1.
        -11    1    5    5    0    0 -0.45830404352E+01  0.87681882813E+02 -0.46349547135E+00  0.87802799849E+02  0.00000000000E+00 0. -1.
          1    1    6    6  503    0 -0.11047043153E+02 -0.27606029524E+02 -0.83634499744E+02  0.88762940329E+02  0.00000000000E+00 0. -1.
         -1    1    6    6    0  503 -0.13409280018E+03 -0.37915915487E+03 -0.43778709972E+03  0.59447463232E+03  0.00000000000E+00 0.  1.
<mgrwt>
<rscale>  0 0.12891860E+04</rscale>
<asrwt>0</asrwt>
<pdfrwt beam="1">  1        2 0.28980705E+00 0.12891860E+04</pdfrwt>
<pdfrwt beam="2">  1       -1 0.33934033E-01 0.12891860E+04</pdfrwt>
<totfact> 0.71084190E+01</totfact>
</mgrwt>
</event>
<event>
12    6  0.1521603E-007  0.1789705E+04  0.7818608E-02  0.8711793E-01
         -1   -1    0    0    0  501 -0.00000000000E+00  0.00000000000E+00  0.40502351161E+03  0.40502351161E+03  0.00000000000E+00 0.  1.
          2   -1    0    0  501    0  0.00000000000E+00 -0.00000000000E+00 -0.19770733446E+04  0.19770733446E+04  0.00000000000E+00 0. -1.
         24    2    1    2    0    0 -0.39115542986E+03  0.53804391164E+03 -0.56687239205E+03  0.87758916314E+03  0.79527411893E+02 0.  0.
        254    2    1    2    0    0  0.39115542986E+03 -0.53804391164E+03 -0.10051774410E+04  0.15045076931E+04  0.90037097331E+03 0.  0.
         23    2    4    4    0    0  0.18168260128E+03  0.12751775222E+03  0.39915928862E+02  0.24399051162E+03  0.93106088124E+02 0.  0.
         23    2    4    4    0    0  0.20947282857E+03 -0.66556166386E+03 -0.10450933698E+04  0.12605171815E+04  0.99157545395E+02 0.  0.
          4    1    3    3  502    0 -0.29690557749E+02  0.27501976317E+02 -0.14260796130E+02  0.42909884957E+02  0.00000000000E+00 0. -1.
         -3    1    3    3    0  502 -0.36146487211E+03  0.51054193532E+03 -0.55261159592E+03  0.83467927819E+03  0.00000000000E+00 0.  1.
         11    1    5    5    0    0  0.17728456554E+03  0.91981959982E+02  0.51674061032E+02  0.20630246418E+03  0.00000000000E+00 0. -1.
        -11    1    5    5    0    0  0.43980357393E+01  0.35535792236E+02 -0.11758132170E+02  0.37688047446E+02  0.00000000000E+00 0.  1.
          1    1    6    6  503    0  0.19616557487E+03 -0.65709818600E+03 -0.10357380755E+04  0.12421804699E+04  0.00000000000E+00 0. -1.
         -1    1    6    6    0  503  0.13307253705E+02 -0.84634778624E+01 -0.93552943421E+01  0.18336711563E+02  0.00000000000E+00 0.  1.
<mgrwt>
<rscale>  0 0.17897052E+04</rscale>
<asrwt>0</asrwt>
<pdfrwt beam="1">  1        2 0.30416513E+00 0.17897052E+04</pdfrwt>
<pdfrwt beam="2">  1       -1 0.62311309E-01 0.17897052E+04</pdfrwt>
<totfact> 0.19340768E+01</totfact>
</mgrwt>
</event>
<event>
12    6  0.1521603E-007  0.1441879E+04  0.7818608E-02  0.8924050E-01
         -3   -1    0    0    0  501 -0.00000000000E+00  0.00000000000E+00  0.32272861703E+03  0.32272861703E+03  0.00000000000E+00 0.  1.
          2   -1    0    0  501    0  0.00000000000E+00 -0.00000000000E+00 -0.16104969285E+04  0.16104969285E+04  0.00000000000E+00 0. -1.
         24    2    1    2    0    0  0.58029476960E+01 -0.13450701014E+03  0.16188229415E+03  0.22525261565E+03  0.80044073621E+02 0.  0.
        254    2    1    2    0    0 -0.58029476960E+01  0.13450701014E+03 -0.14496506056E+04  0.17079729298E+04  0.89306149891E+03 0.  0.
         23    2    4    4    0    0  0.94211079401E+02  0.27559902428E+03 -0.14792551602E+04  0.15102638151E+04  0.88715345695E+02 0.  0.
         23    2    4    4    0    0 -0.10001402710E+03 -0.14109201414E+03  0.29604554662E+02  0.19770911470E+03  0.91119165424E+02 0.  0.
          4    1    3    3  502    0  0.20029874105E+01  0.54804465496E+01  0.37499335660E+02  0.37950591931E+02  0.00000000000E+00 0. -1.
         -1    1    3    3    0  502  0.37999602854E+01 -0.13998745669E+03  0.12438295849E+03  0.18730202372E+03  0.00000000000E+00 0.  1.
         11    1    5    5    0    0  0.42197336788E+02  0.87271559428E+02 -0.31016900041E+03  0.32496422747E+03  0.00000000000E+00 0. -1.
        -11    1    5    5    0    0  0.52013742613E+02  0.18832746486E+03 -0.11690861598E+04  0.11852995877E+04  0.00000000000E+00 0.  1.
          3    1    6    6  503    0 -0.94840352551E+02 -0.11075048608E+03 -0.11608705469E+02  0.14627072394E+03  0.00000000000E+00 0. -1.
         -3    1    6    6    0  503 -0.51736745457E+01 -0.30341528065E+02  0.41213260130E+02  0.51438390762E+02  0.00000000000E+00 0.  1.
<mgrwt>
<rscale>  0 0.14418786E+04</rscale>
<asrwt>0</asrwt>
<pdfrwt beam="1">  1        2 0.24776876E+00 0.14418786E+04</pdfrwt>
<pdfrwt beam="2">  1       -3 0.49650557E-01 0.14418786E+04</pdfrwt>
<totfact> 0.27540896E+01</totfact>
</mgrwt>
</event>
<event>
12    6  0.1521603E-007  0.2147413E+04  0.7818608E-02  0.8540640E-01
          2   -1    0    0  501    0  0.00000000000E+00  0.00000000000E+00  0.43963779876E+03  0.43963779876E+03  0.00000000000E+00 0. -1.
         -1   -1    0    0    0  501 -0.00000000000E+00 -0.00000000000E+00 -0.26222633242E+04  0.26222633242E+04  0.00000000000E+00 0.  1.
         24    2    1    2    0    0 -0.45914376041E+03  0.75444274288E+03 -0.90825289647E+03  0.12693724496E+04  0.79913996516E+02 0.  0.
        254    2    1    2    0    0  0.45914376041E+03 -0.75444274288E+03 -0.12743726290E+04  0.17925286734E+04  0.89952020676E+03 0.  0.
         23    2    4    4    0    0  0.15364130432E+02 -0.47515226355E+02 -0.84155253881E+03  0.84780007814E+03  0.89780530645E+02 0.  0.
         23    2    4    4    0    0  0.44377962998E+03 -0.70692751652E+03 -0.43282009018E+03  0.94472859524E+03  0.92152127469E+02 0.  0.
          4    1    3    3  502    0 -0.18314926641E+03  0.33934213443E+03 -0.34749530697E+03  0.51908547114E+03  0.00000000000E+00 0. -1.
         -3    1    3    3    0  502 -0.27599449400E+03  0.41510060845E+03 -0.56075758950E+03  0.75028697846E+03  0.00000000000E+00 0.  1.
         11    1    5    5    0    0 -0.18625726793E+02 -0.60891538740E+02 -0.43905609465E+03  0.44364958181E+03  0.00000000000E+00 0.  1.
        -11    1    5    5    0    0  0.33989857225E+02  0.13376312384E+02 -0.40249644415E+03  0.40415049633E+03  0.00000000000E+00 0. -1.
          1    1    6    6  503    0  0.29150292964E+03 -0.47645981878E+03 -0.33701644090E+03  0.65235572991E+03  0.00000000000E+00 0. -1.
         -1    1    6    6    0  503  0.15227670034E+03 -0.23046769774E+03 -0.95803649277E+02  0.29237286533E+03  0.00000000000E+00 0.  1.
<mgrwt>
<rscale>  0 0.21474134E+04</rscale>
<asrwt>0</asrwt>
<pdfrwt beam="1">  1        2 0.67636586E-01 0.21474134E+04</pdfrwt>
<pdfrwt beam="2">  1       -1 0.40342512E+00 0.21474134E+04</pdfrwt>
<totfact> 0.50822325E-01</totfact>
</mgrwt>
</event>
<event>
12    6  0.1521603E-007  0.1665728E+04  0.7818608E-02  0.8781156E-01
         -1   -1    0    0    0  501 -0.00000000000E+00  0.00000000000E+00  0.42287866611E+03  0.42287866611E+03  0.00000000000E+00 0.  1.
          2   -1    0    0  501    0  0.00000000000E+00 -0.00000000000E+00 -0.16403352940E+04  0.16403352940E+04  0.00000000000E+00 0. -1.
         24    2    1    2    0    0  0.31359328069E+03  0.33685402413E+03  0.22338858335E+02  0.46737938847E+03  0.78314040317E+02 0.  0.
        254    2    1    2    0    0 -0.31359328069E+03 -0.33685402413E+03 -0.12397954863E+04  0.15958345717E+04  0.89318741210E+03 0.  0.
         23    2    4    4    0    0 -0.38811833240E+03 -0.44911591777E+03 -0.35819578003E+03  0.69941540499E+03  0.92394503936E+02 0.  0.
         23    2    4    4    0    0  0.74525051712E+02  0.11226189364E+03 -0.88159970624E+03  0.89641916669E+03  0.90512785170E+02 0.  0.
          2    1    3    3  502    0  0.26655080852E+02  0.66648609704E+02  0.14116097343E+02  0.73155961581E+02  0.00000000000E+00 0. -1.
         -1    1    3    3    0  502  0.28693819984E+03  0.27020541443E+03  0.82227609914E+01  0.39422342689E+03  0.00000000000E+00 0.  1.
         11    1    5    5    0    0 -0.64434890925E+02 -0.83664870698E+02 -0.25480292932E+02  0.10863199844E+03  0.00000000000E+00 0. -1.
        -11    1    5    5    0    0 -0.32368344148E+03 -0.36545104708E+03 -0.33271548710E+03  0.59078340655E+03  0.00000000000E+00 0.  1.
          4    1    6    6  503    0  0.33353119004E+02  0.34731513601E+02 -0.11312789201E+03  0.12294969921E+03  0.00000000000E+00 0. -1.
         -4    1    6    6    0  503  0.41171932708E+02  0.77530380043E+02 -0.76847181422E+03  0.77346946748E+03  0.00000000000E+00 0.  1.
<mgrwt>
<rscale>  0 0.16657284E+04</rscale>
<asrwt>0</asrwt>
<pdfrwt beam="1">  1        2 0.25235927E+00 0.16657284E+04</pdfrwt>
<pdfrwt beam="2">  1       -1 0.65058257E-01 0.16657284E+04</pdfrwt>
<totfact> 0.27565262E+01</totfact>
</mgrwt>
</event>
<event>
12    6  0.1521603E-007  0.1254651E+04  0.7818608E-02  0.9066321E-01
         -3   -1    0    0    0  501 -0.00000000000E+00  0.00000000000E+00  0.44807957006E+03  0.44807957006E+03  0.00000000000E+00 0.  1.
          4   -1    0    0  501    0  0.00000000000E+00 -0.00000000000E+00 -0.87827499671E+03  0.87827499671E+03  0.00000000000E+00 0. -1.
         24    2    1    2    0    0 -0.10361352195E+03  0.39741631610E+02  0.18656956155E+03  0.22995991659E+03  0.75882822337E+02 0.  0.
        254    2    1    2    0    0  0.10361352195E+03 -0.39741631610E+02 -0.61676498821E+03  0.10963946502E+04  0.89964827520E+03 0.  0.
         23    2    4    4    0    0 -0.16169655299E+02 -0.45315157030E+03 -0.36546358368E+03  0.58966925729E+03  0.92403455437E+02 0.  0.
         23    2    4    4    0    0  0.11978317725E+03  0.41340993869E+03 -0.25130140453E+03  0.50672539290E+03  0.91446382801E+02 0.  0.
          4    1    3    3  502    0 -0.65686454868E+02 -0.15312425762E+02  0.88527309288E+02  0.11129359921E+03  0.00000000000E+00 0. -1.
         -3    1    3    3    0  502 -0.37927067082E+02  0.55054057373E+02  0.98042252260E+02  0.11866631737E+03  0.00000000000E+00 0.  1.
         11    1    5    5    0    0  0.30256874308E+02 -0.23774755946E+03 -0.15828278165E+03  0.28721563230E+03  0.00000000000E+00 0. -1.
        -11    1    5    5    0    0 -0.46426529607E+02 -0.21540401084E+03 -0.20718080203E+03  0.30245362499E+03  0.00000000000E+00 0.  1.
          2    1    6    6  503    0 -0.80715515538E+01  0.72284522759E+02 -0.65036250989E+02  0.97570057485E+02  0.00000000000E+00 0. -1.
         -2    1    6    6    0  503  0.12785472880E+03  0.34112541593E+03 -0.18626515354E+03  0.40915533541E+03  0.00000000000E+00 0.  1.
<mgrwt>
<rscale>  0 0.12546507E+04</rscale>
<asrwt>0</asrwt>
<pdfrwt beam="1">  1        4 0.13511923E+00 0.12546507E+04</pdfrwt>
<pdfrwt beam="2">  1       -3 0.68935319E-01 0.12546507E+04</pdfrwt>
<totfact> 0.17759405E+00</totfact>
</mgrwt>
</event>
<event>
12    6  0.1521603E-007  0.2302408E+04  0.7818608E-02  0.8476972E-01
          2   -1    0    0  501    0  0.00000000000E+00  0.00000000000E+00  0.64964032881E+03  0.64964032881E+03  0.00000000000E+00 0. -1.
         -1   -1    0    0    0  501 -0.00000000000E+00 -0.00000000000E+00 -0.20400061725E+04  0.20400061725E+04  0.00000000000E+00 0.  1.
         24    2    1    2    0    0  0.65211408695E+03  0.72711696173E+03 -0.43822074757E+03  0.10733299769E+04  0.77768614053E+02 0.  0.
        254    2    1    2    0    0 -0.65211408695E+03 -0.72711696173E+03 -0.95214509615E+03  0.16163165244E+04  0.86714875571E+03 0.  0.
         23    2    4    4    0    0 -0.45553436336E+03 -0.67721983565E+03 -0.10813724812E+04  0.13578560920E+04  0.90931081189E+02 0.  0.
         23    2    4    4    0    0 -0.19657972359E+03 -0.49897126081E+02  0.12922738501E+03  0.25846043243E+03  0.94703575309E+02 0.  0.
          4    1    3    3  502    0  0.10719084330E+03  0.15705034054E+03 -0.10493800008E+03  0.21717888989E+03  0.00000000000E+00 0. -1.
         -3    1    3    3    0  502  0.54492324365E+03  0.57006662119E+03 -0.33328274749E+03  0.85615108704E+03  0.00000000000E+00 0.  1.
         11    1    5    5    0    0 -0.39061226761E+03 -0.54730581727E+03 -0.93487538631E+03  0.11515700540E+04  0.00000000000E+00 0. -1.
        -11    1    5    5    0    0 -0.64922095752E+02 -0.12991401838E+03 -0.14649709485E+03  0.20628603803E+03  0.00000000000E+00 0.  1.
          2    1    6    6  503    0 -0.13204318663E+03 -0.72676308499E+02  0.63439054693E+02  0.16352908797E+03  0.00000000000E+00 0. -1.
         -2    1    6    6    0  503 -0.64536536962E+02  0.22779182418E+02  0.65788330317E+02  0.94931344457E+02  0.00000000000E+00 0.  1.
<mgrwt>
<rscale>  0 0.23024077E+04</rscale>
<asrwt>0</asrwt>
<pdfrwt beam="1">  1        2 0.99944667E-01 0.23024077E+04</pdfrwt>
<pdfrwt beam="2">  1       -1 0.31384710E+00 0.23024077E+04</pdfrwt>
<totfact> 0.12498665E+00</totfact>
</mgrwt>
</event>
<event>
12    6  0.1521603E-007  0.2775952E+04  0.7818608E-02  0.8310774E-01
         -1   -1    0    0    0  501 -0.00000000000E+00  0.00000000000E+00  0.16743367247E+04  0.16743367247E+04  0.00000000000E+00 0.  1.
          2   -1    0    0  501    0  0.00000000000E+00 -0.00000000000E+00 -0.11505910326E+04  0.11505910326E+04  0.00000000000E+00 0. -1.
         24    2    1    2    0    0  0.11695707214E+04  0.19751676968E+03  0.59786971262E+03  0.13305806663E+04  0.78026722596E+02 0.  0.
        254    2    1    2    0    0 -0.11695707214E+04 -0.19751676968E+03 -0.74124020543E+02  0.14943470911E+04  0.90590855580E+03 0.  0.
         23    2    4    4    0    0 -0.36022603573E+03 -0.49139275586E+03  0.54485930780E+02  0.61889556379E+03  0.93985982494E+02 0.  0.
         23    2    4    4    0    0 -0.80934468571E+03  0.29387598618E+03 -0.12860995132E+03  0.87545152730E+03  0.92048582416E+02 0.  0.
          2    1    3    3  502    0  0.87332186465E+03  0.13212263264E+03  0.47864792911E+03  0.10046150055E+04  0.00000000000E+00 0. -1.
         -1    1    3    3    0  502  0.29624885680E+03  0.65394137042E+02  0.11922178351E+03  0.32596566073E+03  0.00000000000E+00 0.  1.
         11    1    5    5    0    0 -0.86716669402E+02 -0.72093460787E+02 -0.13912468665E+02  0.11362572167E+03  0.00000000000E+00 0. -1.
        -11    1    5    5    0    0 -0.27350936633E+03 -0.41929929507E+03  0.68398399445E+02  0.50526984213E+03  0.00000000000E+00 0.  1.
          2    1    6    6  503    0 -0.27321755052E+02 -0.66284143835E+01 -0.22632831627E+01  0.28205258854E+02  0.00000000000E+00 0. -1.
         -2    1    6    6    0  503 -0.78202293066E+03  0.30050440056E+03 -0.12634666816E+03  0.84724626844E+03  0.00000000000E+00 0.  1.
<mgrwt>
<rscale>  0 0.27759516E+04</rscale>
<asrwt>0</asrwt>
<pdfrwt beam="1">  1        2 0.17701400E+00 0.27759516E+04</pdfrwt>
<pdfrwt beam="2">  1       -1 0.25759027E+00 0.27759516E+04</pdfrwt>
<totfact> 0.12536767E+00</totfact>
</mgrwt>
</event>
<event>
12    6  0.1521603E-007  0.2315057E+04  0.7818608E-02  0.8472008E-01
         -1   -1    0    0    0  501 -0.00000000000E+00  0.00000000000E+00  0.19859344529E+04  0.19859344529E+04  0.00000000000E+00 0.  1.
          2   -1    0    0  501    0  0.00000000000E+00 -0.00000000000E+00 -0.67468107600E+03  0.67468107600E+03  0.00000000000E+00 0. -1.
         24    2    1    2    0    0 -0.37373459685E+03 -0.66516305249E+03 -0.14758167641E+03  0.78072410276E+03  0.75035579162E+02 0.  0.
        254    2    1    2    0    0  0.37373459685E+03  0.66516305249E+03  0.14588350533E+04  0.18798914261E+04  0.90756411677E+03 0.  0.
         23    2    4    4    0    0  0.46702621573E+03  0.48105325588E+03  0.37688815546E+03  0.77462635052E+03  0.92062913345E+02 0.  0.
         23    2    4    4    0    0 -0.93291618886E+02  0.18410979661E+03  0.10819468978E+04  0.11052650756E+04  0.91662720224E+02 0.  0.
          2    1    3    3  502    0 -0.36412364140E+03 -0.65976364140E+03 -0.13797397738E+03  0.76610110767E+03  0.00000000000E+00 0. -1.
         -1    1    3    3    0  502 -0.96109554464E+01 -0.53994110905E+01 -0.96076990319E+01  0.14622995090E+02  0.00000000000E+00 0.  1.
         11    1    5    5    0    0  0.26043840858E+02  0.47357506458E+02  0.56008057892E+02  0.77832625636E+02  0.00000000000E+00 0.  1.
        -11    1    5    5    0    0  0.44098237488E+03  0.43369574943E+03  0.32088009757E+03  0.69679372488E+03  0.00000000000E+00 0. -1.
          2    1    6    6  503    0 -0.71885234077E+02  0.15098200068E+03  0.10048056020E+04  0.10186252251E+04  0.00000000000E+00 0. -1.
         -2    1    6    6    0  503 -0.21406384809E+02  0.33127795922E+02  0.77141295826E+02  0.86639850501E+02  0.00000000000E+00 0.  1.
<mgrwt>
<rscale>  0 0.23150571E+04</rscale>
<asrwt>0</asrwt>
<pdfrwt beam="1">  1        2 0.10379709E+00 0.23150571E+04</pdfrwt>
<pdfrwt beam="2">  1       -1 0.30552837E+00 0.23150571E+04</pdfrwt>
<totfact> 0.13489086E+00</totfact>
</mgrwt>
</event>
<event>
12    6  0.1521603E-007  0.1365177E+04  0.7818608E-02  0.8979418E-01
         -1   -1    0    0    0  501 -0.00000000000E+00  0.00000000000E+00  0.14427043990E+03  0.14427043990E+03  0.00000000000E+00 0.  1.
          2   -1    0    0  501    0  0.00000000000E+00 -0.00000000000E+00 -0.32295390193E+04  0.32295390193E+04  0.00000000000E+00 0. -1.
         24    2    1    2    0    0  0.15339695391E+03  0.16826096633E+03 -0.16264667815E+04  0.16442018982E+04  0.78506766067E+02 0.  0.
        254    2    1    2    0    0 -0.15339695391E+03 -0.16826096633E+03 -0.14588017979E+04  0.17296075610E+04  0.90088692485E+03 0.  0.
         23    2    4    4    0    0 -0.64272239946E+02 -0.48744846946E+03 -0.48567473186E+03  0.69667278497E+03  0.87955062015E+02 0.  0.
         23    2    4    4    0    0 -0.89124713966E+02  0.31918750313E+03 -0.97312706601E+03  0.10329347760E+04  0.10076749558E+03 0.  0.
          2    1    3    3  502    0  0.15365252219E+03  0.12775618023E+03 -0.13902086581E+04  0.14044966544E+04  0.00000000000E+00 0. -1.
         -1    1    3    3    0  502 -0.25556827680E+00  0.40504786105E+02 -0.23625812343E+03  0.23970524379E+03  0.00000000000E+00 0.  1.
         11    1    5    5    0    0 -0.47306040956E+02 -0.10209601773E+03 -0.89934032621E+02  0.14404717481E+03  0.00000000000E+00 0.  1.
        -11    1    5    5    0    0 -0.16966198990E+02 -0.38535245173E+03 -0.39574069924E+03  0.55262561015E+03  0.00000000000E+00 0. -1.
          3    1    6    6  503    0 -0.54847833801E+02  0.16885325086E+03 -0.36970393318E+03  0.41012279065E+03  0.00000000000E+00 0. -1.
         -3    1    6    6    0  503 -0.34276880165E+02  0.15033425227E+03 -0.60342313283E+03  0.62281198539E+03  0.00000000000E+00 0.  1.
<mgrwt>
<rscale>  0 0.13651769E+04</rscale>
<asrwt>0</asrwt>
<pdfrwt beam="1">  1        2 0.49685211E+00 0.13651769E+04</pdfrwt>
<pdfrwt beam="2">  1       -1 0.22195455E-01 0.13651769E+04</pdfrwt>
<totfact> 0.23970792E+01</totfact>
</mgrwt>
</event>
<event>
12    6  0.1521603E-007  0.1682402E+04  0.7818608E-02  0.8771465E-01
         -1   -1    0    0    0  501 -0.00000000000E+00  0.00000000000E+00  0.29759579698E+03  0.29759579698E+03  0.00000000000E+00 0.  1.
          2   -1    0    0  501    0  0.00000000000E+00 -0.00000000000E+00 -0.23777871910E+04  0.23777871910E+04  0.00000000000E+00 0. -1.
         24    2    1    2    0    0 -0.20002950510E+03  0.37006692959E+03 -0.14250593342E+04  0.14880315471E+04  0.80513624968E+02 0.  0.
        254    2    1    2    0    0  0.20002950510E+03 -0.37006692959E+03 -0.65513205982E+03  0.11873514409E+04  0.89646198645E+03 0.  0.
         23    2    4    4    0    0 -0.11480395427E+02 -0.58532667360E+03 -0.63860480721E+03  0.87116545707E+03  0.91509778157E+02 0.  0.
         23    2    4    4    0    0  0.21150990053E+03  0.21525974400E+03 -0.16527252609E+02  0.31618598384E+03  0.92882888051E+02 0.  0.
          4    1    3    3  502    0 -0.15263685882E+03  0.32584864911E+03 -0.12694709935E+04  0.13194816999E+04  0.00000000000E+00 0. -1.
         -3    1    3    3    0  502 -0.47392646275E+02  0.44218280486E+02 -0.15558834067E+03  0.16854984724E+03  0.00000000000E+00 0.  1.
         11    1    5    5    0    0  0.15230497782E+02 -0.11976443512E+03 -0.18285543035E+03  0.21911548643E+03  0.00000000000E+00 0.  1.
        -11    1    5    5    0    0 -0.26710893208E+02 -0.46556223847E+03 -0.45574937685E+03  0.65204997064E+03  0.00000000000E+00 0. -1.
          4    1    6    6  503    0  0.97017551751E+02  0.61869125240E+02  0.30591779280E+02  0.11906322256E+03  0.00000000000E+00 0. -1.
         -4    1    6    6    0  503  0.11449234877E+03  0.15339061876E+03 -0.47119031889E+02  0.19712276129E+03  0.00000000000E+00 0.  1.
<mgrwt>
<rscale>  0 0.16824024E+04</rscale>
<asrwt>0</asrwt>
<pdfrwt beam="1">  1        2 0.36581340E+00 0.16824024E+04</pdfrwt>
<pdfrwt beam="2">  1       -1 0.45783971E-01 0.16824024E+04</pdfrwt>
<totfact> 0.21086527E+01</totfact>
</mgrwt>
</event>
<event>
12    6  0.1521603E-007  0.1830341E+04  0.7818608E-02  0.8690329E-01
         -1   -1    0    0    0  501 -0.00000000000E+00  0.00000000000E+00  0.92235670968E+03  0.92235670968E+03  0.00000000000E+00 0.  1.
          2   -1    0    0  501    0  0.00000000000E+00 -0.00000000000E+00 -0.90803994267E+03  0.90803994267E+03  0.00000000000E+00 0. -1.
         24    2    1    2    0    0 -0.14688017651E+03  0.42352393319E+03  0.52313419201E+03  0.69352393482E+03  0.79748085127E+02 0.  0.
        254    2    1    2    0    0  0.14688017651E+03 -0.42352393319E+03 -0.50881742499E+03  0.11368727175E+04  0.91249005236E+03 0.  0.
         23    2    4    4    0    0  0.14262140870E+03 -0.17059215564E+03 -0.74260619789E+03  0.78082479575E+03  0.93706172270E+02 0.  0.
         23    2    4    4    0    0  0.42587678029E+01 -0.25293177755E+03  0.23378877290E+03  0.35604792178E+03  0.90112768637E+02 0.  0.
          4    1    3    3  502    0 -0.90707254067E+02  0.27807819803E+03  0.28149630733E+03  0.40595007231E+03  0.00000000000E+00 0. -1.
         -3    1    3    3    0  502 -0.56172922438E+02  0.14544573516E+03  0.24163788467E+03  0.28757386251E+03  0.00000000000E+00 0.  1.
         11    1    5    5    0    0  0.58718639915E+02 -0.11751896241E+03 -0.30485215256E+03  0.33195394277E+03  0.00000000000E+00 0.  1.
        -11    1    5    5    0    0  0.83902768788E+02 -0.53073193232E+02 -0.43775404533E+03  0.44887085298E+03  0.00000000000E+00 0. -1.
          2    1    6    6  503    0  0.85487179206E+01 -0.12801195201E+03  0.59120620546E+02  0.14126354169E+03  0.00000000000E+00 0. -1.
         -2    1    6    6    0  503 -0.42899501176E+01 -0.12491982553E+03  0.17466815236E+03  0.21478438009E+03  0.00000000000E+00 0.  1.
<mgrwt>
<rscale>  0 0.18303407E+04</rscale>
<asrwt>0</asrwt>
<pdfrwt beam="1">  1        2 0.13969845E+00 0.18303407E+04</pdfrwt>
<pdfrwt beam="2">  1       -1 0.14190103E+00 0.18303407E+04</pdfrwt>
<totfact> 0.12591105E+01</totfact>
</mgrwt>
</event>
<event>
12    6  0.1521603E-007  0.2704917E+04  0.7818608E-02  0.8333411E-01
          2   -1    0    0  501    0  0.00000000000E+00  0.00000000000E+00  0.34123552541E+04  0.34123552541E+04  0.00000000000E+00 0. -1.
         -1   -1    0    0    0  501 -0.00000000000E+00 -0.00000000000E+00 -0.53603566602E+03  0.53603566602E+03  0.00000000000E+00 0.  1.
         24    2    1    2    0    0  0.89865846891E+03 -0.38072878425E+03  0.22980699913E+04  0.24979966996E+04  0.79500789281E+02 0.  0.
        254    2    1    2    0    0 -0.89865846891E+03  0.38072878425E+03  0.57824959678E+03  0.14503942205E+04  0.90373079386E+03 0.  0.
         23    2    4    4    0    0  0.13753142811E+03  0.59444960740E+02 -0.63661947541E+02  0.18644114101E+03  0.90878261548E+02 0.  0.
         23    2    4    4    0    0 -0.10361898970E+04  0.32128382351E+03  0.64191154432E+03  0.12639530795E+04  0.92812490953E+02 0.  0.
          4    1    3    3  502    0  0.52753850735E+03 -0.19018504411E+03  0.12545673712E+04  0.13741930420E+04  0.00000000000E+00 0. -1.
         -3    1    3    3    0  502  0.37111996155E+03 -0.19054374014E+03  0.10435026200E+04  0.11238036576E+04  0.00000000000E+00 0.  1.
         11    1    5    5    0    0  0.10190467832E+03  0.61125309458E+01 -0.95633143803E+01  0.10253479156E+03  0.00000000000E+00 0. -1.
        -11    1    5    5    0    0  0.35626749785E+02  0.53332429795E+02 -0.54098633161E+02  0.83906349449E+02  0.00000000000E+00 0.  1.
          4    1    6    6  503    0 -0.58222718375E+03  0.18840493982E+03  0.30905573361E+03  0.68556572356E+03  0.00000000000E+00 0. -1.
         -4    1    6    6    0  503 -0.45396271327E+03  0.13287888369E+03  0.33285581071E+03  0.57838735592E+03  0.00000000000E+00 0.  1.
<mgrwt>
<rscale>  0 0.27049171E+04</rscale>
<asrwt>0</asrwt>
<pdfrwt beam="1">  1        2 0.52497772E+00 0.27049171E+04</pdfrwt>
<pdfrwt beam="2">  1       -1 0.82467027E-01 0.27049171E+04</pdfrwt>
<totfact> 0.13624173E+00</totfact>
</mgrwt>
</event>
<event>
12    6  0.1521603E-007  0.1201969E+04  0.7818608E-02  0.9111135E-01
         -3   -1    0    0    0  501 -0.00000000000E+00  0.00000000000E+00  0.38206312574E+03  0.38206312574E+03  0.00000000000E+00 0.  1.
          2   -1    0    0  501    0  0.00000000000E+00 -0.00000000000E+00 -0.94534658385E+03  0.94534658385E+03  0.00000000000E+00 0. -1.
         24    2    1    2    0    0 -0.16696250485E+03  0.45389608446E+02 -0.32762921039E+03  0.37852772480E+03  0.77496092570E+02 0.  0.
        254    2    1    2    0    0  0.16696250485E+03 -0.45389608446E+02 -0.23565424773E+03  0.94888198478E+03  0.90272221751E+03 0.  0.
         23    2    4    4    0    0  0.14591426993E+03 -0.16027648718E+03 -0.55294070436E+03  0.60074608732E+03  0.90404161289E+02 0.  0.
         23    2    4    4    0    0  0.21048234920E+02  0.11488687874E+03  0.31728645663E+03  0.34813589746E+03  0.82981229462E+02 0.  0.
          2    1    3    3  502    0 -0.88617753808E+02  0.44415765203E+02 -0.24677241832E+03  0.26593700933E+03  0.00000000000E+00 0. -1.
         -3    1    3    3    0  502 -0.78344751045E+02  0.97384324384E+00 -0.80856792068E+02  0.11259071547E+03  0.00000000000E+00 0.  1.
         11    1    5    5    0    0  0.28857112487E+02 -0.29915036964E+02 -0.36226237203E+02  0.55136037576E+02  0.00000000000E+00 0. -1.
        -11    1    5    5    0    0  0.11705715745E+03 -0.13036145022E+03 -0.51671446716E+03  0.54561004974E+03  0.00000000000E+00 0.  1.
          3    1    6    6  503    0  0.41113684266E+02  0.77962176002E+02  0.27390717136E+03  0.28773872601E+03  0.00000000000E+00 0.  1.
         -3    1    6    6    0  503 -0.20065449346E+02  0.36924702737E+02  0.43379285268E+02  0.60397171457E+02  0.00000000000E+00 0. -1.
<mgrwt>
<rscale>  0 0.12019685E+04</rscale>
<asrwt>0</asrwt>
<pdfrwt beam="1">  1        2 0.14543793E+00 0.12019685E+04</pdfrwt>
<pdfrwt beam="2">  1       -3 0.58778943E-01 0.12019685E+04</pdfrwt>
<totfact> 0.48670794E+01</totfact>
</mgrwt>
</event>
<event>
12    6  0.1521603E-007  0.1580163E+04  0.7818608E-02  0.8832828E-01
         -1   -1    0    0    0  501 -0.00000000000E+00  0.00000000000E+00  0.24119859759E+03  0.24119859759E+03  0.00000000000E+00 0.  1.
          2   -1    0    0  501    0  0.00000000000E+00 -0.00000000000E+00 -0.25880271658E+04  0.25880271658E+04  0.00000000000E+00 0. -1.
         24    2    1    2    0    0  0.37386825488E+03 -0.30621283237E+03 -0.12168139558E+04  0.13116573602E+04  0.79152112892E+02 0.  0.
        254    2    1    2    0    0 -0.37386825488E+03  0.30621283237E+03 -0.11300146124E+04  0.15175684032E+04  0.89024550726E+03 0.  0.
         23    2    4    4    0    0  0.21481725671E+03 -0.11455042395E+03 -0.45620888042E+03  0.52449816901E+03  0.87769774453E+02 0.  0.
         23    2    4    4    0    0 -0.58868551160E+03  0.42076325631E+03 -0.67380573202E+03  0.99307023415E+03  0.92638955190E+02 0.  0.
          4    1    3    3  502    0  0.28417163683E+03 -0.24122713744E+03 -0.10175869158E+04  0.10837099161E+04  0.00000000000E+00 0. -1.
         -3    1    3    3    0  502  0.89696618049E+02 -0.64985694933E+02 -0.19922703992E+03  0.22794744409E+03  0.00000000000E+00 0.  1.
         11    1    5    5    0    0  0.20166762872E+03 -0.11216546363E+03 -0.45607717418E+03  0.51113336079E+03  0.00000000000E+00 0.  1.
        -11    1    5    5    0    0  0.13149627999E+02 -0.23849603151E+01 -0.13170624337E+00  0.13364808220E+02  0.00000000000E+00 0. -1.
          2    1    6    6  503    0 -0.32382510909E+03  0.26345299642E+03 -0.33586661315E+03  0.53579526354E+03  0.00000000000E+00 0. -1.
         -2    1    6    6    0  503 -0.26486040251E+03  0.15731025989E+03 -0.33793911887E+03  0.45727497061E+03  0.00000000000E+00 0.  1.
<mgrwt>
<rscale>  0 0.15801627E+04</rscale>
<asrwt>0</asrwt>
<pdfrwt beam="1">  1        2 0.39815805E+00 0.15801627E+04</pdfrwt>
<pdfrwt beam="2">  1       -1 0.37107474E-01 0.15801627E+04</pdfrwt>
<totfact> 0.23688590E+01</totfact>
</mgrwt>
</event>
<event>
12    6  0.1521603E-007  0.1344685E+04  0.7818608E-02  0.8994862E-01
         -1   -1    0    0    0  501 -0.00000000000E+00  0.00000000000E+00  0.40288801592E+03  0.40288801592E+03  0.00000000000E+00 0.  1.
          2   -1    0    0  501    0  0.00000000000E+00 -0.00000000000E+00 -0.11220095221E+04  0.11220095221E+04  0.00000000000E+00 0. -1.
         24    2    1    2    0    0 -0.45891158538E+02  0.60746339234E+02 -0.59688193002E+03  0.60684170437E+03  0.78693707653E+02 0.  0.
        254    2    1    2    0    0  0.45891158538E+02 -0.60746339234E+02 -0.12223957621E+03  0.91805583369E+03  0.90669062178E+03 0.  0.
         23    2    4    4    0    0  0.11423127456E+03 -0.44040851147E+02 -0.50018957268E+03  0.52290379345E+03  0.90831646074E+02 0.  0.
         23    2    4    4    0    0 -0.68340116022E+02 -0.16705488087E+02  0.37794999647E+03  0.39515204024E+03  0.91375545336E+02 0.  0.
          4    1    3    3  502    0 -0.47037059016E+02  0.72365716108E+02 -0.57956470008E+03  0.58595607631E+03  0.00000000000E+00 0. -1.
         -3    1    3    3    0  502  0.11459004773E+01 -0.11619376875E+02 -0.17317229942E+02  0.20885628066E+02  0.00000000000E+00 0.  1.
         11    1    5    5    0    0  0.83290241950E+02 -0.71315737582E+02 -0.39437002303E+03  0.40932983509E+03  0.00000000000E+00 0. -1.
        -11    1    5    5    0    0  0.30941032611E+02  0.27274886435E+02 -0.10581954965E+03  0.11357395836E+03  0.00000000000E+00 0.  1.
          2    1    6    6  503    0 -0.60231946366E+02  0.30435695549E+02  0.21985439347E+03  0.22997863651E+03  0.00000000000E+00 0. -1.
         -2    1    6    6    0  503 -0.81081696564E+01 -0.47141183636E+02  0.15809560300E+03  0.16517340373E+03  0.00000000000E+00 0.  1.
<mgrwt>
<rscale>  0 0.13446846E+04</rscale>
<asrwt>0</asrwt>
<pdfrwt beam="1">  1        2 0.17261685E+00 0.13446846E+04</pdfrwt>
<pdfrwt beam="2">  1       -1 0.61982772E-01 0.13446846E+04</pdfrwt>
<totfact> 0.62126171E+01</totfact>
</mgrwt>
</event>
<event>
12    6  0.1521603E-007  0.1638242E+04  0.7818608E-02  0.8797393E-01
          2   -1    0    0  501    0  0.00000000000E+00  0.00000000000E+00  0.39249929479E+04  0.39249929479E+04  0.00000000000E+00 0. -1.
         -1   -1    0    0    0  501 -0.00000000000E+00 -0.00000000000E+00 -0.17094539118E+03  0.17094539118E+03  0.00000000000E+00 0.  1.
         24    2    1    2    0    0  0.25160668682E+03  0.49852601937E+03  0.10438068378E+04  0.11864459866E+04  0.79292166101E+02 0.  0.
        254    2    1    2    0    0 -0.25160668682E+03 -0.49852601937E+03  0.27102407189E+04  0.29094923525E+04  0.89883640215E+03 0.  0.
         23    2    4    4    0    0 -0.12969022998E+03 -0.60402279719E+03  0.93312609656E+03  0.11227465897E+04  0.90401866314E+02 0.  0.
         23    2    4    4    0    0 -0.12191645684E+03  0.10549677782E+03  0.17771146224E+04  0.17867457628E+04  0.91273473966E+02 0.  0.
          4    1    3    3  502    0  0.24025601079E+03  0.45247037164E+03  0.90744207360E+03  0.10420669388E+04  0.00000000000E+00 0. -1.
         -3    1    3    3    0  502  0.11350676031E+02  0.46055647728E+02  0.13636476416E+03  0.14437904778E+03  0.00000000000E+00 0.  1.
         11    1    5    5    0    0 -0.73799863666E+02 -0.21558107462E+03  0.40605813474E+03  0.46562305398E+03  0.00000000000E+00 0. -1.
        -11    1    5    5    0    0 -0.55890366316E+02 -0.38844172257E+03  0.52706796181E+03  0.65712353576E+03  0.00000000000E+00 0.  1.
          1    1    6    6  503    0 -0.37447275482E+02 -0.40922524139E+01  0.19590889159E+03  0.19949771621E+03  0.00000000000E+00 0. -1.
         -1    1    6    6    0  503 -0.84469181358E+02  0.10958903024E+03  0.15812057308E+04  0.15872480465E+04  0.00000000000E+00 0.  1.
<mgrwt>
<rscale>  0 0.16382423E+04</rscale>
<asrwt>0</asrwt>
<pdfrwt beam="1">  1        2 0.60384500E+00 0.16382423E+04</pdfrwt>
<pdfrwt beam="2">  1       -1 0.26299294E-01 0.16382423E+04</pdfrwt>
<totfact> 0.55876866E+00</totfact>
</mgrwt>
</event>
<event>
12    6  0.1521603E-007  0.3500865E+04  0.7818608E-02  0.8113585E-01
          2   -1    0    0  501    0  0.00000000000E+00  0.00000000000E+00  0.40932444820E+04  0.40932444820E+04  0.00000000000E+00 0. -1.
         -1   -1    0    0    0  501 -0.00000000000E+00 -0.00000000000E+00 -0.74855381306E+03  0.74855381306E+03  0.00000000000E+00 0.  1.
         24    2    1    2    0    0 -0.14114351395E+04 -0.82229795153E+03  0.14903959870E+04  0.22127432332E+04  0.81420782058E+02 0.  0.
        254    2    1    2    0    0  0.14114351395E+04  0.82229795153E+03  0.18542946820E+04  0.26290550619E+04  0.89732863355E+03 0.  0.
         23    2    4    4    0    0 -0.10654197531E+03  0.20436272669E+02  0.17348383424E+03  0.22480828872E+03  0.93130511599E+02 0.  0.
         23    2    4    4    0    0  0.15179771149E+04  0.80186167886E+03  0.16808108477E+04  0.24042467732E+04  0.89670324890E+02 0.  0.
          4    1    3    3  502    0 -0.29776839683E+03 -0.14504921760E+03  0.33172037570E+03  0.46876828106E+03  0.00000000000E+00 0. -1.
         -3    1    3    3    0  502 -0.11136667427E+04 -0.67724873392E+03  0.11586756113E+04  0.17439749521E+04  0.00000000000E+00 0.  1.
         11    1    5    5    0    0 -0.54055868980E+02  0.31427812136E+02  0.25713204193E+02  0.67608529171E+02  0.00000000000E+00 0. -1.
        -11    1    5    5    0    0 -0.52486106330E+02 -0.10991539467E+02  0.14777063005E+03  0.15719975955E+03  0.00000000000E+00 0.  1.
          1    1    6    6  503    0  0.13993694093E+04  0.74944938479E+03  0.15829309628E+04  0.22417804435E+04  0.00000000000E+00 0. -1.
         -1    1    6    6    0  503  0.11860770556E+03  0.52412294070E+02  0.97879884926E+02  0.16246632962E+03  0.00000000000E+00 0.  1.
<mgrwt>
<rscale>  0 0.35008649E+04</rscale>
<asrwt>0</asrwt>
<pdfrwt beam="1">  1        2 0.62972990E+00 0.35008649E+04</pdfrwt>
<pdfrwt beam="2">  1       -1 0.11516213E+00 0.35008649E+04</pdfrwt>
<totfact> 0.18235157E-01</totfact>
</mgrwt>
</event>
<event>
12    6  0.1521603E-007  0.2944745E+04  0.7818608E-02  0.8259688E-01
         -1   -1    0    0    0  501 -0.00000000000E+00  0.00000000000E+00  0.13403786501E+04  0.13403786501E+04  0.00000000000E+00 0.  1.
          2   -1    0    0  501    0  0.00000000000E+00 -0.00000000000E+00 -0.16173649818E+04  0.16173649818E+04  0.00000000000E+00 0. -1.
         24    2    1    2    0    0 -0.24181994441E+03 -0.67431805102E+03  0.10017287352E+04  0.12340632372E+04  0.79182668631E+02 0.  0.
        254    2    1    2    0    0  0.24181994441E+03  0.67431805102E+03 -0.12787150669E+04  0.17236803946E+04  0.90707230197E+03 0.  0.
         23    2    4    4    0    0  0.56902453643E+03  0.52081366702E+03 -0.94674916554E+03  0.12245261932E+04  0.89970086554E+02 0.  0.
         23    2    4    4    0    0 -0.32720459202E+03  0.15350438401E+03 -0.33196590136E+03  0.49915420145E+03  0.91253033971E+02 0.  0.
          4    1    3    3  502    0 -0.13525940831E+03 -0.43211358815E+03  0.57382373159E+03  0.73095207472E+03  0.00000000000E+00 0. -1.
         -3    1    3    3    0  502 -0.10656053609E+03 -0.24220446288E+03  0.42790500362E+03  0.50311116248E+03  0.00000000000E+00 0.  1.
         11    1    5    5    0    0  0.22004869822E+03  0.23571697016E+03 -0.33815793704E+03  0.46726299874E+03  0.00000000000E+00 0.  1.
        -11    1    5    5    0    0  0.34897583820E+03  0.28509669685E+03 -0.60859122851E+03  0.75726319442E+03  0.00000000000E+00 0. -1.
          3    1    6    6  503    0 -0.23380889155E+03  0.10795200042E+03 -0.17667844405E+03  0.31230674785E+03  0.00000000000E+00 0. -1.
         -3    1    6    6    0  503 -0.93395700473E+02  0.45552383585E+02 -0.15528745732E+03  0.18684745360E+03  0.00000000000E+00 0.  1.
<mgrwt>
<rscale>  0 0.29447455E+04</rscale>
<asrwt>0</asrwt>
<pdfrwt beam="1">  1        2 0.24882538E+00 0.29447455E+04</pdfrwt>
<pdfrwt beam="2">  1       -1 0.20621210E+00 0.29447455E+04</pdfrwt>
<totfact> 0.14564426E+00</totfact>
</mgrwt>
</event>
<event>
12    6  0.1521603E-007  0.1269650E+04  0.7818608E-02  0.9053986E-01
         -1   -1    0    0    0  501 -0.00000000000E+00  0.00000000000E+00  0.62949708983E+03  0.62949708983E+03  0.00000000000E+00 0.  1.
          2   -1    0    0  501    0  0.00000000000E+00 -0.00000000000E+00 -0.64019765292E+03  0.64019765292E+03  0.00000000000E+00 0. -1.
         24    2    1    2    0    0 -0.15523754097E+02 -0.23825240256E+03 -0.19791246197E+03  0.32063829149E+03  0.81451685681E+02 0.  0.
        254    2    1    2    0    0  0.15523754097E+02  0.23825240256E+03  0.18721189887E+03  0.94905645126E+03  0.89925227736E+03 0.  0.
         23    2    4    4    0    0 -0.35594844073E+03  0.37071971870E+03  0.77910285636E+02  0.52757635111E+03  0.90190860664E+02 0.  0.
         23    2    4    4    0    0  0.37147219483E+03 -0.13246731614E+03  0.10930161324E+03  0.42148010016E+03  0.10079410102E+03 0.  0.
          2    1    3    3  502    0  0.26288507958E+01 -0.20732136367E+03 -0.13256045072E+03  0.24609212052E+03  0.00000000000E+00 0. -1.
         -1    1    3    3    0  502 -0.18152604893E+02 -0.30931038895E+02 -0.65352011249E+02  0.74546170967E+02  0.00000000000E+00 0.  1.
         11    1    5    5    0    0 -0.27650026583E+03  0.26530392996E+03  0.20827852180E+02  0.38376082615E+03  0.00000000000E+00 0. -1.
        -11    1    5    5    0    0 -0.79448174894E+02  0.10541578874E+03  0.57082433456E+02  0.14381552496E+03  0.00000000000E+00 0.  1.
          2    1    6    6  503    0  0.31918827727E+03 -0.14676453095E+03  0.10692454524E+03  0.36722451207E+03  0.00000000000E+00 0. -1.
         -2    1    6    6    0  503  0.52283917561E+02  0.14297214812E+02  0.23770679977E+01  0.54255588091E+02  0.00000000000E+00 0.  1.
<mgrwt>
<rscale>  0 0.12696497E+04</rscale>
<asrwt>0</asrwt>
<pdfrwt beam="1">  1        2 0.98491947E-01 0.12696497E+04</pdfrwt>
<pdfrwt beam="2">  1       -1 0.96845706E-01 0.12696497E+04</pdfrwt>
<totfact> 0.52742379E+01</totfact>
</mgrwt>
</event>
<event>
12    6  0.1521603E-007  0.1573248E+04  0.7818608E-02  0.8837153E-01
         -1   -1    0    0    0  501 -0.00000000000E+00  0.00000000000E+00  0.44851983911E+03  0.44851983911E+03  0.00000000000E+00 0.  1.
          2   -1    0    0  501    0  0.00000000000E+00 -0.00000000000E+00 -0.13795993390E+04  0.13795993390E+04  0.00000000000E+00 0. -1.
         24    2    1    2    0    0  0.13049773197E+03 -0.15402213396E+03  0.25939341192E+03  0.33824262626E+03  0.79816390985E+02 0.  0.
        254    2    1    2    0    0 -0.13049773197E+03  0.15402213396E+03 -0.11904729118E+04  0.14898765518E+04  0.87278514548E+03 0.  0.
         23    2    4    4    0    0 -0.39446358826E+03 -0.10168412297E+02 -0.20831051348E+03  0.45551062404E+03  0.91606438145E+02 0.  0.
         23    2    4    4    0    0  0.26396585630E+03  0.16419054626E+03 -0.98216239831E+03  0.10343659278E+04  0.92916021991E+02 0.  0.
          2    1    3    3  502    0 -0.26574192594E+01 -0.10524631318E+02  0.51724768136E+02  0.52851503103E+02  0.00000000000E+00 0. -1.
         -1    1    3    3    0  502  0.13315515123E+03 -0.14349750264E+03  0.20766864378E+03  0.28539112315E+03  0.00000000000E+00 0.  1.
         11    1    5    5    0    0 -0.36850431097E+03 -0.31010434926E+02 -0.17769930693E+03  0.41028541037E+03  0.00000000000E+00 0. -1.
        -11    1    5    5    0    0 -0.25959277294E+02  0.20842022629E+02 -0.30611206551E+02  0.45225213669E+02  0.00000000000E+00 0.  1.
          2    1    6    6  503    0  0.18827829506E+03  0.16124709554E+03 -0.71985384721E+03  0.76134020224E+03  0.00000000000E+00 0. -1.
         -2    1    6    6    0  503  0.75687561238E+02  0.29434507192E+01 -0.26230855110E+03  0.27302572554E+03  0.00000000000E+00 0.  1.
<mgrwt>
<rscale>  0 0.15732485E+04</rscale>
<asrwt>0</asrwt>
<pdfrwt beam="1">  1        2 0.21224605E+00 0.15732485E+04</pdfrwt>
<pdfrwt beam="2">  1       -1 0.69003053E-01 0.15732485E+04</pdfrwt>
<totfact> 0.34596621E+01</totfact>
</mgrwt>
</event>
<event>
12    6  0.1602714E-007  0.2096043E+04  0.7818608E-02  0.8562988E-01
         -1   -1    0    0    0  501 -0.00000000000E+00  0.00000000000E+00  0.81557532463E+03  0.81557532463E+03  0.00000000000E+00 0.  1.
          2   -1    0    0  501    0  0.00000000000E+00 -0.00000000000E+00 -0.13467169724E+04  0.13467169724E+04  0.00000000000E+00 0. -1.
         24    2    1    2    0    0  0.32220843991E+03  0.12886560790E+02 -0.10325162399E+04  0.10846353808E+04  0.79748237411E+02 0.  0.
        254    2    1    2    0    0 -0.32220843991E+03 -0.12886560790E+02  0.50137459216E+03  0.10776569162E+04  0.89776589667E+03 0.  0.
         23    2    4    4    0    0 -0.74045620258E+02 -0.34650051202E+03 -0.62760644701E+02  0.37116788893E+03  0.91001893047E+02 0.  0.
         23    2    4    4    0    0 -0.24816281965E+03  0.33361395123E+03  0.56413523686E+03  0.70648902729E+03  0.89415472404E+02 0.  0.
          2    1    3    3  502    0  0.31008848508E+03  0.27535353276E+01 -0.91631778941E+03  0.96736794537E+03  0.00000000000E+00 0. -1.
         -1    1    3    3    0  502  0.12119954827E+02  0.10133025462E+02 -0.11619845050E+03  0.11726743541E+03  0.00000000000E+00 0.  1.
         11    1    5    5    0    0 -0.53357439832E+02 -0.33650427799E+03 -0.48545366397E+02  0.34414938339E+03  0.00000000000E+00 0. -1.
        -11    1    5    5    0    0 -0.20688180426E+02 -0.99962340320E+01 -0.14215278304E+02  0.27018505537E+02  0.00000000000E+00 0.  1.
          1    1    6    6  503    0 -0.21889788639E+03  0.28420876960E+03  0.52901773384E+03  0.63917968686E+03  0.00000000000E+00 0. -1.
         -1    1    6    6    0  503 -0.29264933253E+02  0.49405181632E+02  0.35117503025E+02  0.67309340430E+02  0.00000000000E+00 0.  1.
<mgrwt>
<rscale>  0 0.20960431E+04</rscale>
<asrwt>0</asrwt>
<pdfrwt beam="1">  1        2 0.20718723E+00 0.20960431E+04</pdfrwt>
<pdfrwt beam="2">  1       -1 0.12547313E+00 0.20960431E+04</pdfrwt>
<totfact> 0.90457418E+00</totfact>
</mgrwt>
</event>
<event>
12    6  0.1521603E-007  0.1103601E+04  0.7818608E-02  0.9201689E-01
         -1   -1    0    0    0  501 -0.00000000000E+00  0.00000000000E+00  0.50608756377E+03  0.50608756377E+03  0.00000000000E+00 0.  1.
          2   -1    0    0  501    0  0.00000000000E+00 -0.00000000000E+00 -0.60164215556E+03  0.60164215556E+03  0.00000000000E+00 0. -1.
         24    2    1    2    0    0  0.16123873717E+03  0.60313778086E+02 -0.26519281569E+02  0.18989292580E+03  0.75633119608E+02 0.  0.
        254    2    1    2    0    0 -0.16123873717E+03 -0.60313778086E+02 -0.69035310223E+02  0.91783679353E+03  0.89890089738E+03 0.  0.
         23    2    4    4    0    0  0.11325877065E+03 -0.32784740824E+03 -0.29422816742E+03  0.46402297522E+03  0.91845711975E+02 0.  0.
         23    2    4    4    0    0 -0.27449750782E+03  0.26753363015E+03  0.22519285719E+03  0.45381381831E+03  0.91170355340E+02 0.  0.
          4    1    3    3  502    0  0.16691215945E+03  0.51252872732E+02 -0.32559861866E+02  0.17761382418E+03  0.00000000000E+00 0. -1.
         -3    1    3    3    0  502 -0.56734222793E+01  0.90609053533E+01  0.60405802966E+01  0.12279101616E+02  0.00000000000E+00 0.  1.
         11    1    5    5    0    0  0.26550255388E+02 -0.88303383736E+01 -0.18544293204E+02  0.33567569876E+02  0.00000000000E+00 0. -1.
        -11    1    5    5    0    0  0.86708515262E+02 -0.31901706987E+03 -0.27568387421E+03  0.43045540534E+03  0.00000000000E+00 0.  1.
          1    1    6    6  503    0 -0.62962268956E+02  0.12124508243E+03  0.71467885211E+02  0.15418260583E+03  0.00000000000E+00 0. -1.
         -1    1    6    6    0  503 -0.21153523887E+03  0.14628854773E+03  0.15372497198E+03  0.29963121248E+03  0.00000000000E+00 0.  1.
<mgrwt>
<rscale>  0 0.11036007E+04</rscale>
<asrwt>0</asrwt>
<pdfrwt beam="1">  1        2 0.92560331E-01 0.11036007E+04</pdfrwt>
<pdfrwt beam="2">  1       -1 0.77859625E-01 0.11036007E+04</pdfrwt>
<totfact> 0.92709278E+01</totfact>
</mgrwt>
</event>
<event>
12    6  0.1521603E-007  0.1641112E+04  0.7818608E-02  0.8795682E-01
          2   -1    0    0  501    0  0.00000000000E+00  0.00000000000E+00  0.21954128923E+04  0.21954128923E+04  0.00000000000E+00 0. -1.
         -1   -1    0    0    0  501 -0.00000000000E+00 -0.00000000000E+00 -0.30669025863E+03  0.30669025863E+03  0.00000000000E+00 0.  1.
         24    2    1    2    0    0 -0.26260355505E+03  0.47319536150E+03  0.92030888324E+03  0.10705756973E+04  0.79305773443E+02 0.  0.
        254    2    1    2    0    0  0.26260355505E+03 -0.47319536150E+03  0.96841375043E+03  0.14315274537E+04  0.90474923672E+03 0.  0.
         23    2    4    4    0    0  0.11838920217E+02 -0.45636757522E+03  0.10529855226E+04  0.11511930983E+04  0.89752521244E+02 0.  0.
         23    2    4    4    0    0  0.25076463484E+03 -0.16827786284E+02 -0.84571772127E+02  0.28033435540E+03  0.90933435563E+02 0.  0.
          4    1    3    3  502    0 -0.25673255392E+03  0.41216855779E+03  0.82220086202E+03  0.95488679004E+03  0.00000000000E+00 0. -1.
         -3    1    3    3    0  502 -0.58710011302E+01  0.61026803710E+02  0.98108021219E+02  0.11568890722E+03  0.00000000000E+00 0.  1.
         11    1    5    5    0    0  0.10901877480E+02 -0.67981123714E+01  0.13407114516E+02  0.18569221418E+02  0.00000000000E+00 0.  1.
        -11    1    5    5    0    0  0.93704273725E+00 -0.44956946285E+03  0.10395784080E+04  0.11326238769E+04  0.00000000000E+00 0. -1.
          3    1    6    6  503    0  0.18634312433E+03  0.16917814304E+02 -0.30199283256E+02  0.18953091868E+03  0.00000000000E+00 0. -1.
         -3    1    6    6    0  503  0.64421510502E+02 -0.33745600588E+02 -0.54372488871E+02  0.90803436722E+02  0.00000000000E+00 0.  1.
<mgrwt>
<rscale>  0 0.16411115E+04</rscale>
<asrwt>0</asrwt>
<pdfrwt beam="1">  1        2 0.33775582E+00 0.16411115E+04</pdfrwt>
<pdfrwt beam="2">  1       -1 0.47183118E-01 0.16411115E+04</pdfrwt>
<totfact> 0.25354626E+01</totfact>
</mgrwt>
</event>
<event>
12    6  0.1521603E-007  0.1169801E+04  0.7818608E-02  0.9139708E-01
          2   -1    0    0  501    0  0.00000000000E+00  0.00000000000E+00  0.22918852310E+03  0.22918852310E+03  0.00000000000E+00 0. -1.
         -1   -1    0    0    0  501 -0.00000000000E+00 -0.00000000000E+00 -0.14926945617E+04  0.14926945617E+04  0.00000000000E+00 0.  1.
         24    2    1    2    0    0  0.63639519514E+02 -0.14792438757E+03 -0.36787411968E+03  0.40915884093E+03  0.78409032025E+02 0.  0.
        254    2    1    2    0    0 -0.63639519514E+02  0.14792438757E+03 -0.89563191893E+03  0.13127242439E+04  0.94612726067E+03 0.  0.
         23    2    4    4    0    0 -0.19037150752E+03 -0.13068968247E+02 -0.10296914211E+04  0.10512581299E+04  0.92016976953E+02 0.  0.
         23    2    4    4    0    0  0.12673198800E+03  0.16099335582E+03  0.13405950222E+03  0.26146611400E+03  0.91720887670E+02 0.  0.
          2    1    3    3  502    0  0.21512528354E+02 -0.85939710383E+02 -0.11354363985E+03  0.14401590484E+03  0.00000000000E+00 0. -1.
         -1    1    3    3    0  502  0.42126991161E+02 -0.61984677186E+02 -0.25433047982E+03  0.26514293609E+03  0.00000000000E+00 0.  1.
         11    1    5    5    0    0 -0.57246110604E+02  0.29262022424E+02 -0.20581991614E+03  0.21562750524E+03  0.00000000000E+00 0. -1.
        -11    1    5    5    0    0 -0.13312539691E+03 -0.42330990671E+02 -0.82387150500E+03  0.83563062464E+03  0.00000000000E+00 0.  1.
          4    1    6    6  503    0  0.93207031191E+02  0.47919464393E+02  0.79356297303E+02  0.13145815932E+03  0.00000000000E+00 0. -1.
         -4    1    6    6    0  503  0.33524956811E+02  0.11307389142E+03  0.54703204914E+02  0.13000795468E+03  0.00000000000E+00 0.  1.
<mgrwt>
<rscale>  0 0.11698008E+04</rscale>
<asrwt>0</asrwt>
<pdfrwt beam="1">  1        2 0.35259775E-01 0.11698008E+04</pdfrwt>
<pdfrwt beam="2">  1       -1 0.22964530E+00 0.11698008E+04</pdfrwt>
<totfact> 0.15994562E+01</totfact>
</mgrwt>
</event>
<event>
12    6  0.1521603E-007  0.1367411E+04  0.7818608E-02  0.8977752E-01
          2   -1    0    0  501    0  0.00000000000E+00  0.00000000000E+00  0.19769868694E+04  0.19769868694E+04  0.00000000000E+00 0. -1.
         -1   -1    0    0    0  501 -0.00000000000E+00 -0.00000000000E+00 -0.23644737230E+03  0.23644737230E+03  0.00000000000E+00 0.  1.
         24    2    1    2    0    0  0.25520414444E+02 -0.10349998549E+03  0.11003330346E+04  0.11082147201E+04  0.77740210247E+02 0.  0.
        254    2    1    2    0    0 -0.25520414444E+02  0.10349998549E+03  0.64020646257E+03  0.11052195217E+04  0.89458500870E+03 0.  0.
         23    2    4    4    0    0  0.74582834411E+02 -0.30091182263E+03 -0.15079452101E+02  0.32359156660E+03  0.91507310696E+02 0.  0.
         23    2    4    4    0    0 -0.10010324885E+03  0.40441180812E+03  0.65528591468E+03  0.78162795506E+03  0.89291988345E+02 0.  0.
          4    1    3    3  502    0 -0.70264404052E+01 -0.97132286408E+02  0.74518493539E+03  0.75152154983E+03  0.00000000000E+00 0. -1.
         -3    1    3    3    0  502  0.32546854849E+02 -0.63676990774E+01  0.35514809916E+03  0.35669317023E+03  0.00000000000E+00 0.  1.
         11    1    5    5    0    0  0.74553858120E+02 -0.25288806548E+03  0.19568054107E+02  0.26437390220E+03  0.00000000000E+00 0. -1.
        -11    1    5    5    0    0  0.28976290921E-01 -0.48023757150E+02 -0.34647506208E+02  0.59217664399E+02  0.00000000000E+00 0.  1.
          4    1    6    6  503    0 -0.67728685975E+02  0.33533863714E+03  0.47062415697E+03  0.58183010715E+03  0.00000000000E+00 0. -1.
         -4    1    6    6    0  503 -0.32374562879E+02  0.69073170979E+02  0.18466175770E+03  0.19979784791E+03  0.00000000000E+00 0.  1.
<mgrwt>
<rscale>  0 0.13674112E+04</rscale>
<asrwt>0</asrwt>
<pdfrwt beam="1">  1        2 0.30415181E+00 0.13674112E+04</pdfrwt>
<pdfrwt beam="2">  1       -1 0.36376520E-01 0.13674112E+04</pdfrwt>
<totfact> 0.55392129E+01</totfact>
</mgrwt>
</event>
<event>
12    6  0.1521603E-007  0.1496480E+04  0.7818608E-02  0.8886797E-01
          2   -1    0    0  501    0  0.00000000000E+00  0.00000000000E+00  0.90710089245E+03  0.90710089245E+03  0.00000000000E+00 0. -1.
         -1   -1    0    0    0  501 -0.00000000000E+00 -0.00000000000E+00 -0.61720019251E+03  0.61720019251E+03  0.00000000000E+00 0.  1.
         24    2    1    2    0    0  0.25109673674E+03 -0.49366817910E+01 -0.27194444945E+03  0.37881064188E+03  0.80434922694E+02 0.  0.
        254    2    1    2    0    0 -0.25109673674E+03  0.49366817910E+01  0.56184514939E+03  0.11454904431E+04  0.96612858422E+03 0.  0.
         23    2    4    4    0    0  0.34494206157E+03 -0.71494481902E+01  0.36638330634E+03  0.51158695952E+03  0.91914903797E+02 0.  0.
         23    2    4    4    0    0 -0.59603879831E+03  0.12086129981E+02  0.19546184305E+03  0.63390348355E+03  0.90664054298E+02 0.  0.
          2    1    3    3  502    0  0.66936160676E+02 -0.32487934174E+02 -0.52785866731E+02  0.91226439147E+02  0.00000000000E+00 0. -1.
         -1    1    3    3    0  502  0.18416057607E+03  0.27551252383E+02 -0.21915858272E+03  0.28758420274E+03  0.00000000000E+00 0.  1.
         11    1    5    5    0    0  0.13703755140E+02  0.20453621508E+02  0.27323958004E+02  0.36779644082E+02  0.00000000000E+00 0.  1.
        -11    1    5    5    0    0  0.33123830643E+03 -0.27603069698E+02  0.33905934833E+03  0.47480731544E+03  0.00000000000E+00 0. -1.
          1    1    6    6  503    0 -0.27487540352E+03  0.40860947153E+02  0.60828631412E+02  0.28447535370E+03  0.00000000000E+00 0. -1.
         -1    1    6    6    0  503 -0.32116339479E+03 -0.28774817172E+02  0.13463321164E+03  0.34942812985E+03  0.00000000000E+00 0.  1.
<mgrwt>
<rscale>  0 0.14964797E+04</rscale>
<asrwt>0</asrwt>
<pdfrwt beam="1">  1        2 0.13955398E+00 0.14964797E+04</pdfrwt>
<pdfrwt beam="2">  1       -1 0.94953876E-01 0.14964797E+04</pdfrwt>
<totfact> 0.34296669E+01</totfact>
</mgrwt>
</event>
<event>
12    6  0.1521603E-007  0.1799679E+04  0.7818608E-02  0.8706470E-01
          2   -1    0    0  501    0  0.00000000000E+00  0.00000000000E+00  0.66135286264E+03  0.66135286264E+03  0.00000000000E+00 0. -1.
         -1   -1    0    0    0  501 -0.00000000000E+00 -0.00000000000E+00 -0.12243256107E+04  0.12243256107E+04  0.00000000000E+00 0.  1.
         24    2    1    2    0    0 -0.47733818480E+03 -0.36945844104E+03 -0.50348675810E+03  0.79015356438E+03  0.80575786690E+02 0.  0.
        254    2    1    2    0    0  0.47733818480E+03  0.36945844104E+03 -0.59485989963E+02  0.10955249090E+04  0.91229653120E+03 0.  0.
         23    2    4    4    0    0  0.42144663417E+03  0.48182719078E+03 -0.37206493103E+03  0.74650905743E+03  0.95229998910E+02 0.  0.
         23    2    4    4    0    0  0.55891550630E+02 -0.11236874974E+03  0.31257894107E+03  0.34901585154E+03  0.91410441828E+02 0.  0.
          2    1    3    3  502    0 -0.14886071419E+03 -0.16255678630E+03 -0.19515952697E+03  0.29440017318E+03  0.00000000000E+00 0. -1.
         -1    1    3    3    0  502 -0.32847747061E+03 -0.20690165474E+03 -0.30832723113E+03  0.49575339120E+03  0.00000000000E+00 0.  1.
         11    1    5    5    0    0  0.46198053623E+02  0.95375730432E+02 -0.86733785642E+02  0.13694356387E+03  0.00000000000E+00 0. -1.
        -11    1    5    5    0    0  0.37524858054E+03  0.38645146035E+03 -0.28533114539E+03  0.60956549356E+03  0.00000000000E+00 0.  1.
          1    1    6    6  503    0  0.19810185737E+02  0.59508776021E+01  0.10787308339E+03  0.10983832903E+03  0.00000000000E+00 0. -1.
         -1    1    6    6    0  503  0.36081364892E+02 -0.11831962734E+03  0.20470585768E+03  0.23917752251E+03  0.00000000000E+00 0.  1.
<mgrwt>
<rscale>  0 0.17996791E+04</rscale>
<asrwt>0</asrwt>
<pdfrwt beam="1">  1        2 0.10174660E+00 0.17996791E+04</pdfrwt>
<pdfrwt beam="2">  1       -1 0.18835778E+00 0.17996791E+04</pdfrwt>
<totfact> 0.86083476E+00</totfact>
</mgrwt>
</event>
<event>
12    6  0.1521603E-007  0.1841760E+04  0.7818608E-02  0.8684402E-01
          2   -1    0    0  501    0  0.00000000000E+00  0.00000000000E+00  0.86229327375E+03  0.86229327375E+03  0.00000000000E+00 0. -1.
         -1   -1    0    0    0  501 -0.00000000000E+00 -0.00000000000E+00 -0.98344775627E+03  0.98344775627E+03  0.00000000000E+00 0.  1.
         24    2    1    2    0    0  0.36351193799E+03 -0.27178476422E+03 -0.57750340747E+03  0.73885618648E+03  0.79939924581E+02 0.  0.
        254    2    1    2    0    0 -0.36351193799E+03  0.27178476422E+03  0.45634892494E+03  0.11068848435E+04  0.90051753367E+03 0.  0.
         23    2    4    4    0    0 -0.64954009743E+03  0.19236843773E+03  0.22654975463E+03  0.72006773622E+03  0.90910942177E+02 0.  0.
         23    2    4    4    0    0  0.28602815944E+03  0.79416326487E+02  0.22979917031E+03  0.38681710732E+03  0.93277837335E+02 0.  0.
          4    1    3    3  502    0  0.17942707547E+03 -0.18369617307E+03 -0.31980316259E+03  0.41013707734E+03  0.00000000000E+00 0. -1.
         -3    1    3    3    0  502  0.18408486252E+03 -0.88088591146E+02 -0.25770024488E+03  0.32871910914E+03  0.00000000000E+00 0.  1.
         11    1    5    5    0    0 -0.60713023594E+03  0.16780916092E+03  0.23086747886E+03  0.67087020404E+03  0.00000000000E+00 0. -1.
        -11    1    5    5    0    0 -0.42409861493E+02  0.24559276812E+02 -0.43177242233E+01  0.49197532173E+02  0.00000000000E+00 0.  1.
          2    1    6    6  503    0  0.27399942404E+03  0.48880492207E+02  0.20442951738E+03  0.34533522043E+03  0.00000000000E+00 0. -1.
         -2    1    6    6    0  503  0.12028735398E+02  0.30535834280E+02  0.25369652925E+02  0.41481886890E+02  0.00000000000E+00 0.  1.
<mgrwt>
<rscale>  0 0.18417604E+04</rscale>
<asrwt>0</asrwt>
<pdfrwt beam="1">  1        2 0.13266050E+00 0.18417604E+04</pdfrwt>
<pdfrwt beam="2">  1       -1 0.15129965E+00 0.18417604E+04</pdfrwt>
<totfact> 0.11390840E+01</totfact>
</mgrwt>
</event>
<event>
12    6  0.1521603E-007  0.1686151E+04  0.7818608E-02  0.8769302E-01
         -1   -1    0    0    0  501 -0.00000000000E+00  0.00000000000E+00  0.42414214641E+03  0.42414214641E+03  0.00000000000E+00 0.  1.
          2   -1    0    0  501    0  0.00000000000E+00 -0.00000000000E+00 -0.16757977441E+04  0.16757977441E+04  0.00000000000E+00 0. -1.
         24    2    1    2    0    0  0.18849402422E+03 -0.52155794470E+03 -0.75460212214E+03  0.93980436993E+03  0.79089848627E+02 0.  0.
        254    2    1    2    0    0 -0.18849402422E+03  0.52155794470E+03 -0.49705347557E+03  0.11601355206E+04  0.88955021318E+03 0.  0.
         23    2    4    4    0    0  0.30675759029E+03  0.15764302533E+03 -0.39181457936E+03  0.52996097901E+03  0.91588383708E+02 0.  0.
         23    2    4    4    0    0 -0.49525161451E+03  0.36391491937E+03 -0.10523889621E+03  0.63017454161E+03  0.91304421572E+02 0.  0.
          2    1    3    3  502    0  0.18711859942E+03 -0.47514454006E+03 -0.71583204746E+03  0.87931292744E+03  0.00000000000E+00 0. -1.
         -1    1    3    3    0  502  0.13754247956E+01 -0.46413404633E+02 -0.38770074683E+02  0.60491442486E+02  0.00000000000E+00 0.  1.
         11    1    5    5    0    0  0.20558551004E+03  0.12966432435E+03 -0.21586453093E+03  0.32507804395E+03  0.00000000000E+00 0.  1.
        -11    1    5    5    0    0  0.10117208025E+03  0.27978700977E+02 -0.17595004844E+03  0.20488293505E+03  0.00000000000E+00 0. -1.
          3    1    6    6  503    0 -0.38615652342E+03  0.32029197949E+03 -0.10553555331E+03  0.51268076394E+03  0.00000000000E+00 0. -1.
         -3    1    6    6    0  503 -0.10909509109E+03  0.43622939879E+02  0.29665710284E+00  0.11749377767E+03  0.00000000000E+00 0.  1.
<mgrwt>
<rscale>  0 0.16861512E+04</rscale>
<asrwt>0</asrwt>
<pdfrwt beam="1">  1        2 0.25781504E+00 0.16861512E+04</pdfrwt>
<pdfrwt beam="2">  1       -1 0.65252638E-01 0.16861512E+04</pdfrwt>
<totfact> 0.26136596E+01</totfact>
</mgrwt>
</event>
<event>
12    6  0.1521603E-007  0.1725479E+04  0.7818608E-02  0.8746965E-01
         -1   -1    0    0    0  501 -0.00000000000E+00  0.00000000000E+00  0.53547723723E+03  0.53547723723E+03  0.00000000000E+00 0.  1.
          2   -1    0    0  501    0  0.00000000000E+00 -0.00000000000E+00 -0.13900109012E+04  0.13900109012E+04  0.00000000000E+00 0. -1.
         24    2    1    2    0    0 -0.54562005514E+03  0.26044007362E+03 -0.28437866146E+03  0.67405093785E+03  0.89124447852E+02 0.  0.
        254    2    1    2    0    0  0.54562005514E+03 -0.26044007362E+03 -0.57015500249E+03  0.12514372006E+04  0.93567519129E+03 0.  0.
         23    2    4    4    0    0  0.63183522985E+03  0.12844811739E+03 -0.15619268094E+03  0.67012670572E+03  0.94651844099E+02 0.  0.
         23    2    4    4    0    0 -0.86215174714E+02 -0.38888819101E+03 -0.41396232155E+03  0.58131049486E+03  0.88825707492E+02 0.  0.
          4    1    3    3  502    0 -0.15221852655E+03  0.11149859245E+03 -0.11219955458E+03  0.21952484140E+03  0.00000000000E+00 0. -1.
         -3    1    3    3    0  502 -0.39340152858E+03  0.14894148117E+03 -0.17217910689E+03  0.45452609645E+03  0.00000000000E+00 0.  1.
         11    1    5    5    0    0  0.20039003061E+02  0.18588459370E+02  0.54503726610E+01  0.27871114574E+02  0.00000000000E+00 0. -1.
        -11    1    5    5    0    0  0.61179622679E+03  0.10985965802E+03 -0.16164305360E+03  0.64225559114E+03  0.00000000000E+00 0.  1.
          3    1    6    6  503    0  0.64291940798E+01 -0.12568258180E+03 -0.96063456562E+02  0.15832129860E+03  0.00000000000E+00 0. -1.
         -3    1    6    6    0  503 -0.92644368794E+02 -0.26320560921E+03 -0.31789886499E+03  0.42298919625E+03  0.00000000000E+00 0.  1.
<mgrwt>
<rscale>  0 0.17254787E+04</rscale>
<asrwt>0</asrwt>
<pdfrwt beam="1">  1        2 0.21384783E+00 0.17254787E+04</pdfrwt>
<pdfrwt beam="2">  1       -1 0.82381116E-01 0.17254787E+04</pdfrwt>
<totfact> 0.23249647E+01</totfact>
</mgrwt>
</event>
<event>
12    6  0.1521603E-007  0.1354018E+04  0.7818608E-02  0.8987792E-01
          2   -1    0    0  501    0  0.00000000000E+00  0.00000000000E+00  0.56084796993E+03  0.56084796993E+03  0.00000000000E+00 0. -1.
         -1   -1    0    0    0  501 -0.00000000000E+00 -0.00000000000E+00 -0.81722922517E+03  0.81722922517E+03  0.00000000000E+00 0.  1.
         24    2    1    2    0    0  0.19125951533E+03 -0.64785314773E+02 -0.38581325857E+03  0.44277437341E+03  0.80124503398E+02 0.  0.
        254    2    1    2    0    0 -0.19125951533E+03  0.64785314773E+02  0.12943200333E+03  0.93530282169E+03  0.90402510229E+03 0.  0.
         23    2    4    4    0    0 -0.29545271740E+03 -0.34494354370E+03  0.18597139684E+03  0.49905939345E+03  0.90534861765E+02 0.  0.
         23    2    4    4    0    0  0.10419320208E+03  0.40972885847E+03 -0.56539393504E+02  0.43624342824E+03  0.91529584526E+02 0.  0.
          4    1    3    3  502    0  0.47430464005E+01  0.39350922745E+01  0.24143390328E+01  0.66189480533E+01  0.00000000000E+00 0. -1.
         -3    1    3    3    0  502  0.18651646893E+03 -0.68720407048E+02 -0.38822759761E+03  0.43615542536E+03  0.00000000000E+00 0.  1.
         11    1    5    5    0    0 -0.27102350305E+03 -0.34225641377E+03  0.18585071542E+03  0.47448253961E+03  0.00000000000E+00 0.  1.
        -11    1    5    5    0    0 -0.24429214347E+02 -0.26871299281E+01  0.12068142032E+00  0.24576853844E+02  0.00000000000E+00 0. -1.
          4    1    6    6  503    0  0.66010744695E+02  0.17841796116E+03  0.15807312697E+02  0.19089331684E+03  0.00000000000E+00 0. -1.
         -4    1    6    6    0  503  0.38182457381E+02  0.23131089731E+03 -0.72346706201E+02  0.24535011140E+03  0.00000000000E+00 0.  1.
<mgrwt>
<rscale>  0 0.13540182E+04</rscale>
<asrwt>0</asrwt>
<pdfrwt beam="1">  1        2 0.86284303E-01 0.13540182E+04</pdfrwt>
<pdfrwt beam="2">  1       -1 0.12572757E+00 0.13540182E+04</pdfrwt>
<totfact> 0.33125928E+01</totfact>
</mgrwt>
</event>
<event>
12    6  0.1521603E-007  0.1247569E+04  0.7818608E-02  0.9072209E-01
          2   -1    0    0  501    0  0.00000000000E+00  0.00000000000E+00  0.21799402969E+04  0.21799402969E+04  0.00000000000E+00 0. -1.
         -1   -1    0    0    0  501 -0.00000000000E+00 -0.00000000000E+00 -0.17849437980E+03  0.17849437980E+03  0.00000000000E+00 0.  1.
         24    2    1    2    0    0 -0.14446156723E+03  0.75075505366E+02  0.32762215303E+02  0.18490475101E+03  0.81307615143E+02 0.  0.
        254    2    1    2    0    0  0.14446156723E+03 -0.75075505366E+02  0.19686837018E+04  0.21735299257E+04  0.90664841271E+03 0.  0.
         23    2    4    4    0    0 -0.20273624478E+03  0.30113570488E+02  0.16946713751E+04  0.17095463832E+04  0.92892166739E+02 0.  0.
         23    2    4    4    0    0  0.34719781201E+03 -0.10518907585E+03  0.27401232669E+03  0.46398354249E+03  0.92665582509E+02 0.  0.
          4    1    3    3  502    0  0.64221683374E+01  0.81879928726E+01  0.15897376191E+02  0.19000369554E+02  0.00000000000E+00 0. -1.
         -3    1    3    3    0  502 -0.15088373557E+03  0.66887512493E+02  0.16864839112E+02  0.16590438145E+03  0.00000000000E+00 0.  1.
         11    1    5    5    0    0  0.68203318197E+01 -0.33496715136E+01  0.17090785273E+03  0.17107668266E+03  0.00000000000E+00 0.  1.
        -11    1    5    5    0    0 -0.20955657660E+03  0.33463242002E+02  0.15237635224E+04  0.15384697006E+04  0.00000000000E+00 0. -1.
          2    1    6    6  503    0  0.33858467142E+03 -0.80649475378E+02  0.24950288176E+03  0.42824713147E+03  0.00000000000E+00 0. -1.
         -2    1    6    6    0  503  0.86131405859E+01 -0.24539600476E+02  0.24509444928E+02  0.35736411025E+02  0.00000000000E+00 0.  1.
<mgrwt>
<rscale>  0 0.12475690E+04</rscale>
<asrwt>0</asrwt>
<pdfrwt beam="1">  1        2 0.33537541E+00 0.12475690E+04</pdfrwt>
<pdfrwt beam="2">  1       -1 0.27460675E-01 0.12475690E+04</pdfrwt>
<totfact> 0.70888819E+01</totfact>
</mgrwt>
</event>
<event>
12    6  0.1521603E-007  0.2054128E+04  0.7818608E-02  0.8581724E-01
          2   -1    0    0  501    0  0.00000000000E+00  0.00000000000E+00  0.55947917271E+03  0.55947917271E+03  0.00000000000E+00 0. -1.
         -1   -1    0    0    0  501 -0.00000000000E+00 -0.00000000000E+00 -0.18854324551E+04  0.18854324551E+04  0.00000000000E+00 0.  1.
         24    2    1    2    0    0 -0.74463910202E+03  0.52327327628E+02 -0.99063748574E+03  0.12428280138E+04  0.77674334495E+02 0.  0.
        254    2    1    2    0    0  0.74463910202E+03 -0.52327327628E+02 -0.33531579670E+03  0.12020836141E+04  0.88053551331E+03 0.  0.
         23    2    4    4    0    0  0.92933142232E+03 -0.26433151141E+02 -0.20391364262E+03  0.95629191396E+03  0.92508632384E+02 0.  0.
         23    2    4    4    0    0 -0.18469232031E+03 -0.25894176487E+02 -0.13140215407E+03  0.24579170010E+03  0.91461861923E+02 0.  0.
          2    1    3    3  502    0 -0.11505682147E+03  0.37540718178E+01 -0.20245149038E+03  0.23289218789E+03  0.00000000000E+00 0. -1.
         -1    1    3    3    0  502 -0.62958228055E+03  0.48573255810E+02 -0.78818599536E+03  0.10099358259E+04  0.00000000000E+00 0.  1.
         11    1    5    5    0    0  0.15004668959E+03 -0.52653645627E+01 -0.68578132172E+02  0.16505966598E+03  0.00000000000E+00 0.  1.
        -11    1    5    5    0    0  0.77928473273E+03 -0.21167786578E+02 -0.13533551045E+03  0.79123224798E+03  0.00000000000E+00 0. -1.
          1    1    6    6  503    0 -0.15443359491E+03 -0.49980214337E+02 -0.12846651839E+03  0.20700580526E+03  0.00000000000E+00 0. -1.
         -1    1    6    6    0  503 -0.30258725393E+02  0.24086037850E+02 -0.29356356814E+01  0.38785894840E+02  0.00000000000E+00 0.  1.
<mgrwt>
<rscale>  0 0.20541277E+04</rscale>
<asrwt>0</asrwt>
<pdfrwt beam="1">  1        2 0.86073719E-01 0.20541277E+04</pdfrwt>
<pdfrwt beam="2">  1       -1 0.29006653E+00 0.20541277E+04</pdfrwt>
<totfact> 0.21835833E+00</totfact>
</mgrwt>
</event>
<event>
12    6  0.1521603E-007  0.1747527E+04  0.7818608E-02  0.8734713E-01
          2   -1    0    0  501    0  0.00000000000E+00  0.00000000000E+00  0.33893500453E+04  0.33893500453E+04  0.00000000000E+00 0. -1.
         -1   -1    0    0    0  501 -0.00000000000E+00 -0.00000000000E+00 -0.22525338100E+03  0.22525338100E+03  0.00000000000E+00 0.  1.
         24    2    1    2    0    0  0.29465319973E+03  0.17330532819E+03  0.22741413134E+04  0.23010727040E+04  0.79759832457E+02 0.  0.
        254    2    1    2    0    0 -0.29465319973E+03 -0.17330532819E+03  0.88995535084E+03  0.13135307222E+04  0.90359680549E+03 0.  0.
         23    2    4    4    0    0 -0.11193144250E+03 -0.52559284806E+03  0.40193791798E+03  0.67736936308E+03  0.92188255112E+02 0.  0.
         23    2    4    4    0    0 -0.18272175723E+03  0.35228751987E+03  0.48801743286E+03  0.63616135916E+03  0.95113210889E+02 0.  0.
          2    1    3    3  502    0  0.24498114729E+03  0.10514481379E+03  0.17497017180E+04  0.17698947134E+04  0.00000000000E+00 0. -1.
         -1    1    3    3    0  502  0.49672052436E+02  0.68160514399E+02  0.52443959539E+03  0.53117799063E+03  0.00000000000E+00 0.  1.
         11    1    5    5    0    0 -0.82180753796E+02 -0.19213417245E+03  0.17894015658E+03  0.27511596856E+03  0.00000000000E+00 0.  1.
        -11    1    5    5    0    0 -0.29750688706E+02 -0.33345867562E+03  0.22299776139E+03  0.40225339453E+03  0.00000000000E+00 0. -1.
          3    1    6    6  503    0 -0.12866659341E+03  0.17227601117E+03  0.31010681652E+03  0.37735971425E+03  0.00000000000E+00 0. -1.
         -3    1    6    6    0  503 -0.54055163814E+02  0.18001150870E+03  0.17791061634E+03  0.25880164491E+03  0.00000000000E+00 0.  1.
<mgrwt>
<rscale>  0 0.17475269E+04</rscale>
<asrwt>0</asrwt>
<pdfrwt beam="1">  1        2 0.52143843E+00 0.17475269E+04</pdfrwt>
<pdfrwt beam="2">  1       -1 0.34654369E-01 0.17475269E+04</pdfrwt>
<totfact> 0.83311200E+00</totfact>
</mgrwt>
</event>
<event>
12    6  0.1521603E-007  0.2203996E+04  0.7818608E-02  0.8516767E-01
          2   -1    0    0  501    0  0.00000000000E+00  0.00000000000E+00  0.11250627271E+04  0.11250627271E+04  0.00000000000E+00 0. -1.
         -1   -1    0    0    0  501 -0.00000000000E+00 -0.00000000000E+00 -0.10794059106E+04  0.10794059106E+04  0.00000000000E+00 0.  1.
         24    2    1    2    0    0 -0.84375604404E+03 -0.22137667358E+03 -0.26473949538E+03  0.91517660280E+03  0.80804210552E+02 0.  0.
        254    2    1    2    0    0  0.84375604404E+03  0.22137667358E+03  0.31039631188E+03  0.12892920349E+04  0.89721579756E+03 0.  0.
         23    2    4    4    0    0  0.53017409034E+02  0.41793034252E+03  0.92671526990E+02  0.44056690714E+03  0.89635767949E+02 0.  0.
         23    2    4    4    0    0  0.79073863500E+03 -0.19655366894E+03  0.21772478489E+03  0.84872512777E+03  0.95022770361E+02 0.  0.
          4    1    3    3  502    0 -0.32066881315E+03 -0.10346890095E+03 -0.66203328216E+02  0.34339071312E+03  0.00000000000E+00 0. -1.
         -3    1    3    3    0  502 -0.52308723089E+03 -0.11790777264E+03 -0.19853616717E+03  0.57178588968E+03  0.00000000000E+00 0.  1.
         11    1    5    5    0    0  0.53529049950E+02  0.10573286192E+03  0.24988489347E+02  0.12111656319E+03  0.00000000000E+00 0.  1.
        -11    1    5    5    0    0 -0.51164091598E+00  0.31219748060E+03  0.67683037642E+02  0.31945034395E+03  0.00000000000E+00 0. -1.
          1    1    6    6  503    0  0.23378996687E+03 -0.14391188419E+02  0.55947843062E+02  0.24082154400E+03  0.00000000000E+00 0. -1.
         -1    1    6    6    0  503  0.55694866813E+03 -0.18216248052E+03  0.16177694183E+03  0.60790358376E+03  0.00000000000E+00 0.  1.
<mgrwt>
<rscale>  0 0.22039958E+04</rscale>
<asrwt>0</asrwt>
<pdfrwt beam="1">  1        2 0.17308657E+00 0.22039958E+04</pdfrwt>
<pdfrwt beam="2">  1       -1 0.16606245E+00 0.22039958E+04</pdfrwt>
<totfact> 0.57644543E+00</totfact>
</mgrwt>
</event>
<event>
12    6  0.1521603E-007  0.1450543E+04  0.7818608E-02  0.8918024E-01
          2   -1    0    0  501    0  0.00000000000E+00  0.00000000000E+00  0.14633521257E+04  0.14633521257E+04  0.00000000000E+00 0. -1.
         -1   -1    0    0    0  501 -0.00000000000E+00 -0.00000000000E+00 -0.35946148740E+03  0.35946148740E+03  0.00000000000E+00 0.  1.
         24    2    1    2    0    0 -0.40134864810E+03 -0.18298759555E+03  0.34207117359E+03  0.56388981157E+03  0.79961455314E+02 0.  0.
        254    2    1    2    0    0  0.40134864810E+03  0.18298759555E+03  0.76181946470E+03  0.12589238015E+04  0.89997502396E+03 0.  0.
         23    2    4    4    0    0  0.75917410127E+02  0.28699178915E+02  0.86482941514E+03  0.87422851443E+03  0.98785029813E+02 0.  0.
         23    2    4    4    0    0  0.32543123797E+03  0.15428841664E+03 -0.10300995044E+03  0.38469528708E+03  0.87572871688E+02 0.  0.
          4    1    3    3  502    0 -0.31081024579E+03 -0.12097605670E+03  0.21899630703E+03  0.39899573641E+03  0.00000000000E+00 0. -1.
         -3    1    3    3    0  502 -0.90538402310E+02 -0.62011538856E+02  0.12307486656E+03  0.16489407516E+03  0.00000000000E+00 0.  1.
         11    1    5    5    0    0  0.27870641681E+02  0.36657575518E+02  0.71917523188E+03  0.72064801718E+03  0.00000000000E+00 0. -1.
        -11    1    5    5    0    0  0.48046768446E+02 -0.79583966024E+01  0.14565418326E+03  0.15358049725E+03  0.00000000000E+00 0.  1.
          1    1    6    6  503    0  0.27324554229E+03  0.15112592143E+03 -0.62238857560E+02  0.31839573788E+03  0.00000000000E+00 0. -1.
         -1    1    6    6    0  503  0.52185695682E+02  0.31624952120E+01 -0.40771092883E+02  0.66299549203E+02  0.00000000000E+00 0.  1.
<mgrwt>
<rscale>  0 0.14505430E+04</rscale>
<asrwt>0</asrwt>
<pdfrwt beam="1">  1        2 0.22513109E+00 0.14505430E+04</pdfrwt>
<pdfrwt beam="2">  1       -1 0.55301768E-01 0.14505430E+04</pdfrwt>
<totfact> 0.48638227E+01</totfact>
</mgrwt>
</event>
<event>
12    6  0.1521603E-007  0.2815801E+04  0.7818608E-02  0.8298380E-01
         -1   -1    0    0    0  501 -0.00000000000E+00  0.00000000000E+00  0.87355869387E+03  0.87355869387E+03  0.00000000000E+00 0.  1.
          2   -1    0    0  501    0  0.00000000000E+00 -0.00000000000E+00 -0.22690904607E+04  0.22690904607E+04  0.00000000000E+00 0. -1.
         24    2    1    2    0    0  0.66842858048E+03  0.69493063447E+03  0.27908963915E+03  0.10071055917E+04  0.81518661479E+02 0.  0.
        254    2    1    2    0    0 -0.66842858048E+03 -0.69493063447E+03 -0.16746214060E+04  0.21355435629E+04  0.90910071041E+03 0.  0.
         23    2    4    4    0    0 -0.38741151224E+03 -0.81406744653E+03 -0.81496607630E+03  0.12186902026E+04  0.90788859969E+02 0.  0.
         23    2    4    4    0    0 -0.28101706825E+03  0.11913681206E+03 -0.85965532968E+03  0.91685336027E+03  0.91916406376E+02 0.  0.
          2    1    3    3  502    0  0.15257913380E+03  0.11548417462E+03  0.42264907070E+02  0.19596762240E+03  0.00000000000E+00 0. -1.
         -1    1    3    3    0  502  0.51584944668E+03  0.57944645985E+03  0.23682473208E+03  0.81113796928E+03  0.00000000000E+00 0.  1.
         11    1    5    5    0    0 -0.64550212497E+02 -0.16711855431E+03 -0.11865799781E+03  0.21488383274E+03  0.00000000000E+00 0. -1.
        -11    1    5    5    0    0 -0.32286129974E+03 -0.64694889222E+03 -0.69630807849E+03  0.10038063699E+04  0.00000000000E+00 0.  1.
          1    1    6    6  503    0 -0.18697306912E+03  0.42426965733E+02 -0.43899074858E+03  0.47903220490E+03  0.00000000000E+00 0. -1.
         -1    1    6    6    0  503 -0.94043999129E+02  0.76709846328E+02 -0.42066458110E+03  0.43782115536E+03  0.00000000000E+00 0.  1.
<mgrwt>
<rscale>  0 0.28158009E+04</rscale>
<asrwt>0</asrwt>
<pdfrwt beam="1">  1        2 0.34909084E+00 0.28158009E+04</pdfrwt>
<pdfrwt beam="2">  1       -1 0.13439365E+00 0.28158009E+04</pdfrwt>
<totfact> 0.21733850E+00</totfact>
</mgrwt>
</event>
<event>
12    6  0.1521603E-007  0.1481824E+04  0.7818608E-02  0.8896631E-01
          2   -1    0    0  501    0  0.00000000000E+00  0.00000000000E+00  0.28727310348E+04  0.28727310348E+04  0.00000000000E+00 0. -1.
         -1   -1    0    0    0  501 -0.00000000000E+00 -0.00000000000E+00 -0.19109005373E+03  0.19109005373E+03  0.00000000000E+00 0.  1.
         24    2    1    2    0    0  0.17196725836E+03  0.29052271050E+03  0.20935265380E+03  0.40508079915E+03  0.79282639495E+02 0.  0.
        254    2    1    2    0    0 -0.17196725836E+03 -0.29052271050E+03  0.24722883273E+04  0.26587402894E+04  0.91799464591E+03 0.  0.
         23    2    4    4    0    0 -0.47459197974E+03 -0.14137541381E+03  0.20495832037E+04  0.21104734045E+04  0.89900651999E+02 0.  0.
         23    2    4    4    0    0  0.30262472138E+03 -0.14914729669E+03  0.42270512357E+03  0.54826688490E+03  0.89946192171E+02 0.  0.
          4    1    3    3  502    0  0.11899572273E+03  0.12484966419E+03  0.11369167681E+03  0.20657496957E+03  0.00000000000E+00 0. -1.
         -3    1    3    3    0  502  0.52971535636E+02  0.16567304631E+03  0.95660976985E+02  0.19850582959E+03  0.00000000000E+00 0.  1.
         11    1    5    5    0    0 -0.11318214814E+03 -0.20930792378E+02  0.64273311282E+03  0.65295800098E+03  0.00000000000E+00 0.  1.
        -11    1    5    5    0    0 -0.36140983161E+03 -0.12044462143E+03  0.14068500909E+04  0.14575154035E+04  0.00000000000E+00 0. -1.
          1    1    6    6  503    0  0.33166836910E+02 -0.23587511853E+02  0.10771983388E+03  0.11515195351E+03  0.00000000000E+00 0. -1.
         -1    1    6    6    0  503  0.26945788447E+03 -0.12555978484E+03  0.31498528968E+03  0.43311493139E+03  0.00000000000E+00 0.  1.
<mgrwt>
<rscale>  0 0.14818236E+04</rscale>
<asrwt>0</asrwt>
<pdfrwt beam="1">  1        2 0.44195859E+00 0.14818236E+04</pdfrwt>
<pdfrwt beam="2">  1       -1 0.29398472E-01 0.14818236E+04</pdfrwt>
<totfact> 0.24477250E+01</totfact>
</mgrwt>
</event>
<event>
12    6  0.1521603E-007  0.2051224E+04  0.7818608E-02  0.8583039E-01
         -1   -1    0    0    0  501 -0.00000000000E+00  0.00000000000E+00  0.27787997528E+04  0.27787997528E+04  0.00000000000E+00 0.  1.
          2   -1    0    0  501    0  0.00000000000E+00 -0.00000000000E+00 -0.37853768508E+03  0.37853768508E+03  0.00000000000E+00 0. -1.
         24    2    1    2    0    0  0.27386268749E+02 -0.74112344982E+03  0.39969763243E+03  0.84614831662E+03  0.78707056535E+02 0.  0.
        254    2    1    2    0    0 -0.27386268749E+02  0.74112344982E+03  0.20005644353E+04  0.23111891212E+04  0.88843858478E+03 0.  0.
         23    2    4    4    0    0  0.17885779578E+03 -0.57589623651E+02  0.88839827991E+02  0.22692544856E+03  0.91082206282E+02 0.  0.
         23    2    4    4    0    0 -0.20624406453E+03  0.79871307347E+03  0.19117246073E+04  0.20842636727E+04  0.94788687809E+02 0.  0.
          2    1    3    3  502    0  0.69231239264E+00 -0.52826208589E+03  0.31798929726E+03  0.61658616905E+03  0.00000000000E+00 0. -1.
         -1    1    3    3    0  502  0.26693956357E+02 -0.21286136393E+03  0.81708335172E+02  0.22956214757E+03  0.00000000000E+00 0.  1.
         11    1    5    5    0    0  0.47877998874E+02 -0.48753726465E+02  0.63383770462E+02  0.93202633967E+02  0.00000000000E+00 0.  1.
        -11    1    5    5    0    0  0.13097979691E+03 -0.88358971859E+01  0.25456057529E+02  0.13372281459E+03  0.00000000000E+00 0. -1.
          3    1    6    6  503    0 -0.19599960181E+03  0.61865063337E+03  0.15374662473E+04  0.16688160209E+04  0.00000000000E+00 0. -1.
         -3    1    6    6    0  503 -0.10244462719E+02  0.18006244010E+03  0.37425835999E+03  0.41544765178E+03  0.00000000000E+00 0.  1.
<mgrwt>
<rscale>  0 0.20512244E+04</rscale>
<asrwt>0</asrwt>
<pdfrwt beam="1">  1        2 0.58236568E-01 0.20512244E+04</pdfrwt>
<pdfrwt beam="2">  1       -1 0.42750764E+00 0.20512244E+04</pdfrwt>
<totfact> 0.41457635E-01</totfact>
</mgrwt>
</event>
<event>
12    6  0.1521603E-007  0.1763381E+04  0.7818608E-02  0.8726019E-01
          2   -1    0    0  501    0  0.00000000000E+00  0.00000000000E+00  0.10756163065E+04  0.10756163065E+04  0.00000000000E+00 0. -1.
         -1   -1    0    0    0  501 -0.00000000000E+00 -0.00000000000E+00 -0.72272796254E+03  0.72272796254E+03  0.00000000000E+00 0.  1.
         24    2    1    2    0    0 -0.80072693894E+02 -0.46521016286E+03  0.58492702737E+03  0.75508032841E+03  0.71934296871E+02 0.  0.
        254    2    1    2    0    0  0.80072693894E+02  0.46521016286E+03 -0.23203868340E+03  0.10432639406E+04  0.90095813849E+03 0.  0.
         23    2    4    4    0    0  0.40348969294E+03 -0.32956690511E+02 -0.89393164847E+02  0.42492104285E+03  0.93148692841E+02 0.  0.
         23    2    4    4    0    0 -0.32341699905E+03  0.49816685337E+03 -0.14264551855E+03  0.61834289779E+03  0.96080311286E+02 0.  0.
          2    1    3    3  502    0 -0.59605215626E+02 -0.20996585178E+03  0.22613931338E+03  0.31428876801E+03  0.00000000000E+00 0. -1.
         -1    1    3    3    0  502 -0.20467478268E+02 -0.25524431108E+03  0.35878771399E+03  0.44079156039E+03  0.00000000000E+00 0.  1.
         11    1    5    5    0    0  0.74876274667E+01  0.78837411909E+01  0.98102708433E+01  0.14644430828E+02  0.00000000000E+00 0. -1.
        -11    1    5    5    0    0  0.39600206547E+03 -0.40840431701E+02 -0.99203435690E+02  0.41027661202E+03  0.00000000000E+00 0.  1.
          1    1    6    6  503    0 -0.98046141570E+02  0.21621511697E+03 -0.25098926241E+02  0.23872992854E+03  0.00000000000E+00 0. -1.
         -1    1    6    6    0  503 -0.22537085747E+03  0.28195173640E+03 -0.11754659231E+03  0.37961296925E+03  0.00000000000E+00 0.  1.
<mgrwt>
<rscale>  0 0.17633808E+04</rscale>
<asrwt>0</asrwt>
<pdfrwt beam="1">  1        2 0.16547943E+00 0.17633808E+04</pdfrwt>
<pdfrwt beam="2">  1       -1 0.11118892E+00 0.17633808E+04</pdfrwt>
<totfact> 0.18127962E+01</totfact>
</mgrwt>
</event>
<event>
12    6  0.1521603E-007  0.1749027E+04  0.7818608E-02  0.8733886E-01
          2   -1    0    0  501    0  0.00000000000E+00  0.00000000000E+00  0.13434083687E+04  0.13434083687E+04  0.00000000000E+00 0. -1.
         -1   -1    0    0    0  501 -0.00000000000E+00 -0.00000000000E+00 -0.56927849562E+03  0.56927849562E+03  0.00000000000E+00 0.  1.
         24    2    1    2    0    0 -0.61772617192E+03 -0.15569264351E+03  0.24673512775E+03  0.68775628070E+03  0.79401861886E+02 0.  0.
        254    2    1    2    0    0  0.61772617192E+03  0.15569264351E+03  0.52739474532E+03  0.12249305836E+04  0.90359498367E+03 0.  0.
         23    2    4    4    0    0  0.23369026359E+03 -0.19961361418E+03  0.60873486140E+03  0.68789614336E+03  0.90477833215E+02 0.  0.
         23    2    4    4    0    0  0.38403590833E+03  0.35530625769E+03 -0.81340116079E+02  0.53703444023E+03  0.89797883458E+02 0.  0.
          4    1    3    3  502    0 -0.34749847250E+03 -0.47761273022E+02  0.12581399871E+03  0.37264660184E+03  0.00000000000E+00 0. -1.
         -3    1    3    3    0  502 -0.27022769941E+03 -0.10793137049E+03  0.12092112903E+03  0.31510967886E+03  0.00000000000E+00 0.  1.
         11    1    5    5    0    0  0.31705718964E+01 -0.20076487897E+02  0.12353585591E+02  0.23785057691E+02  0.00000000000E+00 0. -1.
        -11    1    5    5    0    0  0.23051969169E+03 -0.17953712629E+03  0.59638127581E+03  0.66411108567E+03  0.00000000000E+00 0.  1.
          1    1    6    6  503    0  0.14032101806E+01  0.16948060605E+02  0.75028706308E+01  0.18587598682E+02  0.00000000000E+00 0. -1.
         -1    1    6    6    0  503  0.38263269814E+03  0.33835819709E+03 -0.88842986710E+02  0.51844684155E+03  0.00000000000E+00 0.  1.
<mgrwt>
<rscale>  0 0.17490266E+04</rscale>
<asrwt>0</asrwt>
<pdfrwt beam="1">  1        2 0.20667821E+00 0.17490266E+04</pdfrwt>
<pdfrwt beam="2">  1       -1 0.87581307E-01 0.17490266E+04</pdfrwt>
<totfact> 0.21617188E+01</totfact>
</mgrwt>
</event>
<event>
12    6  0.1521603E-007  0.2449996E+04  0.7818608E-02  0.8421020E-01
         -1   -1    0    0    0  501 -0.00000000000E+00  0.00000000000E+00  0.53972440004E+03  0.53972440004E+03  0.00000000000E+00 0.  1.
          2   -1    0    0  501    0  0.00000000000E+00 -0.00000000000E+00 -0.27803444678E+04  0.27803444678E+04  0.00000000000E+00 0. -1.
         24    2    1    2    0    0 -0.95502414949E+03  0.32363695380E+03 -0.13887047470E+04  0.17179909715E+04  0.78613611499E+02 0.  0.
        254    2    1    2    0    0  0.95502414949E+03 -0.32363695380E+03 -0.85191532077E+03  0.16020778963E+04  0.90778955058E+03 0.  0.
         23    2    4    4    0    0  0.15593240541E+03  0.11829978828E+03 -0.61941408845E+03  0.65589003519E+03  0.90598953237E+02 0.  0.
         23    2    4    4    0    0  0.79909174408E+03 -0.44193674208E+03 -0.23250123232E+03  0.94618786113E+03  0.85784299658E+02 0.  0.
          2    1    3    3  502    0 -0.37744055730E+03  0.99359293512E+02 -0.58320582058E+03  0.70175684725E+03  0.00000000000E+00 0. -1.
         -1    1    3    3    0  502 -0.57758359219E+03  0.22427766029E+03 -0.80549892644E+03  0.10162341243E+04  0.00000000000E+00 0.  1.
         11    1    5    5    0    0  0.11721786360E+03  0.57229788319E+02 -0.49588419842E+03  0.51275375617E+03  0.00000000000E+00 0. -1.
        -11    1    5    5    0    0  0.38714541808E+02  0.61069999957E+02 -0.12352989003E+03  0.14313627902E+03  0.00000000000E+00 0.  1.
          1    1    6    6  503    0  0.72255074910E+03 -0.42485076804E+03 -0.20328635237E+03  0.86249817460E+03  0.00000000000E+00 0. -1.
         -1    1    6    6    0  503  0.76540994980E+02 -0.17085974039E+02 -0.29214879949E+02  0.83689686532E+02  0.00000000000E+00 0.  1.
<mgrwt>
<rscale>  0 0.24499957E+04</rscale>
<asrwt>0</asrwt>
<pdfrwt beam="1">  1        2 0.42774531E+00 0.24499957E+04</pdfrwt>
<pdfrwt beam="2">  1       -1 0.83034522E-01 0.24499957E+04</pdfrwt>
<totfact> 0.34863898E+00</totfact>
</mgrwt>
</event>
<event>
12    6  0.1521603E-007  0.1450973E+04  0.7818608E-02  0.8917727E-01
         -1   -1    0    0    0  501 -0.00000000000E+00  0.00000000000E+00  0.36611566844E+03  0.36611566844E+03  0.00000000000E+00 0.  1.
          2   -1    0    0  501    0  0.00000000000E+00 -0.00000000000E+00 -0.14376067460E+04  0.14376067460E+04  0.00000000000E+00 0. -1.
         24    2    1    2    0    0  0.16355394325E+03 -0.13093858375E+03  0.15735447437E+03  0.27385876372E+03  0.79645381539E+02 0.  0.
        254    2    1    2    0    0 -0.16355394325E+03  0.13093858375E+03 -0.12288455520E+04  0.15298636507E+04  0.88686334587E+03 0.  0.
         23    2    4    4    0    0  0.42122717034E+02  0.44490661305E+03 -0.94941375069E+03  0.10533092593E+04  0.91420501383E+02 0.  0.
         23    2    4    4    0    0 -0.20567666028E+03 -0.31396802930E+03 -0.27943180127E+03  0.47655439146E+03  0.90239373079E+02 0.  0.
          2    1    3    3  502    0  0.46520588368E+02  0.25756736072E+01  0.32580725637E+02  0.56853345721E+02  0.00000000000E+00 0. -1.
         -1    1    3    3    0  502  0.11703335488E+03 -0.13351425735E+03  0.12477374873E+03  0.21700541800E+03  0.00000000000E+00 0.  1.
         11    1    5    5    0    0 -0.89847720983E+01  0.13790797347E+03 -0.38068155847E+03  0.40499109155E+03  0.00000000000E+00 0. -1.
        -11    1    5    5    0    0  0.51107489132E+02  0.30699863958E+03 -0.56873219222E+03  0.64831816773E+03  0.00000000000E+00 0.  1.
          4    1    6    6  503    0 -0.11482659745E+03 -0.22828781431E+03 -0.14821575617E+03  0.29541222727E+03  0.00000000000E+00 0. -1.
         -4    1    6    6    0  503 -0.90850062825E+02 -0.85680214999E+02 -0.13121604510E+03  0.18114216419E+03  0.00000000000E+00 0.  1.
<mgrwt>
<rscale>  0 0.14509726E+04</rscale>
<asrwt>0</asrwt>
<pdfrwt beam="1">  1        2 0.22117027E+00 0.14509726E+04</pdfrwt>
<pdfrwt beam="2">  1       -1 0.56325488E-01 0.14509726E+04</pdfrwt>
<totfact> 0.48540097E+01</totfact>
</mgrwt>
</event>
<event>
12    6  0.1521603E-007  0.1423055E+04  0.7818608E-02  0.8937297E-01
         -1   -1    0    0    0  501 -0.00000000000E+00  0.00000000000E+00  0.56214478348E+03  0.56214478348E+03  0.00000000000E+00 0.  1.
          2   -1    0    0  501    0  0.00000000000E+00 -0.00000000000E+00 -0.90060656801E+03  0.90060656801E+03  0.00000000000E+00 0. -1.
         24    2    1    2    0    0  0.24539440647E+03  0.32910504100E+02 -0.45100753193E+03  0.52101838839E+03  0.82163563550E+02 0.  0.
        254    2    1    2    0    0 -0.24539440647E+03 -0.32910504100E+02  0.11254574740E+03  0.94173296310E+03  0.90160574118E+03 0.  0.
         23    2    4    4    0    0 -0.21814968785E+03 -0.41740065879E+03 -0.10415977602E+03  0.49060051286E+03  0.89593571225E+02 0.  0.
         23    2    4    4    0    0 -0.27244718618E+02  0.38449015469E+03  0.21670552343E+03  0.45113245024E+03  0.89354630727E+02 0.  0.
          4    1    3    3  502    0  0.19823813122E+03  0.27374661858E+02 -0.28421977026E+03  0.34760409461E+03  0.00000000000E+00 0. -1.
         -3    1    3    3    0  502  0.47156275250E+02  0.55358422426E+01 -0.16678776167E+03  0.17341429378E+03  0.00000000000E+00 0.  1.
         11    1    5    5    0    0 -0.11884644071E+03 -0.25318247465E+03 -0.18084429374E+02  0.28027288225E+03  0.00000000000E+00 0. -1.
        -11    1    5    5    0    0 -0.99303247144E+02 -0.16421818414E+03 -0.86075346650E+02  0.21032763061E+03  0.00000000000E+00 0.  1.
          2    1    6    6  503    0 -0.34348551508E+02  0.29487218034E+03  0.20432217673E+03  0.36038448584E+03  0.00000000000E+00 0. -1.
         -2    1    6    6    0  503  0.71038328896E+01  0.89617974348E+02  0.12383346698E+02  0.90747964404E+02  0.00000000000E+00 0.  1.
<mgrwt>
<rscale>  0 0.14230549E+04</rscale>
<asrwt>0</asrwt>
<pdfrwt beam="1">  1        2 0.13855486E+00 0.14230549E+04</pdfrwt>
<pdfrwt beam="2">  1       -1 0.86483813E-01 0.14230549E+04</pdfrwt>
<totfact> 0.42845829E+01</totfact>
</mgrwt>
</event>
<event>
12    6  0.1521603E-007  0.1367620E+04  0.7818608E-02  0.8977596E-01
          2   -1    0    0  501    0  0.00000000000E+00  0.00000000000E+00  0.30036132859E+04  0.30036132859E+04  0.00000000000E+00 0. -1.
         -1   -1    0    0    0  501 -0.00000000000E+00 -0.00000000000E+00 -0.15567782367E+03  0.15567782367E+03  0.00000000000E+00 0.  1.
         24    2    1    2    0    0 -0.20760626854E+03  0.21986513978E+02  0.79045176852E+02  0.23680653416E+03  0.79028002022E+02 0.  0.
        254    2    1    2    0    0  0.20760626854E+03 -0.21986513978E+02  0.27688902854E+04  0.29224845754E+04  0.91136102149E+03 0.  0.
         23    2    4    4    0    0  0.52216843054E+03  0.51288474183E+02  0.11220682104E+04  0.12419161767E+04  0.89601025292E+02 0.  0.
         23    2    4    4    0    0 -0.31456216200E+03 -0.73274988161E+02  0.16468220750E+04  0.16805683987E+04  0.89267118355E+02 0.  0.
          2    1    3    3  502    0 -0.39814546979E+02  0.36498764530E+02  0.27905538066E+02  0.60795370038E+02  0.00000000000E+00 0. -1.
         -1    1    3    3    0  502 -0.16779172156E+03 -0.14512250552E+02  0.51139638787E+02  0.17601116412E+03  0.00000000000E+00 0.  1.
         11    1    5    5    0    0  0.65424640846E+02  0.30094821179E+02  0.20294757349E+03  0.21534576726E+03  0.00000000000E+00 0. -1.
        -11    1    5    5    0    0  0.45674378970E+03  0.21193653004E+02  0.91912063693E+03  0.10265704095E+04  0.00000000000E+00 0.  1.
          4    1    6    6  503    0 -0.84613363518E+01  0.74460348170E+01  0.16116663343E+03  0.16156027166E+03  0.00000000000E+00 0. -1.
         -4    1    6    6    0  503 -0.30610082565E+03 -0.80721022978E+02  0.14856554416E+04  0.15190081271E+04  0.00000000000E+00 0.  1.
<mgrwt>
<rscale>  0 0.13676198E+04</rscale>
<asrwt>0</asrwt>
<pdfrwt beam="1">  1        2 0.46209431E+00 0.13676198E+04</pdfrwt>
<pdfrwt beam="2">  1       -1 0.23950437E-01 0.13676198E+04</pdfrwt>
<totfact> 0.29299404E+01</totfact>
</mgrwt>
</event>
<event>
12    6  0.1521603E-007  0.1308398E+04  0.7818608E-02  0.9022932E-01
          2   -1    0    0  501    0  0.00000000000E+00  0.00000000000E+00  0.17810601089E+04  0.17810601089E+04  0.00000000000E+00 0. -1.
         -1   -1    0    0    0  501 -0.00000000000E+00 -0.00000000000E+00 -0.24029313585E+03  0.24029313585E+03  0.00000000000E+00 0.  1.
         24    2    1    2    0    0 -0.18359369186E+03 -0.12465082369E+02  0.85930231341E+03  0.88252888603E+03  0.81208046824E+02 0.  0.
        254    2    1    2    0    0  0.18359369186E+03  0.12465082369E+02  0.68146465963E+03  0.11388243587E+04  0.89368048861E+03 0.  0.
         23    2    4    4    0    0  0.24383425082E+03  0.38232774389E+03  0.57634663215E+03  0.73922730475E+03  0.93015708787E+02 0.  0.
         23    2    4    4    0    0 -0.60240558965E+02 -0.36986266152E+03  0.10511802748E+03  0.39959705397E+03  0.90557675041E+02 0.  0.
          4    1    3    3  502    0 -0.14068742928E+03 -0.24163720421E+02  0.76578020945E+03  0.77897122368E+03  0.00000000000E+00 0. -1.
         -3    1    3    3    0  502 -0.42906262577E+02  0.11698638051E+02  0.93522103962E+02  0.10355766234E+03  0.00000000000E+00 0.  1.
         11    1    5    5    0    0  0.23333622546E+03  0.35641660037E+03  0.49426661888E+03  0.65251672597E+03  0.00000000000E+00 0.  1.
        -11    1    5    5    0    0  0.10498025364E+02  0.25911143521E+02  0.82080013263E+02  0.86710578780E+02  0.00000000000E+00 0. -1.
          1    1    6    6  503    0 -0.44533013878E+02 -0.32350407555E+03  0.12082589086E+03  0.34819099949E+03  0.00000000000E+00 0.  1.
         -1    1    6    6    0  503 -0.15707545087E+02 -0.46358585965E+02 -0.15707863373E+02  0.51406054479E+02  0.00000000000E+00 0. -1.
<mgrwt>
<rscale>  0 0.13083983E+04</rscale>
<asrwt>0</asrwt>
<pdfrwt beam="1">  1        2 0.27400924E+00 0.13083983E+04</pdfrwt>
<pdfrwt beam="2">  1       -1 0.36968176E-01 0.13083983E+04</pdfrwt>
<totfact> 0.69372429E+01</totfact>
</mgrwt>
</event>
<event>
12    6  0.1521603E-007  0.1834030E+04  0.7818608E-02  0.8688409E-01
          2   -1    0    0  501    0  0.00000000000E+00  0.00000000000E+00  0.60765464093E+03  0.60765464093E+03  0.00000000000E+00 0. -1.
         -1   -1    0    0    0  501 -0.00000000000E+00 -0.00000000000E+00 -0.13838728156E+04  0.13838728156E+04  0.00000000000E+00 0.  1.
         24    2    1    2    0    0 -0.21408038662E+02  0.54369965485E+03 -0.75012937641E+03  0.93012100906E+03  0.79770867787E+02 0.  0.
        254    2    1    2    0    0  0.21408038662E+02 -0.54369965485E+03 -0.26088798300E+02  0.10614064475E+04  0.91095301888E+03 0.  0.
         23    2    4    4    0    0  0.15285080918E+03  0.21805857157E+03  0.16318605851E+02  0.28197968407E+03  0.91287101104E+02 0.  0.
         23    2    4    4    0    0 -0.13144277052E+03 -0.76175822642E+03 -0.42407404151E+02  0.77942676343E+03  0.90304452734E+02 0.  0.
          2    1    3    3  502    0 -0.15614837626E+01 -0.21172389556E+01 -0.96466082946E+01  0.99988991357E+01  0.00000000000E+00 0. -1.
         -1    1    3    3    0  502 -0.19846554899E+02  0.54581689381E+03 -0.74048276811E+03  0.92012210993E+03  0.00000000000E+00 0.  1.
         11    1    5    5    0    0  0.13955123905E+03  0.19727395206E+03 -0.14999579100E+02  0.24210854560E+03  0.00000000000E+00 0. -1.
        -11    1    5    5    0    0  0.13299570133E+02  0.20784619512E+02  0.31318184951E+02  0.39871138466E+02  0.00000000000E+00 0.  1.
          1    1    6    6  503    0 -0.10461064825E+02 -0.28131737886E+03  0.64392246519E+01  0.28158544909E+03  0.00000000000E+00 0. -1.
         -1    1    6    6    0  503 -0.12098170569E+03 -0.48044084756E+03 -0.48846628803E+02  0.49784131434E+03  0.00000000000E+00 0.  1.
<mgrwt>
<rscale>  0 0.18340302E+04</rscale>
<asrwt>0</asrwt>
<pdfrwt beam="1">  1        2 0.93485331E-01 0.18340302E+04</pdfrwt>
<pdfrwt beam="2">  1       -1 0.21290351E+00 0.18340302E+04</pdfrwt>
<totfact> 0.64513652E+00</totfact>
</mgrwt>
</event>
<event>
12    6  0.1521603E-007  0.1178613E+04  0.7818608E-02  0.9131785E-01
          2   -1    0    0  501    0  0.00000000000E+00  0.00000000000E+00  0.16485897645E+04  0.16485897645E+04  0.00000000000E+00 0. -1.
         -1   -1    0    0    0  501 -0.00000000000E+00 -0.00000000000E+00 -0.21065407185E+03  0.21065407185E+03  0.00000000000E+00 0.  1.
         24    2    1    2    0    0 -0.39943760806E+02 -0.76610190785E+02 -0.33514183021E+02  0.13319649827E+03  0.95673827814E+02 0.  0.
        254    2    1    2    0    0  0.39943760806E+02  0.76610190785E+02  0.14714498757E+04  0.17260473381E+04  0.89811472060E+03 0.  0.
         23    2    4    4    0    0  0.39001384389E+03 -0.80722414980E+02  0.11364375705E+04  0.12075924751E+04  0.90345601159E+02 0.  0.
         23    2    4    4    0    0 -0.35007008308E+03  0.15733260577E+03  0.33501230524E+03  0.51845486302E+03  0.96226755200E+02 0.  0.
          2    1    3    3  502    0 -0.37035256473E+02 -0.25225044551E+01  0.19611988674E+02  0.41983369928E+02  0.00000000000E+00 0. -1.
         -1    1    3    3    0  502 -0.29085043330E+01 -0.74087686330E+02 -0.53126171695E+02  0.91213128343E+02  0.00000000000E+00 0.  1.
         11    1    5    5    0    0  0.23580377641E+03 -0.15661067206E+02  0.75309553763E+03  0.78930449054E+03  0.00000000000E+00 0. -1.
        -11    1    5    5    0    0  0.15421006748E+03 -0.65061347774E+02  0.38334203285E+03  0.41828798457E+03  0.00000000000E+00 0.  1.
          2    1    6    6  503    0 -0.99852036317E+02  0.83503326557E+01  0.54267969558E+02  0.11395248892E+03  0.00000000000E+00 0. -1.
         -2    1    6    6    0  503 -0.25021804677E+03  0.14898227311E+03  0.28074433568E+03  0.40450237409E+03  0.00000000000E+00 0.  1.
<mgrwt>
<rscale>  0 0.11786130E+04</rscale>
<asrwt>0</asrwt>
<pdfrwt beam="1">  1        2 0.25362919E+00 0.11786130E+04</pdfrwt>
<pdfrwt beam="2">  1       -1 0.32408320E-01 0.11786130E+04</pdfrwt>
<totfact> 0.10495979E+02</totfact>
</mgrwt>
</event>
<event>
12    6  0.1521603E-007  0.4244680E+04  0.7818608E-02  0.7956927E-01
         -1   -1    0    0    0  501 -0.00000000000E+00  0.00000000000E+00  0.16136299550E+04  0.16136299550E+04  0.00000000000E+00 0.  1.
          2   -1    0    0  501    0  0.00000000000E+00 -0.00000000000E+00 -0.27914254866E+04  0.27914254866E+04  0.00000000000E+00 0. -1.
         24    2    1    2    0    0  0.13235781475E+04  0.98830567669E+02  0.10267604020E+04  0.16800565644E+04  0.82015503559E+02 0.  0.
        254    2    1    2    0    0 -0.13235781475E+04 -0.98830567669E+02 -0.22045559336E+04  0.27249988772E+04  0.89661888381E+03 0.  0.
         23    2    4    4    0    0 -0.11946931682E+04 -0.37652375151E+03 -0.15326107993E+04  0.19815181647E+04  0.91959085743E+02 0.  0.
         23    2    4    4    0    0 -0.12888497930E+03  0.27769318384E+03 -0.67194513428E+03  0.74348071247E+03  0.86766722223E+02 0.  0.
          4    1    3    3  502    0  0.19755667940E+03  0.38686656486E+02  0.17765516798E+03  0.26848958579E+03  0.00000000000E+00 0. -1.
         -3    1    3    3    0  502  0.11260214681E+04  0.60143911183E+02  0.84910523405E+03  0.14115669786E+04  0.00000000000E+00 0.  1.
         11    1    5    5    0    0 -0.61340876615E+02 -0.41259869131E+02 -0.97986595463E+02  0.12274547990E+03  0.00000000000E+00 0. -1.
        -11    1    5    5    0    0 -0.11333522916E+04 -0.33526388238E+03 -0.14346242038E+04  0.18587726848E+04  0.00000000000E+00 0.  1.
          3    1    6    6  503    0 -0.72014482639E+02  0.20073663551E+03 -0.37381994653E+03  0.43037499343E+03  0.00000000000E+00 0. -1.
         -3    1    6    6    0  503 -0.56870496660E+02  0.76956548325E+02 -0.29812518776E+03  0.31310571904E+03  0.00000000000E+00 0.  1.
<mgrwt>
<rscale>  0 0.42446803E+04</rscale>
<asrwt>0</asrwt>
<pdfrwt beam="1">  1        2 0.42945007E+00 0.42446803E+04</pdfrwt>
<pdfrwt beam="2">  1       -1 0.24825076E+00 0.42446803E+04</pdfrwt>
<totfact> 0.14718216E-01</totfact>
</mgrwt>
</event>
<event>
12    6  0.1521603E-007  0.1635315E+04  0.7818608E-02  0.8799142E-01
         -1   -1    0    0    0  501 -0.00000000000E+00  0.00000000000E+00  0.57032960601E+03  0.57032960601E+03  0.00000000000E+00 0.  1.
          2   -1    0    0  501    0  0.00000000000E+00 -0.00000000000E+00 -0.11722409063E+04  0.11722409063E+04  0.00000000000E+00 0. -1.
         24    2    1    2    0    0  0.33523342601E+03  0.31339217924E+02 -0.69682533550E+03  0.77774246145E+03  0.77163408728E+02 0.  0.
        254    2    1    2    0    0 -0.33523342601E+03 -0.31339217924E+02  0.94914035238E+02  0.96482805084E+03  0.89917790069E+03 0.  0.
         23    2    4    4    0    0  0.25702068536E+03 -0.19435605989E+03 -0.33439901215E+00  0.33650105889E+03  0.96948130949E+02 0.  0.
         23    2    4    4    0    0 -0.59225411137E+03  0.16301684197E+03  0.95248434250E+02  0.62832699194E+03  0.91559387158E+02 0.  0.
          2    1    3    3  502    0  0.23397352639E+03  0.45934515597E+02 -0.42524579021E+03  0.48753212496E+03  0.00000000000E+00 0. -1.
         -1    1    3    3    0  502  0.10125989963E+03 -0.14595297673E+02 -0.27157954528E+03  0.29021033649E+03  0.00000000000E+00 0.  1.
         11    1    5    5    0    0  0.22462851064E+03 -0.13084995734E+03  0.24253612958E+02  0.26108986359E+03  0.00000000000E+00 0.  1.
        -11    1    5    5    0    0  0.32392174717E+02 -0.63506102549E+02 -0.24588011970E+02  0.75411195299E+02  0.00000000000E+00 0. -1.
          1    1    6    6  503    0 -0.32320439964E+03  0.13442963468E+03  0.65641388977E+02  0.35614772577E+03  0.00000000000E+00 0. -1.
         -1    1    6    6    0  503 -0.26904971173E+03  0.28587207287E+02  0.29607045273E+02  0.27217926617E+03  0.00000000000E+00 0.  1.
<mgrwt>
<rscale>  0 0.16353149E+04</rscale>
<asrwt>0</asrwt>
<pdfrwt beam="1">  1        2 0.18034475E+00 0.16353149E+04</pdfrwt>
<pdfrwt beam="2">  1       -1 0.87743016E-01 0.16353149E+04</pdfrwt>
<totfact> 0.27423598E+01</totfact>
</mgrwt>
</event>
<event>
12    6  0.1521603E-007  0.2268154E+04  0.7818608E-02  0.8490584E-01
          2   -1    0    0  501    0  0.00000000000E+00  0.00000000000E+00  0.15630323669E+04  0.15630323669E+04  0.00000000000E+00 0. -1.
         -1   -1    0    0    0  501 -0.00000000000E+00 -0.00000000000E+00 -0.82284324538E+03  0.82284324538E+03  0.00000000000E+00 0.  1.
         24    2    1    2    0    0  0.17651602991E+03 -0.45180302239E+03  0.11734025510E+04  0.12721834094E+04  0.79329695845E+02 0.  0.
        254    2    1    2    0    0 -0.17651602991E+03  0.45180302239E+03 -0.43321342944E+03  0.11136922029E+04  0.90407553198E+03 0.  0.
         23    2    4    4    0    0 -0.30470027633E+03  0.55848246579E+02  0.17793109250E+03  0.36864165605E+03  0.90972038891E+02 0.  0.
         23    2    4    4    0    0  0.12818424641E+03  0.39595477581E+03 -0.61114452194E+03  0.74505054686E+03  0.91604067356E+02 0.  0.
          4    1    3    3  502    0  0.71886811353E+02 -0.12975600678E+03  0.28206012199E+03  0.31868832322E+03  0.00000000000E+00 0. -1.
         -3    1    3    3    0  502  0.10462921856E+03 -0.32204701560E+03  0.89134242898E+03  0.95349508617E+03  0.00000000000E+00 0.  1.
         11    1    5    5    0    0 -0.18904722019E+03  0.76909573821E+02  0.12808039679E+03  0.24095336074E+03  0.00000000000E+00 0.  1.
        -11    1    5    5    0    0 -0.11565305613E+03 -0.21061327243E+02  0.49850695712E+02  0.12768829532E+03  0.00000000000E+00 0. -1.
          2    1    6    6  503    0  0.11589109910E+03  0.23711922230E+03 -0.33791881749E+03  0.42877196695E+03  0.00000000000E+00 0.  1.
         -2    1    6    6    0  503  0.12293147314E+02  0.15883555351E+03 -0.27322570445E+03  0.31627857990E+03  0.00000000000E+00 0. -1.
<mgrwt>
<rscale>  0 0.22681540E+04</rscale>
<asrwt>0</asrwt>
<pdfrwt beam="1">  1        2 0.24046652E+00 0.22681540E+04</pdfrwt>
<pdfrwt beam="2">  1       -1 0.12659127E+00 0.22681540E+04</pdfrwt>
<totfact> 0.65666791E+00</totfact>
</mgrwt>
</event>
<event>
12    6  0.1521603E-007  0.1679379E+04  0.7818608E-02  0.8773214E-01
         -1   -1    0    0    0  501 -0.00000000000E+00  0.00000000000E+00  0.12316924860E+04  0.12316924860E+04  0.00000000000E+00 0.  1.
          2   -1    0    0  501    0  0.00000000000E+00 -0.00000000000E+00 -0.57244653019E+03  0.57244653019E+03  0.00000000000E+00 0. -1.
         24    2    1    2    0    0  0.21634967672E+03 -0.37776582168E+03 -0.12188240436E+03  0.45904412257E+03  0.79699355884E+02 0.  0.
        254    2    1    2    0    0 -0.21634967672E+03  0.37776582168E+03  0.78112836019E+03  0.13450948936E+04  0.10047908037E+04 0.  0.
         23    2    4    4    0    0 -0.38414620000E+03  0.56814098747E+03  0.81951521097E+03  0.10725302404E+04  0.91451905077E+02 0.  0.
         23    2    4    4    0    0  0.16779652328E+03 -0.19037516579E+03 -0.38386850780E+02  0.27256465323E+03  0.91758176233E+02 0.  0.
          2    1    3    3  502    0  0.66154087037E+02 -0.10070929509E+03  0.17647655302E+01  0.12050659628E+03  0.00000000000E+00 0. -1.
         -1    1    3    3    0  502  0.15019558968E+03 -0.27705652659E+03 -0.12364716989E+03  0.33853752629E+03  0.00000000000E+00 0.  1.
         11    1    5    5    0    0 -0.16656964574E+02  0.74646582258E+02  0.84504269403E+02  0.11397604248E+03  0.00000000000E+00 0. -1.
        -11    1    5    5    0    0 -0.36748923542E+03  0.49349440521E+03  0.73501094157E+03  0.95855419792E+03  0.00000000000E+00 0.  1.
          1    1    6    6  503    0  0.14618917082E+02 -0.27707435919E+02 -0.37842166140E+02  0.49126818338E+02  0.00000000000E+00 0. -1.
         -1    1    6    6    0  503  0.15317760620E+03 -0.16266772987E+03 -0.54468463999E+00  0.22343783490E+03  0.00000000000E+00 0.  1.
<mgrwt>
<rscale>  0 0.16793786E+04</rscale>
<asrwt>0</asrwt>
<pdfrwt beam="1">  1        2 0.88068697E-01 0.16793786E+04</pdfrwt>
<pdfrwt beam="2">  1       -1 0.18949115E+00 0.16793786E+04</pdfrwt>
<totfact> 0.10181493E+01</totfact>
</mgrwt>
</event>
<event>
12    6  0.1521603E-007  0.1603583E+04  0.7818608E-02  0.8818350E-01
          2   -1    0    0  501    0  0.00000000000E+00  0.00000000000E+00  0.21773152515E+04  0.21773152515E+04  0.00000000000E+00 0. -1.
         -1   -1    0    0    0  501 -0.00000000000E+00 -0.00000000000E+00 -0.29525782588E+03  0.29525782588E+03  0.00000000000E+00 0.  1.
         24    2    1    2    0    0 -0.17700609734E+03 -0.43284545670E+03  0.10775784816E+04  0.11774139653E+04  0.80261533765E+02 0.  0.
        254    2    1    2    0    0  0.17700609734E+03  0.43284545670E+03  0.80447894393E+03  0.12951591120E+04  0.90086869536E+03 0.  0.
         23    2    4    4    0    0  0.35588853814E+03  0.44292692238E+03  0.12728657365E+03  0.58892389499E+03  0.88252887271E+02 0.  0.
         23    2    4    4    0    0 -0.17888244080E+03 -0.10081465681E+02  0.67719237029E+03  0.70623521701E+03  0.89878316585E+02 0.  0.
          2    1    3    3  502    0 -0.16717755018E+03 -0.39975648850E+03  0.93204674859E+03  0.10278446988E+04  0.00000000000E+00 0. -1.
         -1    1    3    3    0  502 -0.98285471593E+01 -0.33088968201E+02  0.14553173306E+03  0.14956926650E+03  0.00000000000E+00 0.  1.
         11    1    5    5    0    0  0.27078040128E+03  0.34020745439E+03  0.58178808759E+02  0.43868885503E+03  0.00000000000E+00 0.  1.
        -11    1    5    5    0    0  0.85108136859E+02  0.10271946799E+03  0.69107764886E+02  0.15023503996E+03  0.00000000000E+00 0. -1.
          4    1    6    6  503    0 -0.69898179136E+02 -0.43636539327E+02  0.21681385957E+03  0.23194428795E+03  0.00000000000E+00 0. -1.
         -4    1    6    6    0  503 -0.10898426166E+03  0.33555073646E+02  0.46037851071E+03  0.47429092906E+03  0.00000000000E+00 0.  1.
<mgrwt>
<rscale>  0 0.16035827E+04</rscale>
<asrwt>0</asrwt>
<pdfrwt beam="1">  1        2 0.33497157E+00 0.16035827E+04</pdfrwt>
<pdfrwt beam="2">  1       -1 0.45424282E-01 0.16035827E+04</pdfrwt>
<totfact> 0.27959655E+01</totfact>
</mgrwt>
</event>
<event>
12    6  0.1521603E-007  0.2208256E+04  0.7818608E-02  0.8515000E-01
         -1   -1    0    0    0  501 -0.00000000000E+00  0.00000000000E+00  0.59939867973E+03  0.59939867973E+03  0.00000000000E+00 0.  1.
          2   -1    0    0  501    0  0.00000000000E+00 -0.00000000000E+00 -0.20338692377E+04  0.20338692377E+04  0.00000000000E+00 0. -1.
         24    2    1    2    0    0  0.53632113985E+03  0.30296838110E+03 -0.14108337886E+04  0.15415203661E+04  0.80017841685E+02 0.  0.
        254    2    1    2    0    0 -0.53632113985E+03 -0.30296838110E+03 -0.23636769317E+02  0.10917475513E+04  0.90106815165E+03 0.  0.
         23    2    4    4    0    0 -0.67584998222E+03 -0.16673273508E+03  0.24862748528E+03  0.74465330602E+03  0.90110578313E+02 0.  0.
         23    2    4    4    0    0  0.13952884237E+03 -0.13623564602E+03 -0.27226425459E+03  0.34709424529E+03  0.91203846861E+02 0.  0.
          2    1    3    3  502    0  0.49116368507E+03  0.28315271027E+03 -0.13420494912E+04  0.14568850537E+04  0.00000000000E+00 0. -1.
         -3    1    3    3    0  502  0.45157454778E+02  0.19815670826E+02 -0.68784297385E+02  0.84635312364E+02  0.00000000000E+00 0.  1.
         11    1    5    5    0    0 -0.27097867576E+03 -0.74064196926E+02  0.14701982396E+03  0.31706430991E+03  0.00000000000E+00 0.  1.
        -11    1    5    5    0    0 -0.40487130645E+03 -0.92668538153E+02  0.10160766132E+03  0.42758899611E+03  0.00000000000E+00 0. -1.
          3    1    6    6  503    0  0.17002535916E+02 -0.79240000747E+01  0.36031345841E+01  0.19101271779E+02  0.00000000000E+00 0. -1.
         -3    1    6    6    0  503  0.12252630645E+03 -0.12831164594E+03 -0.27586738918E+03  0.32799297351E+03  0.00000000000E+00 0.  1.
<mgrwt>
<rscale>  0 0.22082559E+04</rscale>
<asrwt>0</asrwt>
<pdfrwt beam="1">  1        2 0.31290295E+00 0.22082559E+04</pdfrwt>
<pdfrwt beam="2">  1       -1 0.92215183E-01 0.22082559E+04</pdfrwt>
<totfact> 0.76113102E+00</totfact>
</mgrwt>
</event>
<event>
12    6  0.1619127E-007  0.2948338E+04  0.7818608E-02  0.8258639E-01
         -1   -1    0    0    0  501 -0.00000000000E+00  0.00000000000E+00  0.13720784288E+04  0.13720784288E+04  0.00000000000E+00 0.  1.
          2   -1    0    0  501    0  0.00000000000E+00 -0.00000000000E+00 -0.15838559313E+04  0.15838559313E+04  0.00000000000E+00 0. -1.
         24    2    1    2    0    0 -0.83355034535E+03 -0.56326300152E+03 -0.97575224002E+03  0.14037033410E+04  0.78862212647E+02 0.  0.
        254    2    1    2    0    0  0.83355034535E+03  0.56326300152E+03  0.76397473757E+03  0.15522310191E+04  0.90204897309E+03 0.  0.
         23    2    4    4    0    0  0.14610214313E+03 -0.10815902204E+03  0.51762745339E+03  0.55585975333E+03  0.89429718775E+02 0.  0.
         23    2    4    4    0    0  0.68744820222E+03  0.67142202356E+03  0.24634728418E+03  0.99637126575E+03  0.93145855178E+02 0.  0.
          2    1    3    3  502    0 -0.78132697093E+03 -0.54914695034E+03 -0.92398956161E+03  0.13288306583E+04  0.00000000000E+00 0. -1.
         -1    1    3    3    0  502 -0.52223374412E+02 -0.14116051178E+02 -0.51762678410E+02  0.74872682682E+02  0.00000000000E+00 0.  1.
         11    1    5    5    0    0  0.67769198384E+02 -0.73770224290E+02  0.38667434617E+03  0.39943930731E+03  0.00000000000E+00 0.  1.
        -11    1    5    5    0    0  0.78332944746E+02 -0.34388797754E+02  0.13095310722E+03  0.15642044602E+03  0.00000000000E+00 0. -1.
          2    1    6    6  503    0  0.12236062115E+03  0.16788583970E+03  0.69942505811E+02  0.21920248835E+03  0.00000000000E+00 0. -1.
         -2    1    6    6    0  503  0.56508758107E+03  0.50353618386E+03  0.17640477837E+03  0.77716877740E+03  0.00000000000E+00 0.  1.
<mgrwt>
<rscale>  0 0.29483382E+04</rscale>
<asrwt>0</asrwt>
<pdfrwt beam="1">  1        2 0.24367014E+00 0.29483382E+04</pdfrwt>
<pdfrwt beam="2">  1       -1 0.21108899E+00 0.29483382E+04</pdfrwt>
<totfact> 0.14085416E+00</totfact>
</mgrwt>
</event>
<event>
12    6  0.1521603E-007  0.2391908E+04  0.7818608E-02  0.8442539E-01
         -1   -1    0    0    0  501 -0.00000000000E+00  0.00000000000E+00  0.42419476863E+03  0.42419476863E+03  0.00000000000E+00 0.  1.
          2   -1    0    0  501    0  0.00000000000E+00 -0.00000000000E+00 -0.33718153395E+04  0.33718153395E+04  0.00000000000E+00 0. -1.
         24    2    1    2    0    0  0.43315372543E+03 -0.23350559707E+02  0.20790279798E+03  0.48760719664E+03  0.79811066363E+02 0.  0.
        254    2    1    2    0    0 -0.43315372543E+03  0.23350559707E+02 -0.31555233688E+04  0.33084029115E+04  0.89444658585E+03 0.  0.
         23    2    4    4    0    0 -0.33169789524E+03  0.26624181416E+03 -0.28958704514E+04  0.29284435589E+04  0.93849926429E+02 0.  0.
         23    2    4    4    0    0 -0.10145583019E+03 -0.24289125445E+03 -0.25965291741E+03  0.37995935262E+03  0.87521569647E+02 0.  0.
          2    1    3    3  502    0  0.22916048810E+03 -0.51059774773E+02  0.10018054660E+03  0.25526020415E+03  0.00000000000E+00 0. -1.
         -1    1    3    3    0  502  0.20399323733E+03  0.27709215067E+02  0.10772225138E+03  0.23234699249E+03  0.00000000000E+00 0.  1.
         11    1    5    5    0    0 -0.31450707487E+03  0.24373172690E+03 -0.28097904158E+04  0.28378234680E+04  0.00000000000E+00 0.  1.
        -11    1    5    5    0    0 -0.17190820369E+02  0.22510087262E+02 -0.86080035601E+02  0.90620090832E+02  0.00000000000E+00 0. -1.
          2    1    6    6  503    0 -0.80286621422E+02 -0.23167334567E+03 -0.20254563402E+03  0.31803021010E+03  0.00000000000E+00 0.  1.
         -2    1    6    6    0  503 -0.21169208772E+02 -0.11217908780E+02 -0.57107283384E+02  0.61929142517E+02  0.00000000000E+00 0. -1.
<mgrwt>
<rscale>  0 0.23919084E+04</rscale>
<asrwt>0</asrwt>
<pdfrwt beam="1">  1        2 0.51874081E+00 0.23919084E+04</pdfrwt>
<pdfrwt beam="2">  1       -1 0.65260736E-01 0.23919084E+04</pdfrwt>
<totfact> 0.24315198E+00</totfact>
</mgrwt>
</event>
<event>
12    6  0.1521603E-007  0.1439199E+04  0.7818608E-02  0.8925923E-01
         -3   -1    0    0    0  501 -0.00000000000E+00  0.00000000000E+00  0.31655179778E+03  0.31655179778E+03  0.00000000000E+00 0.  1.
          4   -1    0    0  501    0  0.00000000000E+00 -0.00000000000E+00 -0.16358257153E+04  0.16358257153E+04  0.00000000000E+00 0. -1.
         24    2    1    2    0    0 -0.67818956062E+02  0.22758693780E+03  0.87103003608E+02  0.26385170306E+03  0.75070386375E+02 0.  0.
        254    2    1    2    0    0  0.67818956062E+02 -0.22758693780E+03 -0.14063769211E+04  0.16885258100E+04  0.90378545120E+03 0.  0.
         23    2    4    4    0    0  0.21049208488E+03 -0.19629419226E+03 -0.14689657268E+04  0.15000986123E+04  0.97965363297E+02 0.  0.
         23    2    4    4    0    0 -0.14267312882E+03 -0.31292745541E+02  0.62588805653E+02  0.18842719775E+03  0.10125508702E+03 0.  0.
          4    1    3    3  502    0 -0.20900893606E+02  0.29637981486E+02 -0.11139490173E+02  0.37938707693E+02  0.00000000000E+00 0. -1.
         -3    1    3    3    0  502 -0.46918062456E+02  0.19794895631E+03  0.98242493781E+02  0.22591299536E+03  0.00000000000E+00 0.  1.
         11    1    5    5    0    0  0.62026320907E+02 -0.86801373760E+02 -0.34576445372E+03  0.36184914043E+03  0.00000000000E+00 0. -1.
        -11    1    5    5    0    0  0.14846576398E+03 -0.10949281850E+03 -0.11232012731E+04  0.11382494718E+04  0.00000000000E+00 0.  1.
          2    1    6    6  503    0 -0.53788359767E+02 -0.52321174207E+02  0.61599580741E+02  0.97083475753E+02  0.00000000000E+00 0.  1.
         -2    1    6    6    0  503 -0.88884769054E+02  0.21028428667E+02  0.98922491210E+00  0.91343721995E+02  0.00000000000E+00 0. -1.
<mgrwt>
<rscale>  0 0.14391992E+04</rscale>
<asrwt>0</asrwt>
<pdfrwt beam="1">  1        4 0.25166549E+00 0.14391992E+04</pdfrwt>
<pdfrwt beam="2">  1       -3 0.48700277E-01 0.14391992E+04</pdfrwt>
<totfact> 0.57431266E-01</totfact>
</mgrwt>
</event>
<event>
12    6  0.1521603E-007  0.1257923E+04  0.7818608E-02  0.9063614E-01
         -3   -1    0    0    0  501 -0.00000000000E+00  0.00000000000E+00  0.39346614077E+03  0.39346614077E+03  0.00000000000E+00 0.  1.
          2   -1    0    0  501    0  0.00000000000E+00 -0.00000000000E+00 -0.10054049556E+04  0.10054049556E+04  0.00000000000E+00 0. -1.
         24    2    1    2    0    0  0.18788901205E+02 -0.15876740280E+03 -0.25859822085E+03  0.31185074219E+03  0.69409902569E+02 0.  0.
        254    2    1    2    0    0 -0.18788901205E+02  0.15876740280E+03 -0.35334059397E+03  0.10870203542E+04  0.10154819368E+04 0.  0.
         23    2    4    4    0    0  0.26156387882E+02  0.29401531217E+03  0.28888011289E+03  0.42341056592E+03  0.93250347400E+02 0.  0.
         23    2    4    4    0    0 -0.44945289087E+02 -0.13524790937E+03 -0.64222070686E+03  0.66360978826E+03  0.87283668322E+02 0.  0.
          2    1    3    3  502    0 -0.11185870548E+02 -0.12990384503E+03 -0.17258155883E+03  0.21629731183E+03  0.00000000000E+00 0. -1.
         -1    1    3    3    0  502  0.29974771754E+02 -0.28863557765E+02 -0.86016662019E+02  0.95553430359E+02  0.00000000000E+00 0.  1.
         11    1    5    5    0    0  0.12280486499E+02  0.18480860648E+03  0.11627717337E+03  0.21869022023E+03  0.00000000000E+00 0.  1.
        -11    1    5    5    0    0  0.13875901383E+02  0.10920670569E+03  0.17260293952E+03  0.20472034568E+03  0.00000000000E+00 0. -1.
          2    1    6    6  503    0 -0.50905978035E+02 -0.35491547011E+02 -0.33004750754E+03  0.33583094816E+03  0.00000000000E+00 0. -1.
         -2    1    6    6    0  503  0.59606889474E+01 -0.99756362361E+02 -0.31217319932E+03  0.32777884010E+03  0.00000000000E+00 0.  1.
<mgrwt>
<rscale>  0 0.12579234E+04</rscale>
<asrwt>0</asrwt>
<pdfrwt beam="1">  1        2 0.15467769E+00 0.12579234E+04</pdfrwt>
<pdfrwt beam="2">  1       -3 0.60533251E-01 0.12579234E+04</pdfrwt>
<totfact> 0.41665711E+01</totfact>
</mgrwt>
</event>
<event>
12    6  0.1521603E-007  0.2225862E+04  0.7818608E-02  0.8507740E-01
         -1   -1    0    0    0  501 -0.00000000000E+00  0.00000000000E+00  0.16639357896E+04  0.16639357896E+04  0.00000000000E+00 0.  1.
          2   -1    0    0  501    0  0.00000000000E+00 -0.00000000000E+00 -0.74438897977E+03  0.74438897977E+03  0.00000000000E+00 0. -1.
         24    2    1    2    0    0 -0.43583669660E+02 -0.53157816003E+03 -0.43174646733E+03  0.69081808544E+03  0.79685247285E+02 0.  0.
        254    2    1    2    0    0  0.43583669660E+02  0.53157816003E+03  0.13512932771E+04  0.17175066839E+04  0.91616636694E+03 0.  0.
         23    2    4    4    0    0 -0.36079164199E+03  0.35368637929E+03  0.10672377269E+04  0.11845489670E+04  0.94314503544E+02 0.  0.
         23    2    4    4    0    0  0.40437531165E+03  0.17789178074E+03  0.28405555018E+03  0.53295771688E+03  0.90506873036E+02 0.  0.
          2    1    3    3  502    0 -0.10932914686E+01 -0.33674923269E+03 -0.30642272850E+03  0.45529784707E+03  0.00000000000E+00 0. -1.
         -1    1    3    3    0  502 -0.42490378192E+02 -0.19482892734E+03 -0.12532373883E+03  0.23552023837E+03  0.00000000000E+00 0.  1.
         11    1    5    5    0    0 -0.57172856315E+02  0.25934613727E+02  0.86890664520E+02  0.10719760850E+03  0.00000000000E+00 0.  1.
        -11    1    5    5    0    0 -0.30361878568E+03  0.32775176557E+03  0.98034706243E+03  0.10773513585E+04  0.00000000000E+00 0. -1.
          3    1    6    6  503    0  0.16998541828E+03  0.62231174393E+02  0.16804385705E+03  0.24699493798E+03  0.00000000000E+00 0. -1.
         -3    1    6    6    0  503  0.23438989337E+03  0.11566060634E+03  0.11601169313E+03  0.28596277890E+03  0.00000000000E+00 0.  1.
<mgrwt>
<rscale>  0 0.22258620E+04</rscale>
<asrwt>0</asrwt>
<pdfrwt beam="1">  1        2 0.11452138E+00 0.22258620E+04</pdfrwt>
<pdfrwt beam="2">  1       -1 0.25599012E+00 0.22258620E+04</pdfrwt>
<totfact> 0.25111675E+00</totfact>
</mgrwt>
</event>
<event>
12    6  0.1521603E-007  0.2534686E+04  0.7818608E-02  0.8390732E-01
         -1   -1    0    0    0  501 -0.00000000000E+00  0.00000000000E+00  0.11856207957E+04  0.11856207957E+04  0.00000000000E+00 0.  1.
          2   -1    0    0  501    0  0.00000000000E+00 -0.00000000000E+00 -0.13546983554E+04  0.13546983554E+04  0.00000000000E+00 0. -1.
         24    2    1    2    0    0  0.19884854992E+03  0.67082090176E+03 -0.92728210276E+03  0.11642831472E+04  0.78496628109E+02 0.  0.
        254    2    1    2    0    0 -0.19884854992E+03 -0.67082090176E+03  0.75820454299E+03  0.13760360039E+04  0.91052706004E+03 0.  0.
         23    2    4    4    0    0 -0.52563374502E+03 -0.23681386180E+03  0.49550716696E+03  0.76572845851E+03  0.91875353639E+02 0.  0.
         23    2    4    4    0    0  0.32678519510E+03 -0.43400703996E+03  0.26269737603E+03  0.61030754543E+03  0.91185054497E+02 0.  0.
          4    1    3    3  502    0  0.14718870650E+03  0.58511099458E+03 -0.81219864986E+03  0.10117737090E+04  0.00000000000E+00 0. -1.
         -3    1    3    3    0  502  0.51659843418E+02  0.85709907180E+02 -0.11508345290E+03  0.15250943821E+03  0.00000000000E+00 0.  1.
         11    1    5    5    0    0 -0.19148341203E+02 -0.32238577050E+02  0.29294989899E+02  0.47583413646E+02  0.00000000000E+00 0.  1.
        -11    1    5    5    0    0 -0.50648540382E+03 -0.20457528475E+03  0.46621217707E+03  0.71814504486E+03  0.00000000000E+00 0. -1.
          1    1    6    6  503    0  0.27574972200E+03 -0.36123824911E+03  0.25495792312E+03  0.52108974693E+03  0.00000000000E+00 0. -1.
         -1    1    6    6    0  503  0.51035473108E+02 -0.72768790845E+02  0.77394529112E+01  0.89217798492E+02  0.00000000000E+00 0.  1.
<mgrwt>
<rscale>  0 0.25346862E+04</rscale>
<asrwt>0</asrwt>
<pdfrwt beam="1">  1        2 0.20841513E+00 0.25346862E+04</pdfrwt>
<pdfrwt beam="2">  1       -1 0.18240320E+00 0.25346862E+04</pdfrwt>
<totfact> 0.31141316E+00</totfact>
</mgrwt>
</event>
<event>
12    6  0.1521603E-007  0.1824470E+04  0.7818608E-02  0.8693394E-01
         -1   -1    0    0    0  501 -0.00000000000E+00  0.00000000000E+00  0.28890937521E+03  0.28890937521E+03  0.00000000000E+00 0.  1.
          2   -1    0    0  501    0  0.00000000000E+00 -0.00000000000E+00 -0.28803934629E+04  0.28803934629E+04  0.00000000000E+00 0. -1.
         24    2    1    2    0    0 -0.31182346157E+03 -0.50944877280E+03 -0.50184980731E+03  0.78423774771E+03  0.80023074982E+02 0.  0.
        254    2    1    2    0    0  0.31182346157E+03  0.50944877280E+03 -0.20896342804E+04  0.23850650904E+04  0.98244192521E+03 0.  0.
         23    2    4    4    0    0 -0.28740583955E+03  0.57281840024E+02 -0.24994652584E+03  0.39610534576E+03  0.92427557316E+02 0.  0.
         23    2    4    4    0    0  0.59922930112E+03  0.45216693278E+03 -0.18396877545E+04  0.19889597446E+04  0.89326038766E+02 0.  0.
          2    1    3    3  502    0 -0.30187143467E+03 -0.47237022938E+03 -0.44549443119E+03  0.71604838168E+03  0.00000000000E+00 0. -1.
         -1    1    3    3    0  502 -0.99520268977E+01 -0.37078543418E+02 -0.56355376125E+02  0.68189366030E+02  0.00000000000E+00 0.  1.
         11    1    5    5    0    0 -0.16137500492E+02 -0.17120543933E+02 -0.34643015115E+02  0.41876848532E+02  0.00000000000E+00 0. -1.
        -11    1    5    5    0    0 -0.27126833906E+03  0.74402383957E+02 -0.21530351073E+03  0.35422849722E+03  0.00000000000E+00 0.  1.
          3    1    6    6  503    0  0.13270924969E+03  0.11525201389E+03 -0.34205267689E+03  0.38457093679E+03  0.00000000000E+00 0. -1.
         -3    1    6    6    0  503  0.46652005143E+03  0.33691491889E+03 -0.14976350776E+04  0.16043888079E+04  0.00000000000E+00 0.  1.
<mgrwt>
<rscale>  0 0.18244700E+04</rscale>
<asrwt>0</asrwt>
<pdfrwt beam="1">  1        2 0.44313745E+00 0.18244700E+04</pdfrwt>
<pdfrwt beam="2">  1       -1 0.44447597E-01 0.18244700E+04</pdfrwt>
<totfact> 0.11137120E+01</totfact>
</mgrwt>
</event>
<event>
12    6  0.1521603E-007  0.2582537E+04  0.7818608E-02  0.8374157E-01
          2   -1    0    0  501    0  0.00000000000E+00  0.00000000000E+00  0.23141491158E+04  0.23141491158E+04  0.00000000000E+00 0. -1.
         -1   -1    0    0    0  501 -0.00000000000E+00 -0.00000000000E+00 -0.72051304870E+03  0.72051304870E+03  0.00000000000E+00 0.  1.
         24    2    1    2    0    0  0.12592604318E+03 -0.71279658014E+03  0.17270994509E+04  0.18744086638E+04  0.81234182402E+02 0.  0.
        254    2    1    2    0    0 -0.12592604318E+03  0.71279658014E+03 -0.13346338382E+03  0.11602535008E+04  0.89690544551E+03 0.  0.
         23    2    4    4    0    0  0.20345005299E+03 -0.11608166161E+03 -0.71774067755E+02  0.26058091702E+03  0.88792011408E+02 0.  0.
         23    2    4    4    0    0 -0.32937609617E+03  0.82887824175E+03 -0.61689316068E+02  0.89967258373E+03  0.10038642254E+03 0.  0.
          4    1    3    3  502    0  0.11939617265E+03 -0.68173690229E+03  0.15975937455E+04  0.17410704827E+04  0.00000000000E+00 0. -1.
         -3    1    3    3    0  502  0.65298705284E+01 -0.31059677847E+02  0.12950570543E+03  0.13333818109E+03  0.00000000000E+00 0.  1.
         11    1    5    5    0    0  0.15796261863E+03 -0.11968427069E+03 -0.33437303849E+02  0.20098399644E+03  0.00000000000E+00 0.  1.
        -11    1    5    5    0    0  0.45487434354E+02  0.36026090735E+01 -0.38336763906E+02  0.59596920583E+02  0.00000000000E+00 0. -1.
          4    1    6    6  503    0 -0.21454019656E+03  0.65258770844E+03 -0.55514674028E+02  0.68918799480E+03  0.00000000000E+00 0. -1.
         -4    1    6    6    0  503 -0.11483589960E+03  0.17629053331E+03 -0.61746420398E+01  0.21048458893E+03  0.00000000000E+00 0.  1.
<mgrwt>
<rscale>  0 0.25825372E+04</rscale>
<asrwt>0</asrwt>
<pdfrwt beam="1">  1        2 0.35602294E+00 0.25825372E+04</pdfrwt>
<pdfrwt beam="2">  1       -1 0.11084816E+00 0.25825372E+04</pdfrwt>
<totfact> 0.33596733E+00</totfact>
</mgrwt>
</event>
<event>
12    6  0.1521603E-007  0.2352183E+04  0.7818608E-02  0.8457626E-01
         -1   -1    0    0    0  501 -0.00000000000E+00  0.00000000000E+00  0.79846002155E+03  0.79846002155E+03  0.00000000000E+00 0.  1.
          2   -1    0    0  501    0  0.00000000000E+00 -0.00000000000E+00 -0.17323232295E+04  0.17323232295E+04  0.00000000000E+00 0. -1.
         24    2    1    2    0    0  0.67268762916E+03 -0.62018604897E+03  0.43989629052E+02  0.91960573812E+03  0.81241887965E+02 0.  0.
        254    2    1    2    0    0 -0.67268762916E+03  0.62018604897E+03 -0.97785283704E+03  0.16111775130E+04  0.89585569466E+03 0.  0.
         23    2    4    4    0    0 -0.78651527460E+03  0.27777128575E+03 -0.90056840454E+03  0.12310155857E+04  0.92804937983E+02 0.  0.
         23    2    4    4    0    0  0.11382764545E+03  0.34241476322E+03 -0.77284432495E+02  0.38016192731E+03  0.91354280298E+02 0.  0.
          4    1    3    3  502    0  0.47357758234E+02 -0.45094699564E+02  0.24441927876E+02  0.69811868847E+02  0.00000000000E+00 0. -1.
         -3    1    3    3    0  502  0.62532987092E+03 -0.57509134941E+03  0.19547701176E+02  0.84979386927E+03  0.00000000000E+00 0.  1.
         11    1    5    5    0    0 -0.12044042413E+03  0.11516578033E+02 -0.10998024354E+03  0.16350590602E+03  0.00000000000E+00 0. -1.
        -11    1    5    5    0    0 -0.66607485047E+03  0.26625470772E+03 -0.79058816100E+03  0.10675096796E+04  0.00000000000E+00 0.  1.
          3    1    6    6  503    0  0.10564540812E+02  0.56809794072E+02 -0.47878343765E+02  0.75041975100E+02  0.00000000000E+00 0. -1.
         -3    1    6    6    0  503  0.10326310464E+03  0.28560496915E+03 -0.29406088729E+02  0.30511995221E+03  0.00000000000E+00 0.  1.
<mgrwt>
<rscale>  0 0.23521827E+04</rscale>
<asrwt>0</asrwt>
<pdfrwt beam="1">  1        2 0.26651127E+00 0.23521827E+04</pdfrwt>
<pdfrwt beam="2">  1       -1 0.12284000E+00 0.23521827E+04</pdfrwt>
<totfact> 0.56517086E+00</totfact>
</mgrwt>
</event>
<event>
12    6  0.1521603E-007  0.2112800E+04  0.7818608E-02  0.8555626E-01
         -1   -1    0    0    0  501 -0.00000000000E+00  0.00000000000E+00  0.52524453110E+03  0.52524453110E+03  0.00000000000E+00 0.  1.
          2   -1    0    0  501    0  0.00000000000E+00 -0.00000000000E+00 -0.21246875062E+04  0.21246875062E+04  0.00000000000E+00 0. -1.
         24    2    1    2    0    0 -0.55197661325E+03 -0.41416420213E+03 -0.76076593196E+01  0.69430621323E+03  0.76112241838E+02 0.  0.
        254    2    1    2    0    0  0.55197661325E+03  0.41416420213E+03 -0.15918353158E+04  0.19556258241E+04  0.90239820663E+03 0.  0.
         23    2    4    4    0    0  0.18500706257E+03  0.55143932414E+02  0.61340839525E+02  0.22207484037E+03  0.91027850955E+02 0.  0.
         23    2    4    4    0    0  0.36696955067E+03  0.35902026971E+03 -0.16531761553E+04  0.17335509837E+04  0.92980683053E+02 0.  0.
          4    1    3    3  502    0 -0.39614646738E+03 -0.30037312123E+03 -0.39579052231E+02  0.49872090086E+03  0.00000000000E+00 0. -1.
         -3    1    3    3    0  502 -0.15583014587E+03 -0.11379108089E+03  0.31971392911E+02  0.19558531237E+03  0.00000000000E+00 0.  1.
         11    1    5    5    0    0  0.10636152731E+03  0.67100021580E+02  0.66687712861E+02  0.14234619220E+03  0.00000000000E+00 0. -1.
        -11    1    5    5    0    0  0.78645535264E+02 -0.11956089165E+02 -0.53468733356E+01  0.79728648173E+02  0.00000000000E+00 0.  1.
          2    1    6    6  503    0  0.63912212863E+02  0.52818744690E+02 -0.17114101183E+03  0.19016791705E+03  0.00000000000E+00 0.  1.
         -2    1    6    6    0  503  0.30305733781E+03  0.30620152502E+03 -0.14820351435E+04  0.15433830667E+04  0.00000000000E+00 0. -1.
<mgrwt>
<rscale>  0 0.21127996E+04</rscale>
<asrwt>0</asrwt>
<pdfrwt beam="1">  1        2 0.32687500E+00 0.21127996E+04</pdfrwt>
<pdfrwt beam="2">  1       -1 0.80806852E-01 0.21127996E+04</pdfrwt>
<totfact> 0.91061067E+00</totfact>
</mgrwt>
</event>
<event>
12    6  0.1521603E-007  0.1342066E+04  0.7818608E-02  0.8996856E-01
         -1   -1    0    0    0  501 -0.00000000000E+00  0.00000000000E+00  0.50733247250E+03  0.50733247250E+03  0.00000000000E+00 0.  1.
          2   -1    0    0  501    0  0.00000000000E+00 -0.00000000000E+00 -0.88755507200E+03  0.88755507200E+03  0.00000000000E+00 0. -1.
         24    2    1    2    0    0 -0.22402253028E+03  0.24396638829E+03 -0.25516828964E+03  0.42528012457E+03  0.77760115944E+02 0.  0.
        254    2    1    2    0    0  0.22402253028E+03 -0.24396638829E+03 -0.12505430985E+03  0.96960741992E+03  0.90265955690E+03 0.  0.
         23    2    4    4    0    0 -0.17196345846E+03 -0.99976930432E+02  0.29449010087E+03  0.36683328459E+03  0.90969343807E+02 0.  0.
         23    2    4    4    0    0  0.39598598874E+03 -0.14398945785E+03 -0.41954441072E+03  0.60277413533E+03  0.98900345796E+02 0.  0.
          4    1    3    3  502    0 -0.15683838704E+03  0.19098346797E+03 -0.14767181354E+03  0.28788874449E+03  0.00000000000E+00 0. -1.
         -3    1    3    3    0  502 -0.67184143241E+02  0.52982920314E+02 -0.10749647610E+03  0.13739138009E+03  0.00000000000E+00 0.  1.
         11    1    5    5    0    0 -0.35496372638E+02 -0.11658877286E+02  0.13124339569E+03  0.13645787190E+03  0.00000000000E+00 0. -1.
        -11    1    5    5    0    0 -0.13646708582E+03 -0.88318053146E+02  0.16324670518E+03  0.23037541269E+03  0.00000000000E+00 0.  1.
          1    1    6    6  503    0  0.11219388459E+02 -0.29063267135E+02 -0.27159664499E+02  0.41330322399E+02  0.00000000000E+00 0. -1.
         -1    1    6    6    0  503  0.38476660028E+03 -0.11492619072E+03 -0.39238474622E+03  0.56144381293E+03  0.00000000000E+00 0.  1.
<mgrwt>
<rscale>  0 0.13420663E+04</rscale>
<asrwt>0</asrwt>
<pdfrwt beam="1">  1        2 0.13654693E+00 0.13420663E+04</pdfrwt>
<pdfrwt beam="2">  1       -1 0.78051150E-01 0.13420663E+04</pdfrwt>
<totfact> 0.54840027E+01</totfact>
</mgrwt>
</event>
<event>
12    6  0.1521603E-007  0.2100611E+04  0.7818608E-02  0.8560974E-01
         -1   -1    0    0    0  501 -0.00000000000E+00  0.00000000000E+00  0.49428155321E+03  0.49428155321E+03  0.00000000000E+00 0.  1.
          2   -1    0    0  501    0  0.00000000000E+00 -0.00000000000E+00 -0.22318078889E+04  0.22318078889E+04  0.00000000000E+00 0. -1.
         24    2    1    2    0    0 -0.76350731700E+03 -0.38162054622E+03 -0.59391125035E+03  0.10428576787E+04  0.79018354429E+02 0.  0.
        254    2    1    2    0    0  0.76350731700E+03  0.38162054622E+03 -0.11436150853E+04  0.16832317634E+04  0.89265673218E+03 0.  0.
         23    2    4    4    0    0  0.78326948935E+03  0.59304965893E+03 -0.80927781652E+03  0.12761409581E+04  0.91576032729E+02 0.  0.
         23    2    4    4    0    0 -0.19762172355E+02 -0.21142911271E+03 -0.33433726880E+03  0.40709080527E+03  0.94067535669E+02 0.  0.
          4    1    3    3  502    0 -0.16489989402E+03 -0.74683962557E+02 -0.16577576721E+03  0.24546134993E+03  0.00000000000E+00 0. -1.
         -3    1    3    3    0  502 -0.59860742297E+03 -0.30693658366E+03 -0.42813548313E+03  0.79739632878E+03  0.00000000000E+00 0.  1.
         11    1    5    5    0    0  0.69460342830E+03  0.53707576738E+03 -0.75539246752E+03  0.11582495769E+04  0.00000000000E+00 0.  1.
        -11    1    5    5    0    0  0.88666061057E+02  0.55973891551E+02 -0.53885349006E+02  0.11789138118E+03  0.00000000000E+00 0. -1.
          1    1    6    6  503    0  0.37934967789E+02 -0.87216273733E+02 -0.12908172277E+03  0.16033661883E+03  0.00000000000E+00 0. -1.
         -1    1    6    6    0  503 -0.57697140144E+02 -0.12421283898E+03 -0.20525554603E+03  0.24675418643E+03  0.00000000000E+00 0.  1.
<mgrwt>
<rscale>  0 0.21006108E+04</rscale>
<asrwt>0</asrwt>
<pdfrwt beam="1">  1        2 0.34335507E+00 0.21006108E+04</pdfrwt>
<pdfrwt beam="2">  1       -1 0.76043313E-01 0.21006108E+04</pdfrwt>
<totfact> 0.90265298E+00</totfact>
</mgrwt>
</event>
<event>
12    6  0.1521603E-007  0.1250835E+04  0.7818608E-02  0.9069488E-01
          2   -1    0    0  501    0  0.00000000000E+00  0.00000000000E+00  0.38735917051E+04  0.38735917051E+04  0.00000000000E+00 0. -1.
         -1   -1    0    0    0  501 -0.00000000000E+00 -0.00000000000E+00 -0.10097793149E+03  0.10097793149E+03  0.00000000000E+00 0.  1.
         24    2    1    2    0    0 -0.26806891969E+03 -0.13190314262E+03  0.87908052949E+03  0.93179935158E+03  0.78791303772E+02 0.  0.
        254    2    1    2    0    0  0.26806891969E+03  0.13190314262E+03  0.28935332441E+04  0.30427702850E+04  0.89255643391E+03 0.  0.
         23    2    4    4    0    0 -0.46640837518E+02 -0.55627583524E+02 -0.12324291348E+02  0.11273377693E+03  0.85365218505E+02 0.  0.
         23    2    4    4    0    0  0.31470975720E+03  0.18753072615E+03  0.29058575355E+04  0.29300365081E+04  0.83041662165E+02 0.  0.
          4    1    3    3  502    0 -0.19963360940E+03 -0.10130999266E+03  0.74817110896E+03  0.78094641359E+03  0.00000000000E+00 0. -1.
         -3    1    3    3    0  502 -0.68435310285E+02 -0.30593149963E+02  0.13090942053E+03  0.15085293800E+03  0.00000000000E+00 0.  1.
         11    1    5    5    0    0  0.10533682819E+01 -0.13915432308E+02  0.32333345659E+02  0.35216389403E+02  0.00000000000E+00 0. -1.
        -11    1    5    5    0    0 -0.47694205800E+02 -0.41712151216E+02 -0.44657637007E+02  0.77517387527E+02  0.00000000000E+00 0.  1.
          1    1    6    6  503    0  0.11300501113E+03  0.23037393718E+02  0.91126379833E+03  0.91853283240E+03  0.00000000000E+00 0. -1.
         -1    1    6    6    0  503  0.20170474608E+03  0.16449333243E+03  0.19945937372E+04  0.20115036757E+04  0.00000000000E+00 0.  1.
<mgrwt>
<rscale>  0 0.12508354E+04</rscale>
<asrwt>0</asrwt>
<pdfrwt beam="1">  1        2 0.59593707E+00 0.12508354E+04</pdfrwt>
<pdfrwt beam="2">  1       -1 0.15535069E-01 0.12508354E+04</pdfrwt>
<totfact> 0.15504450E+01</totfact>
</mgrwt>
</event>
<event>
12    6  0.1521603E-007  0.1769415E+04  0.7818608E-02  0.8722735E-01
         -1   -1    0    0    0  501 -0.00000000000E+00  0.00000000000E+00  0.80946361290E+03  0.80946361290E+03  0.00000000000E+00 0.  1.
          2   -1    0    0  501    0  0.00000000000E+00 -0.00000000000E+00 -0.96694568027E+03  0.96694568027E+03  0.00000000000E+00 0. -1.
         24    2    1    2    0    0 -0.51446016528E+03 -0.66666554193E+02 -0.45222877692E+03  0.69257076396E+03  0.77651177115E+02 0.  0.
        254    2    1    2    0    0  0.51446016528E+03  0.66666554193E+02  0.29474670955E+03  0.10838385292E+04  0.90482962126E+03 0.  0.
         23    2    4    4    0    0 -0.21057545939E+03 -0.58597360510E+02 -0.86363028500E+02  0.25023103657E+03  0.85914633316E+02 0.  0.
         23    2    4    4    0    0  0.72503562467E+03  0.12526391470E+03  0.38110973805E+03  0.83360749264E+03  0.91044571433E+02 0.  0.
          2    1    3    3  502    0 -0.42031254305E+03 -0.64650978147E+02 -0.40486602011E+03  0.58716171287E+03  0.00000000000E+00 0. -1.
         -1    1    3    3    0  502 -0.94147622234E+02 -0.20155760462E+01 -0.47362756805E+02  0.10540905109E+03  0.00000000000E+00 0.  1.
         11    1    5    5    0    0 -0.22775380788E+02  0.31811538239E+00  0.16521359868E+02  0.28138487865E+02  0.00000000000E+00 0. -1.
        -11    1    5    5    0    0 -0.18780007860E+03 -0.58915475892E+02 -0.10288438837E+03  0.22209254871E+03  0.00000000000E+00 0.  1.
          1    1    6    6  503    0  0.34387865632E+03  0.84012686918E+02  0.22631735685E+03  0.42015498075E+03  0.00000000000E+00 0. -1.
         -1    1    6    6    0  503  0.38115696835E+03  0.41251227785E+02  0.15479238120E+03  0.41345251189E+03  0.00000000000E+00 0.  1.
<mgrwt>
<rscale>  0 0.17694150E+04</rscale>
<asrwt>0</asrwt>
<pdfrwt beam="1">  1        2 0.14876087E+00 0.17694150E+04</pdfrwt>
<pdfrwt beam="2">  1       -1 0.12453286E+00 0.17694150E+04</pdfrwt>
<totfact> 0.16143307E+01</totfact>
</mgrwt>
</event>
<event>
12    6  0.1521603E-007  0.2283076E+04  0.7818608E-02  0.8484624E-01
         -1   -1    0    0    0  501 -0.00000000000E+00  0.00000000000E+00  0.58104300620E+03  0.58104300620E+03  0.00000000000E+00 0.  1.
          2   -1    0    0  501    0  0.00000000000E+00 -0.00000000000E+00 -0.22427063265E+04  0.22427063265E+04  0.00000000000E+00 0. -1.
         24    2    1    2    0    0 -0.74357119651E+03  0.13052712835E+03  0.34682650073E+02  0.76006230601E+03  0.80971397987E+02 0.  0.
        254    2    1    2    0    0  0.74357119651E+03 -0.13052712835E+03 -0.16963459704E+04  0.20636870267E+04  0.90071029606E+03 0.  0.
         23    2    4    4    0    0  0.46900662895E+03  0.21122729902E+03 -0.31160970191E+03  0.60832776379E+03  0.91530716247E+02 0.  0.
         23    2    4    4    0    0  0.27456456755E+03 -0.34175442737E+03 -0.13847362685E+04  0.14553592629E+04  0.91620197284E+02 0.  0.
          2    1    3    3  502    0 -0.15589027031E+03 -0.50210011471E+01  0.27757012675E+00  0.15597135595E+03  0.00000000000E+00 0. -1.
         -1    1    3    3    0  502 -0.58768092619E+03  0.13554812950E+03  0.34405079946E+02  0.60409095006E+03  0.00000000000E+00 0.  1.
         11    1    5    5    0    0  0.37505756485E+03  0.18343565503E+03 -0.28900561902E+03  0.50778052771E+03  0.00000000000E+00 0. -1.
        -11    1    5    5    0    0  0.93949064098E+02  0.27791643992E+02 -0.22604082892E+02  0.10054723608E+03  0.00000000000E+00 0.  1.
          1    1    6    6  503    0  0.21321941350E+03 -0.27535103444E+03 -0.12027863628E+04  0.12521883824E+04  0.00000000000E+00 0. -1.
         -1    1    6    6    0  503  0.61345154053E+02 -0.66403392929E+02 -0.18194990566E+03  0.20317088051E+03  0.00000000000E+00 0.  1.
<mgrwt>
<rscale>  0 0.22830758E+04</rscale>
<asrwt>0</asrwt>
<pdfrwt beam="1">  1        2 0.34503174E+00 0.22830758E+04</pdfrwt>
<pdfrwt beam="2">  1       -1 0.89391232E-01 0.22830758E+04</pdfrwt>
<totfact> 0.61876190E+00</totfact>
</mgrwt>
</event>
<event>
12    6  0.1521603E-007  0.2199043E+04  0.7818608E-02  0.8518827E-01
         -1   -1    0    0    0  501 -0.00000000000E+00  0.00000000000E+00  0.14412840241E+04  0.14412840241E+04  0.00000000000E+00 0.  1.
          2   -1    0    0  501    0  0.00000000000E+00 -0.00000000000E+00 -0.83879897384E+03  0.83879897384E+03  0.00000000000E+00 0. -1.
         24    2    1    2    0    0  0.20212567288E+03  0.25329596353E+03  0.11412798664E+04  0.11890290789E+04  0.79099837956E+02 0.  0.
        254    2    1    2    0    0 -0.20212567288E+03 -0.25329596353E+03 -0.53879481611E+03  0.10910539190E+04  0.89167548333E+03 0.  0.
         23    2    4    4    0    0  0.25026132542E+03  0.89029076442E+02  0.31227105929E+02  0.28175054447E+03  0.88607729413E+02 0.  0.
         23    2    4    4    0    0 -0.45238699829E+03 -0.34232503997E+03 -0.57002192204E+03  0.80930337455E+03  0.90589906961E+02 0.  0.
          4    1    3    3  502    0 -0.19158766017E+01  0.23165822379E+02  0.12827183634E+03  0.13036099842E+03  0.00000000000E+00 0. -1.
         -3    1    3    3    0  502  0.20404154948E+03  0.23013014115E+03  0.10130080300E+04  0.10586680805E+04  0.00000000000E+00 0.  1.
         11    1    5    5    0    0  0.22036524990E+03  0.89037878019E+02  0.54526255833E+02  0.24384769768E+03  0.00000000000E+00 0.  1.
        -11    1    5    5    0    0  0.29896075514E+02 -0.88015776018E-02 -0.23299149904E+02  0.37902846791E+02  0.00000000000E+00 0. -1.
          4    1    6    6  503    0 -0.25378962608E+03 -0.19351179530E+03 -0.25648837341E+03  0.40944141818E+03  0.00000000000E+00 0. -1.
         -4    1    6    6    0  503 -0.19859737221E+03 -0.14881324467E+03 -0.31353354863E+03  0.39986195638E+03  0.00000000000E+00 0.  1.
<mgrwt>
<rscale>  0 0.21990430E+04</rscale>
<asrwt>0</asrwt>
<pdfrwt beam="1">  1        2 0.12904600E+00 0.21990430E+04</pdfrwt>
<pdfrwt beam="2">  1       -1 0.22173600E+00 0.21990430E+04</pdfrwt>
<totfact> 0.36108395E+00</totfact>
</mgrwt>
</event>
<event>
12    6  0.1521603E-007  0.1758279E+04  0.7818608E-02  0.8728806E-01
         -1   -1    0    0    0  501 -0.00000000000E+00  0.00000000000E+00  0.13362490968E+04  0.13362490968E+04  0.00000000000E+00 0.  1.
          2   -1    0    0  501    0  0.00000000000E+00 -0.00000000000E+00 -0.57839996914E+03  0.57839996914E+03  0.00000000000E+00 0. -1.
         24    2    1    2    0    0  0.61511169450E+03 -0.36775486659E+02  0.49545046050E+03  0.79463740426E+03  0.79136668557E+02 0.  0.
        254    2    1    2    0    0 -0.61511169450E+03  0.36775486659E+02  0.26239866711E+03  0.11200116616E+04  0.89769606693E+03 0.  0.
         23    2    4    4    0    0 -0.37445250542E+03  0.20036168403E+03  0.54970567526E+03  0.70062120159E+03  0.91292143477E+02 0.  0.
         23    2    4    4    0    0 -0.24065918908E+03 -0.16358619737E+03 -0.28730700815E+03  0.41939046005E+03  0.93090019814E+02 0.  0.
          2    1    3    3  502    0  0.58563556986E+03 -0.51603832363E+02  0.47502552955E+03  0.75583148249E+03  0.00000000000E+00 0. -1.
         -1    1    3    3    0  502  0.29476124637E+02  0.14828345704E+02  0.20424930953E+02  0.38805921770E+02  0.00000000000E+00 0.  1.
         11    1    5    5    0    0 -0.18599132059E+03  0.14971804697E+03  0.31876300380E+03  0.39826890102E+03  0.00000000000E+00 0. -1.
        -11    1    5    5    0    0 -0.18846118483E+03  0.50643637061E+02  0.23094267146E+03  0.30235230057E+03  0.00000000000E+00 0.  1.
          4    1    6    6  503    0 -0.13660481961E+03 -0.45988468953E+02 -0.10241784969E+03  0.17681977251E+03  0.00000000000E+00 0. -1.
         -4    1    6    6    0  503 -0.10405436947E+03 -0.11759772842E+03 -0.18488915846E+03  0.24257068754E+03  0.00000000000E+00 0.  1.
<mgrwt>
<rscale>  0 0.17582792E+04</rscale>
<asrwt>0</asrwt>
<pdfrwt beam="1">  1        2 0.88984611E-01 0.17582792E+04</pdfrwt>
<pdfrwt beam="2">  1       -1 0.20557678E+00 0.17582792E+04</pdfrwt>
<totfact> 0.77284479E+00</totfact>
</mgrwt>
</event>
<event>
12    6  0.1521603E-007  0.2697167E+04  0.7818608E-02  0.8335925E-01
         -1   -1    0    0    0  501 -0.00000000000E+00  0.00000000000E+00  0.72592699808E+03  0.72592699808E+03  0.00000000000E+00 0.  1.
          2   -1    0    0  501    0  0.00000000000E+00 -0.00000000000E+00 -0.25053167374E+04  0.25053167374E+04  0.00000000000E+00 0. -1.
         24    2    1    2    0    0 -0.10089827529E+04  0.35605726535E+03 -0.14479816741E+03  0.10827320561E+04  0.80741712907E+02 0.  0.
        254    2    1    2    0    0  0.10089827529E+04 -0.35605726535E+03 -0.16345915719E+04  0.21485116793E+04  0.89408604587E+03 0.  0.
         23    2    4    4    0    0  0.27315366926E+03  0.18716412855E+03 -0.97187896968E+02  0.35720824263E+03  0.92243716542E+02 0.  0.
         23    2    4    4    0    0  0.73582908367E+03 -0.54322139390E+03 -0.15374036749E+04  0.17913034367E+04  0.92865599146E+02 0.  0.
          2    1    3    3  502    0 -0.48995391093E+03  0.17351352203E+03 -0.11106837942E+03  0.53150537351E+03  0.00000000000E+00 0. -1.
         -1    1    3    3    0  502 -0.51902884199E+03  0.18254374332E+03 -0.33729787994E+02  0.55122668263E+03  0.00000000000E+00 0.  1.
         11    1    5    5    0    0  0.13326337831E+03  0.37197678365E+02 -0.46387176843E+02  0.14592657554E+03  0.00000000000E+00 0. -1.
        -11    1    5    5    0    0  0.13989029095E+03  0.14996645018E+03 -0.50800720126E+02  0.21128166709E+03  0.00000000000E+00 0.  1.
          1    1    6    6  503    0  0.15780586909E+03 -0.12591088244E+03 -0.41723044368E+03  0.46350564805E+03  0.00000000000E+00 0. -1.
         -1    1    6    6    0  503  0.57802321457E+03 -0.41731051145E+03 -0.11201732313E+04  0.13277977887E+04  0.00000000000E+00 0.  1.
<mgrwt>
<rscale>  0 0.26971667E+04</rscale>
<asrwt>0</asrwt>
<pdfrwt beam="1">  1        2 0.38543334E+00 0.26971667E+04</pdfrwt>
<pdfrwt beam="2">  1       -1 0.11168108E+00 0.26971667E+04</pdfrwt>
<totfact> 0.25381812E+00</totfact>
</mgrwt>
</event>
<event>
12    6  0.1521603E-007  0.1579939E+04  0.7818608E-02  0.8832968E-01
         -1   -1    0    0    0  501 -0.00000000000E+00  0.00000000000E+00  0.46909908478E+03  0.46909908478E+03  0.00000000000E+00 0.  1.
          2   -1    0    0  501    0  0.00000000000E+00 -0.00000000000E+00 -0.13303191027E+04  0.13303191027E+04  0.00000000000E+00 0. -1.
         24    2    1    2    0    0  0.19549701294E+03 -0.29811836481E+03 -0.75376969257E+03  0.83771550317E+03  0.80652794748E+02 0.  0.
        254    2    1    2    0    0 -0.19549701294E+03  0.29811836481E+03 -0.10745032539E+03  0.96170268434E+03  0.88669771577E+03 0.  0.
         23    2    4    4    0    0 -0.31040429965E+02 -0.29944143796E+03  0.36049061476E+02  0.31980322954E+03  0.10171473704E+03 0.  0.
         23    2    4    4    0    0 -0.16445658297E+03  0.59755980277E+03 -0.14349938686E+03  0.64189945481E+03  0.85552033774E+02 0.  0.
          4    1    3    3  502    0  0.10997405400E+03 -0.16197569705E+03 -0.50381240247E+03  0.54051582388E+03  0.00000000000E+00 0. -1.
         -3    1    3    3    0  502  0.85522958937E+02 -0.13614266775E+03 -0.24995729011E+03  0.29719967928E+03  0.00000000000E+00 0.  1.
         11    1    5    5    0    0 -0.41563960252E+02 -0.12703877507E+03  0.57969141671E+02  0.14569431887E+03  0.00000000000E+00 0. -1.
        -11    1    5    5    0    0  0.10523530287E+02 -0.17240266289E+03 -0.21920080195E+02  0.17410891067E+03  0.00000000000E+00 0.  1.
          4    1    6    6  503    0 -0.23648177564E+02  0.15272588686E+03 -0.28446305874E+01  0.15457206974E+03  0.00000000000E+00 0. -1.
         -4    1    6    6    0  503 -0.14080840541E+03  0.44483391590E+03 -0.14065475628E+03  0.48732738506E+03  0.00000000000E+00 0.  1.
<mgrwt>
<rscale>  0 0.15799386E+04</rscale>
<asrwt>0</asrwt>
<pdfrwt beam="1">  1        2 0.20466448E+00 0.15799386E+04</pdfrwt>
<pdfrwt beam="2">  1       -1 0.72169091E-01 0.15799386E+04</pdfrwt>
<totfact> 0.33664231E+01</totfact>
</mgrwt>
</event>
<event>
12    6  0.1521603E-007  0.1311742E+04  0.7818608E-02  0.9020305E-01
          2   -1    0    0  501    0  0.00000000000E+00  0.00000000000E+00  0.17021513151E+04  0.17021513151E+04  0.00000000000E+00 0. -1.
         -1   -1    0    0    0  501 -0.00000000000E+00 -0.00000000000E+00 -0.25271952969E+03  0.25271952969E+03  0.00000000000E+00 0.  1.
         24    2    1    2    0    0 -0.16376451273E+03  0.28470422323E+03  0.27790694038E+03  0.43758221199E+03  0.79816128621E+02 0.  0.
        254    2    1    2    0    0  0.16376451273E+03 -0.28470422323E+03  0.11715248451E+04  0.15172886328E+04  0.90654234449E+03 0.  0.
         23    2    4    4    0    0  0.53051048613E+03 -0.16407315496E+03  0.75995872790E+03  0.94565365140E+03  0.91444979167E+02 0.  0.
         23    2    4    4    0    0 -0.36674597340E+03 -0.12063106827E+03  0.41156611719E+03  0.57163498145E+03  0.91243737131E+02 0.  0.
          2    1    3    3  502    0 -0.60765757550E+02  0.12315800923E+03  0.16697263857E+03  0.21619489948E+03  0.00000000000E+00 0. -1.
         -1    1    3    3    0  502 -0.10299875518E+03  0.16154621400E+03  0.11093430181E+03  0.22138731251E+03  0.00000000000E+00 0.  1.
         11    1    5    5    0    0  0.27741801630E+03 -0.13112859564E+03  0.43837704834E+03  0.53509802922E+03  0.00000000000E+00 0.  1.
        -11    1    5    5    0    0  0.25309246983E+03 -0.32944559325E+02  0.32158167956E+03  0.41055562217E+03  0.00000000000E+00 0. -1.
          1    1    6    6  503    0  0.54138300898E+00 -0.13161810329E+02  0.77101478621E+01  0.15263444132E+02  0.00000000000E+00 0. -1.
         -1    1    6    6    0  503 -0.36728735641E+03 -0.10746925794E+03  0.40385596932E+03  0.55637153732E+03  0.00000000000E+00 0.  1.
<mgrwt>
<rscale>  0 0.13117422E+04</rscale>
<asrwt>0</asrwt>
<pdfrwt beam="1">  1        2 0.26186943E+00 0.13117422E+04</pdfrwt>
<pdfrwt beam="2">  1       -1 0.38879929E-01 0.13117422E+04</pdfrwt>
<totfact> 0.70003117E+01</totfact>
</mgrwt>
</event>
<event>
12    6  0.1521603E-007  0.1839341E+04  0.7818608E-02  0.8685654E-01
          2   -1    0    0  501    0  0.00000000000E+00  0.00000000000E+00  0.20689715762E+04  0.20689715762E+04  0.00000000000E+00 0. -1.
         -1   -1    0    0    0  501 -0.00000000000E+00 -0.00000000000E+00 -0.40879925076E+03  0.40879925076E+03  0.00000000000E+00 0.  1.
         24    2    1    2    0    0  0.19766767367E+03  0.27405295982E+03  0.14699213487E+04  0.15103391218E+04  0.79233564442E+02 0.  0.
        254    2    1    2    0    0 -0.19766767367E+03 -0.27405295982E+03  0.19025097678E+03  0.96743170511E+03  0.88631322673E+03 0.  0.
         23    2    4    4    0    0 -0.39945737889E+03 -0.13268968019E+03  0.43148519229E+03  0.60982073969E+03  0.92353205712E+02 0.  0.
         23    2    4    4    0    0  0.20178970522E+03 -0.14136327962E+03 -0.24123421552E+03  0.35761096542E+03  0.94810304785E+02 0.  0.
          2    1    3    3  502    0  0.10449526668E+03  0.16067181748E+03  0.66154290120E+03  0.68874792473E+03  0.00000000000E+00 0. -1.
         -1    1    3    3    0  502  0.93172406983E+02  0.11338114234E+03  0.80837844746E+03  0.82159119712E+03  0.00000000000E+00 0.  1.
         11    1    5    5    0    0 -0.90006370153E+02  0.63873480361E+01  0.11174381836E+03  0.14362668911E+03  0.00000000000E+00 0.  1.
        -11    1    5    5    0    0 -0.30945100874E+03 -0.13907702823E+03  0.31974137394E+03  0.46619405058E+03  0.00000000000E+00 0. -1.
          4    1    6    6  503    0  0.76795929066E+02 -0.93834388668E+02 -0.68843173328E+02  0.13943417706E+03  0.00000000000E+00 0.  1.
         -4    1    6    6    0  503  0.12499377616E+03 -0.47528890953E+02 -0.17239104219E+03  0.21817678836E+03  0.00000000000E+00 0. -1.
<mgrwt>
<rscale>  0 0.18393412E+04</rscale>
<asrwt>0</asrwt>
<pdfrwt beam="1">  1        2 0.31830331E+00 0.18393412E+04</pdfrwt>
<pdfrwt beam="2">  1       -1 0.62892194E-01 0.18393412E+04</pdfrwt>
<totfact> 0.16805481E+01</totfact>
</mgrwt>
</event>
<event>
12    6  0.1521603E-007  0.1470108E+04  0.7818608E-02  0.8904578E-01
         -1   -1    0    0    0  501 -0.00000000000E+00  0.00000000000E+00  0.24899733636E+03  0.24899733636E+03  0.00000000000E+00 0.  1.
          2   -1    0    0  501    0  0.00000000000E+00 -0.00000000000E+00 -0.21699189327E+04  0.21699189327E+04  0.00000000000E+00 0. -1.
         24    2    1    2    0    0 -0.48454399843E+02  0.37928583302E+03 -0.10106130697E+04  0.10834283467E+04  0.79199961389E+02 0.  0.
        254    2    1    2    0    0  0.48454399843E+02 -0.37928583302E+03 -0.91030852668E+03  0.13354879223E+04  0.89925569501E+03 0.  0.
         23    2    4    4    0    0 -0.20153008541E+03 -0.11776801470E+03 -0.92820021382E+03  0.96158672183E+03  0.92788501721E+02 0.  0.
         23    2    4    4    0    0  0.24998448525E+03 -0.26151781832E+03  0.17891687144E+02  0.37390120052E+03  0.92726388430E+02 0.  0.
          2    1    3    3  502    0 -0.57040496411E+02  0.33932969882E+03 -0.94935723605E+03  0.10097907825E+04  0.00000000000E+00 0. -1.
         -1    1    3    3    0  502  0.85860965685E+01  0.39956134206E+02 -0.61255833623E+02  0.73637564245E+02  0.00000000000E+00 0.  1.
         11    1    5    5    0    0 -0.56235846716E+02  0.32014624029E+01 -0.31169428186E+03  0.31674286916E+03  0.00000000000E+00 0.  1.
        -11    1    5    5    0    0 -0.14529423869E+03 -0.12096947710E+03 -0.61650593196E+03  0.64484385267E+03  0.00000000000E+00 0. -1.
          3    1    6    6  503    0  0.21393881725E+03 -0.19690548875E+03  0.46732396099E+02  0.29449194534E+03  0.00000000000E+00 0. -1.
         -3    1    6    6    0  503  0.36045668008E+02 -0.64612329571E+02 -0.28840708955E+02  0.79409255177E+02  0.00000000000E+00 0.  1.
<mgrwt>
<rscale>  0 0.14701075E+04</rscale>
<asrwt>0</asrwt>
<pdfrwt beam="1">  1        2 0.33383369E+00 0.14701075E+04</pdfrwt>
<pdfrwt beam="2">  1       -1 0.38307282E-01 0.14701075E+04</pdfrwt>
<totfact> 0.39073984E+01</totfact>
</mgrwt>
</event>
<event>
12    6  0.1521603E-007  0.2410183E+04  0.7818608E-02  0.8435701E-01
         -1   -1    0    0    0  501 -0.00000000000E+00  0.00000000000E+00  0.12622462159E+04  0.12622462159E+04  0.00000000000E+00 0.  1.
          2   -1    0    0  501    0  0.00000000000E+00 -0.00000000000E+00 -0.11505250404E+04  0.11505250404E+04  0.00000000000E+00 0. -1.
         24    2    1    2    0    0 -0.27720849147E+03  0.38050166482E+03  0.97040134704E+03  0.10816039695E+04  0.81008072193E+02 0.  0.
        254    2    1    2    0    0  0.27720849147E+03 -0.38050166482E+03 -0.85868017153E+03  0.13311672868E+04  0.90169210034E+03 0.  0.
         23    2    4    4    0    0 -0.31348651043E+03 -0.16312227688E+03 -0.42850529272E+03  0.56326575506E+03  0.93642167317E+02 0.  0.
         23    2    4    4    0    0  0.59069500190E+03 -0.21737938793E+03 -0.43017487881E+03  0.76790153174E+03  0.91912744078E+02 0.  0.
          2    1    3    3  502    0 -0.19327923121E+03  0.31674582154E+03  0.78661032497E+03  0.86973592546E+03  0.00000000000E+00 0. -1.
         -1    1    3    3    0  502 -0.83929260260E+02  0.63755843278E+02  0.18379102206E+03  0.21186804401E+03  0.00000000000E+00 0.  1.
         11    1    5    5    0    0 -0.38290728098E+02 -0.20051733189E+02 -0.13740347871E+02  0.45354702311E+02  0.00000000000E+00 0.  1.
        -11    1    5    5    0    0 -0.27519578233E+03 -0.14307054369E+03 -0.41476494485E+03  0.51791105275E+03  0.00000000000E+00 0. -1.
          1    1    6    6  503    0  0.34347688425E+03 -0.93676666303E+02 -0.20116499319E+03  0.40892425009E+03  0.00000000000E+00 0. -1.
         -1    1    6    6    0  503  0.24721811765E+03 -0.12370272163E+03 -0.22900988561E+03  0.35897728165E+03  0.00000000000E+00 0.  1.
<mgrwt>
<rscale>  0 0.24101833E+04</rscale>
<asrwt>0</asrwt>
<pdfrwt beam="1">  1        2 0.17700385E+00 0.24101833E+04</pdfrwt>
<pdfrwt beam="2">  1       -1 0.19419173E+00 0.24101833E+04</pdfrwt>
<totfact> 0.34314310E+00</totfact>
</mgrwt>
</event>
<event>
12    6  0.1521603E-007  0.1336003E+04  0.7818608E-02  0.9001492E-01
          2   -1    0    0  501    0  0.00000000000E+00  0.00000000000E+00  0.12799558569E+04  0.12799558569E+04  0.00000000000E+00 0. -1.
         -1   -1    0    0    0  501 -0.00000000000E+00 -0.00000000000E+00 -0.34862586705E+03  0.34862586705E+03  0.00000000000E+00 0.  1.
         24    2    1    2    0    0  0.18509601243E+03 -0.28967813927E+03  0.10366855778E+03  0.36748578833E+03  0.78260312838E+02 0.  0.
        254    2    1    2    0    0 -0.18509601243E+03  0.28967813927E+03  0.82766143206E+03  0.12610959356E+04  0.88722350877E+03 0.  0.
         23    2    4    4    0    0  0.19042477775E+02  0.57551253830E+03  0.57211781880E+03  0.81697217931E+03  0.92452395685E+02 0.  0.
         23    2    4    4    0    0 -0.20413849020E+03 -0.28583439903E+03  0.25554361326E+03  0.44412375631E+03  0.92571841205E+02 0.  0.
          4    1    3    3  502    0  0.28019523015E+02 -0.59528057586E+02  0.52525370304E+02  0.84187872259E+02  0.00000000000E+00 0. -1.
         -3    1    3    3    0  502  0.15707648941E+03 -0.23015008168E+03  0.51143187473E+02  0.28329791607E+03  0.00000000000E+00 0.  1.
         11    1    5    5    0    0 -0.99061220866E+01  0.96938648292E+02  0.55432155363E+02  0.11210689825E+03  0.00000000000E+00 0.  1.
        -11    1    5    5    0    0  0.28948599862E+02  0.47857389001E+03  0.51668566344E+03  0.70486528106E+03  0.00000000000E+00 0. -1.
          4    1    6    6  503    0 -0.18023138163E+03 -0.24640826070E+03  0.17655987824E+03  0.35266665914E+03  0.00000000000E+00 0. -1.
         -4    1    6    6    0  503 -0.23907108571E+02 -0.39426138338E+02  0.78983735021E+02  0.91457097168E+02  0.00000000000E+00 0.  1.
<mgrwt>
<rscale>  0 0.13360026E+04</rscale>
<asrwt>0</asrwt>
<pdfrwt beam="1">  1        2 0.19691628E+00 0.13360026E+04</pdfrwt>
<pdfrwt beam="2">  1       -1 0.53634749E-01 0.13360026E+04</pdfrwt>
<totfact> 0.66393150E+01</totfact>
</mgrwt>
</event>
<event>
12    6  0.1521603E-007  0.2291561E+04  0.7818608E-02  0.8481256E-01
          2   -1    0    0  501    0  0.00000000000E+00  0.00000000000E+00  0.17106695923E+04  0.17106695923E+04  0.00000000000E+00 0. -1.
         -1   -1    0    0    0  501 -0.00000000000E+00 -0.00000000000E+00 -0.76742662684E+03  0.76742662684E+03  0.00000000000E+00 0.  1.
         24    2    1    2    0    0  0.72504297431E+03 -0.29020971642E+03 -0.24133400435E+03  0.82139593905E+03  0.80871459254E+02 0.  0.
        254    2    1    2    0    0 -0.72504297431E+03  0.29020971642E+03  0.11845769698E+04  0.16567002800E+04  0.85529189549E+03 0.  0.
         23    2    4    4    0    0 -0.29442518785E+03  0.55973842869E+03  0.70615630757E+03  0.95235924922E+03  0.91313246943E+02 0.  0.
         23    2    4    4    0    0 -0.43061778646E+03 -0.26952871226E+03  0.47842066220E+03  0.70434103082E+03  0.95564391520E+02 0.  0.
          2    1    3    3  502    0  0.75908673236E+01 -0.10854949544E+02  0.31042870462E+01  0.13604697512E+02  0.00000000000E+00 0. -1.
         -1    1    3    3    0  502  0.71745210699E+03 -0.27935476688E+03 -0.24443829139E+03  0.80779124154E+03  0.00000000000E+00 0.  1.
         11    1    5    5    0    0 -0.26123812805E+03  0.53686933195E+03  0.64312677515E+03  0.87754549059E+03  0.00000000000E+00 0.  1.
        -11    1    5    5    0    0 -0.33187059798E+02  0.22869096734E+02  0.63029532421E+02  0.74813758632E+02  0.00000000000E+00 0. -1.
          1    1    6    6  503    0 -0.31198138171E+02 -0.54517998536E+02  0.48441696950E+02  0.79322972669E+02  0.00000000000E+00 0. -1.
         -1    1    6    6    0  503 -0.39941964829E+03 -0.21501071373E+03  0.42997896525E+03  0.62501805815E+03  0.00000000000E+00 0.  1.
<mgrwt>
<rscale>  0 0.22915614E+04</rscale>
<asrwt>0</asrwt>
<pdfrwt beam="1">  1        2 0.26317994E+00 0.22915614E+04</pdfrwt>
<pdfrwt beam="2">  1       -1 0.11806564E+00 0.22915614E+04</pdfrwt>
<totfact> 0.64373372E+00</totfact>
</mgrwt>
</event>
<event>
12    6  0.1521603E-007  0.1384997E+04  0.7818608E-02  0.8964750E-01
         -1   -1    0    0    0  501 -0.00000000000E+00  0.00000000000E+00  0.63370922502E+03  0.63370922502E+03  0.00000000000E+00 0.  1.
          2   -1    0    0  501    0  0.00000000000E+00 -0.00000000000E+00 -0.75674210207E+03  0.75674210207E+03  0.00000000000E+00 0. -1.
         24    2    1    2    0    0 -0.30283139540E+03 -0.23510299377E+03 -0.72395887462E+02  0.39826029866E+03  0.79936407542E+02 0.  0.
        254    2    1    2    0    0  0.30283139540E+03  0.23510299377E+03 -0.50636989587E+02  0.99219102842E+03  0.91372789190E+03 0.  0.
         23    2    4    4    0    0  0.11480493128E+02 -0.22874850874E+03 -0.29606911732E+03  0.38470608247E+03  0.88792824519E+02 0.  0.
         23    2    4    4    0    0  0.29135090227E+03  0.46385150251E+03  0.24543212773E+03  0.60748494595E+03  0.93581331466E+02 0.  0.
          2    1    3    3  502    0 -0.14385845962E+03 -0.98332243648E+02 -0.72015870374E+02  0.18854912392E+03  0.00000000000E+00 0. -1.
         -1    1    3    3    0  502 -0.15897293577E+03 -0.13677075013E+03 -0.38001708725E+00  0.20971117474E+03  0.00000000000E+00 0.  1.
         11    1    5    5    0    0  0.30750498293E+02 -0.58821547929E+02 -0.13182976678E+03  0.14759625691E+03  0.00000000000E+00 0. -1.
        -11    1    5    5    0    0 -0.19270005165E+02 -0.16992696081E+03 -0.16423935054E+03  0.23710982556E+03  0.00000000000E+00 0.  1.
          3    1    6    6  503    0  0.79251462795E+02  0.79794310478E+02  0.82488188416E+02  0.13947124280E+03  0.00000000000E+00 0. -1.
         -3    1    6    6    0  503  0.21209943947E+03  0.38405719204E+03  0.16294393932E+03  0.46801370315E+03  0.00000000000E+00 0.  1.
<mgrwt>
<rscale>  0 0.13849974E+04</rscale>
<asrwt>0</asrwt>
<pdfrwt beam="1">  1        2 0.11642186E+00 0.13849974E+04</pdfrwt>
<pdfrwt beam="2">  1       -1 0.97493727E-01 0.13849974E+04</pdfrwt>
<totfact> 0.41666651E+01</totfact>
</mgrwt>
</event>
<event>
12    6  0.1521603E-007  0.1564292E+04  0.7818608E-02  0.8842790E-01
         -1   -1    0    0    0  501 -0.00000000000E+00  0.00000000000E+00  0.46658717939E+03  0.46658717939E+03  0.00000000000E+00 0.  1.
          2   -1    0    0  501    0  0.00000000000E+00 -0.00000000000E+00 -0.13111217563E+04  0.13111217563E+04  0.00000000000E+00 0. -1.
         24    2    1    2    0    0  0.23452022806E+03 -0.43576626298E+02 -0.79304611423E+03  0.83225544666E+03  0.82633706644E+02 0.  0.
        254    2    1    2    0    0 -0.23452022806E+03  0.43576626298E+02 -0.51488462730E+02  0.94545348907E+03  0.91341807431E+03 0.  0.
         23    2    4    4    0    0 -0.32756818305E+03 -0.26344804698E+03  0.24814659505E+03  0.49703833957E+03  0.93619390936E+02 0.  0.
         23    2    4    4    0    0  0.93047954998E+02  0.30702467328E+03 -0.29963505778E+03  0.44841514951E+03  0.91503587511E+02 0.  0.
          2    1    3    3  502    0  0.17605911068E+03 -0.66183803885E+02 -0.63372286874E+03  0.66104597473E+03  0.00000000000E+00 0. -1.
         -3    1    3    3    0  502  0.58461117376E+02  0.22607177587E+02 -0.15932324549E+03  0.17120947193E+03  0.00000000000E+00 0.  1.
         11    1    5    5    0    0 -0.16327169139E+03 -0.72425552288E+02  0.10795714303E+03  0.20870517618E+03  0.00000000000E+00 0. -1.
        -11    1    5    5    0    0 -0.16429649166E+03 -0.19102249469E+03  0.14018945202E+03  0.28833316339E+03  0.00000000000E+00 0.  1.
          2    1    6    6  503    0 -0.40287840231E+01  0.72947154714E+02 -0.31740071640E+02  0.79655198382E+02  0.00000000000E+00 0. -1.
         -2    1    6    6    0  503  0.97076739021E+02  0.23407751856E+03 -0.26789498614E+03  0.36875995112E+03  0.00000000000E+00 0.  1.
<mgrwt>
<rscale>  0 0.15642923E+04</rscale>
<asrwt>0</asrwt>
<pdfrwt beam="1">  1        2 0.20171104E+00 0.15642923E+04</pdfrwt>
<pdfrwt beam="2">  1       -1 0.71782642E-01 0.15642923E+04</pdfrwt>
<totfact> 0.34970144E+01</totfact>
</mgrwt>
</event>
<event>
12    6  0.1521603E-007  0.1663685E+04  0.7818608E-02  0.8782351E-01
         -1   -1    0    0    0  501 -0.00000000000E+00  0.00000000000E+00  0.60310965279E+03  0.60310965279E+03  0.00000000000E+00 0.  1.
          2   -1    0    0  501    0  0.00000000000E+00 -0.00000000000E+00 -0.11473240012E+04  0.11473240012E+04  0.00000000000E+00 0. -1.
         24    2    1    2    0    0 -0.43064896624E+03  0.11443615464E+03  0.20879427163E+03  0.49828971130E+03  0.78379990522E+02 0.  0.
        254    2    1    2    0    0  0.43064896624E+03 -0.11443615464E+03 -0.75300862000E+03  0.12521439427E+04  0.89570547934E+03 0.  0.
         23    2    4    4    0    0  0.62739364919E+03 -0.21984698517E+02 -0.22223528864E+03  0.67243588969E+03  0.93141742595E+02 0.  0.
         23    2    4    4    0    0 -0.19674468296E+03 -0.92451456123E+02 -0.53077333136E+03  0.57970805296E+03  0.84174552977E+02 0.  0.
          2    1    3    3  502    0 -0.85117574417E+02  0.73237603010E+00  0.65168527286E+02  0.10720296077E+03  0.00000000000E+00 0. -1.
         -1    1    3    3    0  502 -0.34553139182E+03  0.11370377861E+03  0.14362574434E+03  0.39108675053E+03  0.00000000000E+00 0.  1.
         11    1    5    5    0    0  0.13531955854E+03  0.64492510679E+01 -0.10162260963E+02  0.13585377179E+03  0.00000000000E+00 0. -1.
        -11    1    5    5    0    0  0.49207409065E+03 -0.28433949585E+02 -0.21207302768E+03  0.53658211790E+03  0.00000000000E+00 0.  1.
          3    1    6    6  503    0 -0.82139148607E+02 -0.84931025084E+02 -0.26037042690E+03  0.28592460188E+03  0.00000000000E+00 0. -1.
         -3    1    6    6    0  503 -0.11460553435E+03 -0.75204310391E+01 -0.27040290446E+03  0.29378345108E+03  0.00000000000E+00 0.  1.
<mgrwt>
<rscale>  0 0.16636853E+04</rscale>
<asrwt>0</asrwt>
<pdfrwt beam="1">  1        2 0.17651138E+00 0.16636853E+04</pdfrwt>
<pdfrwt beam="2">  1       -1 0.92786101E-01 0.16636853E+04</pdfrwt>
<totfact> 0.25038396E+01</totfact>
</mgrwt>
</event>
<event>
12    6  0.1521603E-007  0.1386329E+04  0.7818608E-02  0.8963774E-01
          2   -1    0    0  501    0  0.00000000000E+00  0.00000000000E+00  0.30675988206E+03  0.30675988206E+03  0.00000000000E+00 0. -1.
         -1   -1    0    0    0  501 -0.00000000000E+00 -0.00000000000E+00 -0.15662960444E+04  0.15662960444E+04  0.00000000000E+00 0.  1.
         24    2    1    2    0    0  0.13364212487E+03 -0.16813722045E+03 -0.81439311475E+03  0.84606520638E+03  0.80373164984E+02 0.  0.
        254    2    1    2    0    0 -0.13364212487E+03  0.16813722045E+03 -0.44514304757E+03  0.10269907201E+04  0.90023733752E+03 0.  0.
         23    2    4    4    0    0  0.25351275945E+03 -0.42436861262E+02  0.12641565310E+03  0.29919549387E+03  0.86414233796E+02 0.  0.
         23    2    4    4    0    0 -0.38715488432E+03  0.21057408171E+03 -0.57155870067E+03  0.72779522620E+03  0.93681346251E+02 0.  0.
          2    1    3    3  502    0  0.22192169356E+02 -0.91045317018E+02 -0.32073200998E+03  0.33414183270E+03  0.00000000000E+00 0. -1.
         -1    1    3    3    0  502  0.11144995551E+03 -0.77091903435E+02 -0.49366110477E+03  0.51192337368E+03  0.00000000000E+00 0.  1.
         11    1    5    5    0    0  0.16107592022E+03 -0.58493110898E+01  0.11733568297E+03  0.19936732183E+03  0.00000000000E+00 0.  1.
        -11    1    5    5    0    0  0.92436839235E+02 -0.36587550172E+02  0.90799701285E+01  0.99828172040E+02  0.00000000000E+00 0. -1.
          2    1    6    6  503    0  0.49406363628E+01  0.75331535450E+01 -0.11953224953E+02  0.14967894868E+02  0.00000000000E+00 0. -1.
         -2    1    6    6    0  503 -0.39209552068E+03  0.20304092817E+03 -0.55960547571E+03  0.71282733134E+03  0.00000000000E+00 0.  1.
<mgrwt>
<rscale>  0 0.13863287E+04</rscale>
<asrwt>0</asrwt>
<pdfrwt beam="1">  1        2 0.47193829E-01 0.13863287E+04</pdfrwt>
<pdfrwt beam="2">  1       -1 0.24096862E+00 0.13863287E+04</pdfrwt>
<totfact> 0.95543512E+00</totfact>
</mgrwt>
</event>
<event>
12    6  0.1521603E-007  0.1874769E+04  0.7818608E-02  0.8667519E-01
         -1   -1    0    0    0  501 -0.00000000000E+00  0.00000000000E+00  0.13470428340E+04  0.13470428340E+04  0.00000000000E+00 0.  1.
          2   -1    0    0  501    0  0.00000000000E+00 -0.00000000000E+00 -0.65230993087E+03  0.65230993087E+03  0.00000000000E+00 0. -1.
         24    2    1    2    0    0 -0.14796410130E+03 -0.67443384686E+03  0.49888403715E+02  0.69556492917E+03  0.67582015345E+02 0.  0.
        254    2    1    2    0    0  0.14796410130E+03  0.67443384686E+03  0.64484449946E+03  0.13037878357E+04  0.89848979020E+03 0.  0.
         23    2    4    4    0    0 -0.16397714224E+03  0.69791530962E+03  0.19658546343E+03  0.74983009026E+03  0.98107274195E+02 0.  0.
         23    2    4    4    0    0  0.31194124354E+03 -0.23481462752E+02  0.44825903603E+03  0.55395774549E+03  0.89857119314E+02 0.  0.
          4    1    3    3  502    0 -0.13656090898E+03 -0.63814485147E+03  0.62281978374E+02  0.65555837128E+03  0.00000000000E+00 0. -1.
         -3    1    3    3    0  502 -0.11403192326E+02 -0.36288995391E+02 -0.12393574658E+02  0.40006557894E+02  0.00000000000E+00 0.  1.
         11    1    5    5    0    0 -0.23530801315E+01  0.11412021731E+03  0.59647901128E+02  0.12878987963E+03  0.00000000000E+00 0. -1.
        -11    1    5    5    0    0 -0.16162406211E+03  0.58379509230E+03  0.13693756231E+03  0.62104021063E+03  0.00000000000E+00 0.  1.
          4    1    6    6  503    0  0.99611297647E+02 -0.48702142105E+02  0.13532998293E+03  0.17495288950E+03  0.00000000000E+00 0. -1.
         -4    1    6    6    0  503  0.21232994590E+03  0.25220679353E+02  0.31292905309E+03  0.37900485599E+03  0.00000000000E+00 0.  1.
<mgrwt>
<rscale>  0 0.18747687E+04</rscale>
<asrwt>0</asrwt>
<pdfrwt beam="1">  1        2 0.10035537E+00 0.18747687E+04</pdfrwt>
<pdfrwt beam="2">  1       -1 0.20723736E+00 0.18747687E+04</pdfrwt>
<totfact> 0.64390191E+00</totfact>
</mgrwt>
</event>
<event>
12    6  0.1521603E-007  0.1466455E+04  0.7818608E-02  0.8907071E-01
          2   -1    0    0  501    0  0.00000000000E+00  0.00000000000E+00  0.15870016862E+04  0.15870016862E+04  0.00000000000E+00 0. -1.
         -1   -1    0    0    0  501 -0.00000000000E+00 -0.00000000000E+00 -0.33876630655E+03  0.33876630655E+03  0.00000000000E+00 0.  1.
         24    2    1    2    0    0  0.43930352650E+03 -0.86744113837E+02  0.26955538272E+03  0.52860958555E+03  0.79093994071E+02 0.  0.
        254    2    1    2    0    0 -0.43930352650E+03  0.86744113837E+02  0.97867999697E+03  0.13971584073E+04  0.89091242488E+03 0.  0.
         23    2    4    4    0    0 -0.61382251462E+03 -0.17877868572E+03  0.77519398137E+03  0.10089545265E+04  0.91233928823E+02 0.  0.
         23    2    4    4    0    0  0.17451898812E+03  0.26552279956E+03  0.20348601560E+03  0.38820388080E+03  0.91304218006E+02 0.  0.
          2    1    3    3  502    0  0.17935463988E+03 -0.73917383587E+02  0.12695031428E+03  0.23183668549E+03  0.00000000000E+00 0. -1.
         -1    1    3    3    0  502  0.25994888662E+03 -0.12826730249E+02  0.14260506844E+03  0.29677290005E+03  0.00000000000E+00 0.  1.
         11    1    5    5    0    0 -0.47628479386E+03 -0.13439265829E+03  0.53627850609E+03  0.72972818745E+03  0.00000000000E+00 0. -1.
        -11    1    5    5    0    0 -0.13753772076E+03 -0.44386027433E+02  0.23891547528E+03  0.27922633900E+03  0.00000000000E+00 0.  1.
          4    1    6    6  503    0  0.15015648644E+03  0.17666815932E+03  0.17887524428E+03  0.29283948155E+03  0.00000000000E+00 0. -1.
         -4    1    6    6    0  503  0.24362501680E+02  0.88854640239E+02  0.24610771319E+02  0.95364399253E+02  0.00000000000E+00 0.  1.
<mgrwt>
<rscale>  0 0.14664552E+04</rscale>
<asrwt>0</asrwt>
<pdfrwt beam="1">  1        2 0.24415410E+00 0.14664552E+04</pdfrwt>
<pdfrwt beam="2">  1       -1 0.52117894E-01 0.14664552E+04</pdfrwt>
<totfact> 0.46395668E+01</totfact>
</mgrwt>
</event>
<event>
12    6  0.1521603E-007  0.2080313E+04  0.7818608E-02  0.8569966E-01
         -1   -1    0    0    0  501 -0.00000000000E+00  0.00000000000E+00  0.43400174020E+03  0.43400174020E+03  0.00000000000E+00 0.  1.
          2   -1    0    0  501    0  0.00000000000E+00 -0.00000000000E+00 -0.24929062119E+04  0.24929062119E+04  0.00000000000E+00 0. -1.
         24    2    1    2    0    0  0.74176531040E+01 -0.41293972014E+03 -0.18788125878E+04  0.19252937572E+04  0.79025801066E+02 0.  0.
        254    2    1    2    0    0 -0.74176531040E+01  0.41293972014E+03 -0.18009188384E+03  0.10016141949E+04  0.89455222022E+03 0.  0.
         23    2    4    4    0    0 -0.25399404186E+03 -0.15281703088E+03  0.87388484710E+02  0.32288214406E+03  0.93542041182E+02 0.  0.
         23    2    4    4    0    0  0.24657638875E+03  0.56575675102E+03 -0.26748036855E+03  0.67873205081E+03  0.90834092876E+02 0.  0.
          4    1    3    3  502    0  0.10808095882E+02 -0.35754943278E+03 -0.14787513930E+04  0.15214020159E+04  0.00000000000E+00 0. -1.
         -3    1    3    3    0  502 -0.33904427781E+01 -0.55390287358E+02 -0.40006119489E+03  0.40389174131E+03  0.00000000000E+00 0.  1.
         11    1    5    5    0    0 -0.18937399929E+03 -0.75962030697E+02  0.88639939616E+02  0.22246298705E+03  0.00000000000E+00 0. -1.
        -11    1    5    5    0    0 -0.64620042569E+02 -0.76855000185E+02 -0.12514549056E+01  0.10041915701E+03  0.00000000000E+00 0.  1.
          2    1    6    6  503    0 -0.77275305319E+01  0.11017652069E+02 -0.75419411746E+01  0.15426738538E+02  0.00000000000E+00 0. -1.
         -2    1    6    6    0  503  0.25430391928E+03  0.55473909895E+03 -0.25993842737E+03  0.66330531227E+03  0.00000000000E+00 0.  1.
<mgrwt>
<rscale>  0 0.20803131E+04</rscale>
<asrwt>0</asrwt>
<pdfrwt beam="1">  1        2 0.38352404E+00 0.20803131E+04</pdfrwt>
<pdfrwt beam="2">  1       -1 0.66769498E-01 0.20803131E+04</pdfrwt>
<totfact> 0.83931763E+00</totfact>
</mgrwt>
</event>
<event>
12    6  0.1521603E-007  0.2490760E+04  0.7818608E-02  0.8406285E-01
         -1   -1    0    0    0  501 -0.00000000000E+00  0.00000000000E+00  0.10273893710E+04  0.10273893710E+04  0.00000000000E+00 0.  1.
          2   -1    0    0  501    0  0.00000000000E+00 -0.00000000000E+00 -0.15096241045E+04  0.15096241045E+04  0.00000000000E+00 0. -1.
         24    2    1    2    0    0  0.94455276674E+02  0.30861321517E+02  0.89171706472E+03  0.90072380159E+03  0.79182212504E+02 0.  0.
        254    2    1    2    0    0 -0.94455276674E+02 -0.30861321517E+02 -0.13739517982E+04  0.16362896738E+04  0.88307764806E+03 0.  0.
         23    2    4    4    0    0 -0.78223416612E+02 -0.15282160000E+03 -0.14518242010E+04  0.14646316709E+04  0.88764161539E+02 0.  0.
         23    2    4    4    0    0 -0.16231860061E+02  0.12196027848E+03  0.77872402811E+02  0.17165800297E+03  0.90909713749E+02 0.  0.
          4    1    3    3  502    0  0.48460626628E+02  0.40092997948E+02  0.26955186057E+03  0.27679249693E+03  0.00000000000E+00 0. -1.
         -3    1    3    3    0  502  0.45994650046E+02 -0.92316764309E+01  0.62216520415E+03  0.62393130466E+03  0.00000000000E+00 0.  1.
         11    1    5    5    0    0  0.22727456145E+01  0.65002861523E+01 -0.12417492268E+02  0.14199056550E+02  0.00000000000E+00 0. -1.
        -11    1    5    5    0    0 -0.80496162227E+02 -0.15932188615E+03 -0.14394067087E+04  0.14504326143E+04  0.00000000000E+00 0.  1.
          1    1    6    6  503    0 -0.27869580732E+02  0.37843719488E+02 -0.11490597580E+02  0.48382791028E+02  0.00000000000E+00 0. -1.
         -1    1    6    6    0  503  0.11637720671E+02  0.84116558995E+02  0.89363000391E+02  0.12327521194E+03  0.00000000000E+00 0.  1.
<mgrwt>
<rscale>  0 0.24907603E+04</rscale>
<asrwt>0</asrwt>
<pdfrwt beam="1">  1        2 0.23224986E+00 0.24907603E+04</pdfrwt>
<pdfrwt beam="2">  1       -1 0.15805990E+00 0.24907603E+04</pdfrwt>
<totfact> 0.38532300E+00</totfact>
</mgrwt>
</event>
<event>
12    6  0.1521603E-007  0.1088847E+04  0.7818608E-02  0.9216131E-01
          2   -1    0    0  501    0  0.00000000000E+00  0.00000000000E+00  0.13902811967E+04  0.13902811967E+04  0.00000000000E+00 0. -1.
         -1   -1    0    0    0  501 -0.00000000000E+00 -0.00000000000E+00 -0.21319195232E+03  0.21319195232E+03  0.00000000000E+00 0.  1.
         24    2    1    2    0    0  0.12026562608E+03  0.54768161444E+02  0.86996677734E+02  0.17754323149E+03  0.80559324650E+02 0.  0.
        254    2    1    2    0    0 -0.12026562608E+03 -0.54768161444E+02  0.10900925667E+04  0.14259299176E+04  0.90967629053E+03 0.  0.
         23    2    4    4    0    0 -0.26242007537E+03  0.35782523648E+03  0.69802575773E+03  0.83216567724E+03  0.91414222693E+02 0.  0.
         23    2    4    4    0    0  0.14215444929E+03 -0.41259339792E+03  0.39206680895E+03  0.59376424032E+03  0.91642735336E+02 0.  0.
          4    1    3    3  502    0  0.11103746227E+03  0.47275819602E+02  0.10227094762E+03  0.15818870969E+03  0.00000000000E+00 0. -1.
         -1    1    3    3    0  502  0.92281638139E+01  0.74923418424E+01 -0.15274269889E+02  0.19354521805E+02  0.00000000000E+00 0.  1.
         11    1    5    5    0    0 -0.26820253540E+03  0.33533896071E+03  0.65351556529E+03  0.78196381799E+03  0.00000000000E+00 0. -1.
        -11    1    5    5    0    0  0.57824600270E+01  0.22486275772E+02  0.44510192438E+02  0.50201859258E+02  0.00000000000E+00 0.  1.
          2    1    6    6  503    0  0.62495430071E+02 -0.28511860491E+03  0.22151676793E+03  0.36642594902E+03  0.00000000000E+00 0. -1.
         -2    1    6    6    0  503  0.79659019218E+02 -0.12747479302E+03  0.17055004102E+03  0.22733829130E+03  0.00000000000E+00 0.  1.
<mgrwt>
<rscale>  0 0.10888467E+04</rscale>
<asrwt>0</asrwt>
<pdfrwt beam="1">  1        2 0.21388941E+00 0.10888467E+04</pdfrwt>
<pdfrwt beam="2">  1       -1 0.32798763E-01 0.10888467E+04</pdfrwt>
<totfact> 0.14448281E+02</totfact>
</mgrwt>
</event>
<event>
12    6  0.1521603E-007  0.1060745E+04  0.7818608E-02  0.9244320E-01
         -1   -1    0    0    0  501 -0.00000000000E+00  0.00000000000E+00  0.38834468365E+03  0.38834468365E+03  0.00000000000E+00 0.  1.
          2   -1    0    0  501    0  0.00000000000E+00 -0.00000000000E+00 -0.72434380603E+03  0.72434380603E+03  0.00000000000E+00 0. -1.
         24    2    1    2    0    0  0.10964007179E+03  0.13797210170E+02 -0.11305195218E+03  0.17731753970E+03  0.80308515388E+02 0.  0.
        254    2    1    2    0    0 -0.10964007179E+03 -0.13797210170E+02 -0.22294717021E+03  0.93537094997E+03  0.90166627141E+03 0.  0.
         23    2    4    4    0    0 -0.18406448976E+03 -0.39357687217E+03  0.59371239797E+02  0.44781267286E+03  0.90712486281E+02 0.  0.
         23    2    4    4    0    0  0.74424417963E+02  0.37977966200E+03 -0.28231841001E+03  0.48755827711E+03  0.90762345119E+02 0.  0.
          4    1    3    3  502    0 -0.22104649495E+01  0.15013742789E+02 -0.42355659283E+02  0.44992227119E+02  0.00000000000E+00 0. -1.
         -3    1    3    3    0  502  0.11185053674E+03 -0.12165326189E+01 -0.70696292893E+02  0.13232531258E+03  0.00000000000E+00 0.  1.
         11    1    5    5    0    0  0.97007861638E+01 -0.23661458329E+02 -0.23678797054E+01  0.25682225697E+02  0.00000000000E+00 0. -1.
        -11    1    5    5    0    0 -0.19376527592E+03 -0.36991541384E+03  0.61739119503E+02  0.42213044717E+03  0.00000000000E+00 0.  1.
          4    1    6    6  503    0  0.16206017101E+02  0.17501756108E+03 -0.17923346646E+03  0.25103469317E+03  0.00000000000E+00 0. -1.
         -4    1    6    6    0  503  0.58218400861E+02  0.20476210092E+03 -0.10308494354E+03  0.23652358394E+03  0.00000000000E+00 0.  1.
<mgrwt>
<rscale>  0 0.10607451E+04</rscale>
<asrwt>0</asrwt>
<pdfrwt beam="1">  1        2 0.11143751E+00 0.10607451E+04</pdfrwt>
<pdfrwt beam="2">  1       -1 0.59745336E-01 0.10607451E+04</pdfrwt>
<totfact> 0.12660802E+02</totfact>
</mgrwt>
</event>
<event>
12    6  0.1521603E-007  0.1760389E+04  0.7818608E-02  0.8727652E-01
          2   -1    0    0  501    0  0.00000000000E+00  0.00000000000E+00  0.12853052478E+04  0.12853052478E+04  0.00000000000E+00 0. -1.
         -1   -1    0    0    0  501 -0.00000000000E+00 -0.00000000000E+00 -0.60276928637E+03  0.60276928637E+03  0.00000000000E+00 0.  1.
         24    2    1    2    0    0 -0.12614176016E+03  0.62520748477E+03  0.32792728797E+03  0.72160232257E+03  0.79859020010E+02 0.  0.
        254    2    1    2    0    0  0.12614176016E+03 -0.62520748477E+03  0.35460867350E+03  0.11664722116E+04  0.91000767389E+03 0.  0.
         23    2    4    4    0    0 -0.22400544726E+03 -0.44470167937E+03  0.52282752835E+03  0.72826650855E+03  0.95317674378E+02 0.  0.
         23    2    4    4    0    0  0.35014720742E+03 -0.18050580540E+03 -0.16821885484E+03  0.43820570308E+03  0.92418842487E+02 0.  0.
          2    1    3    3  502    0 -0.30229714012E+01  0.93321052842E+02  0.75710662878E+02  0.12020840958E+03  0.00000000000E+00 0. -1.
         -1    1    3    3    0  502 -0.12311878876E+03  0.53188643193E+03  0.25221662509E+03  0.60139391299E+03  0.00000000000E+00 0.  1.
         11    1    5    5    0    0  0.61613437165E+01 -0.14366946059E+01  0.19512790636E+01  0.66207052318E+01  0.00000000000E+00 0.  1.
        -11    1    5    5    0    0 -0.23016679098E+03 -0.44326498476E+03  0.52087624928E+03  0.72164580332E+03  0.00000000000E+00 0. -1.
          4    1    6    6  503    0  0.12186050733E+03 -0.92086543441E+02 -0.10503873061E+03  0.18537273170E+03  0.00000000000E+00 0. -1.
         -4    1    6    6    0  503  0.22828670008E+03 -0.88419261958E+02 -0.63180124233E+02  0.25283297138E+03  0.00000000000E+00 0.  1.
<mgrwt>
<rscale>  0 0.17603892E+04</rscale>
<asrwt>0</asrwt>
<pdfrwt beam="1">  1        2 0.19773927E+00 0.17603892E+04</pdfrwt>
<pdfrwt beam="2">  1       -1 0.92733736E-01 0.17603892E+04</pdfrwt>
<totfact> 0.20578133E+01</totfact>
</mgrwt>
</event>
<event>
12    6  0.1521603E-007  0.2579345E+04  0.7818608E-02  0.8375251E-01
         -1   -1    0    0    0  501 -0.00000000000E+00  0.00000000000E+00  0.66651285782E+03  0.66651285782E+03  0.00000000000E+00 0.  1.
          2   -1    0    0  501    0  0.00000000000E+00 -0.00000000000E+00 -0.24954586454E+04  0.24954586454E+04  0.00000000000E+00 0. -1.
         24    2    1    2    0    0 -0.86489149965E+03 -0.36071120366E+03 -0.15798711216E+04  0.18386440200E+04  0.80431292110E+02 0.  0.
        254    2    1    2    0    0  0.86489149965E+03  0.36071120366E+03 -0.24907466598E+03  0.13233274832E+04  0.90055958161E+03 0.  0.
         23    2    4    4    0    0  0.40650178313E+03  0.36306343154E+03 -0.54014885661E+03  0.77287614221E+03  0.92292951476E+02 0.  0.
         23    2    4    4    0    0  0.45838971653E+03 -0.23522278816E+01  0.29107419063E+03  0.55045134103E+03  0.90254247512E+02 0.  0.
          2    1    3    3  502    0 -0.44980674163E+03 -0.16814056147E+03 -0.73856381427E+03  0.88095054400E+03  0.00000000000E+00 0. -1.
         -1    1    3    3    0  502 -0.41508475802E+03 -0.19257064219E+03 -0.84130730737E+03  0.95769347602E+03  0.00000000000E+00 0.  1.
         11    1    5    5    0    0  0.37395375149E+03  0.31781679466E+03 -0.51605930430E+03  0.71215597222E+03  0.00000000000E+00 0.  1.
        -11    1    5    5    0    0  0.32548031638E+02  0.45246636884E+02 -0.24089552314E+02  0.60720169989E+02  0.00000000000E+00 0. -1.
          3    1    6    6  503    0  0.25631384411E+03 -0.82346756353E+01  0.10996119559E+03  0.27902698991E+03  0.00000000000E+00 0. -1.
         -3    1    6    6    0  503  0.20207587242E+03  0.58824477537E+01  0.18111299504E+03  0.27142435111E+03  0.00000000000E+00 0.  1.
<mgrwt>
<rscale>  0 0.25793451E+04</rscale>
<asrwt>0</asrwt>
<pdfrwt beam="1">  1        2 0.38391671E+00 0.25793451E+04</pdfrwt>
<pdfrwt beam="2">  1       -1 0.10254044E+00 0.25793451E+04</pdfrwt>
<totfact> 0.31740044E+00</totfact>
</mgrwt>
</event>
<event>
12    6  0.1521603E-007  0.1147545E+04  0.7818608E-02  0.9160052E-01
         -1   -1    0    0    0  501 -0.00000000000E+00  0.00000000000E+00  0.14207655374E+03  0.14207655374E+03  0.00000000000E+00 0.  1.
          2   -1    0    0  501    0  0.00000000000E+00 -0.00000000000E+00 -0.23171645283E+04  0.23171645283E+04  0.00000000000E+00 0. -1.
         24    2    1    2    0    0  0.18504284507E+03  0.34010008186E+02 -0.28182759780E+03  0.35047827914E+03  0.89502480996E+02 0.  0.
        254    2    1    2    0    0 -0.18504284507E+03 -0.34010008186E+02 -0.18932603768E+04  0.21087628029E+04  0.90942188753E+03 0.  0.
         23    2    4    4    0    0 -0.49701315224E+03  0.17131959993E+03 -0.12309919677E+04  0.13417279220E+04  0.92304459004E+02 0.  0.
         23    2    4    4    0    0  0.31197030717E+03 -0.20532960812E+03 -0.66226840906E+03  0.76703488096E+03  0.10127853893E+03 0.  0.
          2    1    3    3  502    0  0.19186751760E+03  0.35132438128E+02 -0.24579315569E+03  0.31378608621E+03  0.00000000000E+00 0. -1.
         -1    1    3    3    0  502 -0.68246725281E+01 -0.11224299420E+01 -0.36034442108E+02  0.36692192932E+02  0.00000000000E+00 0.  1.
         11    1    5    5    0    0 -0.45030798337E+03  0.16191744137E+03 -0.11717990880E+04  0.12657439079E+04  0.00000000000E+00 0.  1.
        -11    1    5    5    0    0 -0.46705168870E+02  0.94021585558E+01 -0.59192879692E+02  0.75984014049E+02  0.00000000000E+00 0. -1.
          3    1    6    6  503    0 -0.43892270461E+00  0.82663750928E+01 -0.10629320274E+02  0.13472492710E+02  0.00000000000E+00 0. -1.
         -3    1    6    6    0  503  0.31240922987E+03 -0.21359598321E+03 -0.65163908879E+03  0.75356238825E+03  0.00000000000E+00 0.  1.
<mgrwt>
<rscale>  0 0.11475448E+04</rscale>
<asrwt>0</asrwt>
<pdfrwt beam="1">  1        2 0.35648686E+00 0.11475448E+04</pdfrwt>
<pdfrwt beam="2">  1       -1 0.21857931E-01 0.11475448E+04</pdfrwt>
<totfact> 0.88487189E+01</totfact>
</mgrwt>
</event>
<event>
12    6  0.1521603E-007  0.1826766E+04  0.7818608E-02  0.8692194E-01
         -1   -1    0    0    0  501 -0.00000000000E+00  0.00000000000E+00  0.70697051814E+03  0.70697051814E+03  0.00000000000E+00 0.  1.
          2   -1    0    0  501    0  0.00000000000E+00 -0.00000000000E+00 -0.11800616579E+04  0.11800616579E+04  0.00000000000E+00 0. -1.
         24    2    1    2    0    0 -0.51259109314E+02  0.66829422128E+03 -0.34397098332E+03  0.75762593226E+03  0.80226886918E+02 0.  0.
        254    2    1    2    0    0  0.51259109314E+02 -0.66829422128E+03 -0.12912015639E+03  0.11294062437E+04  0.89980097030E+03 0.  0.
         23    2    4    4    0    0 -0.36234366006E+02 -0.83229026986E+03 -0.27068955642E+03  0.88023696737E+03  0.86742493539E+02 0.  0.
         23    2    4    4    0    0  0.87493475320E+02  0.16399604858E+03  0.14156940002E+03  0.24916927638E+03  0.86565703914E+02 0.  0.
          4    1    3    3  502    0 -0.14036630028E+02  0.32621243249E+02 -0.35004599422E+02  0.49864761850E+02  0.00000000000E+00 0. -1.
         -3    1    3    3    0  502 -0.37222479286E+02  0.63567297803E+03 -0.30896638390E+03  0.70776117041E+03  0.00000000000E+00 0.  1.
         11    1    5    5    0    0  0.18277086482E+02 -0.28972342767E+03 -0.65394188681E+02  0.29757371581E+03  0.00000000000E+00 0. -1.
        -11    1    5    5    0    0 -0.54511452488E+02 -0.54256684219E+03 -0.20529536773E+03  0.58266325155E+03  0.00000000000E+00 0.  1.
          4    1    6    6  503    0  0.92184420880E+02  0.83457519915E+02  0.84198774813E+02  0.15017509369E+03  0.00000000000E+00 0.  1.
         -4    1    6    6    0  503 -0.46909455603E+01  0.80538528668E+02  0.57370625209E+02  0.98994182693E+02  0.00000000000E+00 0. -1.
<mgrwt>
<rscale>  0 0.18267663E+04</rscale>
<asrwt>0</asrwt>
<pdfrwt beam="1">  1        2 0.18154794E+00 0.18267663E+04</pdfrwt>
<pdfrwt beam="2">  1       -1 0.10876470E+00 0.18267663E+04</pdfrwt>
<totfact> 0.16395776E+01</totfact>
</mgrwt>
</event>
<event>
12    6  0.1636962E-007  0.3049714E+04  0.7818608E-02  0.8229675E-01
         -1   -1    0    0    0  501 -0.00000000000E+00  0.00000000000E+00  0.94513171871E+03  0.94513171871E+03  0.00000000000E+00 0.  1.
          2   -1    0    0  501    0  0.00000000000E+00 -0.00000000000E+00 -0.24601752034E+04  0.24601752034E+04  0.00000000000E+00 0. -1.
         24    2    1    2    0    0 -0.53476560196E+03  0.11536564384E+04 -0.85992708598E+02  0.12770271219E+04  0.80660381539E+02 0.  0.
        254    2    1    2    0    0  0.53476560196E+03 -0.11536564384E+04 -0.14290507761E+04  0.21282798002E+04  0.93300126500E+03 0.  0.
         23    2    4    4    0    0  0.19822731171E+03 -0.11698642564E+04 -0.88828497723E+03  0.14846728279E+04  0.85596494420E+02 0.  0.
         23    2    4    4    0    0  0.33653829025E+03  0.16207817929E+02 -0.54076579886E+03  0.64360697229E+03  0.91003139518E+02 0.  0.
          2    1    3    3  502    0 -0.60447378795E+02  0.17996494994E+03  0.69364121425E+01  0.18997205748E+03  0.00000000000E+00 0. -1.
         -1    1    3    3    0  502 -0.47431822316E+03  0.97369148848E+03 -0.92929120741E+02  0.10870550644E+04  0.00000000000E+00 0.  1.
         11    1    5    5    0    0  0.15591198441E+03 -0.96669927381E+03 -0.69206772266E+03  0.11990720435E+04  0.00000000000E+00 0.  1.
        -11    1    5    5    0    0  0.42315327299E+02 -0.20316498254E+03 -0.19621725457E+03  0.28560078440E+03  0.00000000000E+00 0. -1.
          2    1    6    6  503    0 -0.37748962631E+01 -0.40498564168E+01 -0.17096266570E+01  0.57943077326E+01  0.00000000000E+00 0. -1.
         -2    1    6    6    0  503  0.34031318651E+03  0.20257674346E+02 -0.53905617220E+03  0.63781266456E+03  0.00000000000E+00 0.  1.
<mgrwt>
<rscale>  0 0.30497145E+04</rscale>
<asrwt>0</asrwt>
<pdfrwt beam="1">  1        2 0.37848849E+00 0.30497145E+04</pdfrwt>
<pdfrwt beam="2">  1       -1 0.14540488E+00 0.30497145E+04</pdfrwt>
<totfact> 0.13487866E+00</totfact>
</mgrwt>
</event>
<event>
12    6  0.3077847E-007  0.2161668E+04  0.7818608E-02  0.8534554E-01
          2   -1    0    0  501    0  0.00000000000E+00  0.00000000000E+00  0.95103325988E+03  0.95103325988E+03  0.00000000000E+00 0. -1.
         -1   -1    0    0    0  501 -0.00000000000E+00 -0.00000000000E+00 -0.12283500284E+04  0.12283500284E+04  0.00000000000E+00 0.  1.
         24    2    1    2    0    0  0.21297238365E+03 -0.69633140037E+03  0.40663689982E+03  0.83759779360E+03  0.77342357140E+02 0.  0.
        254    2    1    2    0    0 -0.21297238365E+03  0.69633140037E+03 -0.68395366829E+03  0.13417854946E+04  0.89574607892E+03 0.  0.
         23    2    4    4    0    0  0.29880839453E+02  0.33965828260E+03  0.16191144244E+03  0.38787024161E+03  0.89260269002E+02 0.  0.
         23    2    4    4    0    0 -0.24285322311E+03  0.35667311777E+03 -0.84586511073E+03  0.95391525303E+03  0.90956712192E+02 0.  0.
          4    1    3    3  502    0  0.21531882558E+03 -0.68436868001E+03  0.40798479837E+03  0.82533283136E+03  0.00000000000E+00 0. -1.
         -3    1    3    3    0  502 -0.23464419247E+01 -0.11962720364E+02 -0.13478985505E+01  0.12264962238E+02  0.00000000000E+00 0.  1.
         11    1    5    5    0    0  0.25445355817E+02  0.34155949491E+03  0.16683328807E+03  0.38097729683E+03  0.00000000000E+00 0. -1.
        -11    1    5    5    0    0  0.44354836360E+01 -0.19012123044E+01 -0.49218456240E+01  0.68929447741E+01  0.00000000000E+00 0.  1.
          1    1    6    6  503    0 -0.24306806821E+03  0.30828823583E+03 -0.75080895980E+03  0.84725310046E+03  0.00000000000E+00 0. -1.
         -1    1    6    6    0  503  0.21484510876E+00  0.48384881934E+02 -0.95056150939E+02  0.10666215256E+03  0.00000000000E+00 0.  1.
<mgrwt>
<rscale>  0 0.21616676E+04</rscale>
<asrwt>0</asrwt>
<pdfrwt beam="1">  1        2 0.14631281E+00 0.21616676E+04</pdfrwt>
<pdfrwt beam="2">  1       -1 0.18897693E+00 0.21616676E+04</pdfrwt>
<totfact> 0.50930692E+00</totfact>
</mgrwt>
</event>
<event>
12    6  0.1521603E-007  0.3076121E+04  0.7818608E-02  0.8222322E-01
          2   -1    0    0  501    0  0.00000000000E+00  0.00000000000E+00  0.18028877575E+04  0.18028877575E+04  0.00000000000E+00 0. -1.
         -1   -1    0    0    0  501 -0.00000000000E+00 -0.00000000000E+00 -0.13121341332E+04  0.13121341332E+04  0.00000000000E+00 0.  1.
         24    2    1    2    0    0 -0.85112662639E+03  0.70427842375E+03  0.11080677799E+04  0.15668966346E+04  0.83223952173E+02 0.  0.
        254    2    1    2    0    0  0.85112662639E+03 -0.70427842375E+03 -0.61731415556E+03  0.15481252561E+04  0.89173449510E+03 0.  0.
         23    2    4    4    0    0  0.56374780713E+03 -0.81506529975E+03 -0.69981047135E+03  0.12166750318E+04  0.91762760691E+02 0.  0.
         23    2    4    4    0    0  0.28737881926E+03  0.11078687600E+03  0.82496315790E+02  0.33145022436E+03  0.90516802074E+02 0.  0.
          4    1    3    3  502    0 -0.53137849275E+03  0.38955564611E+03  0.67792396989E+03  0.94535581287E+03  0.00000000000E+00 0. -1.
         -3    1    3    3    0  502 -0.31974813364E+03  0.31472277764E+03  0.43014381002E+03  0.62154082169E+03  0.00000000000E+00 0.  1.
         11    1    5    5    0    0  0.48933127590E+03 -0.64514493581E+03 -0.56496773801E+03  0.98734271191E+03  0.00000000000E+00 0.  1.
        -11    1    5    5    0    0  0.74416531229E+02 -0.16992036394E+03 -0.13484273335E+03  0.22933231987E+03  0.00000000000E+00 0. -1.
          3    1    6    6  503    0  0.80518203465E+01  0.13560202080E+02 -0.13224988226E+02  0.20581817337E+02  0.00000000000E+00 0. -1.
         -3    1    6    6    0  503  0.27932699892E+03  0.97226673917E+02  0.95721304016E+02  0.31086840703E+03  0.00000000000E+00 0.  1.
<mgrwt>
<rscale>  0 0.30761213E+04</rscale>
<asrwt>0</asrwt>
<pdfrwt beam="1">  1        2 0.27736735E+00 0.30761213E+04</pdfrwt>
<pdfrwt beam="2">  1       -1 0.20186679E+00 0.30761213E+04</pdfrwt>
<totfact> 0.12159914E+00</totfact>
</mgrwt>
</event>
<event>
12    6  0.1521603E-007  0.1979276E+04  0.7818608E-02  0.8616372E-01
         -1   -1    0    0    0  501 -0.00000000000E+00  0.00000000000E+00  0.11624947206E+04  0.11624947206E+04  0.00000000000E+00 0.  1.
          2   -1    0    0  501    0  0.00000000000E+00 -0.00000000000E+00 -0.84248377555E+03  0.84248377555E+03  0.00000000000E+00 0. -1.
         24    2    1    2    0    0  0.57918293858E+00  0.65311630374E+03  0.55985853749E+03  0.86390259149E+03  0.79529013057E+02 0.  0.
        254    2    1    2    0    0 -0.57918293858E+00 -0.65311630374E+03 -0.23984759239E+03  0.11410759047E+04  0.90441478929E+03 0.  0.
         23    2    4    4    0    0 -0.13481550103E+02 -0.74734608197E+03  0.11597440697E+03  0.76183436321E+03  0.90739271883E+02 0.  0.
         23    2    4    4    0    0  0.12902367164E+02  0.94229778233E+02 -0.35582199937E+03  0.37924154151E+03  0.90383236222E+02 0.  0.
          4    1    3    3  502    0 -0.18363986481E+01  0.43603997042E+02  0.67438877338E+02  0.80328594502E+02  0.00000000000E+00 0. -1.
         -3    1    3    3    0  502  0.24155815867E+01  0.60951230670E+03  0.49241966015E+03  0.78357399698E+03  0.00000000000E+00 0.  1.
         11    1    5    5    0    0 -0.18264687711E+02 -0.47296923986E+02 -0.65676747272E+01  0.51124672977E+02  0.00000000000E+00 0. -1.
        -11    1    5    5    0    0  0.47831376085E+01 -0.70004915798E+03  0.12254208170E+03  0.71070969023E+03  0.00000000000E+00 0.  1.
          4    1    6    6  503    0  0.40093704405E+02  0.57740941457E+02 -0.12003979610E+03  0.13910813816E+03  0.00000000000E+00 0. -1.
         -4    1    6    6    0  503 -0.27191337241E+02  0.36488836776E+02 -0.23578220326E+03  0.24013340335E+03  0.00000000000E+00 0.  1.
<mgrwt>
<rscale>  0 0.19792756E+04</rscale>
<asrwt>0</asrwt>
<pdfrwt beam="1">  1        2 0.12961289E+00 0.19792756E+04</pdfrwt>
<pdfrwt beam="2">  1       -1 0.17884534E+00 0.19792756E+04</pdfrwt>
<totfact> 0.72370631E+00</totfact>
</mgrwt>
</event>
<event>
12    6  0.1521603E-007  0.1684879E+04  0.7818608E-02  0.8770036E-01
         -1   -1    0    0    0  501 -0.00000000000E+00  0.00000000000E+00  0.86816115294E+03  0.86816115294E+03  0.00000000000E+00 0.  1.
          2   -1    0    0  501    0  0.00000000000E+00 -0.00000000000E+00 -0.81747956369E+03  0.81747956369E+03  0.00000000000E+00 0. -1.
         24    2    1    2    0    0  0.26513614375E+03 -0.23064478488E+03  0.50162588221E+03  0.61837135470E+03  0.85208069424E+02 0.  0.
        254    2    1    2    0    0 -0.26513614375E+03  0.23064478488E+03 -0.45094429296E+03  0.10672693619E+04  0.90123190360E+03 0.  0.
         23    2    4    4    0    0 -0.55225336081E+03  0.12681991066E+03 -0.81575149320E+02  0.57961865244E+03  0.90753584011E+02 0.  0.
         23    2    4    4    0    0  0.28711721706E+03  0.10382487422E+03 -0.36936914364E+03  0.48765070949E+03  0.90298113821E+02 0.  0.
          4    1    3    3  502    0  0.14253154635E+03 -0.13628360438E+03  0.20890410453E+03  0.28727928470E+03  0.00000000000E+00 0. -1.
         -3    1    3    3    0  502  0.12260459740E+03 -0.94361180496E+02  0.29272177767E+03  0.33109206999E+03  0.00000000000E+00 0.  1.
         11    1    5    5    0    0 -0.43251941387E+02 -0.12003331168E+02 -0.17382584609E+02  0.48134858892E+02  0.00000000000E+00 0.  1.
        -11    1    5    5    0    0 -0.50900141942E+03  0.13882324183E+03 -0.64192564711E+02  0.53148379355E+03  0.00000000000E+00 0. -1.
          3    1    6    6  503    0  0.22118489687E+03  0.40071150160E+02 -0.23734369655E+03  0.32689522170E+03  0.00000000000E+00 0. -1.
         -3    1    6    6    0  503  0.65932320188E+02  0.63753724056E+02 -0.13202544709E+03  0.16075548780E+03  0.00000000000E+00 0.  1.
<mgrwt>
<rscale>  0 0.16848786E+04</rscale>
<asrwt>0</asrwt>
<pdfrwt beam="1">  1        2 0.12576609E+00 0.16848786E+04</pdfrwt>
<pdfrwt beam="2">  1       -1 0.13356325E+00 0.16848786E+04</pdfrwt>
<totfact> 0.17232283E+01</totfact>
</mgrwt>
</event>
<event>
12    6  0.1521603E-007  0.1556517E+04  0.7818608E-02  0.8847716E-01
         -3   -1    0    0    0  501 -0.00000000000E+00  0.00000000000E+00  0.44339449956E+03  0.44339449956E+03  0.00000000000E+00 0.  1.
          4   -1    0    0  501    0  0.00000000000E+00 -0.00000000000E+00 -0.13660210423E+04  0.13660210423E+04  0.00000000000E+00 0. -1.
         24    2    1    2    0    0 -0.50001994960E+03  0.20553223519E+03 -0.60987522402E+03  0.81891800701E+03  0.80096589433E+02 0.  0.
        254    2    1    2    0    0  0.50001994960E+03 -0.20553223519E+03 -0.31275131867E+03  0.99049753480E+03  0.76877079120E+03 0.  0.
         23    2    4    4    0    0 -0.72865961548E+02  0.76269577445E+02 -0.31677650629E+03  0.34573137333E+03  0.89757065301E+02 0.  0.
         23    2    4    4    0    0  0.57288591115E+03 -0.28180181264E+03  0.40251876174E+01  0.64476616147E+03  0.89981509428E+02 0.  0.
          4    1    3    3  502    0 -0.45051995428E+03  0.19763285517E+03 -0.58008054003E+03  0.76060529026E+03  0.00000000000E+00 0. -1.
         -3    1    3    3    0  502 -0.49499995319E+02  0.78993800206E+01 -0.29794683987E+02  0.58312716754E+02  0.00000000000E+00 0.  1.
         11    1    5    5    0    0 -0.63536074345E+02  0.30352435082E+01 -0.12543274697E+03  0.14063932401E+03  0.00000000000E+00 0. -1.
        -11    1    5    5    0    0 -0.93298872033E+01  0.73234333936E+02 -0.19134375932E+03  0.20509204932E+03  0.00000000000E+00 0.  1.
          2    1    6    6  503    0  0.50788929664E+02 -0.35243736434E+02 -0.24921395933E+02  0.66653674389E+02  0.00000000000E+00 0. -1.
         -2    1    6    6    0  503  0.52209698149E+03 -0.24655807620E+03  0.28946583550E+02  0.57811248708E+03  0.00000000000E+00 0.  1.
<mgrwt>
<rscale>  0 0.15565169E+04</rscale>
<asrwt>0</asrwt>
<pdfrwt beam="1">  1        4 0.21015708E+00 0.15565169E+04</pdfrwt>
<pdfrwt beam="2">  1       -3 0.68214540E-01 0.15565169E+04</pdfrwt>
<totfact> 0.51245651E-01</totfact>
</mgrwt>
</event>
<event>
12    6  0.1521603E-007  0.1273404E+04  0.7818608E-02  0.9050926E-01
          2   -1    0    0  501    0  0.00000000000E+00  0.00000000000E+00  0.31565136913E+04  0.31565136913E+04  0.00000000000E+00 0. -1.
         -1   -1    0    0    0  501 -0.00000000000E+00 -0.00000000000E+00 -0.12842958250E+03  0.12842958250E+03  0.00000000000E+00 0.  1.
         24    2    1    2    0    0  0.12071603641E+03 -0.17851448645E+03  0.19921544896E+03  0.30369598164E+03  0.78132393018E+02 0.  0.
        254    2    1    2    0    0 -0.12071603641E+03  0.17851448645E+03  0.28288686598E+04  0.29812472921E+04  0.91591360898E+03 0.  0.
         23    2    4    4    0    0  0.15982036929E+03 -0.30855765217E+03  0.86966895976E+03  0.94094361976E+03  0.91106645426E+02 0.  0.
         23    2    4    4    0    0 -0.28053640570E+03  0.48707213863E+03  0.19591997001E+04  0.20403036724E+04  0.91845891025E+02 0.  0.
          4    1    3    3  502    0  0.50909046927E+02 -0.78788404176E+02  0.13950405342E+03  0.16810926391E+03  0.00000000000E+00 0. -1.
         -3    1    3    3    0  502  0.69806989479E+02 -0.99726082278E+02  0.59711395540E+02  0.13558671773E+03  0.00000000000E+00 0.  1.
         11    1    5    5    0    0  0.26098924588E+02 -0.37810530662E+01  0.60121628619E+02  0.65651050675E+02  0.00000000000E+00 0. -1.
        -11    1    5    5    0    0  0.13372144471E+03 -0.30477659911E+03  0.80954733114E+03  0.87529256908E+03  0.00000000000E+00 0.  1.
          1    1    6    6  503    0 -0.46275592216E+02  0.96848961516E+02  0.51563606616E+03  0.52668938142E+03  0.00000000000E+00 0. -1.
         -1    1    6    6    0  503 -0.23426081348E+03  0.39022317711E+03  0.14435636339E+04  0.15136142910E+04  0.00000000000E+00 0.  1.
<mgrwt>
<rscale>  0 0.12734045E+04</rscale>
<asrwt>0</asrwt>
<pdfrwt beam="1">  1        2 0.48561743E+00 0.12734045E+04</pdfrwt>
<pdfrwt beam="2">  1       -1 0.19758400E-01 0.12734045E+04</pdfrwt>
<totfact> 0.32796346E+01</totfact>
</mgrwt>
</event>
<event>
12    6  0.1521603E-007  0.2581455E+04  0.7818608E-02  0.8374528E-01
         -1   -1    0    0    0  501 -0.00000000000E+00  0.00000000000E+00  0.76810300785E+03  0.76810300785E+03  0.00000000000E+00 0.  1.
          2   -1    0    0  501    0  0.00000000000E+00 -0.00000000000E+00 -0.21689506022E+04  0.21689506022E+04  0.00000000000E+00 0. -1.
         24    2    1    2    0    0  0.45718297573E+03 -0.92727373872E+03 -0.87346691858E+02  0.10405553887E+04  0.79203615090E+02 0.  0.
        254    2    1    2    0    0 -0.45718297573E+03  0.92727373872E+03 -0.13135009024E+04  0.18964982213E+04  0.89586160913E+03 0.  0.
         23    2    4    4    0    0  0.88496079192E+02  0.49425801018E+03 -0.14067115471E+03  0.52934437148E+03  0.91074437671E+02 0.  0.
         23    2    4    4    0    0 -0.54567905492E+03  0.43301572854E+03 -0.11728297477E+04  0.13671538498E+04  0.91168962101E+02 0.  0.
          4    1    3    3  502    0  0.40488975732E+03 -0.85886245750E+03 -0.94185179170E+02  0.95417570943E+03  0.00000000000E+00 0. -1.
         -3    1    3    3    0  502  0.52293218407E+02 -0.68411281221E+02  0.68384873120E+01  0.86379679314E+02  0.00000000000E+00 0.  1.
         11    1    5    5    0    0  0.50683569271E+02  0.82625839883E+02 -0.28223184405E+02  0.10095742542E+03  0.00000000000E+00 0. -1.
        -11    1    5    5    0    0  0.37812509921E+02  0.41163217029E+03 -0.11244797030E+03  0.42838694606E+03  0.00000000000E+00 0.  1.
          3    1    6    6  503    0 -0.26799099755E+03  0.26643996159E+03 -0.59832313854E+03  0.70767224477E+03  0.00000000000E+00 0. -1.
         -3    1    6    6    0  503 -0.27768805737E+03  0.16657576695E+03 -0.57450660919E+03  0.65948160501E+03  0.00000000000E+00 0.  1.
<mgrwt>
<rscale>  0 0.25814550E+04</rscale>
<asrwt>0</asrwt>
<pdfrwt beam="1">  1        2 0.33368470E+00 0.25814550E+04</pdfrwt>
<pdfrwt beam="2">  1       -1 0.11816969E+00 0.25814550E+04</pdfrwt>
<totfact> 0.34818565E+00</totfact>
</mgrwt>
</event>
<event>
12    6  0.1521603E-007  0.2678558E+04  0.7818608E-02  0.8341996E-01
         -1   -1    0    0    0  501 -0.00000000000E+00  0.00000000000E+00  0.94946923211E+03  0.94946923211E+03  0.00000000000E+00 0.  1.
          2   -1    0    0  501    0  0.00000000000E+00 -0.00000000000E+00 -0.18891275542E+04  0.18891275542E+04  0.00000000000E+00 0. -1.
         24    2    1    2    0    0 -0.25294212927E+03  0.88473695589E+02 -0.16319558429E+04  0.16563920707E+04  0.92452707768E+02 0.  0.
        254    2    1    2    0    0  0.25294212927E+03 -0.88473695589E+02  0.69229752078E+03  0.11822047156E+04  0.92006783270E+03 0.  0.
         23    2    4    4    0    0  0.45257076594E+03 -0.17561331577E+03  0.48522073699E+02  0.49656344393E+03  0.92523117932E+02 0.  0.
         23    2    4    4    0    0 -0.19962863667E+03  0.87139620181E+02  0.64377544709E+03  0.68564127168E+03  0.90621306447E+02 0.  0.
          2    1    3    3  502    0 -0.25809881863E+03  0.93103744702E+02 -0.15461405778E+04  0.15702974221E+04  0.00000000000E+00 0. -1.
         -1    1    3    3    0  502  0.51566893580E+01 -0.46300491124E+01 -0.85815265097E+02  0.86094648635E+02  0.00000000000E+00 0.  1.
         11    1    5    5    0    0  0.91235854982E+02 -0.59899462032E+02  0.42442767218E+02  0.11710386533E+03  0.00000000000E+00 0.  1.
        -11    1    5    5    0    0  0.36133491096E+03 -0.11571385374E+03  0.60793064808E+01  0.37945957860E+03  0.00000000000E+00 0. -1.
          3    1    6    6  503    0 -0.15498671668E+03  0.73463360825E+02  0.36882807578E+03  0.40675778691E+03  0.00000000000E+00 0. -1.
         -3    1    6    6    0  503 -0.44641919992E+02  0.13676259356E+02  0.27494737131E+03  0.27888348477E+03  0.00000000000E+00 0.  1.
<mgrwt>
<rscale>  0 0.26785582E+04</rscale>
<asrwt>0</asrwt>
<pdfrwt beam="1">  1        2 0.29063501E+00 0.26785582E+04</pdfrwt>
<pdfrwt beam="2">  1       -1 0.14607219E+00 0.26785582E+04</pdfrwt>
<totfact> 0.28849516E+00</totfact>
</mgrwt>
</event>
<event>
12    6  0.1521603E-007  0.2174025E+04  0.7818608E-02  0.8529318E-01
          2   -1    0    0  501    0  0.00000000000E+00  0.00000000000E+00  0.90366113683E+03  0.90366113683E+03  0.00000000000E+00 0. -1.
         -1   -1    0    0    0  501 -0.00000000000E+00 -0.00000000000E+00 -0.13075651644E+04  0.13075651644E+04  0.00000000000E+00 0.  1.
         24    2    1    2    0    0 -0.14896094715E+03 -0.83301428125E+03 -0.47642206213E+03  0.97443167426E+03  0.80230605031E+02 0.  0.
        254    2    1    2    0    0  0.14896094715E+03  0.83301428125E+03  0.72518034511E+02  0.12367946270E+04  0.89905501918E+03 0.  0.
         23    2    4    4    0    0 -0.34543457591E+03  0.44551755331E+03  0.16711270943E+03  0.59501618686E+03  0.91140926187E+02 0.  0.
         23    2    4    4    0    0  0.49439552306E+03  0.38749672795E+03 -0.94594674924E+02  0.64177844015E+03  0.91382527456E+02 0.  0.
          4    1    3    3  502    0 -0.61472899884E+02 -0.16277363265E+03 -0.91483426557E+02  0.19657922129E+03  0.00000000000E+00 0. -1.
         -3    1    3    3    0  502 -0.87488047263E+02 -0.67024064860E+03 -0.38493863557E+03  0.77785245298E+03  0.00000000000E+00 0.  1.
         11    1    5    5    0    0 -0.65055381469E+02  0.61976682453E+02 -0.42717485363E+01  0.89953097009E+02  0.00000000000E+00 0. -1.
        -11    1    5    5    0    0 -0.28037919444E+03  0.38354087085E+03  0.17138445797E+03  0.50506308985E+03  0.00000000000E+00 0.  1.
          2    1    6    6  503    0  0.34283253982E+03  0.31938157420E+03 -0.73491414012E+02  0.47427811275E+03  0.00000000000E+00 0. -1.
         -2    1    6    6    0  503  0.15156298324E+03  0.68115153747E+02 -0.21103260912E+02  0.16750032740E+03  0.00000000000E+00 0.  1.
<mgrwt>
<rscale>  0 0.21740247E+04</rscale>
<asrwt>0</asrwt>
<pdfrwt beam="1">  1        2 0.13902479E+00 0.21740247E+04</pdfrwt>
<pdfrwt beam="2">  1       -1 0.20116387E+00 0.21740247E+04</pdfrwt>
<totfact> 0.45006637E+00</totfact>
</mgrwt>
</event>
<event>
12    6  0.1521603E-007  0.1209545E+04  0.7818608E-02  0.9104543E-01
         -1   -1    0    0    0  501 -0.00000000000E+00  0.00000000000E+00  0.14834053833E+03  0.14834053833E+03  0.00000000000E+00 0.  1.
          2   -1    0    0  501    0  0.00000000000E+00 -0.00000000000E+00 -0.24656088509E+04  0.24656088509E+04  0.00000000000E+00 0. -1.
         24    2    1    2    0    0 -0.77017068418E+02  0.78252915285E+02 -0.33341842888E+03  0.35973726554E+03  0.78663231059E+02 0.  0.
        254    2    1    2    0    0  0.77017068418E+02 -0.78252915285E+02 -0.19838498837E+04  0.22542121237E+04  0.10647801604E+04 0.  0.
         23    2    4    4    0    0  0.43603031415E+03  0.19815223732E+03 -0.49240599886E+03  0.69268928195E+03  0.89263820294E+02 0.  0.
         23    2    4    4    0    0 -0.35901324573E+03 -0.27640515260E+03 -0.14914438848E+04  0.15615228417E+04  0.93050549079E+02 0.  0.
          4    1    3    3  502    0 -0.63800622822E+02  0.36844065971E+02 -0.28631776991E+03  0.29564483766E+03  0.00000000000E+00 0. -1.
         -3    1    3    3    0  502 -0.13216445597E+02  0.41408849313E+02 -0.47100658977E+02  0.64092427881E+02  0.00000000000E+00 0.  1.
         11    1    5    5    0    0  0.40648194563E+03  0.19571499564E+03 -0.48446472754E+03  0.66199547119E+03  0.00000000000E+00 0. -1.
        -11    1    5    5    0    0  0.29548368520E+02  0.24372416788E+01 -0.79412713106E+01  0.30693810764E+02  0.00000000000E+00 0.  1.
          3    1    6    6  503    0 -0.26886730683E+03 -0.22678536907E+03 -0.10188865076E+04  0.10778918998E+04  0.00000000000E+00 0. -1.
         -3    1    6    6    0  503 -0.90145938900E+02 -0.49619783526E+02 -0.47255737720E+03  0.48363094190E+03  0.00000000000E+00 0.  1.
<mgrwt>
<rscale>  0 0.12095449E+04</rscale>
<asrwt>0</asrwt>
<pdfrwt beam="1">  1        2 0.37932441E+00 0.12095449E+04</pdfrwt>
<pdfrwt beam="2">  1       -1 0.22821623E-01 0.12095449E+04</pdfrwt>
<totfact> 0.67395267E+01</totfact>
</mgrwt>
</event>
<event>
12    6  0.1521603E-007  0.1448505E+04  0.7818608E-02  0.8919438E-01
         -1   -1    0    0    0  501 -0.00000000000E+00  0.00000000000E+00  0.38540077897E+03  0.38540077897E+03  0.00000000000E+00 0.  1.
          2   -1    0    0  501    0  0.00000000000E+00 -0.00000000000E+00 -0.13610286387E+04  0.13610286387E+04  0.00000000000E+00 0. -1.
         24    2    1    2    0    0  0.86780410389E+02 -0.24069381265E+03 -0.71658769960E+03  0.76510441984E+03  0.80140445275E+02 0.  0.
        254    2    1    2    0    0 -0.86780410389E+02  0.24069381265E+03 -0.25904016017E+03  0.98132499787E+03  0.91128074477E+03 0.  0.
         23    2    4    4    0    0 -0.29496769021E+03 -0.24243094112E+03 -0.11650942896E+02  0.39288417324E+03  0.91888680649E+02 0.  0.
         23    2    4    4    0    0  0.20818727982E+03  0.48312475377E+03 -0.24738921727E+03  0.58844082463E+03  0.91157600284E+02 0.  0.
          2    1    3    3  502    0  0.36303529293E+02 -0.88897738788E+02 -0.38716139392E+03  0.39889183890E+03  0.00000000000E+00 0. -1.
         -1    1    3    3    0  502  0.50476881096E+02 -0.15179607386E+03 -0.32942630568E+03  0.36621258094E+03  0.00000000000E+00 0.  1.
         11    1    5    5    0    0 -0.17415716683E+03 -0.19587012343E+03  0.62921110987E+01  0.26217439743E+03  0.00000000000E+00 0. -1.
        -11    1    5    5    0    0 -0.12081052338E+03 -0.46560817694E+02 -0.17943053995E+02  0.13070977580E+03  0.00000000000E+00 0.  1.
          4    1    6    6  503    0  0.20239759326E+03  0.37928252265E+03 -0.19958004383E+03  0.47397490613E+03  0.00000000000E+00 0. -1.
         -4    1    6    6    0  503  0.57896865648E+01  0.10384223112E+03 -0.47809173448E+02  0.11446591851E+03  0.00000000000E+00 0.  1.
<mgrwt>
<rscale>  0 0.14485047E+04</rscale>
<asrwt>0</asrwt>
<pdfrwt beam="1">  1        2 0.20938902E+00 0.14485047E+04</pdfrwt>
<pdfrwt beam="2">  1       -1 0.59292428E-01 0.14485047E+04</pdfrwt>
<totfact> 0.48565744E+01</totfact>
</mgrwt>
</event>
<event>
12    6  0.1521603E-007  0.1309468E+04  0.7818608E-02  0.9022090E-01
          2   -1    0    0  501    0  0.00000000000E+00  0.00000000000E+00  0.83298037031E+03  0.83298037031E+03  0.00000000000E+00 0. -1.
         -1   -1    0    0    0  501 -0.00000000000E+00 -0.00000000000E+00 -0.51462990236E+03  0.51462990236E+03  0.00000000000E+00 0.  1.
         24    2    1    2    0    0  0.12385118262E+03 -0.32907608538E+03  0.15451272963E+03  0.39251968826E+03  0.81039105718E+02 0.  0.
        254    2    1    2    0    0 -0.12385118262E+03  0.32907608538E+03  0.16383773832E+03  0.95509058441E+03  0.87276860308E+03 0.  0.
         23    2    4    4    0    0  0.16227523147E+03 -0.23573978185E+03  0.66770483576E+02  0.30810814561E+03  0.92551803990E+02 0.  0.
         23    2    4    4    0    0 -0.28612641408E+03  0.56481586722E+03  0.97067254748E+02  0.64698243879E+03  0.90988655676E+02 0.  0.
          4    1    3    3  502    0 -0.92373109796E+01 -0.69995896882E+01  0.74860350906E+00  0.11613895864E+02  0.00000000000E+00 0. -1.
         -3    1    3    3    0  502  0.13308849360E+03 -0.32207649569E+03  0.15376412612E+03  0.38090579240E+03  0.00000000000E+00 0.  1.
         11    1    5    5    0    0  0.12668845750E+02 -0.69821711469E+02 -0.10459535741E+02  0.71728466685E+02  0.00000000000E+00 0.  1.
        -11    1    5    5    0    0  0.14960638572E+03 -0.16591807038E+03  0.77230019317E+02  0.23637967893E+03  0.00000000000E+00 0. -1.
          3    1    6    6  503    0 -0.22970400310E+03  0.47387809586E+03  0.46639557276E+02  0.52867724282E+03  0.00000000000E+00 0. -1.
         -3    1    6    6    0  503 -0.56422410985E+02  0.90937771364E+02  0.50427697472E+02  0.11830519597E+03  0.00000000000E+00 0.  1.
<mgrwt>
<rscale>  0 0.13094680E+04</rscale>
<asrwt>0</asrwt>
<pdfrwt beam="1">  1        2 0.12815083E+00 0.13094680E+04</pdfrwt>
<pdfrwt beam="2">  1       -1 0.79173831E-01 0.13094680E+04</pdfrwt>
<totfact> 0.58200706E+01</totfact>
</mgrwt>
</event>
<event>
12    6  0.1521603E-007  0.1643455E+04  0.7818608E-02  0.8794288E-01
          2   -1    0    0  501    0  0.00000000000E+00  0.00000000000E+00  0.71507658975E+03  0.71507658975E+03  0.00000000000E+00 0. -1.
         -1   -1    0    0    0  501 -0.00000000000E+00 -0.00000000000E+00 -0.94428554381E+03  0.94428554381E+03  0.00000000000E+00 0.  1.
         24    2    1    2    0    0 -0.12826600798E+03 -0.50798746130E+03 -0.55625654081E+01  0.53013699921E+03  0.80689938367E+02 0.  0.
        254    2    1    2    0    0  0.12826600798E+03  0.50798746130E+03 -0.22364638866E+03  0.11292251344E+04  0.97500167551E+03 0.  0.
         23    2    4    4    0    0  0.19982054967E+03  0.34747049765E+03  0.33870445508E+03  0.53282278832E+03  0.92279017407E+02 0.  0.
         23    2    4    4    0    0 -0.71554541686E+02  0.16051696365E+03 -0.56235084374E+03  0.59640234603E+03  0.92582605485E+02 0.  0.
          2    1    3    3  502    0 -0.87865145247E+02 -0.43682366116E+03  0.14766299179E+02  0.44581749437E+03  0.00000000000E+00 0. -1.
         -1    1    3    3    0  502 -0.40400862736E+02 -0.71163800145E+02 -0.20328864587E+02  0.84319504839E+02  0.00000000000E+00 0.  1.
         11    1    5    5    0    0  0.16436336314E+03  0.19918106621E+03  0.22678161333E+03  0.34368344799E+03  0.00000000000E+00 0.  1.
        -11    1    5    5    0    0  0.35457186531E+02  0.14828943145E+03  0.11192284175E+03  0.18913934033E+03  0.00000000000E+00 0. -1.
          2    1    6    6  503    0 -0.66776555259E+02  0.15456602538E+03 -0.40156727992E+03  0.43543776230E+03  0.00000000000E+00 0.  1.
         -2    1    6    6    0  503 -0.47779864263E+01  0.59509382701E+01 -0.16078356382E+03  0.16096458373E+03  0.00000000000E+00 0. -1.
<mgrwt>
<rscale>  0 0.16434555E+04</rscale>
<asrwt>0</asrwt>
<pdfrwt beam="1">  1        2 0.11001178E+00 0.16434555E+04</pdfrwt>
<pdfrwt beam="2">  1       -1 0.14527470E+00 0.16434555E+04</pdfrwt>
<totfact> 0.16547168E+01</totfact>
</mgrwt>
</event>
<event>
12    6  0.1521603E-007  0.1505105E+04  0.7818608E-02  0.8881065E-01
         -1   -1    0    0    0  501 -0.00000000000E+00  0.00000000000E+00  0.95109148325E+03  0.95109148325E+03  0.00000000000E+00 0.  1.
          2   -1    0    0  501    0  0.00000000000E+00 -0.00000000000E+00 -0.59545852760E+03  0.59545852760E+03  0.00000000000E+00 0. -1.
         24    2    1    2    0    0 -0.29796362422E+03  0.28109639639E+03  0.32155317742E+03  0.52626560315E+03  0.75904767521E+02 0.  0.
        254    2    1    2    0    0  0.29796362422E+03 -0.28109639639E+03  0.34079778236E+02  0.10202844077E+04  0.93382082644E+03 0.  0.
         23    2    4    4    0    0  0.36471406506E+03  0.13388619388E+03 -0.27983924312E+03  0.48744480332E+03  0.91381464955E+02 0.  0.
         23    2    4    4    0    0 -0.66750440843E+02 -0.41498259027E+03  0.31391902135E+03  0.53283960438E+03  0.93309808974E+02 0.  0.
          2    1    3    3  502    0 -0.66175925156E+02  0.66105060106E+02  0.35914028982E+02  0.10019455833E+03  0.00000000000E+00 0. -1.
         -1    1    3    3    0  502 -0.23178769906E+03  0.21499133629E+03  0.28563914844E+03  0.42607104482E+03  0.00000000000E+00 0.  1.
         11    1    5    5    0    0  0.51488826220E+02  0.17362188000E+02 -0.84152354822E+02  0.10017067245E+03  0.00000000000E+00 0.  1.
        -11    1    5    5    0    0  0.31322523884E+03  0.11652400588E+03 -0.19568688829E+03  0.38727413087E+03  0.00000000000E+00 0. -1.
          3    1    6    6  503    0 -0.71340252999E+02 -0.40311393728E+03  0.31914831883E+03  0.51908181198E+03  0.00000000000E+00 0. -1.
         -3    1    6    6    0  503  0.45898121551E+01 -0.11868652994E+02 -0.52292974757E+01  0.13757792395E+02  0.00000000000E+00 0.  1.
<mgrwt>
<rscale>  0 0.15051054E+04</rscale>
<asrwt>0</asrwt>
<pdfrwt beam="1">  1        2 0.91609004E-01 0.15051054E+04</pdfrwt>
<pdfrwt beam="2">  1       -1 0.14632177E+00 0.15051054E+04</pdfrwt>
<totfact> 0.20604923E+01</totfact>
</mgrwt>
</event>
<event>
12    6  0.1521603E-007  0.1340849E+04  0.7818608E-02  0.8997785E-01
         -1   -1    0    0    0  501 -0.00000000000E+00  0.00000000000E+00  0.55454987961E+03  0.55454987961E+03  0.00000000000E+00 0.  1.
          2   -1    0    0  501    0  0.00000000000E+00 -0.00000000000E+00 -0.81051086613E+03  0.81051086613E+03  0.00000000000E+00 0. -1.
         24    2    1    2    0    0 -0.55238005314E+02 -0.91125083321E+02  0.28161924537E+03  0.31157134450E+03  0.80076746357E+02 0.  0.
        254    2    1    2    0    0  0.55238005314E+02  0.91125083321E+02 -0.53758023189E+03  0.10534894012E+04  0.89971795290E+03 0.  0.
         23    2    4    4    0    0  0.45645839062E+03 -0.54957789480E+02 -0.28600658455E+03  0.54881735384E+03  0.89588506401E+02 0.  0.
         23    2    4    4    0    0 -0.40122038531E+03  0.14608287280E+03 -0.25157364734E+03  0.50467204740E+03  0.95323512717E+02 0.  0.
          2    1    3    3  502    0 -0.33958392180E+01  0.84233735359E+01  0.75783826930E+00  0.91136855641E+01  0.00000000000E+00 0. -1.
         -1    1    3    3    0  502 -0.51842166096E+02 -0.99548456857E+02  0.28086140710E+03  0.30245765893E+03  0.00000000000E+00 0.  1.
         11    1    5    5    0    0  0.35856576423E+03 -0.73290717020E+02 -0.24860653892E+03  0.44243208255E+03  0.00000000000E+00 0. -1.
        -11    1    5    5    0    0  0.97892626395E+02  0.18332927541E+02 -0.37400045635E+02  0.10638527129E+03  0.00000000000E+00 0.  1.
          4    1    6    6  503    0 -0.17362162427E+03  0.11313837861E+03 -0.10998238209E+03  0.23460793997E+03  0.00000000000E+00 0.  1.
         -4    1    6    6    0  503 -0.22759876104E+03  0.32944494189E+02 -0.14159126524E+03  0.27006410742E+03  0.00000000000E+00 0. -1.
<mgrwt>
<rscale>  0 0.13408485E+04</rscale>
<asrwt>0</asrwt>
<pdfrwt beam="1">  1        2 0.12469398E+00 0.13408485E+04</pdfrwt>
<pdfrwt beam="2">  1       -1 0.85315366E-01 0.13408485E+04</pdfrwt>
<totfact> 0.51320651E+01</totfact>
</mgrwt>
</event>
<event>
12    6  0.1521603E-007  0.1458730E+04  0.7818608E-02  0.8912370E-01
         -1   -1    0    0    0  501 -0.00000000000E+00  0.00000000000E+00  0.70887172428E+03  0.70887172428E+03  0.00000000000E+00 0.  1.
          2   -1    0    0  501    0  0.00000000000E+00 -0.00000000000E+00 -0.75045094677E+03  0.75045094677E+03  0.00000000000E+00 0. -1.
         24    2    1    2    0    0  0.39241637536E+03 -0.21238949522E+03 -0.45050964793E+01  0.45349981785E+03  0.80881886473E+02 0.  0.
        254    2    1    2    0    0 -0.39241637536E+03  0.21238949522E+03 -0.37074126017E+02  0.10058228532E+04  0.90066931327E+03 0.  0.
         23    2    4    4    0    0  0.19958504397E+03  0.17105650422E+03  0.21741955886E+03  0.35378371595E+03  0.93793047091E+02 0.  0.
         23    2    4    4    0    0 -0.59200141933E+03  0.41332991001E+02 -0.25449368487E+03  0.65203913725E+03  0.90630592125E+02 0.  0.
          2    1    3    3  502    0 -0.11959712666E+01 -0.52422690578E+01  0.66690294102E+01  0.85666612761E+01  0.00000000000E+00 0. -1.
         -1    1    3    3    0  502  0.39361234663E+03 -0.20714722616E+03 -0.11174125890E+02  0.44493315657E+03  0.00000000000E+00 0.  1.
         11    1    5    5    0    0  0.10522224670E+03  0.13899363808E+03  0.10482941735E+03  0.20342113797E+03  0.00000000000E+00 0. -1.
        -11    1    5    5    0    0  0.94362797266E+02  0.32062866137E+02  0.11259014150E+03  0.15036257798E+03  0.00000000000E+00 0.  1.
          3    1    6    6  503    0 -0.28567998720E+03 -0.20553272926E+02 -0.14391678679E+03  0.32054256134E+03  0.00000000000E+00 0. -1.
         -3    1    6    6    0  503 -0.30632143214E+03  0.61886263927E+02 -0.11057689809E+03  0.33149657591E+03  0.00000000000E+00 0.  1.
<mgrwt>
<rscale>  0 0.14587302E+04</rscale>
<asrwt>0</asrwt>
<pdfrwt beam="1">  1        2 0.11545399E+00 0.14587302E+04</pdfrwt>
<pdfrwt beam="2">  1       -1 0.10905719E+00 0.14587302E+04</pdfrwt>
<totfact> 0.32311861E+01</totfact>
</mgrwt>
</event>
<event>
12    6  0.1521603E-007  0.2381732E+04  0.7818608E-02  0.8446375E-01
         -3   -1    0    0    0  501 -0.00000000000E+00  0.00000000000E+00  0.16021442474E+04  0.16021442474E+04  0.00000000000E+00 0.  1.
          2   -1    0    0  501    0  0.00000000000E+00 -0.00000000000E+00 -0.88516486149E+03  0.88516486149E+03  0.00000000000E+00 0. -1.
         24    2    1    2    0    0 -0.91160419971E+03  0.43589835804E+03  0.18360617056E+03  0.10303344907E+04  0.82754706397E+02 0.  0.
        254    2    1    2    0    0  0.91160419971E+03 -0.43589835804E+03  0.53337321532E+03  0.14569746181E+04  0.90402348178E+03 0.  0.
         23    2    4    4    0    0  0.69434823259E+03  0.14373256200E+03  0.39192946703E+03  0.81538349097E+03  0.91994634345E+02 0.  0.
         23    2    4    4    0    0  0.21725596712E+03 -0.57963092004E+03  0.14144374829E+03  0.64159112717E+03  0.91981964618E+02 0.  0.
          2    1    3    3  502    0 -0.53911843453E+03  0.26084957762E+03  0.67479564797E+02  0.60269783496E+03  0.00000000000E+00 0. -1.
         -1    1    3    3    0  502 -0.37248576518E+03  0.17504878042E+03  0.11612660577E+03  0.42763665577E+03  0.00000000000E+00 0.  1.
         11    1    5    5    0    0  0.39294016865E+03  0.73026739640E+02  0.27165540308E+03  0.48325101021E+03  0.00000000000E+00 0.  1.
        -11    1    5    5    0    0  0.30140806394E+03  0.70705822356E+02  0.12027406395E+03  0.33213248077E+03  0.00000000000E+00 0. -1.
          3    1    6    6  503    0  0.11476142086E+02 -0.33801032557E+02  0.32292667740E+02  0.48135517332E+02  0.00000000000E+00 0. -1.
         -3    1    6    6    0  503  0.20577982504E+03 -0.54582988748E+03  0.10915108055E+03  0.59345560983E+03  0.00000000000E+00 0.  1.
<mgrwt>
<rscale>  0 0.23817320E+04</rscale>
<asrwt>0</asrwt>
<pdfrwt beam="1">  1        2 0.13617921E+00 0.23817320E+04</pdfrwt>
<pdfrwt beam="2">  1       -3 0.24648373E+00 0.23817320E+04</pdfrwt>
<totfact> 0.12992240E+00</totfact>
</mgrwt>
</event>
<event>
12    6  0.1521603E-007  0.1182581E+04  0.7818608E-02  0.9128241E-01
         -1   -1    0    0    0  501 -0.00000000000E+00  0.00000000000E+00  0.43304856028E+03  0.43304856028E+03  0.00000000000E+00 0.  1.
          2   -1    0    0  501    0  0.00000000000E+00 -0.00000000000E+00 -0.80735680159E+03  0.80735680159E+03  0.00000000000E+00 0. -1.
         24    2    1    2    0    0 -0.21027469011E+03 -0.10005374064E+02 -0.19160106479E+03  0.29491886348E+03  0.77140230712E+02 0.  0.
        254    2    1    2    0    0  0.21027469011E+03  0.10005374064E+02 -0.18270717651E+03  0.94548649839E+03  0.90346402999E+03 0.  0.
         23    2    4    4    0    0 -0.17304638230E+03  0.30444236849E+03  0.10466491602E+03  0.37593007807E+03  0.87968589829E+02 0.  0.
         23    2    4    4    0    0  0.38332107241E+03 -0.29443699443E+03 -0.28737209253E+03  0.56955642032E+03  0.90463297069E+02 0.  0.
          4    1    3    3  502    0 -0.39782016752E+02  0.57057874205E+01 -0.31616630723E+01  0.40313285408E+02  0.00000000000E+00 0. -1.
         -3    1    3    3    0  502 -0.17049267336E+03 -0.15711161484E+02 -0.18843940172E+03  0.25460557807E+03  0.00000000000E+00 0.  1.
         11    1    5    5    0    0 -0.28224074209E+02  0.72686930783E+01  0.17700502308E+02  0.34098974266E+02  0.00000000000E+00 0. -1.
        -11    1    5    5    0    0 -0.14482230809E+03  0.29717367541E+03  0.86964413710E+02  0.34183110381E+03  0.00000000000E+00 0.  1.
          4    1    6    6  503    0  0.43343291811E+02 -0.32702896608E+01 -0.34141047367E+02  0.55271573660E+02  0.00000000000E+00 0. -1.
         -4    1    6    6    0  503  0.33997778060E+03 -0.29116670477E+03 -0.25323104516E+03  0.51428484666E+03  0.00000000000E+00 0.  1.
<mgrwt>
<rscale>  0 0.11825814E+04</rscale>
<asrwt>0</asrwt>
<pdfrwt beam="1">  1        2 0.12420874E+00 0.11825814E+04</pdfrwt>
<pdfrwt beam="2">  1       -1 0.66622856E-01 0.11825814E+04</pdfrwt>
<totfact> 0.87616179E+01</totfact>
</mgrwt>
</event>
<event>
12    6  0.1521603E-007  0.1459737E+04  0.7818608E-02  0.8911678E-01
          2   -1    0    0  501    0  0.00000000000E+00  0.00000000000E+00  0.84765353675E+03  0.84765353675E+03  0.00000000000E+00 0. -1.
         -1   -1    0    0    0  501 -0.00000000000E+00 -0.00000000000E+00 -0.62844996178E+03  0.62844996178E+03  0.00000000000E+00 0.  1.
         24    2    1    2    0    0  0.13022584972E+02  0.10019717961E+03  0.49572627001E+03  0.51228097117E+03  0.80487241969E+02 0.  0.
        254    2    1    2    0    0 -0.13022584972E+02 -0.10019717961E+03 -0.27652269505E+03  0.96382252736E+03  0.91775813854E+03 0.  0.
         23    2    4    4    0    0  0.15518194153E+03 -0.46765739664E+03 -0.88904756210E+02  0.50901226887E+03  0.91676379579E+02 0.  0.
         23    2    4    4    0    0 -0.16820452650E+03  0.36746021703E+03 -0.18761793884E+03  0.45481025849E+03  0.91280372605E+02 0.  0.
          4    1    3    3  502    0  0.14867973830E+02  0.66636300642E+02  0.45200890318E+03  0.45713619608E+03  0.00000000000E+00 0. -1.
         -3    1    3    3    0  502 -0.18453888581E+01  0.33560878968E+02  0.43717366829E+02  0.55144775089E+02  0.00000000000E+00 0.  1.
         11    1    5    5    0    0 -0.45861535826E+01 -0.11498716449E+02 -0.15978326991E+02  0.20212872584E+02  0.00000000000E+00 0.  1.
        -11    1    5    5    0    0  0.15976809511E+03 -0.45615868019E+03 -0.72926429219E+02  0.48879939628E+03  0.00000000000E+00 0. -1.
          4    1    6    6  503    0  0.81512594548E+01  0.42488948125E+02 -0.31224343502E+02  0.53354600276E+02  0.00000000000E+00 0.  1.
         -4    1    6    6    0  503 -0.17635578595E+03  0.32497126891E+03 -0.15639359534E+03  0.40145565822E+03  0.00000000000E+00 0. -1.
<mgrwt>
<rscale>  0 0.14597367E+04</rscale>
<asrwt>0</asrwt>
<pdfrwt beam="1">  1        2 0.13040824E+00 0.14597367E+04</pdfrwt>
<pdfrwt beam="2">  1       -1 0.96684609E-01 0.14597367E+04</pdfrwt>
<totfact> 0.36282743E+01</totfact>
</mgrwt>
</event>
<event>
12    6  0.1521603E-007  0.1870955E+04  0.7818608E-02  0.8669451E-01
          2   -1    0    0  501    0  0.00000000000E+00  0.00000000000E+00  0.13295872923E+04  0.13295872923E+04  0.00000000000E+00 0. -1.
         -1   -1    0    0    0  501 -0.00000000000E+00 -0.00000000000E+00 -0.65818748401E+03  0.65818748401E+03  0.00000000000E+00 0.  1.
         24    2    1    2    0    0 -0.85516399385E+02  0.10393277237E+03 -0.47793552409E+03  0.50288182971E+03  0.79703787456E+02 0.  0.
        254    2    1    2    0    0  0.85516399385E+02 -0.10393277237E+03  0.11493353324E+04  0.14848929466E+04  0.93049464312E+03 0.  0.
         23    2    4    4    0    0 -0.20999131594E+03  0.29362603068E+03  0.23311231255E+03  0.43940052752E+03  0.91754425867E+02 0.  0.
         23    2    4    4    0    0  0.29550771532E+03 -0.39755880304E+03  0.91622301983E+03  0.10454924191E+04  0.90619890691E+02 0.  0.
          4    1    3    3  502    0  0.55265489557E+01 -0.15407984176E+01 -0.98600852995E+02  0.98767631411E+02  0.00000000000E+00 0. -1.
         -3    1    3    3    0  502 -0.91042948341E+02  0.10547357078E+03 -0.37933467109E+03  0.40411419830E+03  0.00000000000E+00 0.  1.
         11    1    5    5    0    0 -0.69974502298E+02  0.17663260805E+03  0.12101873415E+03  0.22525772620E+03  0.00000000000E+00 0. -1.
        -11    1    5    5    0    0 -0.14001681364E+03  0.11699342263E+03  0.11209357840E+03  0.21414280132E+03  0.00000000000E+00 0.  1.
          2    1    6    6  503    0  0.26429364304E+03 -0.31331530833E+03  0.79678213803E+03  0.89603537189E+03  0.00000000000E+00 0.  1.
         -2    1    6    6    0  503  0.31214072284E+02 -0.84243494715E+02  0.11944088179E+03  0.14945704719E+03  0.00000000000E+00 0. -1.
<mgrwt>
<rscale>  0 0.18709545E+04</rscale>
<asrwt>0</asrwt>
<pdfrwt beam="1">  1        2 0.20455189E+00 0.18709545E+04</pdfrwt>
<pdfrwt beam="2">  1       -1 0.10125961E+00 0.18709545E+04</pdfrwt>
<totfact> 0.15745592E+01</totfact>
</mgrwt>
</event>
<event>
12    6  0.1521603E-007  0.2176005E+04  0.7818608E-02  0.8528482E-01
         -1   -1    0    0    0  501 -0.00000000000E+00  0.00000000000E+00  0.31292079704E+03  0.31292079704E+03  0.00000000000E+00 0.  1.
          2   -1    0    0  501    0  0.00000000000E+00 -0.00000000000E+00 -0.37829038558E+04  0.37829038558E+04  0.00000000000E+00 0. -1.
         24    2    1    2    0    0  0.29308623086E+03  0.83397243816E+03 -0.17331481971E+04  0.19472318430E+04  0.80620164510E+02 0.  0.
        254    2    1    2    0    0 -0.29308623086E+03 -0.83397243816E+03 -0.17368348616E+04  0.21485928098E+04  0.90468014206E+03 0.  0.
         23    2    4    4    0    0 -0.22829270105E+03  0.11515233069E+03 -0.20071221249E+03  0.33946626719E+03  0.97848544703E+02 0.  0.
         23    2    4    4    0    0 -0.64793529807E+02 -0.94912476885E+03 -0.15361226491E+04  0.18091265426E+04  0.90719488865E+02 0.  0.
          4    1    3    3  502    0  0.26094720916E+03  0.77752934293E+03 -0.16404228999E+04  0.18340208875E+04  0.00000000000E+00 0. -1.
         -3    1    3    3    0  502  0.32139021696E+02  0.56443095232E+02 -0.92725297239E+02  0.11321095558E+03  0.00000000000E+00 0.  1.
         11    1    5    5    0    0 -0.21868604672E+03  0.12027771459E+03 -0.20919974251E+03  0.32566063306E+03  0.00000000000E+00 0.  1.
        -11    1    5    5    0    0 -0.96066543307E+01 -0.51253839058E+01  0.84875300283E+01  0.13805634125E+02  0.00000000000E+00 0. -1.
          3    1    6    6  503    0 -0.69423001858E+01 -0.60226920872E+02 -0.14601734597E+03  0.15810295018E+03  0.00000000000E+00 0. -1.
         -3    1    6    6    0  503 -0.57851229621E+02 -0.88889784798E+03 -0.13901053031E+04  0.16510235924E+04  0.00000000000E+00 0.  1.
<mgrwt>
<rscale>  0 0.21760049E+04</rscale>
<asrwt>0</asrwt>
<pdfrwt beam="1">  1        2 0.58198519E+00 0.21760049E+04</pdfrwt>
<pdfrwt beam="2">  1       -1 0.48141663E-01 0.21760049E+04</pdfrwt>
<totfact> 0.22876963E+00</totfact>
</mgrwt>
</event>
<event>
12    6  0.1521603E-007  0.2891483E+04  0.7818608E-02  0.8275416E-01
         -1   -1    0    0    0  501 -0.00000000000E+00  0.00000000000E+00  0.17624340193E+04  0.17624340193E+04  0.00000000000E+00 0.  1.
          2   -1    0    0  501    0  0.00000000000E+00 -0.00000000000E+00 -0.11859559411E+04  0.11859559411E+04  0.00000000000E+00 0. -1.
         24    2    1    2    0    0  0.50253903397E+03 -0.89089065448E+03 -0.55298443951E+03  0.11654922215E+04  0.79678661504E+02 0.  0.
        254    2    1    2    0    0 -0.50253903397E+03  0.89089065448E+03  0.11294625177E+04  0.17828977389E+04  0.92563876844E+03 0.  0.
         23    2    4    4    0    0 -0.20214582211E+03  0.15886805868E+03 -0.12215493659E+03  0.29931213337E+03  0.92541510590E+02 0.  0.
         23    2    4    4    0    0 -0.30039321186E+03  0.73202259580E+03  0.12516174543E+04  0.14835856056E+04  0.91579662633E+02 0.  0.
          4    1    3    3  502    0  0.21258578825E+03 -0.43801668580E+03 -0.29244025920E+03  0.56795478658E+03  0.00000000000E+00 0. -1.
         -3    1    3    3    0  502  0.28995324572E+03 -0.45287396869E+03 -0.26054418030E+03  0.59753743490E+03  0.00000000000E+00 0.  1.
         11    1    5    5    0    0 -0.19345154752E+03  0.17106374500E+03 -0.11433364121E+03  0.28241545213E+03  0.00000000000E+00 0. -1.
        -11    1    5    5    0    0 -0.86942745977E+01 -0.12195686317E+02 -0.78212953806E+01  0.16896681241E+02  0.00000000000E+00 0.  1.
          1    1    6    6  503    0 -0.29223845792E+03  0.63392829528E+03  0.11030375902E+04  0.13053583130E+04  0.00000000000E+00 0. -1.
         -1    1    6    6    0  503 -0.81547539415E+01  0.98094300524E+02  0.14857986407E+03  0.17822729256E+03  0.00000000000E+00 0.  1.
<mgrwt>
<rscale>  0 0.28914834E+04</rscale>
<asrwt>0</asrwt>
<pdfrwt beam="1">  1        2 0.18245476E+00 0.28914834E+04</pdfrwt>
<pdfrwt beam="2">  1       -1 0.27114370E+00 0.28914834E+04</pdfrwt>
<totfact> 0.96520012E-01</totfact>
</mgrwt>
</event>
<event>
12    6  0.1521603E-007  0.2322056E+04  0.7818608E-02  0.8469275E-01
         -1   -1    0    0    0  501 -0.00000000000E+00  0.00000000000E+00  0.10770525687E+04  0.10770525687E+04  0.00000000000E+00 0.  1.
          2   -1    0    0  501    0  0.00000000000E+00 -0.00000000000E+00 -0.12515506970E+04  0.12515506970E+04  0.00000000000E+00 0. -1.
         24    2    1    2    0    0  0.45898422268E+03  0.37877460834E+03 -0.85732078507E+03  0.10467640047E+04  0.81112468217E+02 0.  0.
        254    2    1    2    0    0 -0.45898422268E+03 -0.37877460834E+03  0.68282265676E+03  0.12818392610E+04  0.90704376396E+03 0.  0.
         23    2    4    4    0    0 -0.65937831323E+03 -0.13223559544E+03  0.21959991184E+03  0.71330276976E+03  0.91163081399E+02 0.  0.
         23    2    4    4    0    0  0.20039409054E+03 -0.24653901290E+03  0.46322274492E+03  0.56853649119E+03  0.87858716147E+02 0.  0.
          4    1    3    3  502    0  0.29108903527E+03  0.18832291579E+03 -0.49206663090E+03  0.60193680425E+03  0.00000000000E+00 0. -1.
         -3    1    3    3    0  502  0.16789518741E+03  0.19045169256E+03 -0.36525415416E+03  0.44482720048E+03  0.00000000000E+00 0.  1.
         11    1    5    5    0    0 -0.56720572226E+03 -0.92345763940E+02  0.16006465802E+03  0.59654904763E+03  0.00000000000E+00 0. -1.
        -11    1    5    5    0    0 -0.92172590963E+02 -0.39889831504E+02  0.59535253828E+02  0.11675372213E+03  0.00000000000E+00 0.  1.
          2    1    6    6  503    0  0.11245876705E+03 -0.20168462751E+03  0.32478253214E+03  0.39850640703E+03  0.00000000000E+00 0. -1.
         -2    1    6    6    0  503  0.87935323491E+02 -0.44854385385E+02  0.13844021278E+03  0.17003008416E+03  0.00000000000E+00 0.  1.
<mgrwt>
<rscale>  0 0.23220559E+04</rscale>
<asrwt>0</asrwt>
<pdfrwt beam="1">  1        2 0.19254626E+00 0.23220559E+04</pdfrwt>
<pdfrwt beam="2">  1       -1 0.16570040E+00 0.23220559E+04</pdfrwt>
<totfact> 0.48207087E+00</totfact>
</mgrwt>
</event>
<event>
12    6  0.1521603E-007  0.1948590E+04  0.7818608E-02  0.8631041E-01
          2   -1    0    0  501    0  0.00000000000E+00  0.00000000000E+00  0.18554148307E+04  0.18554148307E+04  0.00000000000E+00 0. -1.
         -1   -1    0    0    0  501 -0.00000000000E+00 -0.00000000000E+00 -0.51161080643E+03  0.51161080643E+03  0.00000000000E+00 0.  1.
         24    2    1    2    0    0 -0.12971189432E+03 -0.71420928585E+03  0.25189448694E+03  0.77238613159E+03  0.78799899757E+02 0.  0.
        254    2    1    2    0    0  0.12971189432E+03  0.71420928585E+03  0.10919095373E+04  0.15946395055E+04  0.90757293668E+03 0.  0.
         23    2    4    4    0    0  0.25759252788E+02 -0.18087033085E+03  0.41879377160E+03  0.46615540077E+03  0.92385165768E+02 0.  0.
         23    2    4    4    0    0  0.10395264153E+03  0.89507961670E+03  0.67311576571E+03  0.11284841048E+04  0.91748943996E+02 0.  0.
          2    1    3    3  502    0 -0.39702731738E+02 -0.12843087969E+03  0.74810184691E+02  0.15384200173E+03  0.00000000000E+00 0. -1.
         -1    1    3    3    0  502 -0.90009162578E+02 -0.58577840616E+03  0.17708430225E+03  0.61854412985E+03  0.00000000000E+00 0.  1.
         11    1    5    5    0    0  0.32715928733E+02 -0.18848503720E+03  0.37279383393E+03  0.41901334568E+03  0.00000000000E+00 0. -1.
        -11    1    5    5    0    0 -0.69566759457E+01  0.76147063491E+01  0.45999937665E+02  0.47142055091E+02  0.00000000000E+00 0.  1.
          3    1    6    6  503    0  0.46431303313E+01  0.40144387532E+03  0.27573954845E+03  0.48704316263E+03  0.00000000000E+00 0. -1.
         -3    1    6    6    0  503  0.99309511198E+02  0.49363574138E+03  0.39737621727E+03  0.64144094212E+03  0.00000000000E+00 0.  1.
<mgrwt>
<rscale>  0 0.19485895E+04</rscale>
<asrwt>0</asrwt>
<pdfrwt beam="1">  1        2 0.28544843E+00 0.19485895E+04</pdfrwt>
<pdfrwt beam="2">  1       -1 0.78709356E-01 0.19485895E+04</pdfrwt>
<totfact> 0.13790297E+01</totfact>
</mgrwt>
</event>
<event>
12    6  0.1521603E-007  0.2954782E+04  0.7818608E-02  0.8256762E-01
         -1   -1    0    0    0  501 -0.00000000000E+00  0.00000000000E+00  0.60556233132E+03  0.60556233132E+03  0.00000000000E+00 0.  1.
          2   -1    0    0  501    0  0.00000000000E+00 -0.00000000000E+00 -0.36043924151E+04  0.36043924151E+04  0.00000000000E+00 0. -1.
         24    2    1    2    0    0  0.13026902177E+04 -0.70896241733E+02 -0.86403913992E+03  0.15668303591E+04  0.79785075878E+02 0.  0.
        254    2    1    2    0    0 -0.13026902177E+04  0.70896241733E+02 -0.21347909439E+04  0.26431243873E+04  0.85249403071E+03 0.  0.
         23    2    4    4    0    0 -0.11357964188E+04  0.60849493871E+02 -0.10782581762E+04  0.15697155024E+04  0.87349287165E+02 0.  0.
         23    2    4    4    0    0 -0.16689379890E+03  0.10046747862E+02 -0.10565327677E+04  0.10734088850E+04  0.89390535499E+02 0.  0.
          2    1    3    3  502    0  0.20338175691E+03 -0.74512124394E+01 -0.10138576738E+03  0.22737355484E+03  0.00000000000E+00 0. -1.
         -1    1    3    3    0  502  0.10993084608E+04 -0.63445029294E+02 -0.76265337254E+03  0.13394568042E+04  0.00000000000E+00 0.  1.
         11    1    5    5    0    0 -0.10680024261E+04  0.36673660279E+02 -0.10035502876E+04  0.14659765752E+04  0.00000000000E+00 0. -1.
        -11    1    5    5    0    0 -0.67793992765E+02  0.24175833591E+02 -0.74707888619E+02  0.10373892715E+03  0.00000000000E+00 0.  1.
          2    1    6    6  503    0 -0.14866342963E+03  0.37004901146E+02 -0.94062168079E+03  0.95301590983E+03  0.00000000000E+00 0. -1.
         -2    1    6    6    0  503 -0.18230369277E+02 -0.26958153284E+02 -0.11591108690E+03  0.12039297512E+03  0.00000000000E+00 0.  1.
<mgrwt>
<rscale>  0 0.29547821E+04</rscale>
<asrwt>0</asrwt>
<pdfrwt beam="1">  1        2 0.55452190E+00 0.29547821E+04</pdfrwt>
<pdfrwt beam="2">  1       -1 0.93163437E-01 0.29547821E+04</pdfrwt>
<totfact> 0.74797452E-01</totfact>
</mgrwt>
</event>
<event>
12    6  0.1521603E-007  0.1947521E+04  0.7818608E-02  0.8631557E-01
         -1   -1    0    0    0  501 -0.00000000000E+00  0.00000000000E+00  0.47838892166E+03  0.47838892166E+03  0.00000000000E+00 0.  1.
          2   -1    0    0  501    0  0.00000000000E+00 -0.00000000000E+00 -0.19820899288E+04  0.19820899288E+04  0.00000000000E+00 0. -1.
         24    2    1    2    0    0  0.19365850168E+03  0.24683748812E+01  0.33986953596E+03  0.39927312986E+03  0.79987640340E+02 0.  0.
        254    2    1    2    0    0 -0.19365850168E+03 -0.24683748812E+01 -0.18435705431E+04  0.20612057206E+04  0.90128073711E+03 0.  0.
         23    2    4    4    0    0 -0.72828599798E+02  0.33500988272E+03 -0.15462078350E+04  0.15863517939E+04  0.90651632533E+02 0.  0.
         23    2    4    4    0    0 -0.12082990189E+03 -0.33747825760E+03 -0.29736270802E+03  0.47485392663E+03  0.92575547389E+02 0.  0.
          2    1    3    3  502    0  0.40321242323E+02 -0.29028620086E+02  0.54204424041E+02  0.73529469958E+02  0.00000000000E+00 0. -1.
         -1    1    3    3    0  502  0.15333725936E+03  0.31496994968E+02  0.28566511192E+03  0.32574365991E+03  0.00000000000E+00 0.  1.
         11    1    5    5    0    0 -0.28181548794E+02  0.20628916616E+03 -0.74083557894E+03  0.76953672738E+03  0.00000000000E+00 0. -1.
        -11    1    5    5    0    0 -0.44647051004E+02  0.12872071656E+03 -0.80537225609E+03  0.81681506653E+03  0.00000000000E+00 0.  1.
          3    1    6    6  503    0 -0.72851131337E+00 -0.77026308835E+02 -0.10204534018E+03  0.12785473958E+03  0.00000000000E+00 0. -1.
         -3    1    6    6    0  503 -0.12010139057E+03 -0.26045194877E+03 -0.19531736784E+03  0.34699918705E+03  0.00000000000E+00 0.  1.
<mgrwt>
<rscale>  0 0.19475214E+04</rscale>
<asrwt>0</asrwt>
<pdfrwt beam="1">  1        2 0.30493691E+00 0.19475214E+04</pdfrwt>
<pdfrwt beam="2">  1       -1 0.73598296E-01 0.19475214E+04</pdfrwt>
<totfact> 0.13506448E+01</totfact>
</mgrwt>
</event>
<event>
12    6  0.1521603E-007  0.1629217E+04  0.7818608E-02  0.8802797E-01
          2   -1    0    0  501    0  0.00000000000E+00  0.00000000000E+00  0.85068785205E+03  0.85068785205E+03  0.00000000000E+00 0. -1.
         -1   -1    0    0    0  501 -0.00000000000E+00 -0.00000000000E+00 -0.78005936580E+03  0.78005936580E+03  0.00000000000E+00 0.  1.
         24    2    1    2    0    0 -0.49844662312E+03  0.25013059931E+03  0.50322122426E+02  0.56562582704E+03  0.79911872716E+02 0.  0.
        254    2    1    2    0    0  0.49844662312E+03 -0.25013059931E+03  0.20306363819E+02  0.10651213908E+04  0.90722482106E+03 0.  0.
         23    2    4    4    0    0  0.52534693646E+03  0.17039202111E+03 -0.18185660026E+03  0.58845164311E+03  0.90447049221E+02 0.  0.
         23    2    4    4    0    0 -0.26900313342E+02 -0.42052262042E+03  0.20216296408E+03  0.47666974770E+03  0.93708501118E+02 0.  0.
          4    1    3    3  502    0 -0.11243930472E+02  0.12677927432E+02 -0.10965872962E+02  0.20184305443E+02  0.00000000000E+00 0. -1.
         -3    1    3    3    0  502 -0.48720269265E+03  0.23745267188E+03  0.61287995387E+02  0.54544152160E+03  0.00000000000E+00 0.  1.
         11    1    5    5    0    0  0.40652122308E+03  0.11750900707E+03 -0.10014846768E+03  0.43485352377E+03  0.00000000000E+00 0.  1.
        -11    1    5    5    0    0  0.11882571338E+03  0.52883014042E+02 -0.81708132580E+02  0.15359811934E+03  0.00000000000E+00 0. -1.
          4    1    6    6  503    0  0.24181225193E+02 -0.99904974959E+02  0.78169845118E+02  0.12913659574E+03  0.00000000000E+00 0. -1.
         -4    1    6    6    0  503 -0.51081538536E+02 -0.32061764546E+03  0.12399311896E+03  0.34753315196E+03  0.00000000000E+00 0.  1.
<mgrwt>
<rscale>  0 0.16292170E+04</rscale>
<asrwt>0</asrwt>
<pdfrwt beam="1">  1        2 0.13087505E+00 0.16292170E+04</pdfrwt>
<pdfrwt beam="2">  1       -1 0.12000913E+00 0.16292170E+04</pdfrwt>
<totfact> 0.21436253E+01</totfact>
</mgrwt>
</event>
<event>
12    6  0.1521603E-007  0.1684543E+04  0.7818608E-02  0.8770230E-01
         -1   -1    0    0    0  501 -0.00000000000E+00  0.00000000000E+00  0.49298878560E+03  0.49298878560E+03  0.00000000000E+00 0.  1.
          2   -1    0    0  501    0  0.00000000000E+00 -0.00000000000E+00 -0.14390203415E+04  0.14390203415E+04  0.00000000000E+00 0. -1.
         24    2    1    2    0    0  0.90272983598E+02  0.18250711471E+03  0.30768606202E+03  0.37759714994E+03  0.80317098995E+02 0.  0.
        254    2    1    2    0    0 -0.90272983598E+02 -0.18250711471E+03 -0.12537176179E+04  0.15544119771E+04  0.89606398810E+03 0.  0.
         23    2    4    4    0    0 -0.36602752170E+03  0.19353946188E+03 -0.43179515154E+03  0.60508097490E+03  0.90786911770E+02 0.  0.
         23    2    4    4    0    0  0.27575453810E+03 -0.37604657659E+03 -0.82192246633E+03  0.94933100222E+03  0.90670932810E+02 0.  0.
          4    1    3    3  502    0  0.39022889411E+01 -0.58387755722E+01  0.31793011807E+02  0.32559403541E+02  0.00000000000E+00 0. -1.
         -3    1    3    3    0  502  0.86370694657E+02  0.18834589028E+03  0.27589305021E+03  0.34503774640E+03  0.00000000000E+00 0.  1.
         11    1    5    5    0    0 -0.21576071508E+02  0.27454781432E+02 -0.72021985040E+02  0.80040353662E+02  0.00000000000E+00 0.  1.
        -11    1    5    5    0    0 -0.34445145019E+03  0.16608468045E+03 -0.35977316650E+03  0.52504062124E+03  0.00000000000E+00 0. -1.
          1    1    6    6  503    0  0.27981462528E+03 -0.36862399583E+03 -0.81835025564E+03  0.94014733724E+03  0.00000000000E+00 0. -1.
         -1    1    6    6    0  503 -0.40600871796E+01 -0.74225807652E+01 -0.35722106955E+01  0.91836649750E+01  0.00000000000E+00 0.  1.
<mgrwt>
<rscale>  0 0.16845425E+04</rscale>
<asrwt>0</asrwt>
<pdfrwt beam="1">  1        2 0.22138774E+00 0.16845425E+04</pdfrwt>
<pdfrwt beam="2">  1       -1 0.75844430E-01 0.16845425E+04</pdfrwt>
<totfact> 0.26065208E+01</totfact>
</mgrwt>
</event>
<event>
12    6  0.1521603E-007  0.1074954E+04  0.7818608E-02  0.9229953E-01
          2   -1    0    0  501    0  0.00000000000E+00  0.00000000000E+00  0.72694879555E+03  0.72694879555E+03  0.00000000000E+00 0. -1.
         -1   -1    0    0    0  501 -0.00000000000E+00 -0.00000000000E+00 -0.39738917790E+03  0.39738917790E+03  0.00000000000E+00 0.  1.
         24    2    1    2    0    0 -0.12759400837E+02  0.68933645449E+02  0.67566060920E+02  0.12585581645E+03  0.79748756493E+02 0.  0.
        254    2    1    2    0    0  0.12759400837E+02 -0.68933645449E+02  0.26199355673E+03  0.99848215700E+03  0.96094294539E+03 0.  0.
         23    2    4    4    0    0  0.22030745445E+03 -0.30209471076E+03 -0.20035366785E+03  0.43321814565E+03  0.87976023698E+02 0.  0.
         23    2    4    4    0    0 -0.20754805362E+03  0.23316106531E+03  0.46234722457E+03  0.56526401135E+03  0.91203999445E+02 0.  0.
          2    1    3    3  502    0 -0.24062856811E+02 -0.99683449719E+01  0.21649660228E+02  0.33868817036E+02  0.00000000000E+00 0. -1.
         -3    1    3    3    0  502  0.11303455975E+02  0.78901990421E+02  0.45916400692E+02  0.91986999417E+02  0.00000000000E+00 0.  1.
         11    1    5    5    0    0  0.21847297326E+03 -0.26592927472E+03 -0.19770809752E+03  0.39690970135E+03  0.00000000000E+00 0.  1.
        -11    1    5    5    0    0  0.18344811914E+01 -0.36165436045E+02 -0.26455703229E+01  0.36308444306E+02  0.00000000000E+00 0. -1.
          1    1    6    6  503    0 -0.36209758241E+01  0.48090666260E+02  0.90479822112E+02  0.10253010220E+03  0.00000000000E+00 0. -1.
         -1    1    6    6    0  503 -0.20392707779E+03  0.18507039905E+03  0.37186740246E+03  0.46273390915E+03  0.00000000000E+00 0.  1.
<mgrwt>
<rscale>  0 0.10749541E+04</rscale>
<asrwt>0</asrwt>
<pdfrwt beam="1">  1        2 0.11183828E+00 0.10749541E+04</pdfrwt>
<pdfrwt beam="2">  1       -1 0.61136797E-01 0.10749541E+04</pdfrwt>
<totfact> 0.12030286E+02</totfact>
</mgrwt>
</event>
<event>
12    6  0.1521603E-007  0.1516636E+04  0.7818608E-02  0.8873465E-01
          2   -1    0    0  501    0  0.00000000000E+00  0.00000000000E+00  0.12739317871E+04  0.12739317871E+04  0.00000000000E+00 0. -1.
         -1   -1    0    0    0  501 -0.00000000000E+00 -0.00000000000E+00 -0.45139472338E+03  0.45139472338E+03  0.00000000000E+00 0.  1.
         24    2    1    2    0    0 -0.37180349613E+03 -0.20922719691E+03  0.54442609743E+03  0.69821269285E+03  0.95327484144E+02 0.  0.
        254    2    1    2    0    0  0.37180349613E+03  0.20922719691E+03  0.27811096626E+03  0.10271138176E+04  0.89196593270E+03 0.  0.
         23    2    4    4    0    0  0.62489479753E+03  0.30588173091E+03  0.21191796278E+03  0.73342787017E+03  0.94604843996E+02 0.  0.
         23    2    4    4    0    0 -0.25309130139E+03 -0.96654533997E+02  0.66193003476E+02  0.29368594744E+03  0.92046815420E+02 0.  0.
          2    1    3    3  502    0 -0.36033817694E+03 -0.17786227044E+03  0.51819628494E+03  0.65574841116E+03  0.00000000000E+00 0. -1.
         -1    1    3    3    0  502 -0.11465319192E+02 -0.31364926471E+02  0.26229812486E+02  0.42464281694E+02  0.00000000000E+00 0.  1.
         11    1    5    5    0    0  0.51991177870E+03  0.25299896905E+03  0.13757855010E+03  0.59434383435E+03  0.00000000000E+00 0.  1.
        -11    1    5    5    0    0  0.10498301882E+03  0.52882761860E+02  0.74339412678E+02  0.13908403582E+03  0.00000000000E+00 0. -1.
          4    1    6    6  503    0 -0.80216136995E+02 -0.50666073926E+02 -0.17019384496E+02  0.96391592632E+02  0.00000000000E+00 0. -1.
         -4    1    6    6    0  503 -0.17287516440E+03 -0.45988460070E+02  0.83212387972E+02  0.19729435480E+03  0.00000000000E+00 0.  1.
<mgrwt>
<rscale>  0 0.15166359E+04</rscale>
<asrwt>0</asrwt>
<pdfrwt beam="1">  1        2 0.19598950E+00 0.15166359E+04</pdfrwt>
<pdfrwt beam="2">  1       -1 0.69445343E-01 0.15166359E+04</pdfrwt>
<totfact> 0.39507933E+01</totfact>
</mgrwt>
</event>
<event>
12    6  0.1521603E-007  0.1110605E+04  0.7818608E-02  0.9194917E-01
          2   -1    0    0  501    0  0.00000000000E+00  0.00000000000E+00  0.13736689405E+04  0.13736689405E+04  0.00000000000E+00 0. -1.
         -1   -1    0    0    0  501 -0.00000000000E+00 -0.00000000000E+00 -0.22447976454E+03  0.22447976454E+03  0.00000000000E+00 0.  1.
         24    2    1    2    0    0 -0.13469843388E+03  0.82268957574E+02  0.31283708009E+03  0.35953037439E+03  0.80518333061E+02 0.  0.
        254    2    1    2    0    0  0.13469843388E+03 -0.82268957574E+02  0.83635209590E+03  0.12386183307E+04  0.89987704232E+03 0.  0.
         23    2    4    4    0    0  0.46557325834E+03 -0.17423269593E+03  0.68798724373E+03  0.85366907990E+03  0.91153492645E+02 0.  0.
         23    2    4    4    0    0 -0.33087482446E+03  0.91963738352E+02  0.14836485217E+03  0.38494925078E+03  0.90765178797E+02 0.  0.
          2    1    3    3  502    0 -0.33996896694E+02  0.64769924242E+02  0.10563710057E+03  0.12849174716E+03  0.00000000000E+00 0. -1.
         -1    1    3    3    0  502 -0.10070153719E+03  0.17499033332E+02  0.20719997952E+03  0.23103862723E+03  0.00000000000E+00 0.  1.
         11    1    5    5    0    0  0.46038986248E+03 -0.16055738565E+03  0.68074948024E+03  0.83735139243E+03  0.00000000000E+00 0. -1.
        -11    1    5    5    0    0  0.51833958623E+01 -0.13675310276E+02  0.72377634889E+01  0.16317687462E+02  0.00000000000E+00 0.  1.
          3    1    6    6  503    0 -0.24058413453E+03  0.10151019153E+03  0.13236940002E+03  0.29275707136E+03  0.00000000000E+00 0. -1.
         -3    1    6    6    0  503 -0.90290689923E+02 -0.95464531732E+01  0.15995452152E+02  0.92192179411E+02  0.00000000000E+00 0.  1.
<mgrwt>
<rscale>  0 0.11106050E+04</rscale>
<asrwt>0</asrwt>
<pdfrwt beam="1">  1        2 0.21133368E+00 0.11106050E+04</pdfrwt>
<pdfrwt beam="2">  1       -1 0.34535349E-01 0.11106050E+04</pdfrwt>
<totfact> 0.13453895E+02</totfact>
</mgrwt>
</event>
<event>
12    6  0.1521603E-007  0.1453299E+04  0.7818608E-02  0.8916117E-01
         -1   -1    0    0    0  501 -0.00000000000E+00  0.00000000000E+00  0.32032980832E+03  0.32032980832E+03  0.00000000000E+00 0.  1.
          2   -1    0    0  501    0  0.00000000000E+00 -0.00000000000E+00 -0.16483619603E+04  0.16483619603E+04  0.00000000000E+00 0. -1.
         24    2    1    2    0    0  0.24799122397E+03 -0.36322167839E+03 -0.49163750110E+03  0.66443296613E+03  0.79587054078E+02 0.  0.
        254    2    1    2    0    0 -0.24799122397E+03  0.36322167839E+03 -0.83639465092E+03  0.13042588025E+04  0.89894681549E+03 0.  0.
         23    2    4    4    0    0  0.23208544044E+03  0.12176665869E+03 -0.68420947622E+03  0.73843358462E+03  0.91928127972E+02 0.  0.
         23    2    4    4    0    0 -0.48007666441E+03  0.24145501970E+03 -0.15218517470E+03  0.56582521791E+03  0.90684726250E+02 0.  0.
          4    1    3    3  502    0  0.20700192650E+03 -0.34377098273E+03 -0.43412769638E+03  0.59118114221E+03  0.00000000000E+00 0. -1.
         -3    1    3    3    0  502  0.40989297473E+02 -0.19450695661E+02 -0.57509804726E+02  0.73251823927E+02  0.00000000000E+00 0.  1.
         11    1    5    5    0    0  0.19850302287E+03  0.10151560993E+03 -0.46432182421E+03  0.51507632986E+03  0.00000000000E+00 0. -1.
        -11    1    5    5    0    0  0.33582417571E+02  0.20251048761E+02 -0.21988765202E+03  0.22335725476E+03  0.00000000000E+00 0.  1.
          1    1    6    6  503    0 -0.28261980479E+03  0.14768084431E+03 -0.43915300083E+02  0.32188839591E+03  0.00000000000E+00 0. -1.
         -1    1    6    6    0  503 -0.19745685962E+03  0.93774175388E+02 -0.10826987462E+03  0.24393682200E+03  0.00000000000E+00 0.  1.
<mgrwt>
<rscale>  0 0.14532990E+04</rscale>
<asrwt>0</asrwt>
<pdfrwt beam="1">  1        2 0.25359415E+00 0.14532990E+04</pdfrwt>
<pdfrwt beam="2">  1       -1 0.49281509E-01 0.14532990E+04</pdfrwt>
<totfact> 0.47755773E+01</totfact>
</mgrwt>
</event>
<event>
12    6  0.1521603E-007  0.1214111E+04  0.7818608E-02  0.9100594E-01
         -1   -1    0    0    0  501 -0.00000000000E+00  0.00000000000E+00  0.37405562919E+03  0.37405562919E+03  0.00000000000E+00 0.  1.
          2   -1    0    0  501    0  0.00000000000E+00 -0.00000000000E+00 -0.98519161207E+03  0.98519161207E+03  0.00000000000E+00 0. -1.
         24    2    1    2    0    0 -0.21290026012E+03 -0.50159392840E+02 -0.30478011561E+03  0.38382043736E+03  0.81146311202E+02 0.  0.
        254    2    1    2    0    0  0.21290026012E+03  0.50159392840E+02 -0.30635586728E+03  0.97542680390E+03  0.89986723848E+03 0.  0.
         23    2    4    4    0    0  0.20069742648E+03 -0.26352116248E+03 -0.49171486144E+03  0.59973081101E+03  0.90391817361E+02 0.  0.
         23    2    4    4    0    0  0.12202833635E+02  0.31368055532E+03  0.18535899416E+03  0.37569599288E+03  0.90802656446E+02 0.  0.
          4    1    3    3  502    0 -0.55744864942E+02 -0.14179327774E+02 -0.14864766960E+03  0.15938843427E+03  0.00000000000E+00 0. -1.
         -3    1    3    3    0  502 -0.15715539517E+03 -0.35980065066E+02 -0.15613244601E+03  0.22443200309E+03  0.00000000000E+00 0.  1.
         11    1    5    5    0    0  0.92929296603E+02 -0.17723216240E+03 -0.34066816151E+03  0.39509731691E+03  0.00000000000E+00 0.  1.
        -11    1    5    5    0    0  0.10776812988E+03 -0.86289000078E+02 -0.15104669993E+03  0.20463349411E+03  0.00000000000E+00 0. -1.
          1    1    6    6  503    0 -0.25750610486E+02  0.30751603196E+02  0.12667750909E+02  0.42062179599E+02  0.00000000000E+00 0. -1.
         -1    1    6    6    0  503  0.37953444121E+02  0.28292895212E+03  0.17269124325E+03  0.33363381328E+03  0.00000000000E+00 0.  1.
<mgrwt>
<rscale>  0 0.12141111E+04</rscale>
<asrwt>0</asrwt>
<pdfrwt beam="1">  1        2 0.15156794E+00 0.12141111E+04</pdfrwt>
<pdfrwt beam="2">  1       -1 0.57547021E-01 0.12141111E+04</pdfrwt>
<totfact> 0.88559609E+01</totfact>
</mgrwt>
</event>
<event>
12    6  0.1521603E-007  0.1735291E+04  0.7818608E-02  0.8741489E-01
          2   -1    0    0  501    0  0.00000000000E+00  0.00000000000E+00  0.93290043238E+03  0.93290043238E+03  0.00000000000E+00 0. -1.
         -1   -1    0    0    0  501 -0.00000000000E+00 -0.00000000000E+00 -0.80695507212E+03  0.80695507212E+03  0.00000000000E+00 0.  1.
         24    2    1    2    0    0  0.27094167205E+03  0.51563568536E+03  0.33524013371E+03  0.67675273223E+03  0.79490651427E+02 0.  0.
        254    2    1    2    0    0 -0.27094167205E+03 -0.51563568536E+03 -0.20929477345E+03  0.10631027723E+04  0.86434579454E+03 0.  0.
         23    2    4    4    0    0  0.28509244552E+03 -0.32425515344E+03 -0.32936794966E+02  0.44275251414E+03  0.92335525602E+02 0.  0.
         23    2    4    4    0    0 -0.55603411757E+03 -0.19138053192E+03 -0.17635797848E+03  0.62035025813E+03  0.89060980724E+02 0.  0.
          2    1    3    3  502    0  0.18236251643E+03  0.31500822810E+03  0.24943524654E+03  0.44125300382E+03  0.00000000000E+00 0. -1.
         -1    1    3    3    0  502  0.88579155628E+02  0.20062745726E+03  0.85804887169E+02  0.23549972841E+03  0.00000000000E+00 0.  1.
         11    1    5    5    0    0  0.15520146366E+03 -0.22291815556E+03  0.12321752465E+02  0.27190407129E+03  0.00000000000E+00 0. -1.
        -11    1    5    5    0    0  0.12989098186E+03 -0.10133699788E+03 -0.45258547431E+02  0.17084844285E+03  0.00000000000E+00 0.  1.
          1    1    6    6  503    0 -0.28285819064E+03 -0.76950715035E+02 -0.12959269562E+03  0.32050652928E+03  0.00000000000E+00 0.  1.
         -1    1    6    6    0  503 -0.27317592693E+03 -0.11442981688E+03 -0.46765282864E+02  0.29984372885E+03  0.00000000000E+00 0. -1.
<mgrwt>
<rscale>  0 0.17352910E+04</rscale>
<asrwt>0</asrwt>
<pdfrwt beam="1">  1        2 0.14352314E+00 0.17352910E+04</pdfrwt>
<pdfrwt beam="2">  1       -1 0.12414693E+00 0.17352910E+04</pdfrwt>
<totfact> 0.17180106E+01</totfact>
</mgrwt>
</event>
<event>
12    6  0.1521603E-007  0.1995754E+04  0.7818608E-02  0.8608608E-01
          2   -1    0    0  501    0  0.00000000000E+00  0.00000000000E+00  0.19499634677E+04  0.19499634677E+04  0.00000000000E+00 0. -1.
         -1   -1    0    0    0  501 -0.00000000000E+00 -0.00000000000E+00 -0.51065502193E+03  0.51065502193E+03  0.00000000000E+00 0.  1.
         24    2    1    2    0    0  0.24929394597E+03  0.37398891175E+03 -0.22931253253E+03  0.51110709506E+03  0.81431243545E+02 0.  0.
        254    2    1    2    0    0 -0.24929394597E+03 -0.37398891175E+03  0.16686209783E+04  0.19495113946E+04  0.90237660137E+03 0.  0.
         23    2    4    4    0    0 -0.43256691927E+03  0.59800216388E+02  0.11903113303E+04  0.12711572704E+04  0.91156663704E+02 0.  0.
         23    2    4    4    0    0  0.18327297329E+03 -0.43378912814E+03  0.47830964795E+03  0.67835412420E+03  0.98092854257E+02 0.  0.
          4    1    3    3  502    0  0.52473498013E+02  0.32472004285E+02 -0.20389368825E+02  0.64989425425E+02  0.00000000000E+00 0. -1.
         -1    1    3    3    0  502  0.19682044796E+03  0.34151690747E+03 -0.20892316371E+03  0.44611766963E+03  0.00000000000E+00 0.  1.
         11    1    5    5    0    0 -0.57934767515E+01 -0.84434400572E+01  0.63181163322E+02  0.64005589222E+02  0.00000000000E+00 0.  1.
        -11    1    5    5    0    0 -0.42677344252E+03  0.68243656445E+02  0.11271301670E+04  0.12071516811E+04  0.00000000000E+00 0. -1.
          2    1    6    6  503    0  0.33053667273E+01 -0.11379762301E+03  0.11742332486E+03  0.16355140377E+03  0.00000000000E+00 0.  1.
         -2    1    6    6    0  503  0.17996760657E+03 -0.31999150513E+03  0.36088632309E+03  0.51480272043E+03  0.00000000000E+00 0. -1.
<mgrwt>
<rscale>  0 0.19957541E+04</rscale>
<asrwt>0</asrwt>
<pdfrwt beam="1">  1        2 0.29999438E+00 0.19957541E+04</pdfrwt>
<pdfrwt beam="2">  1       -1 0.78562312E-01 0.19957541E+04</pdfrwt>
<totfact> 0.12220287E+01</totfact>
</mgrwt>
</event>
<event>
12    6  0.1521603E-007  0.1693627E+04  0.7818608E-02  0.8765008E-01
         -1   -1    0    0    0  501 -0.00000000000E+00  0.00000000000E+00  0.98653918381E+03  0.98653918381E+03  0.00000000000E+00 0.  1.
          2   -1    0    0  501    0  0.00000000000E+00 -0.00000000000E+00 -0.72687722979E+03  0.72687722979E+03  0.00000000000E+00 0. -1.
         24    2    1    2    0    0  0.21410214684E+03 -0.14929690097E+03 -0.45413763596E+03  0.53002346559E+03  0.80960408645E+02 0.  0.
        254    2    1    2    0    0 -0.21410214684E+03  0.14929690097E+03  0.71379958998E+03  0.11833929480E+04  0.90707205934E+03 0.  0.
         23    2    4    4    0    0 -0.26834617053E+02  0.45925250688E+03  0.65574900514E+03  0.80582176183E+03  0.87800867547E+02 0.  0.
         23    2    4    4    0    0 -0.18726752978E+03 -0.30995560591E+03  0.58050584835E+02  0.37757118619E+03  0.89713571399E+02 0.  0.
          4    1    3    3  502    0  0.17915590955E+03 -0.10777328339E+03 -0.40937390498E+03  0.45967261678E+03  0.00000000000E+00 0. -1.
         -3    1    3    3    0  502  0.34946237283E+02 -0.41523617586E+02 -0.44763730974E+02  0.70350848811E+02  0.00000000000E+00 0.  1.
         11    1    5    5    0    0 -0.26000693000E+02  0.36649693955E+02  0.50008010990E+02  0.67231222409E+02  0.00000000000E+00 0. -1.
        -11    1    5    5    0    0 -0.83392405252E+00  0.42260281293E+03  0.60574099415E+03  0.73859053942E+03  0.00000000000E+00 0.  1.
          3    1    6    6  503    0 -0.91964693645E+01 -0.88141720330E+02  0.12414653724E+02  0.89485538153E+02  0.00000000000E+00 0. -1.
         -3    1    6    6    0  503 -0.17807106042E+03 -0.22181388558E+03  0.45635931111E+02  0.28808564803E+03  0.00000000000E+00 0.  1.
<mgrwt>
<rscale>  0 0.16936267E+04</rscale>
<asrwt>0</asrwt>
<pdfrwt beam="1">  1        2 0.11182727E+00 0.16936267E+04</pdfrwt>
<pdfrwt beam="2">  1       -1 0.15177526E+00 0.16936267E+04</pdfrwt>
<totfact> 0.14347186E+01</totfact>
</mgrwt>
</event>
<event>
12    6  0.1521603E-007  0.1476159E+04  0.7818608E-02  0.8900464E-01
         -1   -1    0    0    0  501 -0.00000000000E+00  0.00000000000E+00  0.58358696708E+03  0.58358696708E+03  0.00000000000E+00 0.  1.
          2   -1    0    0  501    0  0.00000000000E+00 -0.00000000000E+00 -0.93347055767E+03  0.93347055767E+03  0.00000000000E+00 0. -1.
         24    2    1    2    0    0 -0.24813936169E+03 -0.33409212644E+03  0.29738594529E+02  0.42500890685E+03  0.80978362074E+02 0.  0.
        254    2    1    2    0    0  0.24813936169E+03  0.33409212644E+03 -0.37962218512E+03  0.10920486179E+04  0.93555678003E+03 0.  0.
         23    2    4    4    0    0 -0.11153511998E+03  0.35774216443E+02 -0.56210931672E+03  0.58203774857E+03  0.95295221605E+02 0.  0.
         23    2    4    4    0    0  0.35967448167E+03  0.29831791000E+03  0.18248713160E+03  0.51001086933E+03  0.91925107836E+02 0.  0.
          4    1    3    3  502    0 -0.77271255552E+02 -0.48807185802E+02  0.85491571336E+01  0.91793662135E+02  0.00000000000E+00 0. -1.
         -3    1    3    3    0  502 -0.17086810613E+03 -0.28528494064E+03  0.21189437395E+02  0.33321524471E+03  0.00000000000E+00 0.  1.
         11    1    5    5    0    0 -0.60096877689E+02 -0.95114461544E+01 -0.11892706143E+03  0.13358797946E+03  0.00000000000E+00 0. -1.
        -11    1    5    5    0    0 -0.51438242292E+02  0.45285662598E+02 -0.44318225529E+03  0.44844976910E+03  0.00000000000E+00 0.  1.
          3    1    6    6  503    0  0.26578721192E+02  0.22216089390E+02 -0.10606329619E+02  0.36228128243E+02  0.00000000000E+00 0. -1.
         -3    1    6    6    0  503  0.33309576047E+03  0.27610182061E+03  0.19309346122E+03  0.47378274109E+03  0.00000000000E+00 0.  1.
<mgrwt>
<rscale>  0 0.14761589E+04</rscale>
<asrwt>0</asrwt>
<pdfrwt beam="1">  1        2 0.14361085E+00 0.14761589E+04</pdfrwt>
<pdfrwt beam="2">  1       -1 0.89782610E-01 0.14761589E+04</pdfrwt>
<totfact> 0.37359092E+01</totfact>
</mgrwt>
</event>
<event>
12    6  0.1521603E-007  0.3243919E+04  0.7818608E-02  0.8177314E-01
         -1   -1    0    0    0  501 -0.00000000000E+00  0.00000000000E+00  0.72149585362E+03  0.72149585362E+03  0.00000000000E+00 0.  1.
          2   -1    0    0  501    0  0.00000000000E+00 -0.00000000000E+00 -0.36462473554E+04  0.36462473554E+04  0.00000000000E+00 0. -1.
         24    2    1    2    0    0  0.61644615782E+03 -0.48574211829E+03 -0.30713699875E+04  0.31710614242E+04  0.79785246256E+02 0.  0.
        254    2    1    2    0    0 -0.61644615782E+03  0.48574211829E+03  0.14661848572E+03  0.11966817847E+04  0.89140285091E+03 0.  0.
         23    2    4    4    0    0 -0.41541609947E+03  0.28437004267E+03  0.51256588991E+03  0.72421545147E+03  0.91254434334E+02 0.  0.
         23    2    4    4    0    0 -0.20103005835E+03  0.20137207562E+03 -0.36594740420E+03  0.47246633327E+03  0.91340769842E+02 0.  0.
          4    1    3    3  502    0  0.54806441681E+03 -0.40088592266E+03 -0.26953206758E+04  0.27795391117E+04  0.00000000000E+00 0. -1.
         -3    1    3    3    0  502  0.68381741011E+02 -0.84856195627E+02 -0.37604931166E+03  0.39152231257E+03  0.00000000000E+00 0.  1.
         11    1    5    5    0    0 -0.10602543059E+03  0.38067970786E+02  0.15092288175E+03  0.18833023806E+03  0.00000000000E+00 0. -1.
        -11    1    5    5    0    0 -0.30939066888E+03  0.24630207188E+03  0.36164300816E+03  0.53588521341E+03  0.00000000000E+00 0.  1.
          1    1    6    6  503    0 -0.21585096958E+02  0.11997644981E+02 -0.21446260960E+01  0.24788289914E+02  0.00000000000E+00 0. -1.
         -1    1    6    6    0  503 -0.17944496139E+03  0.18937443064E+03 -0.36380277810E+03  0.44767804336E+03  0.00000000000E+00 0.  1.
<mgrwt>
<rscale>  0 0.32439188E+04</rscale>
<asrwt>0</asrwt>
<pdfrwt beam="1">  1        2 0.56096113E+00 0.32439188E+04</pdfrwt>
<pdfrwt beam="2">  1       -1 0.11099936E+00 0.32439188E+04</pdfrwt>
<totfact> 0.45418809E-01</totfact>
</mgrwt>
</event>
<event>
12    6  0.1521603E-007  0.1607929E+04  0.7818608E-02  0.8815692E-01
         -1   -1    0    0    0  501 -0.00000000000E+00  0.00000000000E+00  0.69128756464E+03  0.69128756464E+03  0.00000000000E+00 0.  1.
          2   -1    0    0  501    0  0.00000000000E+00 -0.00000000000E+00 -0.93500711536E+03  0.93500711536E+03  0.00000000000E+00 0. -1.
         24    2    1    2    0    0  0.39234159998E+03  0.27520695970E+03  0.18650247696E+03  0.52024697709E+03  0.78758755157E+02 0.  0.
        254    2    1    2    0    0 -0.39234159998E+03 -0.27520695970E+03 -0.43022202769E+03  0.11060477029E+04  0.89921061284E+03 0.  0.
         23    2    4    4    0    0 -0.65864555872E+03 -0.23237299772E+03 -0.42316279067E+03  0.82167173015E+03  0.90920309241E+02 0.  0.
         23    2    4    4    0    0  0.26630395874E+03 -0.42833961983E+02 -0.70592370167E+01  0.28437597275E+03  0.89818229278E+02 0.  0.
          2    1    3    3  502    0  0.35685479639E+02  0.47196100509E+01  0.18836868832E+01  0.36045477558E+02  0.00000000000E+00 0. -1.
         -1    1    3    3    0  502  0.35665612034E+03  0.27048734965E+03  0.18461879008E+03  0.48420149953E+03  0.00000000000E+00 0.  1.
         11    1    5    5    0    0 -0.21771819730E+03 -0.12171255563E+03 -0.13857072896E+03  0.28533665478E+03  0.00000000000E+00 0. -1.
        -11    1    5    5    0    0 -0.44092736142E+03 -0.11066044209E+03 -0.28459206171E+03  0.53633507538E+03  0.00000000000E+00 0.  1.
          4    1    6    6  503    0  0.44474543163E+02 -0.32411974680E+02 -0.27206447381E+02  0.61389835244E+02  0.00000000000E+00 0. -1.
         -4    1    6    6    0  503  0.22182941558E+03 -0.10421987303E+02  0.20147210364E+02  0.22298613751E+03  0.00000000000E+00 0.  1.
<mgrwt>
<rscale>  0 0.16079288E+04</rscale>
<asrwt>0</asrwt>
<pdfrwt beam="1">  1        2 0.14384725E+00 0.16079288E+04</pdfrwt>
<pdfrwt beam="2">  1       -1 0.10635193E+00 0.16079288E+04</pdfrwt>
<totfact> 0.25107030E+01</totfact>
</mgrwt>
</event>
<event>
12    6  0.1521603E-007  0.1871733E+04  0.7818608E-02  0.8669056E-01
         -1   -1    0    0    0  501 -0.00000000000E+00  0.00000000000E+00  0.64702115591E+03  0.64702115591E+03  0.00000000000E+00 0.  1.
          2   -1    0    0  501    0  0.00000000000E+00 -0.00000000000E+00 -0.13536584495E+04  0.13536584495E+04  0.00000000000E+00 0. -1.
         24    2    1    2    0    0 -0.11539087762E+03 -0.68819443297E+03 -0.44691355347E+03  0.83168296099E+03  0.70980216316E+02 0.  0.
        254    2    1    2    0    0  0.11539087762E+03  0.68819443297E+03 -0.25972374017E+03  0.11689966445E+04  0.90120480544E+03 0.  0.
         23    2    4    4    0    0 -0.37173621089E+03  0.26123514718E+03  0.56903314228E+01  0.46354093212E+03  0.91685349301E+02 0.  0.
         23    2    4    4    0    0  0.48712708851E+03  0.42695928579E+03 -0.26541407159E+03  0.70545571234E+03  0.87384784666E+02 0.  0.
          4    1    3    3  502    0 -0.50972475865E+02 -0.26097284551E+03 -0.21078882153E+03  0.33931835593E+03  0.00000000000E+00 0. -1.
         -3    1    3    3    0  502 -0.64418401760E+02 -0.42722158746E+03 -0.23612473194E+03  0.49236460505E+03  0.00000000000E+00 0.  1.
         11    1    5    5    0    0 -0.19589484391E+02  0.73349018092E+01  0.20316766822E+02  0.29160241723E+02  0.00000000000E+00 0.  1.
        -11    1    5    5    0    0 -0.35214672650E+03  0.25390024537E+03 -0.14626435399E+02  0.43438069040E+03  0.00000000000E+00 0. -1.
          2    1    6    6  503    0  0.29353587805E+03  0.20470463190E+03 -0.12596359154E+03  0.37938651059E+03  0.00000000000E+00 0. -1.
         -2    1    6    6    0  503  0.19359121046E+03  0.22225465389E+03 -0.13945048005E+03  0.32606920175E+03  0.00000000000E+00 0.  1.
<mgrwt>
<rscale>  0 0.18717325E+04</rscale>
<asrwt>0</asrwt>
<pdfrwt beam="1">  1        2 0.20825514E+00 0.18717325E+04</pdfrwt>
<pdfrwt beam="2">  1       -1 0.99541718E-01 0.18717325E+04</pdfrwt>
<totfact> 0.15857466E+01</totfact>
</mgrwt>
</event>
<event>
12    6  0.1521603E-007  0.1876516E+04  0.7818608E-02  0.8666635E-01
         -1   -1    0    0    0  501 -0.00000000000E+00  0.00000000000E+00  0.31057934336E+03  0.31057934336E+03  0.00000000000E+00 0.  1.
          2   -1    0    0  501    0  0.00000000000E+00 -0.00000000000E+00 -0.28344718812E+04  0.28344718812E+04  0.00000000000E+00 0. -1.
         24    2    1    2    0    0 -0.23701438025E+03 -0.33805110269E+03  0.15834364132E+02  0.42074443238E+03  0.79503369821E+02 0.  0.
        254    2    1    2    0    0  0.23701438025E+03  0.33805110269E+03 -0.25397269020E+04  0.27243067922E+04  0.89508680966E+03 0.  0.
         23    2    4    4    0    0 -0.22948743612E+03 -0.14488972398E+03 -0.10365987851E+04  0.10754597446E+04  0.91755684427E+02 0.  0.
         23    2    4    4    0    0  0.46650181637E+03  0.48294082667E+03 -0.15031281169E+04  0.16488470476E+04  0.91905732633E+02 0.  0.
          4    1    3    3  502    0  0.36315404571E+01 -0.20708102883E+02  0.77123997397E+01  0.22394077808E+02  0.00000000000E+00 0. -1.
         -3    1    3    3    0  502 -0.24064592071E+03 -0.31734299981E+03  0.81219643921E+01  0.39835035457E+03  0.00000000000E+00 0.  1.
         11    1    5    5    0    0 -0.20249825561E+03 -0.12607588178E+03 -0.75102135739E+03  0.78799349664E+03  0.00000000000E+00 0.  1.
        -11    1    5    5    0    0 -0.26989180507E+02 -0.18813842200E+02 -0.28557742770E+03  0.28746624800E+03  0.00000000000E+00 0. -1.
          1    1    6    6  503    0  0.20988937472E+03  0.28094477526E+03 -0.74820808576E+03  0.82631643816E+03  0.00000000000E+00 0. -1.
         -1    1    6    6    0  503  0.25661244165E+03  0.20199605141E+03 -0.75492003114E+03  0.82253060941E+03  0.00000000000E+00 0.  1.
<mgrwt>
<rscale>  0 0.18765164E+04</rscale>
<asrwt>0</asrwt>
<pdfrwt beam="1">  1        2 0.43607261E+00 0.18765164E+04</pdfrwt>
<pdfrwt beam="2">  1       -1 0.47781436E-01 0.18765164E+04</pdfrwt>
<totfact> 0.10322176E+01</totfact>
</mgrwt>
</event>
<event>
12    6  0.1521603E-007  0.1822153E+04  0.7818608E-02  0.8694607E-01
          2   -1    0    0  501    0  0.00000000000E+00  0.00000000000E+00  0.11517722700E+04  0.11517722700E+04  0.00000000000E+00 0. -1.
         -1   -1    0    0    0  501 -0.00000000000E+00 -0.00000000000E+00 -0.72068106191E+03  0.72068106191E+03  0.00000000000E+00 0.  1.
         24    2    1    2    0    0  0.20482515019E+03 -0.41917860696E+03 -0.35133567405E+03  0.58978568345E+03  0.82136166588E+02 0.  0.
        254    2    1    2    0    0 -0.20482515019E+03  0.41917860696E+03  0.78242688217E+03  0.12826676485E+04  0.90298417696E+03 0.  0.
         23    2    4    4    0    0 -0.44793749686E+02  0.62015093969E+03  0.23506181537E+03  0.67088488548E+03  0.90767860562E+02 0.  0.
         23    2    4    4    0    0 -0.16003140050E+03 -0.20097233273E+03  0.54736506680E+03  0.61178276300E+03  0.93111251138E+02 0.  0.
          4    1    3    3  502    0  0.78868291850E+02 -0.85842518193E+02 -0.10175017887E+03  0.15473281581E+03  0.00000000000E+00 0. -1.
         -3    1    3    3    0  502  0.12595685834E+03 -0.33333608877E+03 -0.24958549518E+03  0.43505286764E+03  0.00000000000E+00 0.  1.
         11    1    5    5    0    0 -0.57173827895E+01  0.26430932854E+03  0.54440776726E+02  0.26991833541E+03  0.00000000000E+00 0. -1.
        -11    1    5    5    0    0 -0.39076366897E+02  0.35584161115E+03  0.18062103864E+03  0.40096655007E+03  0.00000000000E+00 0.  1.
          3    1    6    6  503    0 -0.70444971619E+02 -0.43770747763E+02  0.25309156725E+03  0.26633383900E+03  0.00000000000E+00 0. -1.
         -3    1    6    6    0  503 -0.89586428884E+02 -0.15720158496E+03  0.29427349955E+03  0.34544892400E+03  0.00000000000E+00 0.  1.
<mgrwt>
<rscale>  0 0.18221531E+04</rscale>
<asrwt>0</asrwt>
<pdfrwt beam="1">  1        2 0.17719573E+00 0.18221531E+04</pdfrwt>
<pdfrwt beam="2">  1       -1 0.11087401E+00 0.18221531E+04</pdfrwt>
<totfact> 0.16303775E+01</totfact>
</mgrwt>
</event>
<event>
12    6  0.1521603E-007  0.1172650E+04  0.7818608E-02  0.9137138E-01
         -1   -1    0    0    0  501 -0.00000000000E+00  0.00000000000E+00  0.20061828992E+03  0.20061828992E+03  0.00000000000E+00 0.  1.
          2   -1    0    0  501    0  0.00000000000E+00 -0.00000000000E+00 -0.17135878516E+04  0.17135878516E+04  0.00000000000E+00 0. -1.
         24    2    1    2    0    0 -0.17444020200E+02  0.11026544930E+03 -0.65438723506E+03  0.66863353258E+03  0.79908599814E+02 0.  0.
        254    2    1    2    0    0  0.17444020200E+02 -0.11026544930E+03 -0.85858232659E+03  0.12455726089E+04  0.89544667592E+03 0.  0.
         23    2    4    4    0    0 -0.35825405631E+03 -0.18376176882E+03 -0.15840871651E+03  0.44304980285E+03  0.95317625846E+02 0.  0.
         23    2    4    4    0    0  0.37569807651E+03  0.73496319516E+02 -0.70017361008E+03  0.80252280608E+03  0.85141155421E+02 0.  0.
          4    1    3    3  502    0 -0.41013617667E+02  0.10216416808E+03 -0.47924941851E+03  0.49173126727E+03  0.00000000000E+00 0. -1.
         -3    1    3    3    0  502  0.23569597467E+02  0.81012812154E+01 -0.17513781655E+03  0.17690226530E+03  0.00000000000E+00 0.  1.
         11    1    5    5    0    0 -0.27630804502E+03 -0.10751078905E+03 -0.14583039255E+03  0.33041066705E+03  0.00000000000E+00 0.  1.
        -11    1    5    5    0    0 -0.81946011288E+02 -0.76250979762E+02 -0.12578323961E+02  0.11263913580E+03  0.00000000000E+00 0. -1.
          4    1    6    6  503    0 -0.19796862608E+01 -0.58096235136E+01 -0.13657659726E+02  0.14973394814E+02  0.00000000000E+00 0. -1.
         -4    1    6    6    0  503  0.37767776277E+03  0.79305943030E+02 -0.68651595035E+03  0.78754941126E+03  0.00000000000E+00 0.  1.
<mgrwt>
<rscale>  0 0.11726501E+04</rscale>
<asrwt>0</asrwt>
<pdfrwt beam="1">  1        2 0.26362890E+00 0.11726501E+04</pdfrwt>
<pdfrwt beam="2">  1       -1 0.30864352E-01 0.11726501E+04</pdfrwt>
<totfact> 0.10533541E+02</totfact>
</mgrwt>
</event>
<event>
12    6  0.1521603E-007  0.2038785E+04  0.7818608E-02  0.8588699E-01
          2   -1    0    0  501    0  0.00000000000E+00  0.00000000000E+00  0.23278078107E+04  0.23278078107E+04  0.00000000000E+00 0. -1.
         -1   -1    0    0    0  501 -0.00000000000E+00 -0.00000000000E+00 -0.44641202162E+03  0.44641202162E+03  0.00000000000E+00 0.  1.
         24    2    1    2    0    0 -0.64456202567E+03 -0.47270915521E+03  0.35255862777E+03  0.87715634036E+03  0.78686142695E+02 0.  0.
        254    2    1    2    0    0  0.64456202567E+03  0.47270915521E+03  0.15288371613E+04  0.18970634920E+04  0.78904542099E+03 0.  0.
         23    2    4    4    0    0  0.63256233841E+03  0.42046890490E+03  0.15964838257E+04  0.17701724615E+04  0.88434865702E+02 0.  0.
         23    2    4    4    0    0  0.11999687260E+02  0.52240250314E+02 -0.67646664429E+02  0.12689103051E+03  0.93017343378E+02 0.  0.
          2    1    3    3  502    0 -0.20122872955E+03 -0.15177154492E+03  0.15157251034E+03  0.29411193334E+03  0.00000000000E+00 0. -1.
         -1    1    3    3    0  502 -0.44333329612E+03 -0.32093761029E+03  0.20098611743E+03  0.58304440701E+03  0.00000000000E+00 0.  1.
         11    1    5    5    0    0  0.39500756809E+03  0.31250424469E+03  0.10633670255E+04  0.11766219923E+04  0.00000000000E+00 0.  1.
        -11    1    5    5    0    0  0.23755477032E+03  0.10796466021E+03  0.53311680025E+03  0.59355046918E+03  0.00000000000E+00 0. -1.
          3    1    6    6  503    0  0.13635242101E+02 -0.24992304712E+02 -0.88597663858E+01  0.29816615877E+02  0.00000000000E+00 0. -1.
         -3    1    6    6    0  503 -0.16355548406E+01  0.77232555025E+02 -0.58786898043E+02  0.97074414636E+02  0.00000000000E+00 0.  1.
<mgrwt>
<rscale>  0 0.20387853E+04</rscale>
<asrwt>0</asrwt>
<pdfrwt beam="1">  1        2 0.35812427E+00 0.20387853E+04</pdfrwt>
<pdfrwt beam="2">  1       -1 0.68678774E-01 0.20387853E+04</pdfrwt>
<totfact> 0.98895589E+00</totfact>
</mgrwt>
</event>
<event>
12    6  0.1521603E-007  0.1754388E+04  0.7818608E-02  0.8730939E-01
         -1   -1    0    0    0  501 -0.00000000000E+00  0.00000000000E+00  0.42338693175E+03  0.42338693175E+03  0.00000000000E+00 0.  1.
          2   -1    0    0  501    0  0.00000000000E+00 -0.00000000000E+00 -0.18174131556E+04  0.18174131556E+04  0.00000000000E+00 0. -1.
         24    2    1    2    0    0 -0.12683396623E+03 -0.26013329968E+03 -0.12560306938E+04  0.12914598363E+04  0.80617717929E+02 0.  0.
        254    2    1    2    0    0  0.12683396623E+03  0.26013329968E+03 -0.13799553007E+03  0.94934025107E+03  0.89355915159E+03 0.  0.
         23    2    4    4    0    0 -0.22417244850E+03 -0.11362840499E+03 -0.30173299482E+03  0.40339150383E+03  0.92288699801E+02 0.  0.
         23    2    4    4    0    0  0.35100641474E+03  0.37376170467E+03  0.16373746475E+03  0.54594874724E+03  0.91360616189E+02 0.  0.
          4    1    3    3  502    0 -0.98842397290E+02 -0.11234584075E+03 -0.59423252493E+03  0.61278356792E+03  0.00000000000E+00 0. -1.
         -3    1    3    3    0  502 -0.27991568942E+02 -0.14778745893E+03 -0.66179816888E+03  0.67867626839E+03  0.00000000000E+00 0.  1.
         11    1    5    5    0    0 -0.16496973408E+03 -0.10145789840E+03 -0.16702711532E+03  0.25574748398E+03  0.00000000000E+00 0. -1.
        -11    1    5    5    0    0 -0.59202714421E+02 -0.12170506591E+02 -0.13470587950E+03  0.14764401985E+03  0.00000000000E+00 0.  1.
          4    1    6    6  503    0  0.14953370753E+03  0.14806567223E+03  0.11405244007E+03  0.23935691356E+03  0.00000000000E+00 0.  1.
         -4    1    6    6    0  503  0.20147270720E+03  0.22569603244E+03  0.49685024682E+02  0.30659183369E+03  0.00000000000E+00 0. -1.
<mgrwt>
<rscale>  0 0.17543876E+04</rscale>
<asrwt>0</asrwt>
<pdfrwt beam="1">  1        2 0.27960202E+00 0.17543876E+04</pdfrwt>
<pdfrwt beam="2">  1       -1 0.65136452E-01 0.17543876E+04</pdfrwt>
<totfact> 0.21761151E+01</totfact>
</mgrwt>
</event>
<event>
12    6  0.1521603E-007  0.1673401E+04  0.7818608E-02  0.8776682E-01
         -1   -1    0    0    0  501 -0.00000000000E+00  0.00000000000E+00  0.52337448783E+03  0.52337448783E+03  0.00000000000E+00 0.  1.
          2   -1    0    0  501    0  0.00000000000E+00 -0.00000000000E+00 -0.13376033498E+04  0.13376033498E+04  0.00000000000E+00 0. -1.
         24    2    1    2    0    0 -0.45675635480E+03 -0.12405563063E+03 -0.68387308601E+03  0.83568196452E+03  0.81644233769E+02 0.  0.
        254    2    1    2    0    0  0.45675635480E+03  0.12405563063E+03 -0.13035577593E+03  0.10252958731E+04  0.90012378699E+03 0.  0.
         23    2    4    4    0    0  0.35695099247E+03 -0.18508821652E+03  0.27676520034E+03  0.49667463316E+03  0.91733615384E+02 0.  0.
         23    2    4    4    0    0  0.99805362328E+02  0.30914384715E+03 -0.40712097627E+03  0.52862123992E+03  0.90343219993E+02 0.  0.
          2    1    3    3  502    0 -0.32372348293E+03 -0.11905438327E+03 -0.45579556559E+03  0.57159464412E+03  0.00000000000E+00 0. -1.
         -1    1    3    3    0  502 -0.13303287187E+03 -0.50012473670E+01 -0.22807752042E+03  0.26408732040E+03  0.00000000000E+00 0.  1.
         11    1    5    5    0    0  0.10702263887E+03 -0.57643264631E+02  0.35453442415E+02  0.12662360667E+03  0.00000000000E+00 0.  1.
        -11    1    5    5    0    0  0.24992835360E+03 -0.12744495189E+03  0.24131175792E+03  0.37005102649E+03  0.00000000000E+00 0. -1.
          1    1    6    6  503    0 -0.15130264450E+02  0.17023376012E+02 -0.20863677651E+02  0.30887105373E+02  0.00000000000E+00 0.  1.
         -1    1    6    6    0  503  0.11493562678E+03  0.29212047114E+03 -0.38625729862E+03  0.49773413455E+03  0.00000000000E+00 0. -1.
<mgrwt>
<rscale>  0 0.16734007E+04</rscale>
<asrwt>0</asrwt>
<pdfrwt beam="1">  1        2 0.20578513E+00 0.16734007E+04</pdfrwt>
<pdfrwt beam="2">  1       -1 0.80519154E-01 0.16734007E+04</pdfrwt>
<totfact> 0.26287783E+01</totfact>
</mgrwt>
</event>
<event>
12    6  0.1521603E-007  0.1845342E+04  0.7818608E-02  0.8682552E-01
          2   -1    0    0  501    0  0.00000000000E+00  0.00000000000E+00  0.87474778292E+03  0.87474778292E+03  0.00000000000E+00 0. -1.
         -1   -1    0    0    0  501 -0.00000000000E+00 -0.00000000000E+00 -0.97321944168E+03  0.97321944168E+03  0.00000000000E+00 0.  1.
         24    2    1    2    0    0  0.20385688998E+02  0.61520918191E+03 -0.36380678266E+03  0.71983379032E+03  0.83110749920E+02 0.  0.
        254    2    1    2    0    0 -0.20385688998E+02 -0.61520918191E+03  0.26533512390E+03  0.11281334343E+04  0.90740531392E+03 0.  0.
         23    2    4    4    0    0  0.18454026861E+03 -0.67848796656E+03  0.44123317952E+03  0.83526952876E+03  0.92668416735E+02 0.  0.
         23    2    4    4    0    0 -0.20492595760E+03  0.63278784651E+02 -0.17589805562E+03  0.29286390552E+03  0.93969614749E+02 0.  0.
          2    1    3    3  502    0 -0.11256128109E+02  0.33537241436E+03 -0.23797801727E+03  0.41138168826E+03  0.00000000000E+00 0. -1.
         -1    1    3    3    0  502  0.31641817106E+02  0.27983676756E+03 -0.12582876539E+03  0.30845210206E+03  0.00000000000E+00 0.  1.
         11    1    5    5    0    0  0.12389122635E+03 -0.58036980432E+03  0.37988268167E+03  0.70461975388E+03  0.00000000000E+00 0.  1.
        -11    1    5    5    0    0  0.60649042260E+02 -0.98118162247E+02  0.61350497849E+02  0.13064977488E+03  0.00000000000E+00 0. -1.
          4    1    6    6  503    0 -0.53636562243E+00  0.24161299793E+02 -0.79320675963E+01  0.25435679509E+02  0.00000000000E+00 0. -1.
         -4    1    6    6    0  503 -0.20438959198E+03  0.39117484858E+02 -0.16796598802E+03  0.26742822601E+03  0.00000000000E+00 0.  1.
<mgrwt>
<rscale>  0 0.18453418E+04</rscale>
<asrwt>0</asrwt>
<pdfrwt beam="1">  1        2 0.13457658E+00 0.18453418E+04</pdfrwt>
<pdfrwt beam="2">  1       -1 0.14972607E+00 0.18453418E+04</pdfrwt>
<totfact> 0.11484042E+01</totfact>
</mgrwt>
</event>
<event>
12    6  0.1521603E-007  0.1559688E+04  0.7818608E-02  0.8845703E-01
         -1   -1    0    0    0  501 -0.00000000000E+00  0.00000000000E+00  0.82084421402E+03  0.82084421402E+03  0.00000000000E+00 0.  1.
          2   -1    0    0  501    0  0.00000000000E+00 -0.00000000000E+00 -0.74089193154E+03  0.74089193154E+03  0.00000000000E+00 0. -1.
         24    2    1    2    0    0  0.24077250081E+03 -0.11289142121E+03  0.46996779193E+03  0.54584731283E+03  0.79772760629E+02 0.  0.
        254    2    1    2    0    0 -0.24077250081E+03  0.11289142121E+03 -0.39001550945E+03  0.10158888327E+04  0.89955664232E+03 0.  0.
         23    2    4    4    0    0 -0.19707631408E+03 -0.11635629851E+03 -0.62718264861E+03  0.67344030360E+03  0.88237781154E+02 0.  0.
         23    2    4    4    0    0 -0.43696186734E+02  0.22924771972E+03  0.23716713915E+03  0.34244852914E+03  0.80986847607E+02 0.  0.
          4    1    3    3  502    0  0.19215569537E+02  0.93764218232E+01  0.18401556719E+02  0.28209443251E+02  0.00000000000E+00 0. -1.
         -3    1    3    3    0  502  0.22155693128E+03 -0.12226784304E+03  0.45156623522E+03  0.51763786958E+03  0.00000000000E+00 0.  1.
         11    1    5    5    0    0 -0.15270547451E+03 -0.51348343023E+02 -0.34999469095E+03  0.38529456001E+03  0.00000000000E+00 0.  1.
        -11    1    5    5    0    0 -0.44370839567E+02 -0.65007955483E+02 -0.27718795765E+03  0.28814574359E+03  0.00000000000E+00 0. -1.
          2    1    6    6  503    0 -0.26615686156E+02  0.13047708391E+02  0.21701060091E+02  0.36736541113E+02  0.00000000000E+00 0. -1.
         -2    1    6    6    0  503 -0.17080500578E+02  0.21620001133E+03  0.21546607906E+03  0.30571198803E+03  0.00000000000E+00 0.  1.
<mgrwt>
<rscale>  0 0.15596882E+04</rscale>
<asrwt>0</asrwt>
<pdfrwt beam="1">  1        2 0.11398337E+00 0.15596882E+04</pdfrwt>
<pdfrwt beam="2">  1       -1 0.12628373E+00 0.15596882E+04</pdfrwt>
<totfact> 0.22834703E+01</totfact>
</mgrwt>
</event>
<event>
12    6  0.1521603E-007  0.1677718E+04  0.7818608E-02  0.8774176E-01
          2   -1    0    0  501    0  0.00000000000E+00  0.00000000000E+00  0.59531631448E+03  0.59531631448E+03  0.00000000000E+00 0. -1.
         -1   -1    0    0    0  501 -0.00000000000E+00 -0.00000000000E+00 -0.11820342562E+04  0.11820342562E+04  0.00000000000E+00 0.  1.
         24    2    1    2    0    0 -0.34507850311E+03  0.99440529369E+02  0.29375877391E+03  0.47008253369E+03  0.75602771397E+02 0.  0.
        254    2    1    2    0    0  0.34507850311E+03 -0.99440529369E+02 -0.88047671562E+03  0.13072680370E+04  0.89707462430E+03 0.  0.
         23    2    4    4    0    0 -0.78900835412E+02 -0.37211421647E+03 -0.16071533456E+03  0.42437035735E+03  0.97808228211E+02 0.  0.
         23    2    4    4    0    0  0.42397933852E+03  0.27267368710E+03 -0.71976138106E+03  0.88289767963E+03  0.85688084972E+02 0.  0.
          4    1    3    3  502    0 -0.24104436147E+03  0.56451104411E+02  0.24195970762E+03  0.34616991709E+03  0.00000000000E+00 0. -1.
         -3    1    3    3    0  502 -0.10403414163E+03  0.42989424958E+02  0.51799066288E+02  0.12391261659E+03  0.00000000000E+00 0.  1.
         11    1    5    5    0    0 -0.14745867716E+02 -0.10318866948E+01 -0.13539025506E+02  0.20045214304E+02  0.00000000000E+00 0.  1.
        -11    1    5    5    0    0 -0.64154967696E+02 -0.37108232977E+03 -0.14717630906E+03  0.40432514305E+03  0.00000000000E+00 0. -1.
          1    1    6    6  503    0  0.33538148424E+03  0.19394629602E+03 -0.60146657127E+03  0.71544247991E+03  0.00000000000E+00 0. -1.
         -1    1    6    6    0  503  0.88597854282E+02  0.78727391078E+02 -0.11829480979E+03  0.16745519972E+03  0.00000000000E+00 0.  1.
<mgrwt>
<rscale>  0 0.16777178E+04</rscale>
<asrwt>0</asrwt>
<pdfrwt beam="1">  1        2 0.91587125E-01 0.16777178E+04</pdfrwt>
<pdfrwt beam="2">  1       -1 0.18185142E+00 0.16777178E+04</pdfrwt>
<totfact> 0.11004167E+01</totfact>
</mgrwt>
</event>
<event>
12    6  0.1521603E-007  0.1375131E+04  0.7818608E-02  0.8972019E-01
          2   -1    0    0  501    0  0.00000000000E+00  0.00000000000E+00  0.15339161121E+04  0.15339161121E+04  0.00000000000E+00 0. -1.
         -1   -1    0    0    0  501 -0.00000000000E+00 -0.00000000000E+00 -0.30819566463E+03  0.30819566463E+03  0.00000000000E+00 0.  1.
         24    2    1    2    0    0 -0.11495529374E+03 -0.17290250015E+03  0.78945588437E+03  0.81997559510E+03  0.77520249419E+02 0.  0.
        254    2    1    2    0    0  0.11495529374E+03  0.17290250015E+03  0.43626456314E+03  0.10221361817E+04  0.90073614933E+03 0.  0.
         23    2    4    4    0    0 -0.36978881043E+03  0.19402081514E+03  0.15974840375E+03  0.45627749231E+03  0.91004156268E+02 0.  0.
         23    2    4    4    0    0  0.48474410417E+03 -0.21118314991E+02  0.27651615938E+03  0.56585868936E+03  0.91170390871E+02 0.  0.
          2    1    3    3  502    0 -0.10597984579E+03 -0.16696278278E+03  0.78263490112E+03  0.80723335350E+03  0.00000000000E+00 0. -1.
         -1    1    3    3    0  502 -0.89754479536E+01 -0.59397173763E+01  0.68209832467E+01  0.12742241598E+02  0.00000000000E+00 0.  1.
         11    1    5    5    0    0 -0.33644607708E+03  0.16565478895E+03  0.11174619828E+03  0.39131149321E+03  0.00000000000E+00 0.  1.
        -11    1    5    5    0    0 -0.33342733344E+02  0.28366026192E+02  0.48002205469E+02  0.64965999097E+02  0.00000000000E+00 0. -1.
          4    1    6    6  503    0  0.82945672241E+01 -0.29259315197E+01  0.25600932028E+02  0.27069699691E+02  0.00000000000E+00 0. -1.
         -4    1    6    6    0  503  0.47644953694E+03 -0.18192383471E+02  0.25091522736E+03  0.53878898967E+03  0.00000000000E+00 0.  1.
<mgrwt>
<rscale>  0 0.13751310E+04</rscale>
<asrwt>0</asrwt>
<pdfrwt beam="1">  1        2 0.23598709E+00 0.13751310E+04</pdfrwt>
<pdfrwt beam="2">  1       -1 0.47414719E-01 0.13751310E+04</pdfrwt>
<totfact> 0.59897868E+01</totfact>
</mgrwt>
</event>
<event>
12    6  0.1521603E-007  0.1267596E+04  0.7818608E-02  0.9055664E-01
         -1   -1    0    0    0  501 -0.00000000000E+00  0.00000000000E+00  0.48450037904E+03  0.48450037904E+03  0.00000000000E+00 0.  1.
          2   -1    0    0  501    0  0.00000000000E+00 -0.00000000000E+00 -0.82910165012E+03  0.82910165012E+03  0.00000000000E+00 0. -1.
         24    2    1    2    0    0  0.14516135012E+03 -0.10884609908E+03  0.20079157138E+03  0.28559149506E+03  0.91246676981E+02 0.  0.
        254    2    1    2    0    0 -0.14516135012E+03  0.10884609908E+03 -0.54539284246E+03  0.10280105341E+04  0.85231039813E+03 0.  0.
         23    2    4    4    0    0  0.13371094459E+03 -0.28308057523E+03 -0.40193610450E+03  0.51752407084E+03  0.90913711973E+02 0.  0.
         23    2    4    4    0    0 -0.27887229471E+03  0.39192667431E+03 -0.14345673796E+03  0.51048646326E+03  0.92953314697E+02 0.  0.
          4    1    3    3  502    0  0.65160350125E+02 -0.67825310778E+02  0.16274374114E+03  0.18796720270E+03  0.00000000000E+00 0. -1.
         -3    1    3    3    0  502  0.80000999993E+02 -0.41020788303E+02  0.38047830241E+02  0.97624292361E+02  0.00000000000E+00 0.  1.
         11    1    5    5    0    0  0.31506716534E+01 -0.41733032267E+02 -0.10592892482E+03  0.11389692634E+03  0.00000000000E+00 0. -1.
        -11    1    5    5    0    0  0.13056027294E+03 -0.24134754296E+03 -0.29600717967E+03  0.40362714450E+03  0.00000000000E+00 0.  1.
          1    1    6    6  503    0 -0.11216484821E+02 -0.24341590025E+01  0.30284103224E+01  0.11870380401E+02  0.00000000000E+00 0. -1.
         -1    1    6    6    0  503 -0.26765580989E+03  0.39436083331E+03 -0.14648514829E+03  0.49861608286E+03  0.00000000000E+00 0.  1.
<mgrwt>
<rscale>  0 0.12675963E+04</rscale>
<asrwt>0</asrwt>
<pdfrwt beam="1">  1        2 0.12755410E+00 0.12675963E+04</pdfrwt>
<pdfrwt beam="2">  1       -1 0.74538520E-01 0.12675963E+04</pdfrwt>
<totfact> 0.66704199E+01</totfact>
</mgrwt>
</event>
<event>
12    6  0.1521603E-007  0.2830631E+04  0.7818608E-02  0.8293821E-01
          2   -1    0    0  501    0  0.00000000000E+00  0.00000000000E+00  0.12326931103E+04  0.12326931103E+04  0.00000000000E+00 0. -1.
         -1   -1    0    0    0  501 -0.00000000000E+00 -0.00000000000E+00 -0.16249934229E+04  0.16249934229E+04  0.00000000000E+00 0.  1.
         24    2    1    2    0    0  0.95847078434E+03 -0.95353997586E+02  0.65846937582E+03  0.11694697442E+04  0.79491726011E+02 0.  0.
        254    2    1    2    0    0 -0.95847078434E+03  0.95353997586E+02 -0.10507696885E+04  0.16882167890E+04  0.90454428259E+03 0.  0.
         23    2    4    4    0    0 -0.86288137725E+03 -0.25536243082E+03 -0.53482173899E+03  0.10506042901E+04  0.89223536942E+02 0.  0.
         23    2    4    4    0    0 -0.95589407090E+02  0.35071642840E+03 -0.51594794947E+03  0.63761249892E+03  0.90598368172E+02 0.  0.
          4    1    3    3  502    0  0.58197551368E+03 -0.24144079933E+02  0.42078372142E+03  0.71856619412E+03  0.00000000000E+00 0. -1.
         -3    1    3    3    0  502  0.37649527066E+03 -0.71209917653E+02  0.23768565440E+03  0.45090355012E+03  0.00000000000E+00 0.  1.
         11    1    5    5    0    0 -0.81743653966E+03 -0.24105424395E+03 -0.52781916548E+03  0.10024483609E+04  0.00000000000E+00 0.  1.
        -11    1    5    5    0    0 -0.45444837591E+02 -0.14308186870E+02 -0.70025735079E+01  0.48155929135E+02  0.00000000000E+00 0. -1.
          3    1    6    6  503    0 -0.58309234236E+02  0.79059364537E+02 -0.10711946814E+03  0.14534417901E+03  0.00000000000E+00 0. -1.
         -3    1    6    6    0  503 -0.37280172853E+02  0.27165706387E+03 -0.40882848133E+03  0.49226831991E+03  0.00000000000E+00 0.  1.
<mgrwt>
<rscale>  0 0.28306312E+04</rscale>
<asrwt>0</asrwt>
<pdfrwt beam="1">  1        2 0.18964509E+00 0.28306312E+04</pdfrwt>
<pdfrwt beam="2">  1       -1 0.24999899E+00 0.28306312E+04</pdfrwt>
<totfact> 0.12485789E+00</totfact>
</mgrwt>
</event>
<event>
12    6  0.1521603E-007  0.1969376E+04  0.7818608E-02  0.8621074E-01
         -1   -1    0    0    0  501 -0.00000000000E+00  0.00000000000E+00  0.42831396193E+03  0.42831396193E+03  0.00000000000E+00 0.  1.
          2   -1    0    0  501    0  0.00000000000E+00 -0.00000000000E+00 -0.22637849203E+04  0.22637849203E+04  0.00000000000E+00 0. -1.
         24    2    1    2    0    0 -0.42082486768E+01  0.22871604601E+03  0.28931523481E+03  0.37720288271E+03  0.79056755430E+02 0.  0.
        254    2    1    2    0    0  0.42082486768E+01 -0.22871604601E+03 -0.21247861932E+04  0.23148959995E+04  0.88977434377E+03 0.  0.
         23    2    4    4    0    0 -0.40864134530E+03 -0.24416305727E+02 -0.71481870519E+03  0.82880367582E+03  0.91465002553E+02 0.  0.
         23    2    4    4    0    0  0.41284959398E+03 -0.20429974028E+03 -0.14099674880E+04  0.14860923237E+04  0.90988495191E+02 0.  0.
          2    1    3    3  502    0  0.23601639736E+02  0.11193747301E+03  0.94547993555E+02  0.14841279711E+03  0.00000000000E+00 0. -1.
         -1    1    3    3    0  502 -0.27809888413E+02  0.11677857300E+03  0.19476724125E+03  0.22879008560E+03  0.00000000000E+00 0.  1.
         11    1    5    5    0    0 -0.19273918795E+03  0.29068699469E+02 -0.37557350169E+03  0.42314162999E+03  0.00000000000E+00 0.  1.
        -11    1    5    5    0    0 -0.21590215735E+03 -0.53485005197E+02 -0.33924520350E+03  0.40566204583E+03  0.00000000000E+00 0. -1.
          4    1    6    6  503    0  0.12066993586E+03 -0.75129531806E+02 -0.56915741115E+03  0.58663944518E+03  0.00000000000E+00 0. -1.
         -4    1    6    6    0  503  0.29217965812E+03 -0.12917020847E+03 -0.84081007681E+03  0.89945287850E+03  0.00000000000E+00 0.  1.
<mgrwt>
<rscale>  0 0.19693762E+04</rscale>
<asrwt>0</asrwt>
<pdfrwt beam="1">  1        2 0.34827460E+00 0.19693762E+04</pdfrwt>
<pdfrwt beam="2">  1       -1 0.65894456E-01 0.19693762E+04</pdfrwt>
<totfact> 0.11765720E+01</totfact>
</mgrwt>
</event>
<event>
12    6  0.1521603E-007  0.1448035E+04  0.7818608E-02  0.8919764E-01
          2   -1    0    0  501    0  0.00000000000E+00  0.00000000000E+00  0.12984012049E+04  0.12984012049E+04  0.00000000000E+00 0. -1.
         -1   -1    0    0    0  501 -0.00000000000E+00 -0.00000000000E+00 -0.40372842685E+03  0.40372842685E+03  0.00000000000E+00 0.  1.
         24    2    1    2    0    0  0.45823233625E+03 -0.67511368209E+02  0.37970121796E+03  0.60433498781E+03  0.80703802578E+02 0.  0.
        254    2    1    2    0    0 -0.45823233625E+03  0.67511368209E+02  0.51497156009E+03  0.10977946439E+04  0.85171750819E+03 0.  0.
         23    2    4    4    0    0  0.10925318373E+03 -0.15849657065E+03 -0.90711494668E+02  0.23252423280E+03  0.93709778117E+02 0.  0.
         23    2    4    4    0    0 -0.56748551997E+03  0.22600793886E+03  0.60568305476E+03  0.86527041115E+03  0.93389066670E+02 0.  0.
          4    1    3    3  502    0  0.42517263797E+03 -0.48393409918E+02  0.32373210366E+03  0.53657820412E+03  0.00000000000E+00 0. -1.
         -3    1    3    3    0  502  0.33059698273E+02 -0.19117958291E+02  0.55969114306E+02  0.67756783685E+02  0.00000000000E+00 0.  1.
         11    1    5    5    0    0  0.10786561974E+03 -0.16134583268E+03 -0.10307970893E+03  0.21975644709E+03  0.00000000000E+00 0.  1.
        -11    1    5    5    0    0  0.13875639870E+01  0.28492620354E+01  0.12368214261E+02  0.12767785711E+02  0.00000000000E+00 0. -1.
          2    1    6    6  503    0 -0.54069332966E+03  0.22715234058E+03  0.55261036904E+03  0.80580747237E+03  0.00000000000E+00 0.  1.
         -2    1    6    6    0  503 -0.26792190317E+02 -0.11444017266E+01  0.53072685725E+02  0.59462938772E+02  0.00000000000E+00 0. -1.
<mgrwt>
<rscale>  0 0.14480352E+04</rscale>
<asrwt>0</asrwt>
<pdfrwt beam="1">  1        2 0.19975403E+00 0.14480352E+04</pdfrwt>
<pdfrwt beam="2">  1       -1 0.62112066E-01 0.14480352E+04</pdfrwt>
<totfact> 0.48157536E+01</totfact>
</mgrwt>
</event>
<event>
12    6  0.1521603E-007  0.2463894E+04  0.7818608E-02  0.8415962E-01
          2   -1    0    0  501    0  0.00000000000E+00  0.00000000000E+00  0.94814415919E+03  0.94814415919E+03  0.00000000000E+00 0. -1.
         -1   -1    0    0    0  501 -0.00000000000E+00 -0.00000000000E+00 -0.16006992283E+04  0.16006992283E+04  0.00000000000E+00 0.  1.
         24    2    1    2    0    0 -0.26966207288E+03  0.10225477790E+04 -0.42021923573E+03  0.11407394284E+04  0.79878930417E+02 0.  0.
        254    2    1    2    0    0  0.26966207288E+03 -0.10225477790E+04 -0.23233583338E+03  0.14081039591E+04  0.90025286788E+03 0.  0.
         23    2    4    4    0    0  0.52868398924E+03 -0.36024665073E+03 -0.24341260858E+03  0.69090064991E+03  0.93859470471E+02 0.  0.
         23    2    4    4    0    0 -0.25902191635E+03 -0.66230112830E+03  0.11076775201E+02  0.71720330915E+03  0.92318763066E+02 0.  0.
          4    1    3    3  502    0 -0.48371061503E+02  0.31832012246E+03 -0.14149532402E+03  0.35169359771E+03  0.00000000000E+00 0. -1.
         -3    1    3    3    0  502 -0.22129101138E+03  0.70422765657E+03 -0.27872391172E+03  0.78904583071E+03  0.00000000000E+00 0.  1.
         11    1    5    5    0    0  0.46167709794E+03 -0.34869386544E+03 -0.21529711939E+03  0.61732163754E+03  0.00000000000E+00 0. -1.
        -11    1    5    5    0    0  0.67006891297E+02 -0.11552785287E+02 -0.28115489188E+02  0.73579012371E+02  0.00000000000E+00 0.  1.
          3    1    6    6  503    0 -0.20810468148E+03 -0.42852694868E+03  0.29079860048E+02  0.47727197954E+03  0.00000000000E+00 0. -1.
         -3    1    6    6    0  503 -0.50917234878E+02 -0.23377417962E+03 -0.18003084847E+02  0.23993132961E+03  0.00000000000E+00 0.  1.
<mgrwt>
<rscale>  0 0.24638942E+04</rscale>
<asrwt>0</asrwt>
<pdfrwt beam="1">  1        2 0.14586833E+00 0.24638942E+04</pdfrwt>
<pdfrwt beam="2">  1       -1 0.24626142E+00 0.24638942E+04</pdfrwt>
<totfact> 0.20482616E+00</totfact>
</mgrwt>
</event>
<event>
12    6  0.1521603E-007  0.2128015E+04  0.7818608E-02  0.8549002E-01
         -1   -1    0    0    0  501 -0.00000000000E+00  0.00000000000E+00  0.46052531557E+03  0.46052531557E+03  0.00000000000E+00 0.  1.
          2   -1    0    0  501    0  0.00000000000E+00 -0.00000000000E+00 -0.24583047959E+04  0.24583047959E+04  0.00000000000E+00 0. -1.
         24    2    1    2    0    0  0.14314718537E+03 -0.84515602874E+03 -0.97507505281E+03  0.13007526788E+04  0.80039634894E+02 0.  0.
        254    2    1    2    0    0 -0.14314718537E+03  0.84515602874E+03 -0.10227044275E+04  0.16180774326E+04  0.91513408988E+03 0.  0.
         23    2    4    4    0    0  0.39668645058E+02  0.73149074127E+03 -0.20278352040E+03  0.76549354351E+03  0.90591959041E+02 0.  0.
         23    2    4    4    0    0 -0.18281583043E+03  0.11366528748E+03 -0.81992090706E+03  0.85258388913E+03  0.91036084804E+02 0.  0.
          2    1    3    3  502    0  0.38410381293E+02 -0.14014158704E+03 -0.20709782813E+03  0.25299117026E+03  0.00000000000E+00 0. -1.
         -1    1    3    3    0  502  0.10473680408E+03 -0.70501444170E+03 -0.76797722468E+03  0.10477615085E+04  0.00000000000E+00 0.  1.
         11    1    5    5    0    0  0.59651729150E+02  0.65135886481E+03 -0.16442871336E+03  0.67443569102E+03  0.00000000000E+00 0. -1.
        -11    1    5    5    0    0 -0.19983084092E+02  0.80131876460E+02 -0.38354807047E+02  0.91057852481E+02  0.00000000000E+00 0.  1.
          2    1    6    6  503    0 -0.97926734339E+02  0.91311279270E+02 -0.35420050771E+03  0.37866263967E+03  0.00000000000E+00 0. -1.
         -2    1    6    6    0  503 -0.84889096091E+02  0.22354008206E+02 -0.46572039936E+03  0.47392124947E+03  0.00000000000E+00 0.  1.
<mgrwt>
<rscale>  0 0.21280147E+04</rscale>
<asrwt>0</asrwt>
<pdfrwt beam="1">  1        2 0.37820074E+00 0.21280147E+04</pdfrwt>
<pdfrwt beam="2">  1       -1 0.70850049E-01 0.21280147E+04</pdfrwt>
<totfact> 0.77514789E+00</totfact>
</mgrwt>
</event>
<event>
12    6  0.1521603E-007  0.1412173E+04  0.7818608E-02  0.8945054E-01
          2   -1    0    0  501    0  0.00000000000E+00  0.00000000000E+00  0.17248274028E+04  0.17248274028E+04  0.00000000000E+00 0. -1.
         -1   -1    0    0    0  501 -0.00000000000E+00 -0.00000000000E+00 -0.28904795916E+03  0.28904795916E+03  0.00000000000E+00 0.  1.
         24    2    1    2    0    0 -0.23075361092E+03 -0.34346648567E+03  0.48227455135E+03  0.64006582743E+03  0.76675060050E+02 0.  0.
        254    2    1    2    0    0  0.23075361092E+03  0.34346648567E+03  0.95350489233E+03  0.13738095346E+04  0.89831208489E+03 0.  0.
         23    2    4    4    0    0  0.26260011979E+03  0.55672202197E+03  0.95354866971E+03  0.11393432204E+04  0.99748060792E+02 0.  0.
         23    2    4    4    0    0 -0.31846508868E+02 -0.21325553630E+03 -0.43777378309E-01  0.23446631421E+03  0.92099547740E+02 0.  0.
          2    1    3    3  502    0 -0.19477324582E+03 -0.32051049745E+03  0.45395435704E+03  0.58884476268E+03  0.00000000000E+00 0. -1.
         -1    1    3    3    0  502 -0.35980365106E+02 -0.22955988220E+02  0.28320194306E+02  0.51221064748E+02  0.00000000000E+00 0.  1.
         11    1    5    5    0    0  0.20047739169E+03  0.42719609672E+03  0.64705387730E+03  0.80085355075E+03  0.00000000000E+00 0.  1.
        -11    1    5    5    0    0  0.62122728102E+02  0.12952592525E+03  0.30649479241E+03  0.33848966961E+03  0.00000000000E+00 0. -1.
          3    1    6    6  503    0  0.15152939435E+02 -0.16541569618E+03 -0.11178954129E+02  0.16648403266E+03  0.00000000000E+00 0.  1.
         -3    1    6    6    0  503 -0.46999448303E+02 -0.47839840124E+02  0.11135176751E+02  0.67982281553E+02  0.00000000000E+00 0. -1.
<mgrwt>
<rscale>  0 0.14121726E+04</rscale>
<asrwt>0</asrwt>
<pdfrwt beam="1">  1        2 0.26535805E+00 0.14121726E+04</pdfrwt>
<pdfrwt beam="2">  1       -1 0.44468918E-01 0.14121726E+04</pdfrwt>
<totfact> 0.52698259E+01</totfact>
</mgrwt>
</event>
<event>
12    6  0.1521603E-007  0.1957804E+04  0.7818608E-02  0.8626607E-01
         -1   -1    0    0    0  501 -0.00000000000E+00  0.00000000000E+00  0.15182829049E+04  0.15182829049E+04  0.00000000000E+00 0.  1.
          2   -1    0    0  501    0  0.00000000000E+00 -0.00000000000E+00 -0.63114007401E+03  0.63114007401E+03  0.00000000000E+00 0. -1.
         24    2    1    2    0    0  0.69296108629E+03 -0.32906985786E+03  0.36922739596E+03  0.85503257054E+03  0.79181994641E+02 0.  0.
        254    2    1    2    0    0 -0.69296108629E+03  0.32906985786E+03  0.51791543491E+03  0.12943904084E+04  0.90483594814E+03 0.  0.
         23    2    4    4    0    0 -0.88733968914E+03  0.15283648784E+03  0.34776330406E+03  0.96933135814E+03  0.89068795223E+02 0.  0.
         23    2    4    4    0    0  0.19437860285E+03  0.17623337003E+03  0.17015213085E+03  0.32505905021E+03  0.88715255377E+02 0.  0.
          4    1    3    3  502    0  0.48455151447E+03 -0.20223151123E+03  0.22187244214E+03  0.57001327606E+03  0.00000000000E+00 0. -1.
         -3    1    3    3    0  502  0.20840957183E+03 -0.12683834663E+03  0.14735495383E+03  0.28501929447E+03  0.00000000000E+00 0.  1.
         11    1    5    5    0    0 -0.85615569696E+03  0.14940741670E+03  0.31619785730E+03  0.92482768047E+03  0.00000000000E+00 0. -1.
        -11    1    5    5    0    0 -0.31183992187E+02  0.34290711354E+01  0.31565446756E+02  0.44503677673E+02  0.00000000000E+00 0.  1.
          1    1    6    6  503    0  0.14289653603E+03  0.17080658629E+03  0.15426202560E+03  0.27090788559E+03  0.00000000000E+00 0. -1.
         -1    1    6    6    0  503  0.51482066819E+02  0.54267837348E+01  0.15890105247E+02  0.54151164627E+02  0.00000000000E+00 0.  1.
<mgrwt>
<rscale>  0 0.19578041E+04</rscale>
<asrwt>0</asrwt>
<pdfrwt beam="1">  1        2 0.97098473E-01 0.19578041E+04</pdfrwt>
<pdfrwt beam="2">  1       -1 0.23358198E+00 0.19578041E+04</pdfrwt>
<totfact> 0.44354888E+00</totfact>
</mgrwt>
</event>
<event>
12    6  0.1521603E-007  0.1458688E+04  0.7818608E-02  0.8912399E-01
          2   -1    0    0  501    0  0.00000000000E+00  0.00000000000E+00  0.14688393951E+04  0.14688393951E+04  0.00000000000E+00 0. -1.
         -1   -1    0    0    0  501 -0.00000000000E+00 -0.00000000000E+00 -0.36215191679E+03  0.36215191679E+03  0.00000000000E+00 0.  1.
         24    2    1    2    0    0  0.41239961168E+03 -0.44418324145E+02  0.13197824667E+03  0.44205470927E+03  0.77121210833E+02 0.  0.
        254    2    1    2    0    0 -0.41239961168E+03  0.44418324145E+02  0.97470923166E+03  0.13889366026E+04  0.89835425788E+03 0.  0.
         23    2    4    4    0    0 -0.16115664079E+03  0.40851540673E+03  0.19784300272E+03  0.49029530511E+03  0.91604214309E+02 0.  0.
         23    2    4    4    0    0 -0.25124297089E+03 -0.36409708258E+03  0.77686622894E+03  0.89864129754E+03  0.91352766828E+02 0.  0.
          2    1    3    3  502    0  0.21255989682E+03 -0.45675242388E+02  0.10136158049E+03  0.23987936031E+03  0.00000000000E+00 0. -1.
         -1    1    3    3    0  502  0.19983971486E+03  0.12569182429E+01  0.30616666176E+02  0.20217534896E+03  0.00000000000E+00 0.  1.
         11    1    5    5    0    0 -0.11825652062E+03  0.37354220396E+03  0.15988246061E+03  0.42317937570E+03  0.00000000000E+00 0.  1.
        -11    1    5    5    0    0 -0.42900120169E+02  0.34973202767E+02  0.37960542115E+02  0.67115929405E+02  0.00000000000E+00 0. -1.
          3    1    6    6  503    0 -0.88766026231E+01 -0.58808614425E+02  0.13764925882E+03  0.14994854336E+03  0.00000000000E+00 0. -1.
         -3    1    6    6    0  503 -0.24236636827E+03 -0.30528846816E+03  0.63921697013E+03  0.74869275417E+03  0.00000000000E+00 0.  1.
<mgrwt>
<rscale>  0 0.14586885E+04</rscale>
<asrwt>0</asrwt>
<pdfrwt beam="1">  1        2 0.22597529E+00 0.14586885E+04</pdfrwt>
<pdfrwt beam="2">  1       -1 0.55715680E-01 0.14586885E+04</pdfrwt>
<totfact> 0.47565850E+01</totfact>
</mgrwt>
</event>
<event>
12    6  0.1521603E-007  0.1579970E+04  0.7818608E-02  0.8832948E-01
         -3   -1    0    0    0  501 -0.00000000000E+00  0.00000000000E+00  0.13839176432E+04  0.13839176432E+04  0.00000000000E+00 0.  1.
          2   -1    0    0  501    0  0.00000000000E+00 -0.00000000000E+00 -0.45094926576E+03  0.45094926576E+03  0.00000000000E+00 0. -1.
         24    2    1    2    0    0  0.91139064446E+02 -0.47129041690E+02 -0.28961071104E+03  0.31679315311E+03  0.77175528946E+02 0.  0.
        254    2    1    2    0    0 -0.91139064446E+02  0.47129041690E+02  0.12225790885E+04  0.15180737559E+04  0.89404744002E+03 0.  0.
         23    2    4    4    0    0 -0.21734341235E+02  0.32646970959E+03  0.11610004320E+04  0.12097071305E+04  0.91730506351E+02 0.  0.
         23    2    4    4    0    0 -0.69404723211E+02 -0.27934066790E+03  0.61578656559E+02  0.30836662535E+03  0.91922904330E+02 0.  0.
          2    1    3    3  502    0  0.47042266009E+02 -0.38498914097E+02 -0.24871497715E+03  0.25603570266E+03  0.00000000000E+00 0. -1.
         -1    1    3    3    0  502  0.44096798437E+02 -0.86301275930E+01 -0.40895733896E+02  0.60757450453E+02  0.00000000000E+00 0.  1.
         11    1    5    5    0    0  0.14875105538E+02  0.12105645030E+02  0.12437332249E+03  0.12584331032E+03  0.00000000000E+00 0.  1.
        -11    1    5    5    0    0 -0.36609446772E+02  0.31436406456E+03  0.10366271095E+04  0.10838638202E+04  0.00000000000E+00 0. -1.
          2    1    6    6  503    0 -0.71578740070E+02 -0.26952176460E+03  0.36370470965E+02  0.28122643684E+03  0.00000000000E+00 0. -1.
         -2    1    6    6    0  503  0.21740168593E+01 -0.98189033050E+01  0.25208185594E+02  0.27140188510E+02  0.00000000000E+00 0.  1.
<mgrwt>
<rscale>  0 0.15799704E+04</rscale>
<asrwt>0</asrwt>
<pdfrwt beam="1">  1        2 0.69376811E-01 0.15799704E+04</pdfrwt>
<pdfrwt beam="2">  1       -3 0.21291040E+00 0.15799704E+04</pdfrwt>
<totfact> 0.50650997E+00</totfact>
</mgrwt>
</event>
<event>
12    6  0.1521603E-007  0.1870462E+04  0.7818608E-02  0.8669701E-01
          2   -1    0    0  501    0  0.00000000000E+00  0.00000000000E+00  0.10188636303E+04  0.10188636303E+04  0.00000000000E+00 0. -1.
         -1   -1    0    0    0  501 -0.00000000000E+00 -0.00000000000E+00 -0.85846318237E+03  0.85846318237E+03  0.00000000000E+00 0.  1.
         24    2    1    2    0    0 -0.47686197027E+03 -0.79035988708E+02  0.57097326349E+03  0.75216782913E+03  0.78114975185E+02 0.  0.
        254    2    1    2    0    0  0.47686197027E+03  0.79035988708E+02 -0.41057281554E+03  0.11251589836E+04  0.92939156185E+03 0.  0.
         23    2    4    4    0    0 -0.17662330798E+03  0.18251405555E+03 -0.36715351864E+03  0.45646786485E+03  0.95152677288E+02 0.  0.
         23    2    4    4    0    0  0.65348527825E+03 -0.10347806685E+03 -0.43419296901E+02  0.66869111871E+03  0.86670973743E+02 0.  0.
          2    1    3    3  502    0 -0.32654828135E+03 -0.17815656680E+02  0.39391408915E+03  0.51197606126E+03  0.00000000000E+00 0. -1.
         -1    1    3    3    0  502 -0.15031368892E+03 -0.61220332028E+02  0.17705917435E+03  0.24019176787E+03  0.00000000000E+00 0.  1.
         11    1    5    5    0    0 -0.11826373876E+03  0.69689525855E+02 -0.24155226873E+03  0.27783167647E+03  0.00000000000E+00 0.  1.
        -11    1    5    5    0    0 -0.58359569220E+02  0.11282452970E+03 -0.12560124990E+03  0.17863618838E+03  0.00000000000E+00 0. -1.
          2    1    6    6  503    0  0.20250488222E+03  0.27690640121E+01  0.68895101049E+01  0.20264096424E+03  0.00000000000E+00 0.  1.
         -2    1    6    6    0  503  0.45098039603E+03 -0.10624713086E+03 -0.50308807006E+02  0.46605015447E+03  0.00000000000E+00 0. -1.
<mgrwt>
<rscale>  0 0.18704619E+04</rscale>
<asrwt>0</asrwt>
<pdfrwt beam="1">  1        2 0.15674825E+00 0.18704619E+04</pdfrwt>
<pdfrwt beam="2">  1       -1 0.13207126E+00 0.18704619E+04</pdfrwt>
<totfact> 0.12782759E+01</totfact>
</mgrwt>
</event>
<event>
12    6  0.1521603E-007  0.1583864E+04  0.7818608E-02  0.8830523E-01
         -1   -1    0    0    0  501 -0.00000000000E+00  0.00000000000E+00  0.51386523990E+03  0.51386523990E+03  0.00000000000E+00 0.  1.
          2   -1    0    0  501    0  0.00000000000E+00 -0.00000000000E+00 -0.12204684413E+04  0.12204684413E+04  0.00000000000E+00 0. -1.
         24    2    1    2    0    0 -0.27360632308E+03 -0.50086287125E+02 -0.72612481077E+03  0.78162992263E+03  0.79492382911E+02 0.  0.
        254    2    1    2    0    0  0.27360632308E+03  0.50086287125E+02  0.19521609338E+02  0.95270375860E+03  0.91098534688E+03 0.  0.
         23    2    4    4    0    0  0.22381150358E+03  0.18774067636E+03  0.41815228460E+03  0.51819102980E+03  0.91282306924E+02 0.  0.
         23    2    4    4    0    0  0.49794819505E+02 -0.13765438923E+03 -0.39863067526E+03  0.43451272881E+03  0.92014353832E+02 0.  0.
          2    1    3    3  502    0 -0.26657307287E+03 -0.30309855456E+02 -0.67187349657E+03  0.72345966432E+03  0.00000000000E+00 0. -1.
         -1    1    3    3    0  502 -0.70332502149E+01 -0.19776431669E+02 -0.54251314205E+02  0.58170258304E+02  0.00000000000E+00 0.  1.
         11    1    5    5    0    0  0.15218881656E+03  0.15348079667E+03  0.23903533356E+03  0.32226647594E+03  0.00000000000E+00 0.  1.
        -11    1    5    5    0    0  0.71622687020E+02  0.34259879695E+02  0.17911695104E+03  0.19592455385E+03  0.00000000000E+00 0. -1.
          1    1    6    6  503    0  0.35287875933E+02 -0.79524732229E+02 -0.33898627813E+03  0.34997301894E+03  0.00000000000E+00 0. -1.
         -1    1    6    6    0  503  0.14506943572E+02 -0.58129657006E+02 -0.59644397124E+02  0.84539709863E+02  0.00000000000E+00 0.  1.
<mgrwt>
<rscale>  0 0.15838640E+04</rscale>
<asrwt>0</asrwt>
<pdfrwt beam="1">  1        2 0.18776437E+00 0.15838640E+04</pdfrwt>
<pdfrwt beam="2">  1       -1 0.79056192E-01 0.15838640E+04</pdfrwt>
<totfact> 0.32255520E+01</totfact>
</mgrwt>
</event>
<event>
12    6  0.1521603E-007  0.1518617E+04  0.7818608E-02  0.8872166E-01
         -1   -1    0    0    0  501 -0.00000000000E+00  0.00000000000E+00  0.17108260981E+03  0.17108260981E+03  0.00000000000E+00 0.  1.
          2   -1    0    0  501    0  0.00000000000E+00 -0.00000000000E+00 -0.33700072568E+04  0.33700072568E+04  0.00000000000E+00 0. -1.
         24    2    1    2    0    0  0.56259786285E+02 -0.46042895935E+03 -0.68103399229E+03  0.82786411636E+03  0.79948147811E+02 0.  0.
        254    2    1    2    0    0 -0.56259786285E+02  0.46042895935E+03 -0.25178906547E+04  0.27132257503E+04  0.89814287988E+03 0.  0.
         23    2    4    4    0    0  0.24353164706E+03 -0.16539313423E+03 -0.87393031222E+03  0.92647272018E+03  0.89078384884E+02 0.  0.
         23    2    4    4    0    0 -0.29979143334E+03  0.62582209359E+03 -0.16439603425E+04  0.17867530301E+04  0.91392486120E+02 0.  0.
          4    1    3    3  502    0  0.70802673796E+02 -0.33715902067E+03 -0.53339787281E+03  0.63498229468E+03  0.00000000000E+00 0. -1.
         -3    1    3    3    0  502 -0.14542887511E+02 -0.12326993869E+03 -0.14763611948E+03  0.19288182168E+03  0.00000000000E+00 0.  1.
         11    1    5    5    0    0  0.23504402844E+03 -0.12975347003E+03 -0.72537765688E+03  0.77346907073E+03  0.00000000000E+00 0. -1.
        -11    1    5    5    0    0  0.84876186220E+01 -0.35639664200E+02 -0.14855265535E+03  0.15300364945E+03  0.00000000000E+00 0.  1.
          2    1    6    6  503    0 -0.12864415677E+03  0.35261951836E+03 -0.81376427170E+03  0.89615965859E+03  0.00000000000E+00 0.  1.
         -2    1    6    6    0  503 -0.17114727657E+03  0.27320257523E+03 -0.83019607080E+03  0.89059337150E+03  0.00000000000E+00 0. -1.
<mgrwt>
<rscale>  0 0.15186173E+04</rscale>
<asrwt>0</asrwt>
<pdfrwt beam="1">  1        2 0.51846267E+00 0.15186173E+04</pdfrwt>
<pdfrwt beam="2">  1       -1 0.26320401E-01 0.15186173E+04</pdfrwt>
<totfact> 0.14239893E+01</totfact>
</mgrwt>
</event>
<event>
12    6  0.1521603E-007  0.1294429E+04  0.7818608E-02  0.9033994E-01
         -1   -1    0    0    0  501 -0.00000000000E+00  0.00000000000E+00  0.19385267116E+03  0.19385267116E+03  0.00000000000E+00 0.  1.
          2   -1    0    0  501    0  0.00000000000E+00 -0.00000000000E+00 -0.21608515829E+04  0.21608515829E+04  0.00000000000E+00 0. -1.
         24    2    1    2    0    0 -0.14304278568E+02  0.14294845057E+03 -0.10210180775E+04  0.10340600045E+04  0.78506727870E+02 0.  0.
        254    2    1    2    0    0  0.14304278568E+02 -0.14294845057E+03 -0.94598083418E+03  0.13206442495E+04  0.91026513902E+03 0.  0.
         23    2    4    4    0    0 -0.89627821439E+02  0.36462330041E+03 -0.48865714871E+03  0.62355439040E+03  0.95136592459E+02 0.  0.
         23    2    4    4    0    0  0.10393210001E+03 -0.50757175098E+03 -0.45732368546E+03  0.69708985914E+03  0.91424037455E+02 0.  0.
          4    1    3    3  502    0  0.20950780685E+02  0.11789315339E+03 -0.70508781160E+03  0.71518288073E+03  0.00000000000E+00 0. -1.
         -3    1    3    3    0  502 -0.35255059253E+02  0.25055297185E+02 -0.31593026595E+03  0.31887712377E+03  0.00000000000E+00 0.  1.
         11    1    5    5    0    0 -0.10261444275E+03  0.33310887101E+03 -0.41200885266E+03  0.53966891561E+03  0.00000000000E+00 0. -1.
        -11    1    5    5    0    0  0.12986621308E+02  0.31514429398E+02 -0.76648296049E+02  0.83885474788E+02  0.00000000000E+00 0.  1.
          4    1    6    6  503    0  0.72633724171E+02 -0.29236973933E+03 -0.20711793680E+03  0.36558660001E+03  0.00000000000E+00 0. -1.
         -4    1    6    6    0  503  0.31298375835E+02 -0.21520201165E+03 -0.25020574867E+03  0.33150325913E+03  0.00000000000E+00 0.  1.
<mgrwt>
<rscale>  0 0.12944294E+04</rscale>
<asrwt>0</asrwt>
<pdfrwt beam="1">  1        2 0.33243871E+00 0.12944294E+04</pdfrwt>
<pdfrwt beam="2">  1       -1 0.29823488E-01 0.12944294E+04</pdfrwt>
<totfact> 0.62672350E+01</totfact>
</mgrwt>
</event>
<event>
12    6  0.1521603E-007  0.2302926E+04  0.7818608E-02  0.8476769E-01
          2   -1    0    0  501    0  0.00000000000E+00  0.00000000000E+00  0.29113626468E+04  0.29113626468E+04  0.00000000000E+00 0. -1.
         -1   -1    0    0    0  501 -0.00000000000E+00 -0.00000000000E+00 -0.45541097999E+03  0.45541097999E+03  0.00000000000E+00 0.  1.
         24    2    1    2    0    0 -0.14324764021E+03 -0.33734443110E+03 -0.27758570467E+03  0.46665097108E+03  0.79925926678E+02 0.  0.
        254    2    1    2    0    0  0.14324764021E+03  0.33734443110E+03  0.27335373715E+04  0.29001226557E+04  0.89675175233E+03 0.  0.
         23    2    4    4    0    0 -0.49317370695E+01  0.17731028566E+03  0.49187922207E+02  0.20530959592E+03  0.90935796335E+02 0.  0.
         23    2    4    4    0    0  0.14817937728E+03  0.16003414544E+03  0.26843494493E+04  0.26948130598E+04  0.93367049294E+02 0.  0.
          2    1    3    3  502    0 -0.10295915664E+02 -0.49460670233E+02 -0.94871431305E+01  0.51403984904E+02  0.00000000000E+00 0. -1.
         -1    1    3    3    0  502 -0.13295172455E+03 -0.28788376086E+03 -0.26809856154E+03  0.41524698618E+03  0.00000000000E+00 0.  1.
         11    1    5    5    0    0 -0.41360662531E+02  0.10752469780E+03  0.52312162893E+02  0.12652599507E+03  0.00000000000E+00 0. -1.
        -11    1    5    5    0    0  0.36428925462E+02  0.69785587854E+02 -0.31242406859E+01  0.78783600846E+02  0.00000000000E+00 0.  1.
          1    1    6    6  503    0  0.13072892194E+03  0.81122189653E+02  0.15625531750E+04  0.15701093228E+04  0.00000000000E+00 0. -1.
         -1    1    6    6    0  503  0.17450455338E+02  0.78911955788E+02  0.11217962743E+04  0.11247037371E+04  0.00000000000E+00 0.  1.
<mgrwt>
<rscale>  0 0.23029255E+04</rscale>
<asrwt>0</asrwt>
<pdfrwt beam="1">  1        2 0.44790193E+00 0.23029255E+04</pdfrwt>
<pdfrwt beam="2">  1       -1 0.70063230E-01 0.23029255E+04</pdfrwt>
<totfact> 0.42006719E+00</totfact>
</mgrwt>
</event>
<event>
12    6  0.1521603E-007  0.2403000E+04  0.7818608E-02  0.8438381E-01
         -1   -1    0    0    0  501 -0.00000000000E+00  0.00000000000E+00  0.24021065533E+04  0.24021065533E+04  0.00000000000E+00 0.  1.
          2   -1    0    0  501    0  0.00000000000E+00 -0.00000000000E+00 -0.60097357118E+03  0.60097357118E+03  0.00000000000E+00 0. -1.
         24    2    1    2    0    0  0.38924764229E+03  0.61444471168E+03  0.16976218950E+04  0.18485662858E+04  0.78874481294E+02 0.  0.
        254    2    1    2    0    0 -0.38924764229E+03 -0.61444471168E+03  0.10351108713E+03  0.11545138387E+04  0.89057937763E+03 0.  0.
         23    2    4    4    0    0 -0.46980643827E+03 -0.69276210368E+03  0.31419170848E+03  0.89856707295E+03  0.89827240757E+02 0.  0.
         23    2    4    4    0    0  0.80558795988E+02  0.78317392000E+02 -0.21068062136E+03  0.25594676575E+03  0.92190504827E+02 0.  0.
          4    1    3    3  502    0  0.10867998983E+03  0.23109363005E+03  0.64481525887E+03  0.69354331091E+03  0.00000000000E+00 0. -1.
         -3    1    3    3    0  502  0.28056765246E+03  0.38335108162E+03  0.10528066361E+04  0.11550229749E+04  0.00000000000E+00 0.  1.
         11    1    5    5    0    0 -0.11837098409E+03 -0.11379650740E+03  0.50861067156E+02  0.17189584964E+03  0.00000000000E+00 0.  1.
        -11    1    5    5    0    0 -0.35143545418E+03 -0.57896559628E+03  0.26333064133E+03  0.72667122331E+03  0.00000000000E+00 0. -1.
          2    1    6    6  503    0  0.74675669453E+02  0.72924294008E+02 -0.22010364673E+03  0.24359807792E+03  0.00000000000E+00 0. -1.
         -2    1    6    6    0  503  0.58831265359E+01  0.53930979913E+01  0.94230253723E+01  0.12348687823E+02  0.00000000000E+00 0.  1.
<mgrwt>
<rscale>  0 0.24030003E+04</rscale>
<asrwt>0</asrwt>
<pdfrwt beam="1">  1        2 0.92457474E-01 0.24030003E+04</pdfrwt>
<pdfrwt beam="2">  1       -1 0.36955485E+00 0.24030003E+04</pdfrwt>
<totfact> 0.58454479E-01</totfact>
</mgrwt>
</event>
<event>
12    6  0.1521603E-007  0.1508036E+04  0.7818608E-02  0.8879126E-01
         -1   -1    0    0    0  501 -0.00000000000E+00  0.00000000000E+00  0.12426019556E+04  0.12426019556E+04  0.00000000000E+00 0.  1.
          2   -1    0    0  501    0  0.00000000000E+00 -0.00000000000E+00 -0.45754261243E+03  0.45754261243E+03  0.00000000000E+00 0. -1.
         24    2    1    2    0    0 -0.23447264629E+03  0.15094878922E+02  0.72741960884E+03  0.76861825727E+03  0.80183918952E+02 0.  0.
        254    2    1    2    0    0  0.23447264629E+03 -0.15094878922E+02  0.57639734320E+02  0.93152631074E+03  0.89956303359E+03 0.  0.
         23    2    4    4    0    0 -0.29469545812E+03 -0.18224219496E+03 -0.40779712731E+02  0.36065856224E+03  0.91400125211E+02 0.  0.
         23    2    4    4    0    0  0.52916810441E+03  0.16714731604E+03  0.98419447051E+02  0.57086774850E+03  0.90810190691E+02 0.  0.
          4    1    3    3  502    0 -0.33475039205E+01  0.16730170726E+02  0.54830429510E+02  0.57423691934E+02  0.00000000000E+00 0. -1.
         -3    1    3    3    0  502 -0.23112514237E+03 -0.16352918039E+01  0.67258917933E+03  0.71119456534E+03  0.00000000000E+00 0.  1.
         11    1    5    5    0    0 -0.96387371904E+01  0.86319984086E+01  0.62856301517E+01  0.14384915626E+02  0.00000000000E+00 0.  1.
        -11    1    5    5    0    0 -0.28505672093E+03 -0.19087419337E+03 -0.47065342883E+02  0.34627364662E+03  0.00000000000E+00 0. -1.
          1    1    6    6  503    0  0.31750373304E+03  0.13474505129E+03  0.30661942648E+02  0.34627301955E+03  0.00000000000E+00 0. -1.
         -1    1    6    6    0  503  0.21166437136E+03  0.32402264750E+02  0.67757504403E+02  0.22459472894E+03  0.00000000000E+00 0.  1.
<mgrwt>
<rscale>  0 0.15080363E+04</rscale>
<asrwt>0</asrwt>
<pdfrwt beam="1">  1        2 0.70391172E-01 0.15080363E+04</pdfrwt>
<pdfrwt beam="2">  1       -1 0.19116953E+00 0.15080363E+04</pdfrwt>
<totfact> 0.13062384E+01</totfact>
</mgrwt>
</event>
<event>
12    6  0.1521603E-007  0.3336263E+04  0.7818608E-02  0.8153729E-01
         -1   -1    0    0    0  501 -0.00000000000E+00  0.00000000000E+00  0.28303877224E+04  0.28303877224E+04  0.00000000000E+00 0.  1.
          2   -1    0    0  501    0  0.00000000000E+00 -0.00000000000E+00 -0.98313821159E+03  0.98313821159E+03  0.00000000000E+00 0. -1.
         24    2    1    2    0    0 -0.80153539644E+03 -0.86804063006E+03 -0.27741403330E+03  0.12161993957E+04  0.78923362675E+02 0.  0.
        254    2    1    2    0    0  0.80153539644E+03  0.86804063006E+03  0.21246635441E+04  0.25973265382E+04  0.91430653690E+03 0.  0.
         23    2    4    4    0    0  0.66587354627E+03  0.99349231485E+03  0.20548172617E+04  0.23794222921E+04  0.94667342022E+02 0.  0.
         23    2    4    4    0    0  0.13566185017E+03 -0.12545168480E+03  0.69846282381E+02  0.21790424617E+03  0.91986382283E+02 0.  0.
          2    1    3    3  502    0 -0.61465908561E+03 -0.61428039315E+03 -0.20317544296E+03  0.89242728195E+03  0.00000000000E+00 0. -1.
         -1    1    3    3    0  502 -0.18687631083E+03 -0.25376023690E+03 -0.74238590332E+02  0.32377211380E+03  0.00000000000E+00 0.  1.
         11    1    5    5    0    0  0.33555314662E+03  0.41619355399E+03  0.91897776156E+03  0.10631712538E+04  0.00000000000E+00 0.  1.
        -11    1    5    5    0    0  0.33032039965E+03  0.57729876086E+03  0.11358395002E+04  0.13162510383E+04  0.00000000000E+00 0. -1.
          3    1    6    6  503    0  0.10932051872E+03 -0.41384275888E+02  0.27138893089E+02  0.12000064009E+03  0.00000000000E+00 0. -1.
         -3    1    6    6    0  503  0.26341331452E+02 -0.84067408908E+02  0.42707389292E+02  0.97903606079E+02  0.00000000000E+00 0.  1.
<mgrwt>
<rscale>  0 0.33362628E+04</rscale>
<asrwt>0</asrwt>
<pdfrwt beam="1">  1        2 0.15125203E+00 0.33362628E+04</pdfrwt>
<pdfrwt beam="2">  1       -1 0.43544426E+00 0.33362628E+04</pdfrwt>
<totfact> 0.99863619E-02</totfact>
</mgrwt>
</event>
<event>
12    6  0.1521603E-007  0.1454083E+04  0.7818608E-02  0.8915575E-01
         -1   -1    0    0    0  501 -0.00000000000E+00  0.00000000000E+00  0.40259900744E+03  0.40259900744E+03  0.00000000000E+00 0.  1.
          2   -1    0    0  501    0  0.00000000000E+00 -0.00000000000E+00 -0.13129422217E+04  0.13129422217E+04  0.00000000000E+00 0. -1.
         24    2    1    2    0    0  0.70967869883E+02  0.20460407152E+03  0.17440208497E+03  0.28932536228E+03  0.79961324270E+02 0.  0.
        254    2    1    2    0    0 -0.70967869883E+02 -0.20460407152E+03 -0.10847452992E+04  0.14262158668E+04  0.90028888144E+03 0.  0.
         23    2    4    4    0    0 -0.47677081982E+03 -0.11219051280E+03 -0.64180822511E+03  0.81244492466E+03  0.90839594889E+02 0.  0.
         23    2    4    4    0    0  0.40580294993E+03 -0.92413558721E+02 -0.44293707409E+03  0.61377094217E+03  0.85470567111E+02 0.  0.
          4    1    3    3  502    0 -0.10941575836E+02  0.38030136861E+02  0.87359124857E+01  0.40525616077E+02  0.00000000000E+00 0. -1.
         -3    1    3    3    0  502  0.81909445719E+02  0.16657393466E+03  0.16566617249E+03  0.24879974621E+03  0.00000000000E+00 0.  1.
         11    1    5    5    0    0 -0.18289671055E+03 -0.15071200050E+02 -0.18435890458E+03  0.26012795601E+03  0.00000000000E+00 0. -1.
        -11    1    5    5    0    0 -0.29387410927E+03 -0.97119312751E+02 -0.45744932053E+03  0.55231696865E+03  0.00000000000E+00 0.  1.
          3    1    6    6  503    0  0.11419586690E+03 -0.64724226124E+02 -0.15358929912E+03  0.20203859599E+03  0.00000000000E+00 0. -1.
         -3    1    6    6    0  503  0.29160708304E+03 -0.27689332597E+02 -0.28934777497E+03  0.41173234619E+03  0.00000000000E+00 0.  1.
<mgrwt>
<rscale>  0 0.14540829E+04</rscale>
<asrwt>0</asrwt>
<pdfrwt beam="1">  1        2 0.20199111E+00 0.14540829E+04</pdfrwt>
<pdfrwt beam="2">  1       -1 0.61938308E-01 0.14540829E+04</pdfrwt>
<totfact> 0.47468528E+01</totfact>
</mgrwt>
</event>
<event>
12    6  0.1521603E-007  0.3053144E+04  0.7818608E-02  0.8228716E-01
          2   -1    0    0  501    0  0.00000000000E+00  0.00000000000E+00  0.25575275088E+04  0.25575275088E+04  0.00000000000E+00 0. -1.
         -1   -1    0    0    0  501 -0.00000000000E+00 -0.00000000000E+00 -0.91120108136E+03  0.91120108136E+03  0.00000000000E+00 0.  1.
         24    2    1    2    0    0 -0.30563238368E+03 -0.10685658639E+04  0.17020783800E+04  0.20349200616E+04  0.92653579605E+02 0.  0.
        254    2    1    2    0    0  0.30563238368E+03  0.10685658639E+04 -0.55751952578E+02  0.14338085286E+04  0.90413188021E+03 0.  0.
         23    2    4    4    0    0 -0.23125982780E+03  0.75741248705E+03 -0.10754981434E+03  0.80439887238E+03  0.91300601548E+02 0.  0.
         23    2    4    4    0    0  0.53689221148E+03  0.31115337690E+03  0.51797861762E+02  0.62940965618E+03  0.91672384635E+02 0.  0.
          2    1    3    3  502    0 -0.14215958857E+03 -0.49442951844E+03  0.87259290391E+03  0.10129601538E+04  0.00000000000E+00 0. -1.
         -1    1    3    3    0  502 -0.16347279511E+03 -0.57413634551E+03  0.82948547613E+03  0.10219599078E+04  0.00000000000E+00 0.  1.
         11    1    5    5    0    0 -0.21288107019E+03  0.59224064494E+03 -0.63923200214E+02  0.63257687840E+03  0.00000000000E+00 0. -1.
        -11    1    5    5    0    0 -0.18378757609E+02  0.16517184211E+03 -0.43626614125E+02  0.17182199398E+03  0.00000000000E+00 0.  1.
          1    1    6    6  503    0  0.33797104360E+02 -0.85106386946E+00 -0.69419501919E+01  0.34513174952E+02  0.00000000000E+00 0.  1.
         -1    1    6    6    0  503  0.50309510712E+03  0.31200444077E+03  0.58739811954E+02  0.59489648123E+03  0.00000000000E+00 0. -1.
<mgrwt>
<rscale>  0 0.30531438E+04</rscale>
<asrwt>0</asrwt>
<pdfrwt beam="1">  1        2 0.39346577E+00 0.30531438E+04</pdfrwt>
<pdfrwt beam="2">  1       -1 0.14018478E+00 0.30531438E+04</pdfrwt>
<totfact> 0.13036023E+00</totfact>
</mgrwt>
</event>
<event>
12    6  0.1521603E-007  0.4365528E+04  0.7818608E-02  0.7934611E-01
         -1   -1    0    0    0  501 -0.00000000000E+00  0.00000000000E+00  0.42417562978E+04  0.42417562978E+04  0.00000000000E+00 0.  1.
          2   -1    0    0  501    0  0.00000000000E+00 -0.00000000000E+00 -0.11232276690E+04  0.11232276690E+04  0.00000000000E+00 0. -1.
         24    2    1    2    0    0  0.17133663252E+04 -0.24967835638E+03  0.62335907434E+02  0.17344607649E+04  0.80653170495E+02 0.  0.
        254    2    1    2    0    0 -0.17133663252E+04  0.24967835638E+03  0.30561927214E+04  0.36305232019E+04  0.91783512866E+03 0.  0.
         23    2    4    4    0    0 -0.94970929825E+03  0.60174858445E+02  0.24565063957E+04  0.26360423784E+04  0.93418325024E+02 0.  0.
         23    2    4    4    0    0 -0.76365702692E+03  0.18950349794E+03  0.59968632565E+03  0.99448082353E+03  0.10141394734E+03 0.  0.
          4    1    3    3  502    0  0.13905588576E+04 -0.17278092648E+03  0.61941805904E+02  0.14026203950E+04  0.00000000000E+00 0. -1.
         -3    1    3    3    0  502  0.32280746755E+03 -0.76897429903E+02  0.39410152975E+00  0.33184036998E+03  0.00000000000E+00 0.  1.
         11    1    5    5    0    0 -0.93627954743E+03  0.56431896076E+02  0.24418944614E+04  0.26158464234E+04  0.00000000000E+00 0.  1.
        -11    1    5    5    0    0 -0.13429750820E+02  0.37429623689E+01  0.14611934314E+02  0.20195955010E+02  0.00000000000E+00 0. -1.
          2    1    6    6  503    0 -0.31635719639E+03  0.37935928508E+02  0.28003624324E+03  0.42419489378E+03  0.00000000000E+00 0. -1.
         -2    1    6    6    0  503 -0.44729983053E+03  0.15156756943E+03  0.31965008240E+03  0.57028592975E+03  0.00000000000E+00 0.  1.
<mgrwt>
<rscale>  0 0.43655277E+04</rscale>
<asrwt>0</asrwt>
<pdfrwt beam="1">  1        2 0.17280426E+00 0.43655277E+04</pdfrwt>
<pdfrwt beam="2">  1       -1 0.65257788E+00 0.43655277E+04</pdfrwt>
<totfact> 0.53064419E-03</totfact>
</mgrwt>
</event>
<event>
12    6  0.1521603E-007  0.2758432E+04  0.7818608E-02  0.8316291E-01
         -1   -1    0    0    0  501 -0.00000000000E+00  0.00000000000E+00  0.65718078852E+03  0.65718078852E+03  0.00000000000E+00 0.  1.
          2   -1    0    0  501    0  0.00000000000E+00 -0.00000000000E+00 -0.28945412688E+04  0.28945412688E+04  0.00000000000E+00 0. -1.
         24    2    1    2    0    0 -0.15377202331E+03 -0.99256624040E+03 -0.85916231523E+02  0.10113156411E+04  0.80895923315E+02 0.  0.
        254    2    1    2    0    0  0.15377202331E+03  0.99256624040E+03 -0.21514442487E+04  0.25404064162E+04  0.90339295281E+03 0.  0.
         23    2    4    4    0    0  0.10347186566E+03  0.87452782461E+03 -0.84263227970E+03  0.12221993106E+04  0.90756008279E+02 0.  0.
         23    2    4    4    0    0  0.50300157653E+02  0.11803841579E+03 -0.13088119690E+04  0.13182071056E+04  0.90653347629E+02 0.  0.
          4    1    3    3  502    0 -0.89129245925E+02 -0.52079577558E+03 -0.84841566277E+02  0.53513582734E+03  0.00000000000E+00 0. -1.
         -3    1    3    3    0  502 -0.64642777387E+02 -0.47177046482E+03 -0.10746652466E+01  0.47617981378E+03  0.00000000000E+00 0.  1.
         11    1    5    5    0    0  0.78901102176E+02  0.38899756650E+03 -0.42200278303E+03  0.57933655119E+03  0.00000000000E+00 0.  1.
        -11    1    5    5    0    0  0.24570763484E+02  0.48553025811E+03 -0.42062949667E+03  0.64286275940E+03  0.00000000000E+00 0. -1.
          1    1    6    6  503    0  0.71211977586E+02  0.86594411724E+02 -0.11239248392E+04  0.11295028916E+04  0.00000000000E+00 0. -1.
         -1    1    6    6    0  503 -0.20911819933E+02  0.31444004066E+02 -0.18488712983E+03  0.18870421400E+03  0.00000000000E+00 0.  1.
<mgrwt>
<rscale>  0 0.27584321E+04</rscale>
<asrwt>0</asrwt>
<pdfrwt beam="1">  1        2 0.44531404E+00 0.27584321E+04</pdfrwt>
<pdfrwt beam="2">  1       -1 0.10110474E+00 0.27584321E+04</pdfrwt>
<totfact> 0.18667444E+00</totfact>
</mgrwt>
</event>
<event>
12    6  0.1521603E-007  0.1438570E+04  0.7818608E-02  0.8926364E-01
         -1   -1    0    0    0  501 -0.00000000000E+00  0.00000000000E+00  0.27915641033E+03  0.27915641033E+03  0.00000000000E+00 0.  1.
          2   -1    0    0  501    0  0.00000000000E+00 -0.00000000000E+00 -0.18533360864E+04  0.18533360864E+04  0.00000000000E+00 0. -1.
         24    2    1    2    0    0 -0.16810074872E+03 -0.38341256299E+03 -0.73135389299E+03  0.84508140650E+03  0.63411447242E+02 0.  0.
        254    2    1    2    0    0  0.16810074872E+03  0.38341256299E+03 -0.84282578307E+03  0.12874110902E+04  0.87852658438E+03 0.  0.
         23    2    4    4    0    0 -0.29564439981E+03  0.25201938559E+03 -0.64524759445E+03  0.75854159168E+03  0.90119400286E+02 0.  0.
         23    2    4    4    0    0  0.46374514853E+03  0.13139317739E+03 -0.19757818862E+03  0.52886949855E+03  0.91334966059E+02 0.  0.
          4    1    3    3  502    0 -0.83051660282E+02 -0.25757601942E+03 -0.49448932951E+03  0.56370442703E+03  0.00000000000E+00 0. -1.
         -3    1    3    3    0  502 -0.85049088442E+02 -0.12583654356E+03 -0.23686456348E+03  0.28137697947E+03  0.00000000000E+00 0.  1.
         11    1    5    5    0    0 -0.15187682416E+01 -0.60998198176E+01 -0.19677970409E+02  0.20657613081E+02  0.00000000000E+00 0.  1.
        -11    1    5    5    0    0 -0.29412563157E+03  0.25811920541E+03 -0.62556962404E+03  0.73788397860E+03  0.00000000000E+00 0. -1.
          3    1    6    6  503    0  0.31873884368E+03  0.47485627779E+02 -0.14410805745E+03  0.35301057709E+03  0.00000000000E+00 0. -1.
         -3    1    6    6    0  503  0.14500630485E+03  0.83907549615E+02 -0.53470131171E+02  0.17585892146E+03  0.00000000000E+00 0.  1.
<mgrwt>
<rscale>  0 0.14385696E+04</rscale>
<asrwt>0</asrwt>
<pdfrwt beam="1">  1        2 0.28512861E+00 0.14385696E+04</pdfrwt>
<pdfrwt beam="2">  1       -1 0.42947142E-01 0.14385696E+04</pdfrwt>
<totfact> 0.47618507E+01</totfact>
</mgrwt>
</event>
<event>
12    6  0.1521603E-007  0.1341052E+04  0.7818608E-02  0.8997630E-01
          2   -1    0    0  501    0  0.00000000000E+00  0.00000000000E+00  0.24455935447E+04  0.24455935447E+04  0.00000000000E+00 0. -1.
         -1   -1    0    0    0  501 -0.00000000000E+00 -0.00000000000E+00 -0.18384287324E+03  0.18384287324E+03  0.00000000000E+00 0.  1.
         24    2    1    2    0    0 -0.20489748820E+03 -0.22009349197E+03  0.10241299349E+04  0.10708579717E+04  0.86432320514E+02 0.  0.
        254    2    1    2    0    0  0.20489748820E+03  0.22009349197E+03  0.12376207365E+04  0.15585784462E+04  0.89835269230E+03 0.  0.
         23    2    4    4    0    0  0.46664182869E+03  0.39582780572E+03  0.84997374473E+03  0.10515538185E+04  0.94211561537E+02 0.  0.
         23    2    4    4    0    0 -0.26174434049E+03 -0.17573431375E+03  0.38764699176E+03  0.50702462776E+03  0.86087944156E+02 0.  0.
          4    1    3    3  502    0 -0.17558424263E+03 -0.15876696092E+03  0.88348900826E+03  0.91465272200E+03  0.00000000000E+00 0. -1.
         -3    1    3    3    0  502 -0.29313245573E+02 -0.61326531051E+02  0.14064092668E+03  0.15620524970E+03  0.00000000000E+00 0.  1.
         11    1    5    5    0    0  0.33140598151E+03  0.32184357853E+03  0.59038033445E+03  0.74964134953E+03  0.00000000000E+00 0.  1.
        -11    1    5    5    0    0  0.13523584718E+03  0.73984227191E+02  0.25959341027E+03  0.30191246893E+03  0.00000000000E+00 0. -1.
          1    1    6    6  503    0 -0.25877083890E+03 -0.18412970172E+03  0.38033976707E+03  0.49550422050E+03  0.00000000000E+00 0.  1.
         -1    1    6    6    0  503 -0.29735015857E+01  0.83953879642E+01  0.73072246860E+01  0.11520407257E+02  0.00000000000E+00 0. -1.
<mgrwt>
<rscale>  0 0.13410517E+04</rscale>
<asrwt>0</asrwt>
<pdfrwt beam="1">  1        2 0.37624514E+00 0.13410517E+04</pdfrwt>
<pdfrwt beam="2">  1       -1 0.28283521E-01 0.13410517E+04</pdfrwt>
<totfact> 0.47312105E+01</totfact>
</mgrwt>
</event>
<event>
12    6  0.1521603E-007  0.1976025E+04  0.7818608E-02  0.8617912E-01
          2   -1    0    0  501    0  0.00000000000E+00  0.00000000000E+00  0.20628064425E+04  0.20628064425E+04  0.00000000000E+00 0. -1.
         -1   -1    0    0    0  501 -0.00000000000E+00 -0.00000000000E+00 -0.47322378434E+03  0.47322378434E+03  0.00000000000E+00 0.  1.
         24    2    1    2    0    0  0.25081497938E+03 -0.17471430147E+03 -0.29093624691E+03  0.42914554365E+03  0.78030486642E+02 0.  0.
        254    2    1    2    0    0 -0.25081497938E+03  0.17471430147E+03  0.18805189051E+04  0.21068846832E+04  0.89954348141E+03 0.  0.
         23    2    4    4    0    0 -0.16385477927E+03 -0.32679515828E+03  0.45685607688E+03  0.59227598196E+03  0.91814484990E+02 0.  0.
         23    2    4    4    0    0 -0.86960200109E+02  0.50150945975E+03  0.14236628282E+04  0.15146087013E+04  0.90276546617E+02 0.  0.
          4    1    3    3  502    0 -0.40383033185E+01 -0.12589938888E+02 -0.93054557734E+01  0.16168053750E+02  0.00000000000E+00 0. -1.
         -1    1    3    3    0  502  0.25485328270E+03 -0.16212436258E+03 -0.28163079114E+03  0.41297748990E+03  0.00000000000E+00 0.  1.
         11    1    5    5    0    0 -0.71643367152E+00 -0.38515762541E+02  0.18201221356E+02  0.42605888093E+02  0.00000000000E+00 0. -1.
        -11    1    5    5    0    0 -0.16313834560E+03 -0.28827939574E+03  0.43865485552E+03  0.54967009386E+03  0.00000000000E+00 0.  1.
          1    1    6    6  503    0 -0.72775010742E+02  0.32977243722E+03  0.10534321495E+04  0.11062392852E+04  0.00000000000E+00 0. -1.
         -1    1    6    6    0  503 -0.14185189368E+02  0.17173702253E+03  0.37023067874E+03  0.40836941608E+03  0.00000000000E+00 0.  1.
<mgrwt>
<rscale>  0 0.19760254E+04</rscale>
<asrwt>0</asrwt>
<pdfrwt beam="1">  1        2 0.31735483E+00 0.19760254E+04</pdfrwt>
<pdfrwt beam="2">  1       -1 0.72803661E-01 0.19760254E+04</pdfrwt>
<totfact> 0.12426739E+01</totfact>
</mgrwt>
</event>
<event>
12    6  0.1521603E-007  0.1647666E+04  0.7818608E-02  0.8791788E-01
         -1   -1    0    0    0  501 -0.00000000000E+00  0.00000000000E+00  0.43420717786E+03  0.43420717786E+03  0.00000000000E+00 0.  1.
          2   -1    0    0  501    0  0.00000000000E+00 -0.00000000000E+00 -0.15630805814E+04  0.15630805814E+04  0.00000000000E+00 0. -1.
         24    2    1    2    0    0  0.82481178312E+02  0.11829637220E+03  0.27830301113E+03  0.31761089025E+03  0.51253635486E+02 0.  0.
        254    2    1    2    0    0 -0.82481178312E+02 -0.11829637220E+03 -0.14071764147E+04  0.16796768691E+04  0.90574375289E+03 0.  0.
         23    2    4    4    0    0 -0.36178488105E+03 -0.10007352910E+03 -0.13160268128E+04  0.13715114881E+04  0.90632106916E+02 0.  0.
         23    2    4    4    0    0  0.27930370274E+03 -0.18222843101E+02 -0.91149601935E+02  0.30816538091E+03  0.91186740744E+02 0.  0.
          2    1    3    3  502    0  0.38890614980E+02  0.38119108561E+02  0.60154716114E+02  0.81142690625E+02  0.00000000000E+00 0. -1.
         -1    1    3    3    0  502  0.43590563332E+02  0.80177263635E+02  0.21814829501E+03  0.23646819962E+03  0.00000000000E+00 0.  1.
         11    1    5    5    0    0 -0.25614218306E+03 -0.27169980385E+02 -0.85619351125E+03  0.89409974527E+03  0.00000000000E+00 0.  1.
        -11    1    5    5    0    0 -0.10564269799E+03 -0.72903548711E+02 -0.45983330152E+03  0.47741174288E+03  0.00000000000E+00 0. -1.
          1    1    6    6  503    0  0.12441869067E+03 -0.36717880627E+02 -0.78595755600E+02  0.15167566101E+03  0.00000000000E+00 0. -1.
         -1    1    6    6    0  503  0.15488501207E+03  0.18495037527E+02 -0.12553846335E+02  0.15648971990E+03  0.00000000000E+00 0.  1.
<mgrwt>
<rscale>  0 0.16476660E+04</rscale>
<asrwt>0</asrwt>
<pdfrwt beam="1">  1        2 0.24047394E+00 0.16476660E+04</pdfrwt>
<pdfrwt beam="2">  1       -1 0.66801104E-01 0.16476660E+04</pdfrwt>
<totfact> 0.28907330E+01</totfact>
</mgrwt>
</event>
<event>
12    6  0.1521603E-007  0.1682392E+04  0.7818608E-02  0.8771471E-01
          2   -1    0    0  501    0  0.00000000000E+00  0.00000000000E+00  0.56569141447E+03  0.56569141447E+03  0.00000000000E+00 0. -1.
         -3   -1    0    0    0  501 -0.00000000000E+00 -0.00000000000E+00 -0.12508774145E+04  0.12508774145E+04  0.00000000000E+00 0.  1.
         24    2    1    2    0    0 -0.33395977289E+03 -0.14875230087E+03  0.26287649021E+03  0.45794474453E+03  0.83384429090E+02 0.  0.
        254    2    1    2    0    0  0.33395977289E+03  0.14875230087E+03 -0.94806249028E+03  0.13586240845E+04  0.90187612259E+03 0.  0.
         23    2    4    4    0    0  0.40221252109E+03  0.52545322616E+01 -0.10648928831E+04  0.11416930087E+04  0.87541711831E+02 0.  0.
         23    2    4    4    0    0 -0.68252748201E+02  0.14349776861E+03  0.11683039283E+03  0.21693107580E+03  0.90331078404E+02 0.  0.
          4    1    3    3  502    0 -0.29281445512E+03 -0.96609877714E+02  0.21022758070E+03  0.37318816874E+03  0.00000000000E+00 0. -1.
         -3    1    3    3    0  502 -0.41145317763E+02 -0.52142423157E+02  0.52648909515E+02  0.84756575789E+02  0.00000000000E+00 0.  1.
         11    1    5    5    0    0 -0.27268664362E+01 -0.21999582617E+01 -0.15500625289E+01  0.38312283615E+01  0.00000000000E+00 0.  1.
        -11    1    5    5    0    0  0.40493938752E+03  0.74544905232E+01 -0.10633428206E+04  0.11378617803E+04  0.00000000000E+00 0. -1.
          4    1    6    6  503    0 -0.56332822967E+02  0.15341737550E+03  0.11769250030E+03  0.20139960942E+03  0.00000000000E+00 0. -1.
         -4    1    6    6    0  503 -0.11919925234E+02 -0.99196068939E+01 -0.86210746580E+00  0.15531466376E+02  0.00000000000E+00 0.  1.
<mgrwt>
<rscale>  0 0.16823919E+04</rscale>
<asrwt>0</asrwt>
<pdfrwt beam="1">  1        2 0.87029448E-01 0.16823919E+04</pdfrwt>
<pdfrwt beam="2">  1       -3 0.19244268E+00 0.16823919E+04</pdfrwt>
<totfact> 0.52031871E+00</totfact>
</mgrwt>
</event>
<event>
12    6  0.1521603E-007  0.1196931E+04  0.7818608E-02  0.9115547E-01
          2   -1    0    0  501    0  0.00000000000E+00  0.00000000000E+00  0.16720514769E+04  0.16720514769E+04  0.00000000000E+00 0. -1.
         -1   -1    0    0    0  501 -0.00000000000E+00 -0.00000000000E+00 -0.21420464466E+03  0.21420464466E+03  0.00000000000E+00 0.  1.
         24    2    1    2    0    0  0.31062701414E+03 -0.16796883870E+02  0.30362493381E+03  0.44203917084E+03  0.80244943201E+02 0.  0.
        254    2    1    2    0    0 -0.31062701414E+03  0.16796883870E+02  0.11542218984E+04  0.14442169507E+04  0.81040923780E+03 0.  0.
         23    2    4    4    0    0 -0.21862642655E+03 -0.11387590951E+03  0.12198103666E+04  0.12487158167E+04  0.10290103649E+03 0.  0.
         23    2    4    4    0    0 -0.92000587584E+02  0.13067279338E+03 -0.65588468175E+02  0.19550113399E+03  0.91538839777E+02 0.  0.
          2    1    3    3  502    0  0.29844349573E+02 -0.35847390466E+01  0.25890296920E+01  0.30170161256E+02  0.00000000000E+00 0. -1.
         -1    1    3    3    0  502  0.28078266456E+03 -0.13212144824E+02  0.30103590411E+03  0.41186900958E+03  0.00000000000E+00 0.  1.
         11    1    5    5    0    0 -0.14927243658E+03 -0.51413378089E+02  0.95444902416E+03  0.96741849036E+03  0.00000000000E+00 0. -1.
        -11    1    5    5    0    0 -0.69353989969E+02 -0.62462531426E+02  0.26536134244E+03  0.28129732636E+03  0.00000000000E+00 0.  1.
          1    1    6    6  503    0 -0.48096137955E+02  0.25960005186E+02 -0.60943938076E+02  0.81861614592E+02  0.00000000000E+00 0. -1.
         -1    1    6    6    0  503 -0.43904449629E+02  0.10471278820E+03 -0.46445300996E+01  0.11363951940E+03  0.00000000000E+00 0.  1.
<mgrwt>
<rscale>  0 0.11969314E+04</rscale>
<asrwt>0</asrwt>
<pdfrwt beam="1">  1        2 0.25723868E+00 0.11969314E+04</pdfrwt>
<pdfrwt beam="2">  1       -1 0.32954562E-01 0.11969314E+04</pdfrwt>
<totfact> 0.98751789E+01</totfact>
</mgrwt>
</event>
<event>
12    6  0.1521603E-007  0.2898052E+04  0.7818608E-02  0.8273457E-01
          2   -1    0    0  501    0  0.00000000000E+00  0.00000000000E+00  0.17988678426E+04  0.17988678426E+04  0.00000000000E+00 0. -1.
         -1   -1    0    0    0  501 -0.00000000000E+00 -0.00000000000E+00 -0.11672209770E+04  0.11672209770E+04  0.00000000000E+00 0.  1.
         24    2    1    2    0    0  0.10506489032E+03 -0.47345350314E+03 -0.95931162041E+03  0.10782750040E+04  0.84860759010E+02 0.  0.
        254    2    1    2    0    0 -0.10506489032E+03  0.47345350314E+03  0.15909584860E+04  0.18878138156E+04  0.89302589400E+03 0.  0.
         23    2    4    4    0    0 -0.12993614733E+03  0.34208103612E+03  0.10272087975E+03  0.39071843835E+03  0.90589631143E+02 0.  0.
         23    2    4    4    0    0  0.24871257013E+02  0.13137246702E+03  0.14882376063E+04  0.14970953772E+04  0.92553181437E+02 0.  0.
          4    1    3    3  502    0  0.16910267924E+02 -0.19192488202E+02 -0.88887920216E+02  0.92495249202E+02  0.00000000000E+00 0. -1.
         -3    1    3    3    0  502  0.88154622392E+02 -0.45426101494E+03 -0.87042370020E+03  0.98577975482E+03  0.00000000000E+00 0.  1.
         11    1    5    5    0    0 -0.13543026498E+03  0.33788899600E+03  0.11039515641E+03  0.38039114192E+03  0.00000000000E+00 0. -1.
        -11    1    5    5    0    0  0.54941176557E+01  0.41920401219E+01 -0.76742766625E+01  0.10327296427E+02  0.00000000000E+00 0.  1.
          3    1    6    6  503    0 -0.28795893703E+02  0.59390733987E+02  0.85213200020E+03  0.85468439119E+03  0.00000000000E+00 0. -1.
         -3    1    6    6    0  503  0.53667150716E+02  0.71981733033E+02  0.63610560605E+03  0.64241098606E+03  0.00000000000E+00 0.  1.
<mgrwt>
<rscale>  0 0.28980520E+04</rscale>
<asrwt>0</asrwt>
<pdfrwt beam="1">  1        2 0.27674890E+00 0.28980520E+04</pdfrwt>
<pdfrwt beam="2">  1       -1 0.17957246E+00 0.28980520E+04</pdfrwt>
<totfact> 0.17792182E+00</totfact>
</mgrwt>
</event>
<event>
12    6  0.1521603E-007  0.1934643E+04  0.7818608E-02  0.8637802E-01
         -1   -1    0    0    0  501 -0.00000000000E+00  0.00000000000E+00  0.67189064994E+03  0.67189064994E+03  0.00000000000E+00 0.  1.
          2   -1    0    0  501    0  0.00000000000E+00 -0.00000000000E+00 -0.13926541421E+04  0.13926541421E+04  0.00000000000E+00 0. -1.
         24    2    1    2    0    0  0.74674621039E+03 -0.11198754771E+03 -0.20436580729E+03  0.78626418402E+03  0.79214078959E+02 0.  0.
        254    2    1    2    0    0 -0.74674621039E+03  0.11198754771E+03 -0.51639768492E+03  0.12782806081E+04  0.89284020429E+03 0.  0.
         23    2    4    4    0    0 -0.26135398815E+02  0.18563448709E+03  0.17614198116E+03  0.27187064829E+03  0.88002443181E+02 0.  0.
         23    2    4    4    0    0 -0.72061081157E+03 -0.73646939384E+02 -0.69253966608E+03  0.10064099598E+04  0.92444602922E+02 0.  0.
          2    1    3    3  502    0  0.65388768679E+02 -0.17445514866E+02 -0.41412767949E+02  0.79341378911E+02  0.00000000000E+00 0. -1.
         -1    1    3    3    0  502  0.68135744171E+03 -0.94542032840E+02 -0.16295303934E+03  0.70692280511E+03  0.00000000000E+00 0.  1.
         11    1    5    5    0    0 -0.70703685759E+01  0.97490907899E+01 -0.95672596006E+01  0.15380745733E+02  0.00000000000E+00 0.  1.
        -11    1    5    5    0    0 -0.19065030239E+02  0.17588539630E+03  0.18570924076E+03  0.25648990256E+03  0.00000000000E+00 0. -1.
          1    1    6    6  503    0 -0.49849124500E+03 -0.91543957965E+02 -0.46246670867E+03  0.68611170680E+03  0.00000000000E+00 0. -1.
         -1    1    6    6    0  503 -0.22211956657E+03  0.17897018580E+02 -0.23007295740E+03  0.32029825297E+03  0.00000000000E+00 0.  1.
<mgrwt>
<rscale>  0 0.19346434E+04</rscale>
<asrwt>0</asrwt>
<pdfrwt beam="1">  1        2 0.21425448E+00 0.19346434E+04</pdfrwt>
<pdfrwt beam="2">  1       -1 0.10336779E+00 0.19346434E+04</pdfrwt>
<totfact> 0.13733387E+01</totfact>
</mgrwt>
</event>
<event>
12    6  0.1521603E-007  0.1439875E+04  0.7818608E-02  0.8925450E-01
          2   -1    0    0  501    0  0.00000000000E+00  0.00000000000E+00  0.14361361002E+04  0.14361361002E+04  0.00000000000E+00 0. -1.
         -1   -1    0    0    0  501 -0.00000000000E+00 -0.00000000000E+00 -0.36090574034E+03  0.36090574034E+03  0.00000000000E+00 0.  1.
         24    2    1    2    0    0 -0.22205719471E+02  0.15498837781E+03  0.84166641506E+03  0.85966849423E+03  0.78186152787E+02 0.  0.
        254    2    1    2    0    0  0.22205719471E+02 -0.15498837781E+03  0.23356394479E+03  0.93737334631E+03  0.89420477679E+03 0.  0.
         23    2    4    4    0    0 -0.30385047406E+03 -0.35881033264E+03  0.10801295564E+01  0.47894752183E+03  0.91211822622E+02 0.  0.
         23    2    4    4    0    0  0.32605619353E+03  0.20382195483E+03  0.23248381523E+03  0.45842582448E+03  0.90826656825E+02 0.  0.
          4    1    3    3  502    0 -0.37499365997E+02  0.14296163629E+03  0.80179546727E+03  0.81530374906E+03  0.00000000000E+00 0. -1.
         -3    1    3    3    0  502  0.15293646526E+02  0.12026741513E+02  0.39870947796E+02  0.44364745166E+02  0.00000000000E+00 0.  1.
         11    1    5    5    0    0 -0.22603318621E+03 -0.27493777830E+03  0.39843756436E+02  0.35814704820E+03  0.00000000000E+00 0. -1.
        -11    1    5    5    0    0 -0.77817287850E+02 -0.83872554341E+02 -0.38763626880E+02  0.12080047363E+03  0.00000000000E+00 0.  1.
          1    1    6    6  503    0  0.32727416330E+03  0.20952263302E+03  0.23198278823E+03  0.45257499461E+03  0.00000000000E+00 0. -1.
         -1    1    6    6    0  503 -0.12179697651E+01 -0.57006781836E+01  0.50102699933E+00  0.58508298690E+01  0.00000000000E+00 0.  1.
<mgrwt>
<rscale>  0 0.14398747E+04</rscale>
<asrwt>0</asrwt>
<pdfrwt beam="1">  1        2 0.22094401E+00 0.14398747E+04</pdfrwt>
<pdfrwt beam="2">  1       -1 0.55523961E-01 0.14398747E+04</pdfrwt>
<totfact> 0.50052807E+01</totfact>
</mgrwt>
</event>
<event>
12    6  0.1521603E-007  0.2158853E+04  0.7818608E-02  0.8535752E-01
         -1   -1    0    0    0  501 -0.00000000000E+00  0.00000000000E+00  0.65797628847E+03  0.65797628847E+03  0.00000000000E+00 0.  1.
          2   -1    0    0  501    0  0.00000000000E+00 -0.00000000000E+00 -0.17708254646E+04  0.17708254646E+04  0.00000000000E+00 0. -1.
         24    2    1    2    0    0 -0.46818089553E+02  0.83292580668E+03 -0.81338782156E+03  0.11681801982E+04  0.84189632200E+02 0.  0.
        254    2    1    2    0    0  0.46818089553E+02 -0.83292580668E+03 -0.29946135452E+03  0.12606215549E+04  0.89639961446E+03 0.  0.
         23    2    4    4    0    0  0.37467809242E+03 -0.28262199014E+03 -0.37818352333E+03  0.60861461030E+03  0.84439944951E+02 0.  0.
         23    2    4    4    0    0 -0.32786000287E+03 -0.55030381654E+03  0.78722168805E+02  0.65200694457E+03  0.92679037167E+02 0.  0.
          2    1    3    3  502    0 -0.20237817779E+01  0.43909334248E+03 -0.47671169493E+03  0.64812120717E+03  0.00000000000E+00 0. -1.
         -1    1    3    3    0  502 -0.44794307775E+02  0.39383246419E+03 -0.33667612664E+03  0.52005899099E+03  0.00000000000E+00 0.  1.
         11    1    5    5    0    0  0.17672015088E+03 -0.11114914258E+03 -0.11973827016E+03  0.24066864558E+03  0.00000000000E+00 0.  1.
        -11    1    5    5    0    0  0.19795794154E+03 -0.17147284756E+03 -0.25844525317E+03  0.36794596472E+03  0.00000000000E+00 0. -1.
          3    1    6    6  503    0 -0.32005817023E+03 -0.55200941773E+03  0.73138169811E+02  0.64226226845E+03  0.00000000000E+00 0. -1.
         -3    1    6    6    0  503 -0.78018326317E+01  0.17056011923E+01  0.55839989932E+01  0.97446761155E+01  0.00000000000E+00 0.  1.
<mgrwt>
<rscale>  0 0.21588526E+04</rscale>
<asrwt>0</asrwt>
<pdfrwt beam="1">  1        2 0.27243468E+00 0.21588526E+04</pdfrwt>
<pdfrwt beam="2">  1       -1 0.10122712E+00 0.21588526E+04</pdfrwt>
<totfact> 0.86682066E+00</totfact>
</mgrwt>
</event>
<event>
12    6  0.1521603E-007  0.1325069E+04  0.7818608E-02  0.9009918E-01
          2   -1    0    0  501    0  0.00000000000E+00  0.00000000000E+00  0.13753856395E+04  0.13753856395E+04  0.00000000000E+00 0. -1.
         -1   -1    0    0    0  501 -0.00000000000E+00 -0.00000000000E+00 -0.31914820078E+03  0.31914820078E+03  0.00000000000E+00 0.  1.
         24    2    1    2    0    0 -0.20682857601E+03  0.19745989858E+03  0.27394798565E+02  0.29815255821E+03  0.79849868997E+02 0.  0.
        254    2    1    2    0    0  0.20682857601E+03 -0.19745989858E+03  0.10288426402E+04  0.13963812821E+04  0.89977499150E+03 0.  0.
         23    2    4    4    0    0 -0.18757369297E+03 -0.42559861568E+03  0.59697574214E+03  0.76209934440E+03  0.89985010216E+02 0.  0.
         23    2    4    4    0    0  0.39440226898E+03  0.22813871710E+03  0.43186689803E+03  0.63428193768E+03  0.90576679366E+02 0.  0.
          2    1    3    3  502    0 -0.57211575009E+02  0.16951469861E+02 -0.10706821160E+02  0.60623037410E+02  0.00000000000E+00 0. -1.
         -1    1    3    3    0  502 -0.14961700100E+03  0.18050842872E+03  0.38101619725E+02  0.23752952080E+03  0.00000000000E+00 0.  1.
         11    1    5    5    0    0 -0.13525651821E+03 -0.37887445046E+03  0.48718859680E+03  0.63181714426E+03  0.00000000000E+00 0. -1.
        -11    1    5    5    0    0 -0.52317174765E+02 -0.46724165223E+02  0.10978714534E+03  0.13028220014E+03  0.00000000000E+00 0.  1.
          4    1    6    6  503    0  0.17966778544E+03  0.15272804591E+03  0.19747892300E+03  0.30757811067E+03  0.00000000000E+00 0. -1.
         -4    1    6    6    0  503  0.21473448354E+03  0.75410671191E+02  0.23438797503E+03  0.32670382702E+03  0.00000000000E+00 0.  1.
<mgrwt>
<rscale>  0 0.13250688E+04</rscale>
<asrwt>0</asrwt>
<pdfrwt beam="1">  1        2 0.21159779E+00 0.13250688E+04</pdfrwt>
<pdfrwt beam="2">  1       -1 0.49099724E-01 0.13250688E+04</pdfrwt>
<totfact> 0.69254838E+01</totfact>
</mgrwt>
</event>
<event>
12    6  0.1521603E-007  0.1345856E+04  0.7818608E-02  0.8993971E-01
         -1   -1    0    0    0  501 -0.00000000000E+00  0.00000000000E+00  0.26895387965E+03  0.26895387965E+03  0.00000000000E+00 0.  1.
          2   -1    0    0  501    0  0.00000000000E+00 -0.00000000000E+00 -0.16836791643E+04  0.16836791643E+04  0.00000000000E+00 0. -1.
         24    2    1    2    0    0  0.64680946532E+02  0.33228571144E+03 -0.19676975224E+03  0.39926726639E+03  0.78093506398E+02 0.  0.
        254    2    1    2    0    0 -0.64680946532E+02 -0.33228571144E+03 -0.12179555324E+04  0.15533657776E+04  0.90273591994E+03 0.  0.
         23    2    4    4    0    0  0.25577446066E+03 -0.34703941173E+03 -0.11236550471E+04  0.12070071288E+04  0.91698507640E+02 0.  0.
         23    2    4    4    0    0 -0.32045540719E+03  0.14753700288E+02 -0.94300485393E+02  0.34635864876E+03  0.90345959261E+02 0.  0.
          2    1    3    3  502    0  0.27615682316E+02  0.39462887112E+02 -0.50735241401E+02  0.69957201838E+02  0.00000000000E+00 0. -1.
         -1    1    3    3    0  502  0.37065264217E+02  0.29282282433E+03 -0.14603451084E+03  0.32931006455E+03  0.00000000000E+00 0.  1.
         11    1    5    5    0    0  0.24780544205E+03 -0.33639031881E+03 -0.11160321562E+04  0.11916768678E+04  0.00000000000E+00 0.  1.
        -11    1    5    5    0    0  0.79690186064E+01 -0.10649092918E+02 -0.76228908730E+01  0.15330261015E+02  0.00000000000E+00 0. -1.
          1    1    6    6  503    0 -0.87827928141E+01  0.86380734109E+01 -0.23731387955E+02  0.26738222382E+02  0.00000000000E+00 0. -1.
         -1    1    6    6    0  503 -0.31167261438E+03  0.61156268773E+01 -0.70569097438E+02  0.31962042638E+03  0.00000000000E+00 0.  1.
<mgrwt>
<rscale>  0 0.13458559E+04</rscale>
<asrwt>0</asrwt>
<pdfrwt beam="1">  1        2 0.25902756E+00 0.13458559E+04</pdfrwt>
<pdfrwt beam="2">  1       -1 0.41377521E-01 0.13458559E+04</pdfrwt>
<totfact> 0.63794435E+01</totfact>
</mgrwt>
</event>
<event>
12    6  0.1521603E-007  0.2105389E+04  0.7818608E-02  0.8558873E-01
          2   -1    0    0  501    0  0.00000000000E+00  0.00000000000E+00  0.35535050218E+04  0.35535050218E+04  0.00000000000E+00 0. -1.
         -1   -1    0    0    0  501 -0.00000000000E+00 -0.00000000000E+00 -0.31185138855E+03  0.31185138855E+03  0.00000000000E+00 0.  1.
         24    2    1    2    0    0  0.59990283494E+03  0.26909949852E+03  0.23197927114E+04  0.24125065443E+04  0.80322169710E+02 0.  0.
        254    2    1    2    0    0 -0.59990283494E+03 -0.26909949852E+03  0.92186092181E+03  0.14528498660E+04  0.91030062207E+03 0.  0.
         23    2    4    4    0    0 -0.16184271866E+03  0.12431032586E+03 -0.11826184111E+03  0.25387160172E+03  0.93908489495E+02 0.  0.
         23    2    4    4    0    0 -0.43806011628E+03 -0.39340982438E+03  0.10401227629E+04  0.11989782643E+04  0.95002952036E+02 0.  0.
          2    1    3    3  502    0  0.58235391033E+03  0.24525387048E+03  0.22390794607E+04  0.23265344117E+04  0.00000000000E+00 0. -1.
         -1    1    3    3    0  502  0.17548924605E+02  0.23845628047E+02  0.80713250787E+02  0.85972132603E+02  0.00000000000E+00 0.  1.
         11    1    5    5    0    0 -0.13782087974E+02  0.23545005469E+02  0.14535384958E+02  0.30912629253E+02  0.00000000000E+00 0.  1.
        -11    1    5    5    0    0 -0.14806063068E+03  0.10076532039E+03 -0.13279722607E+03  0.22295897247E+03  0.00000000000E+00 0. -1.
          4    1    6    6  503    0 -0.12990253239E+03 -0.15037022141E+03  0.27770697998E+03  0.34147772715E+03  0.00000000000E+00 0. -1.
         -4    1    6    6    0  503 -0.30815758389E+03 -0.24303960298E+03  0.76241578294E+03  0.85750053715E+03  0.00000000000E+00 0.  1.
<mgrwt>
<rscale>  0 0.21053888E+04</rscale>
<asrwt>0</asrwt>
<pdfrwt beam="1">  1        2 0.54669305E+00 0.21053888E+04</pdfrwt>
<pdfrwt beam="2">  1       -1 0.47977139E-01 0.21053888E+04</pdfrwt>
<totfact> 0.34084007E+00</totfact>
</mgrwt>
</event>
<event>
12    6  0.1521603E-007  0.1648536E+04  0.7818608E-02  0.8791273E-01
          2   -1    0    0  501    0  0.00000000000E+00  0.00000000000E+00  0.34205612690E+03  0.34205612690E+03  0.00000000000E+00 0. -1.
         -1   -1    0    0    0  501 -0.00000000000E+00 -0.00000000000E+00 -0.19862754984E+04  0.19862754984E+04  0.00000000000E+00 0.  1.
         24    2    1    2    0    0 -0.23866490170E+03  0.65115984175E+02 -0.13310879645E+04  0.13565699479E+04  0.85357058843E+02 0.  0.
        254    2    1    2    0    0  0.23866490170E+03 -0.65115984175E+02 -0.31313140695E+03  0.97176167740E+03  0.88604088672E+03 0.  0.
         23    2    4    4    0    0 -0.19243986703E+03 -0.30336584109E+03 -0.28858096071E+03  0.46993760122E+03  0.92186995768E+02 0.  0.
         23    2    4    4    0    0  0.43110476873E+03  0.23824985692E+03 -0.24550446238E+02  0.50182407618E+03  0.92792042150E+02 0.  0.
          4    1    3    3  502    0 -0.62006923921E+02  0.45323734526E+02 -0.27070018938E+03  0.28138530888E+03  0.00000000000E+00 0. -1.
         -3    1    3    3    0  502 -0.17665797777E+03  0.19792249649E+02 -0.10603877751E+04  0.10751846390E+04  0.00000000000E+00 0.  1.
         11    1    5    5    0    0 -0.48249566511E+02 -0.15975339015E+03 -0.14226598921E+03  0.21929153658E+03  0.00000000000E+00 0. -1.
        -11    1    5    5    0    0 -0.14419030052E+03 -0.14361245095E+03 -0.14631497150E+03  0.25064606463E+03  0.00000000000E+00 0.  1.
          2    1    6    6  503    0  0.10883083296E+03  0.61434384188E+02 -0.47067069599E+02  0.13354266286E+03  0.00000000000E+00 0. -1.
         -2    1    6    6    0  503  0.32227393576E+03  0.17681547273E+03  0.22516623361E+02  0.36828141332E+03  0.00000000000E+00 0.  1.
<mgrwt>
<rscale>  0 0.16485360E+04</rscale>
<asrwt>0</asrwt>
<pdfrwt beam="1">  1        2 0.52624020E-01 0.16485360E+04</pdfrwt>
<pdfrwt beam="2">  1       -1 0.30558084E+00 0.16485360E+04</pdfrwt>
<totfact> 0.31552245E+00</totfact>
</mgrwt>
</event>
<event>
12    6  0.1521603E-007  0.1747471E+04  0.7818608E-02  0.8734744E-01
         -1   -1    0    0    0  501 -0.00000000000E+00  0.00000000000E+00  0.90996941858E+03  0.90996941858E+03  0.00000000000E+00 0.  1.
          2   -1    0    0  501    0  0.00000000000E+00 -0.00000000000E+00 -0.83894400788E+03  0.83894400788E+03  0.00000000000E+00 0. -1.
         24    2    1    2    0    0 -0.32554667035E+02 -0.51687409190E+03  0.39613513645E+03  0.65677978975E+03  0.78854376374E+02 0.  0.
        254    2    1    2    0    0  0.32554667035E+02  0.51687409190E+03 -0.32510972575E+03  0.10921336367E+04  0.90489828901E+03 0.  0.
         23    2    4    4    0    0  0.23544046007E+03  0.56690052770E+03  0.79823949421E+02  0.62569836839E+03  0.91203984414E+02 0.  0.
         23    2    4    4    0    0 -0.20288579303E+03 -0.50026435792E+02 -0.40493367517E+03  0.46643526832E+03  0.99625744452E+02 0.  0.
          2    1    3    3  502    0  0.13223264160E+02 -0.28596793976E+02  0.11575630527E+02  0.33565258272E+02  0.00000000000E+00 0. -1.
         -1    1    3    3    0  502 -0.45777931195E+02 -0.48827729793E+03  0.38455950592E+03  0.62321453148E+03  0.00000000000E+00 0.  1.
         11    1    5    5    0    0  0.74781727969E+02  0.20542827747E+03 -0.14312133178E+02  0.21908427871E+03  0.00000000000E+00 0.  1.
        -11    1    5    5    0    0  0.16065873210E+03  0.36147225023E+03  0.94136082598E+02  0.40661408969E+03  0.00000000000E+00 0. -1.
          2    1    6    6  503    0 -0.14605196977E+03  0.12108880430E+02 -0.23892604600E+03  0.28029173787E+03  0.00000000000E+00 0. -1.
         -2    1    6    6    0  503 -0.56833823262E+02 -0.62135316223E+02 -0.16600762917E+03  0.18614353045E+03  0.00000000000E+00 0.  1.
<mgrwt>
<rscale>  0 0.17474706E+04</rscale>
<asrwt>0</asrwt>
<pdfrwt beam="1">  1        2 0.12906831E+00 0.17474706E+04</pdfrwt>
<pdfrwt beam="2">  1       -1 0.13999530E+00 0.17474706E+04</pdfrwt>
<totfact> 0.14657804E+01</totfact>
</mgrwt>
</event>
<event>
12    6  0.1521603E-007  0.1996981E+04  0.7818608E-02  0.8608033E-01
         -1   -1    0    0    0  501 -0.00000000000E+00  0.00000000000E+00  0.92789356206E+03  0.92789356206E+03  0.00000000000E+00 0.  1.
          2   -1    0    0  501    0  0.00000000000E+00 -0.00000000000E+00 -0.10744588643E+04  0.10744588643E+04  0.00000000000E+00 0. -1.
         24    2    1    2    0    0  0.45400490761E+03 -0.37895989652E+03 -0.58716496844E+03  0.83720132135E+03  0.80076794388E+02 0.  0.
        254    2    1    2    0    0 -0.45400490761E+03  0.37895989652E+03  0.44059966620E+03  0.11651511050E+04  0.90206317537E+03 0.  0.
         23    2    4    4    0    0 -0.37954885284E+03 -0.12435618377E+03  0.49872914770E+03  0.64543812889E+03  0.91311682305E+02 0.  0.
         23    2    4    4    0    0 -0.74456054772E+02  0.50331608029E+03 -0.58129481498E+02  0.51971297613E+03  0.88610158389E+02 0.  0.
          4    1    3    3  502    0  0.40311914250E+03 -0.30337436786E+03 -0.51520633836E+03  0.72109543141E+03  0.00000000000E+00 0. -1.
         -3    1    3    3    0  502  0.50885765114E+02 -0.75585528663E+02 -0.71958630083E+02  0.11610588994E+03  0.00000000000E+00 0.  1.
         11    1    5    5    0    0 -0.55384878412E+02 -0.32409255189E+02  0.13585037577E+03  0.15024369929E+03  0.00000000000E+00 0. -1.
        -11    1    5    5    0    0 -0.32416397443E+03 -0.91946928581E+02  0.36287877193E+03  0.49519442960E+03  0.00000000000E+00 0.  1.
          4    1    6    6  503    0  0.83777301541E+01  0.24400610732E+03 -0.32141214869E+02  0.24625642015E+03  0.00000000000E+00 0. -1.
         -4    1    6    6    0  503 -0.82833784926E+02  0.25930997297E+03 -0.25988266628E+02  0.27345655598E+03  0.00000000000E+00 0.  1.
<mgrwt>
<rscale>  0 0.19969812E+04</rscale>
<asrwt>0</asrwt>
<pdfrwt beam="1">  1        2 0.16530136E+00 0.19969812E+04</pdfrwt>
<pdfrwt beam="2">  1       -1 0.14275286E+00 0.19969812E+04</pdfrwt>
<totfact> 0.95379034E+00</totfact>
</mgrwt>
</event>
<event>
12    6  0.1521603E-007  0.2139171E+04  0.7818608E-02  0.8544182E-01
          2   -1    0    0  501    0  0.00000000000E+00  0.00000000000E+00  0.25675894217E+04  0.25675894217E+04  0.00000000000E+00 0. -1.
         -1   -1    0    0    0  501 -0.00000000000E+00 -0.00000000000E+00 -0.44555939991E+03  0.44555939991E+03  0.00000000000E+00 0.  1.
         24    2    1    2    0    0  0.61558049597E+03  0.23646132529E+03  0.16961652773E+04  0.18215755618E+04  0.79420236242E+02 0.  0.
        254    2    1    2    0    0 -0.61558049597E+03 -0.23646132529E+03  0.42586474446E+03  0.11915732598E+04  0.89645565844E+03 0.  0.
         23    2    4    4    0    0 -0.20533099693E+03  0.22206001402E+03  0.47081609925E+03  0.56788663437E+03  0.96726222158E+02 0.  0.
         23    2    4    4    0    0 -0.41024949904E+03 -0.45852133931E+03 -0.44951354786E+02  0.62368662545E+03  0.91749182006E+02 0.  0.
          4    1    3    3  502    0  0.21032838127E+03  0.85465406201E+02  0.69049551617E+03  0.72686066166E+03  0.00000000000E+00 0. -1.
         -3    1    3    3    0  502  0.40525211470E+03  0.15099591909E+03  0.10056697611E+04  0.10947149001E+04  0.00000000000E+00 0.  1.
         11    1    5    5    0    0 -0.19832313227E+03  0.22516737529E+03  0.41815661734E+03  0.51467209786E+03  0.00000000000E+00 0.  1.
        -11    1    5    5    0    0 -0.70078646647E+01 -0.31073612668E+01  0.52659481909E+02  0.53214536512E+02  0.00000000000E+00 0. -1.
          2    1    6    6  503    0 -0.47974557307E+02 -0.49493177984E+02 -0.34759534758E+02  0.77196878644E+02  0.00000000000E+00 0. -1.
         -2    1    6    6    0  503 -0.36227494174E+03 -0.40902816132E+03 -0.10191820028E+02  0.54648974680E+03  0.00000000000E+00 0.  1.
<mgrwt>
<rscale>  0 0.21391714E+04</rscale>
<asrwt>0</asrwt>
<pdfrwt beam="1">  1        2 0.39501375E+00 0.21391714E+04</pdfrwt>
<pdfrwt beam="2">  1       -1 0.68547601E-01 0.21391714E+04</pdfrwt>
<totfact> 0.71617261E+00</totfact>
</mgrwt>
</event>
<event>
12    6  0.1521603E-007  0.1533332E+04  0.7818608E-02  0.8862585E-01
         -1   -1    0    0    0  501 -0.00000000000E+00  0.00000000000E+00  0.88409459932E+03  0.88409459932E+03  0.00000000000E+00 0.  1.
          2   -1    0    0  501    0  0.00000000000E+00 -0.00000000000E+00 -0.66483427734E+03  0.66483427734E+03  0.00000000000E+00 0. -1.
         24    2    1    2    0    0 -0.14455869629E+03  0.10110827450E+03 -0.37140043587E+03  0.41868906019E+03  0.79007249776E+02 0.  0.
        254    2    1    2    0    0  0.14455869629E+03 -0.10110827450E+03  0.59066075784E+03  0.11302398165E+04  0.94733405513E+03 0.  0.
         23    2    4    4    0    0  0.73413823155E+01 -0.44869205630E+03  0.58796693412E+03  0.74527412276E+03  0.91378034314E+02 0.  0.
         23    2    4    4    0    0  0.13721731398E+03  0.34758378180E+03  0.26938237183E+01  0.38496569370E+03  0.92456757556E+02 0.  0.
          2    1    3    3  502    0 -0.14571930148E+03  0.10965333172E+03 -0.33651513126E+03  0.38275370873E+03  0.00000000000E+00 0. -1.
         -1    1    3    3    0  502  0.11606051827E+01 -0.85450572190E+01 -0.34885304610E+02  0.35935351467E+02  0.00000000000E+00 0.  1.
         11    1    5    5    0    0  0.38625001703E+02 -0.38361967973E+03  0.48701766655E+03  0.62116194102E+03  0.00000000000E+00 0.  1.
        -11    1    5    5    0    0 -0.31283619388E+02 -0.65072376564E+02  0.10094926757E+03  0.12411218174E+03  0.00000000000E+00 0. -1.
          3    1    6    6  503    0  0.20524176502E+02  0.31894052885E+01 -0.45639484074E+01  0.21266023424E+02  0.00000000000E+00 0. -1.
         -3    1    6    6    0  503  0.11669313748E+03  0.34439437651E+03  0.72577721257E+01  0.36369967028E+03  0.00000000000E+00 0.  1.
<mgrwt>
<rscale>  0 0.15333315E+04</rscale>
<asrwt>0</asrwt>
<pdfrwt beam="1">  1        2 0.10228220E+00 0.15333315E+04</pdfrwt>
<pdfrwt beam="2">  1       -1 0.13601455E+00 0.15333315E+04</pdfrwt>
<totfact> 0.21752139E+01</totfact>
</mgrwt>
</event>
<event>
12    6  0.1521603E-007  0.2677495E+04  0.7818608E-02  0.8342344E-01
         -1   -1    0    0    0  501 -0.00000000000E+00  0.00000000000E+00  0.68521220515E+03  0.68521220515E+03  0.00000000000E+00 0.  1.
          2   -1    0    0  501    0  0.00000000000E+00 -0.00000000000E+00 -0.26156064932E+04  0.26156064932E+04  0.00000000000E+00 0. -1.
         24    2    1    2    0    0 -0.51875485694E+03  0.71004013124E+03 -0.18244721999E+04  0.20268920389E+04  0.79554632443E+02 0.  0.
        254    2    1    2    0    0  0.51875485694E+03 -0.71004013124E+03 -0.10592208811E+03  0.12739266594E+04  0.91564515796E+03 0.  0.
         23    2    4    4    0    0  0.21332210988E+03 -0.69424896421E+03  0.27057606922E+03  0.78039053880E+03  0.91159404084E+02 0.  0.
         23    2    4    4    0    0  0.30543274706E+03 -0.15791167035E+02 -0.37649815733E+03  0.49353612063E+03  0.91041287144E+02 0.  0.
          4    1    3    3  502    0 -0.43550491234E+03  0.57649791702E+03 -0.14291760124E+04  0.16014238825E+04  0.00000000000E+00 0. -1.
         -3    1    3    3    0  502 -0.83249944593E+02  0.13354221422E+03 -0.39529618755E+03  0.42546815644E+03  0.00000000000E+00 0.  1.
         11    1    5    5    0    0  0.57813713390E+02 -0.14552732161E+03  0.97128923263E+02  0.18426788794E+03  0.00000000000E+00 0. -1.
        -11    1    5    5    0    0  0.15550839649E+03 -0.54872164260E+03  0.17344714595E+03  0.59612265087E+03  0.00000000000E+00 0.  1.
          3    1    6    6  503    0  0.10807206881E+03  0.22868687315E+02 -0.84949604359E+02  0.13935201541E+03  0.00000000000E+00 0. -1.
         -3    1    6    6    0  503  0.19736067824E+03 -0.38659854350E+02 -0.29154855297E+03  0.35418410522E+03  0.00000000000E+00 0.  1.
<mgrwt>
<rscale>  0 0.26774955E+04</rscale>
<asrwt>0</asrwt>
<pdfrwt beam="1">  1        2 0.40240099E+00 0.26774955E+04</pdfrwt>
<pdfrwt beam="2">  1       -1 0.10541726E+00 0.26774955E+04</pdfrwt>
<totfact> 0.25108155E+00</totfact>
</mgrwt>
</event>
<event>
12    6  0.1521603E-007  0.1959461E+04  0.7818608E-02  0.8625812E-01
         -1   -1    0    0    0  501 -0.00000000000E+00  0.00000000000E+00  0.22693007149E+03  0.22693007149E+03  0.00000000000E+00 0.  1.
          2   -1    0    0  501    0  0.00000000000E+00 -0.00000000000E+00 -0.42298133028E+04  0.42298133028E+04  0.00000000000E+00 0. -1.
         24    2    1    2    0    0  0.54697970505E+03  0.52003148732E+03 -0.18996911202E+04  0.20457253171E+04  0.80908439020E+02 0.  0.
        254    2    1    2    0    0 -0.54697970505E+03 -0.52003148732E+03 -0.21031921111E+04  0.24110180571E+04  0.90552276068E+03 0.  0.
         23    2    4    4    0    0  0.24423659621E+03 -0.95684793345E+02 -0.51327612115E+03  0.58331353258E+03  0.89415916611E+02 0.  0.
         23    2    4    4    0    0 -0.79121630127E+03 -0.42434669398E+03 -0.15899159900E+04  0.18277045246E+04  0.81102539418E+02 0.  0.
          2    1    3    3  502    0  0.81884005721E+02  0.49149270144E+02 -0.28835627922E+03  0.30375974867E+03  0.00000000000E+00 0. -1.
         -1    1    3    3    0  502  0.46509569933E+03  0.47088221718E+03 -0.16113348409E+04  0.17419655684E+04  0.00000000000E+00 0.  1.
         11    1    5    5    0    0  0.16257898801E+03 -0.16547902386E+02 -0.30318947417E+03  0.34442650546E+03  0.00000000000E+00 0. -1.
        -11    1    5    5    0    0  0.81657608205E+02 -0.79136890959E+02 -0.21008664698E+03  0.23888702712E+03  0.00000000000E+00 0.  1.
          4    1    6    6  503    0 -0.19055064319E+03 -0.11915213658E+03 -0.46483023039E+03  0.51630797239E+03  0.00000000000E+00 0. -1.
         -4    1    6    6    0  503 -0.60066565808E+03 -0.30519455740E+03 -0.11250857596E+04  0.13113965522E+04  0.00000000000E+00 0.  1.
<mgrwt>
<rscale>  0 0.19594610E+04</rscale>
<asrwt>0</asrwt>
<pdfrwt beam="1">  1        2 0.65074047E+00 0.19594610E+04</pdfrwt>
<pdfrwt beam="2">  1       -1 0.34912321E-01 0.19594610E+04</pdfrwt>
<totfact> 0.18368782E+00</totfact>
</mgrwt>
</event>
<event>
12    6  0.1521603E-007  0.1732806E+04  0.7818608E-02  0.8742872E-01
          2   -1    0    0  501    0  0.00000000000E+00  0.00000000000E+00  0.17859510881E+04  0.17859510881E+04  0.00000000000E+00 0. -1.
         -1   -1    0    0    0  501 -0.00000000000E+00 -0.00000000000E+00 -0.42031036351E+03  0.42031036351E+03  0.00000000000E+00 0.  1.
         24    2    1    2    0    0 -0.13276678364E+03  0.37394872083E+03  0.10934594309E+04  0.11660494701E+04  0.80951682957E+02 0.  0.
        254    2    1    2    0    0  0.13276678364E+03 -0.37394872083E+03  0.27218129371E+03  0.10402119816E+04  0.92222212362E+03 0.  0.
         23    2    4    4    0    0 -0.19352455353E+02  0.29608665086E+03  0.68722149531E+02  0.31777885179E+03  0.90657831799E+02 0.  0.
         23    2    4    4    0    0  0.15211923900E+03 -0.67003537168E+03  0.20345914418E+03  0.72243312977E+03  0.91795105871E+02 0.  0.
          2    1    3    3  502    0 -0.78979076020E+02  0.31633113043E+03  0.89195955523E+03  0.94968148697E+03  0.00000000000E+00 0. -1.
         -1    1    3    3    0  502 -0.53787707625E+02  0.57617590402E+02  0.20149987566E+03  0.21636798309E+03  0.00000000000E+00 0.  1.
         11    1    5    5    0    0 -0.51318431235E+02  0.18471684793E+03  0.62893003880E+02  0.20176576824E+03  0.00000000000E+00 0.  1.
        -11    1    5    5    0    0  0.31965975882E+02  0.11136980292E+03  0.58291456516E+01  0.11601308356E+03  0.00000000000E+00 0. -1.
          4    1    6    6  503    0  0.59283984216E+02 -0.44389468019E+03  0.11394041242E+03  0.46210333851E+03  0.00000000000E+00 0. -1.
         -4    1    6    6    0  503  0.92835254782E+02 -0.22614069150E+03  0.89518731760E+02  0.26032979126E+03  0.00000000000E+00 0.  1.
<mgrwt>
<rscale>  0 0.17328055E+04</rscale>
<asrwt>0</asrwt>
<pdfrwt beam="1">  1        2 0.27476170E+00 0.17328055E+04</pdfrwt>
<pdfrwt beam="2">  1       -1 0.64663134E-01 0.17328055E+04</pdfrwt>
<totfact> 0.23030462E+01</totfact>
</mgrwt>
</event>
<event>
12    6  0.1521603E-007  0.2060983E+04  0.7818608E-02  0.8578628E-01
          2   -1    0    0  501    0  0.00000000000E+00  0.00000000000E+00  0.20292979568E+04  0.20292979568E+04  0.00000000000E+00 0. -1.
         -1   -1    0    0    0  501 -0.00000000000E+00 -0.00000000000E+00 -0.52329045083E+03  0.52329045083E+03  0.00000000000E+00 0.  1.
         24    2    1    2    0    0  0.47374132394E+02  0.59314653839E+03 -0.15929503923E+03  0.62101816950E+03  0.78876694241E+02 0.  0.
        254    2    1    2    0    0 -0.47374132394E+02 -0.59314653839E+03  0.16653025452E+04  0.19315702382E+04  0.77695810274E+03 0.  0.
         23    2    4    4    0    0 -0.18187567897E+03 -0.48210275770E+03  0.42009681447E+03  0.67096900024E+03  0.90643445289E+02 0.  0.
         23    2    4    4    0    0  0.13450154658E+03 -0.11104378070E+03  0.12452057307E+04  0.12606012379E+04  0.90314904084E+02 0.  0.
          2    1    3    3  502    0  0.47864830101E+02  0.20724378589E+03 -0.78676417541E+02  0.22678405462E+03  0.00000000000E+00 0. -1.
         -1    1    3    3    0  502 -0.49069770678E+00  0.38590275250E+03 -0.80618621685E+02  0.39423411488E+03  0.00000000000E+00 0.  1.
         11    1    5    5    0    0 -0.38328513126E+02 -0.38752625921E+02  0.24791752432E+02  0.59878810299E+02  0.00000000000E+00 0.  1.
        -11    1    5    5    0    0 -0.14354716585E+03 -0.44335013178E+03  0.39530506203E+03  0.61109018994E+03  0.00000000000E+00 0. -1.
          3    1    6    6  503    0  0.73597040122E+02 -0.59161471230E+01  0.40822709271E+03  0.41485043610E+03  0.00000000000E+00 0. -1.
         -3    1    6    6    0  503  0.60904506456E+02 -0.10512763357E+03  0.83697863803E+03  0.84575080181E+03  0.00000000000E+00 0.  1.
<mgrwt>
<rscale>  0 0.20609825E+04</rscale>
<asrwt>0</asrwt>
<pdfrwt beam="1">  1        2 0.31219968E+00 0.20609825E+04</pdfrwt>
<pdfrwt beam="2">  1       -1 0.80506224E-01 0.20609825E+04</pdfrwt>
<totfact> 0.10422451E+01</totfact>
</mgrwt>
</event>
<event>
12    6  0.1521603E-007  0.2689382E+04  0.7818608E-02  0.8338459E-01
         -1   -1    0    0    0  501 -0.00000000000E+00  0.00000000000E+00  0.15321167574E+04  0.15321167574E+04  0.00000000000E+00 0.  1.
          2   -1    0    0  501    0  0.00000000000E+00 -0.00000000000E+00 -0.11801928355E+04  0.11801928355E+04  0.00000000000E+00 0. -1.
         24    2    1    2    0    0 -0.51966583895E+03 -0.45943793666E+03  0.11350823911E+04  0.13324318694E+04  0.76333807956E+02 0.  0.
        254    2    1    2    0    0  0.51966583895E+03  0.45943793666E+03 -0.78315846925E+03  0.13798777234E+04  0.89977193880E+03 0.  0.
         23    2    4    4    0    0  0.28691718246E+03  0.70537336026E+03 -0.64745100758E+03  0.10036293685E+04  0.90587278772E+02 0.  0.
         23    2    4    4    0    0  0.23274865649E+03 -0.24593542360E+03 -0.13570746168E+03  0.37624835497E+03  0.92141954493E+02 0.  0.
          2    1    3    3  502    0 -0.97754438290E+02 -0.65725984796E+02  0.14948734194E+03  0.19032157177E+03  0.00000000000E+00 0. -1.
         -1    1    3    3    0  502 -0.42191140066E+03 -0.39371195186E+03  0.98559504918E+03  0.11421102977E+04  0.00000000000E+00 0.  1.
         11    1    5    5    0    0  0.14486432971E+03  0.35369993328E+03 -0.38422164559E+03  0.54195533928E+03  0.00000000000E+00 0.  1.
        -11    1    5    5    0    0  0.14205285275E+03  0.35167342698E+03 -0.26322936198E+03  0.46167402919E+03  0.00000000000E+00 0. -1.
          3    1    6    6  503    0  0.22714971779E+03 -0.19707296304E+03 -0.12632597973E+03  0.32617939881E+03  0.00000000000E+00 0.  1.
         -3    1    6    6    0  503  0.55989386996E+01 -0.48862460564E+02 -0.93814819517E+01  0.50068956156E+02  0.00000000000E+00 0. -1.
<mgrwt>
<rscale>  0 0.26893815E+04</rscale>
<asrwt>0</asrwt>
<pdfrwt beam="1">  1        2 0.18156813E+00 0.26893815E+04</pdfrwt>
<pdfrwt beam="2">  1       -1 0.23571027E+00 0.26893815E+04</pdfrwt>
<totfact> 0.16852823E+00</totfact>
</mgrwt>
</event>
<event>
12    6  0.1521603E-007  0.1210375E+04  0.7818608E-02  0.9103824E-01
         -1   -1    0    0    0  501 -0.00000000000E+00  0.00000000000E+00  0.17231242582E+03  0.17231242582E+03  0.00000000000E+00 0.  1.
          2   -1    0    0  501    0  0.00000000000E+00 -0.00000000000E+00 -0.21255098008E+04  0.21255098008E+04  0.00000000000E+00 0. -1.
         24    2    1    2    0    0  0.16735557323E+02  0.24410046148E+03 -0.59848775094E+03  0.65137410453E+03  0.78965320566E+02 0.  0.
        254    2    1    2    0    0 -0.16735557323E+02 -0.24410046148E+03 -0.13547096240E+04  0.16464481221E+04  0.90315454882E+03 0.  0.
         23    2    4    4    0    0 -0.84978170233E+02 -0.16139192973E+03  0.69388874003E+02  0.21558362720E+03  0.91612445024E+02 0.  0.
         23    2    4    4    0    0  0.68242612910E+02 -0.82708531749E+02 -0.14240984980E+04  0.14308644949E+04  0.88424629682E+02 0.  0.
          2    1    3    3  502    0  0.45147536779E+01  0.22954967160E+03 -0.58390296741E+03  0.62742020217E+03  0.00000000000E+00 0. -1.
         -1    1    3    3    0  502  0.12220803645E+02  0.14550789881E+02 -0.14584783526E+02  0.23953902362E+02  0.00000000000E+00 0.  1.
         11    1    5    5    0    0 -0.94426581936E+02 -0.16058024610E+03  0.78760182640E+02  0.20225123283E+03  0.00000000000E+00 0. -1.
        -11    1    5    5    0    0  0.94484117029E+01 -0.81168363271E+00 -0.93713086364E+01  0.13332394368E+02  0.00000000000E+00 0.  1.
          1    1    6    6  503    0  0.11992132057E+02 -0.30947366191E+02 -0.95516017322E+03  0.95573663067E+03  0.00000000000E+00 0. -1.
         -1    1    6    6    0  503  0.56250480853E+02 -0.51761165557E+02 -0.46893832481E+03  0.47512786420E+03  0.00000000000E+00 0.  1.
<mgrwt>
<rscale>  0 0.12103747E+04</rscale>
<asrwt>0</asrwt>
<pdfrwt beam="1">  1        2 0.32700154E+00 0.12103747E+04</pdfrwt>
<pdfrwt beam="2">  1       -1 0.26509601E-01 0.12103747E+04</pdfrwt>
<totfact> 0.81038125E+01</totfact>
</mgrwt>
</event>
<event>
12    6  0.1521603E-007  0.1972570E+04  0.7818608E-02  0.8619554E-01
         -1   -1    0    0    0  501 -0.00000000000E+00  0.00000000000E+00  0.10189206870E+04  0.10189206870E+04  0.00000000000E+00 0.  1.
          2   -1    0    0  501    0  0.00000000000E+00 -0.00000000000E+00 -0.95469454512E+03  0.95469454512E+03  0.00000000000E+00 0. -1.
         24    2    1    2    0    0  0.61235216059E+03  0.47617110467E+03  0.68775054733E+02  0.78271492309E+03  0.78730890823E+02 0.  0.
        254    2    1    2    0    0 -0.61235216059E+03 -0.47617110467E+03 -0.45489128539E+01  0.11909003090E+04  0.90360874494E+03 0.  0.
         23    2    4    4    0    0 -0.72747199592E+02  0.25303742425E+03  0.18174661307E+02  0.27874182145E+03  0.89702795898E+02 0.  0.
         23    2    4    4    0    0 -0.53960496100E+03 -0.72920852892E+03 -0.22723574161E+02  0.91215848758E+03  0.92726226315E+02 0.  0.
          4    1    3    3  502    0  0.37597375374E+03  0.31102673917E+03  0.79332636704E+01  0.48801314803E+03  0.00000000000E+00 0. -1.
         -3    1    3    3    0  502  0.23637840685E+03  0.16514436550E+03  0.60841791062E+02  0.29470177506E+03  0.00000000000E+00 0.  1.
         11    1    5    5    0    0 -0.64480360485E+02  0.73915131598E+02 -0.33294946670E+01  0.98144022243E+02  0.00000000000E+00 0. -1.
        -11    1    5    5    0    0 -0.82668391071E+01  0.17912229266E+03  0.21504155974E+02  0.18059779921E+03  0.00000000000E+00 0.  1.
          3    1    6    6  503    0 -0.50733955930E+02 -0.35233601402E+02  0.10377223887E+02  0.62634078006E+02  0.00000000000E+00 0. -1.
         -3    1    6    6    0  503 -0.48887100507E+03 -0.69397492752E+03 -0.33100798047E+02  0.84952440957E+03  0.00000000000E+00 0.  1.
<mgrwt>
<rscale>  0 0.19725699E+04</rscale>
<asrwt>0</asrwt>
<pdfrwt beam="1">  1        2 0.14687608E+00 0.19725699E+04</pdfrwt>
<pdfrwt beam="2">  1       -1 0.15675703E+00 0.19725699E+04</pdfrwt>
<totfact> 0.88591244E+00</totfact>
</mgrwt>
</event>
<event>
12    6  0.1521603E-007  0.1580286E+04  0.7818608E-02  0.8832752E-01
          2   -1    0    0  501    0  0.00000000000E+00  0.00000000000E+00  0.53651083145E+03  0.53651083145E+03  0.00000000000E+00 0. -1.
         -1   -1    0    0    0  501 -0.00000000000E+00 -0.00000000000E+00 -0.11636775007E+04  0.11636775007E+04  0.00000000000E+00 0.  1.
         24    2    1    2    0    0 -0.21396050280E+02 -0.40112030818E+03 -0.57963746382E+03  0.70954174319E+03  0.78195928670E+02 0.  0.
        254    2    1    2    0    0  0.21396050280E+02  0.40112030818E+03 -0.47529205477E+02  0.99064658900E+03  0.90430434386E+03 0.  0.
         23    2    4    4    0    0  0.16869670868E+03  0.64690362640E+03 -0.11234322680E+03  0.68427690363E+03  0.93118198420E+02 0.  0.
         23    2    4    4    0    0 -0.14730065840E+03 -0.24578331822E+03  0.64814021327E+02  0.30636968537E+03  0.86917220813E+02 0.  0.
          4    1    3    3  502    0 -0.42151121006E+02 -0.12381659861E+03 -0.19942041229E+03  0.23848641037E+03  0.00000000000E+00 0. -1.
         -3    1    3    3    0  502  0.20755070726E+02 -0.27730370957E+03 -0.38021705154E+03  0.47105533282E+03  0.00000000000E+00 0.  1.
         11    1    5    5    0    0  0.13097434254E+03  0.57288063734E+03 -0.72437882787E+02  0.59210957592E+03  0.00000000000E+00 0.  1.
        -11    1    5    5    0    0  0.37722366135E+02  0.74022989060E+02 -0.39905344018E+02  0.92167327711E+02  0.00000000000E+00 0. -1.
          2    1    6    6  503    0 -0.79203432975E+02 -0.14189549202E+03  0.80175875282E+02  0.18120619589E+03  0.00000000000E+00 0. -1.
         -2    1    6    6    0  503 -0.68097225422E+02 -0.10388782620E+03 -0.15361853955E+02  0.12516348948E+03  0.00000000000E+00 0.  1.
<mgrwt>
<rscale>  0 0.15802855E+04</rscale>
<asrwt>0</asrwt>
<pdfrwt beam="1">  1        2 0.82540129E-01 0.15802855E+04</pdfrwt>
<pdfrwt beam="2">  1       -1 0.17902731E+00 0.15802855E+04</pdfrwt>
<totfact> 0.13159463E+01</totfact>
</mgrwt>
</event>
<event>
12    6  0.1521603E-007  0.1010740E+04  0.7818608E-02  0.9296843E-01
         -1   -1    0    0    0  501 -0.00000000000E+00  0.00000000000E+00  0.22532796463E+03  0.22532796463E+03  0.00000000000E+00 0.  1.
          2   -1    0    0  501    0  0.00000000000E+00 -0.00000000000E+00 -0.11334544460E+04  0.11334544460E+04  0.00000000000E+00 0. -1.
         24    2    1    2    0    0  0.32940807930E+02 -0.64803707605E+02 -0.10394296652E+03  0.14988211176E+03  0.79849169014E+02 0.  0.
        254    2    1    2    0    0 -0.32940807930E+02  0.64803707605E+02 -0.80418351483E+03  0.12089002988E+04  0.89969116349E+03 0.  0.
         23    2    4    4    0    0 -0.17235552124E+03  0.38704456508E+03 -0.14635012605E+03  0.45750826154E+03  0.91572533639E+02 0.  0.
         23    2    4    4    0    0  0.13941471331E+03 -0.32224085747E+03 -0.65783338878E+03  0.75139203731E+03  0.92572100677E+02 0.  0.
          2    1    3    3  502    0  0.20957564105E+02 -0.67709882077E+02 -0.11381877066E+03  0.13408415335E+03  0.00000000000E+00 0. -1.
         -1    1    3    3    0  502  0.11983243825E+02  0.29061744717E+01  0.98758041448E+01  0.15797958417E+02  0.00000000000E+00 0.  1.
         11    1    5    5    0    0 -0.54640539717E+02  0.52036177438E+02 -0.60104841797E+01  0.75693317162E+02  0.00000000000E+00 0.  1.
        -11    1    5    5    0    0 -0.11771498153E+03  0.33500838764E+03 -0.14033964187E+03  0.38181494437E+03  0.00000000000E+00 0. -1.
          3    1    6    6  503    0  0.11086626334E+03 -0.31443514166E+03 -0.60889417862E+03  0.69419947235E+03  0.00000000000E+00 0. -1.
         -3    1    6    6    0  503  0.28548449970E+02 -0.78057158132E+01 -0.48939210158E+02  0.57192564953E+02  0.00000000000E+00 0.  1.
<mgrwt>
<rscale>  0 0.10107403E+04</rscale>
<asrwt>0</asrwt>
<pdfrwt beam="1">  1        2 0.17437761E+00 0.10107403E+04</pdfrwt>
<pdfrwt beam="2">  1       -1 0.34665841E-01 0.10107403E+04</pdfrwt>
<totfact> 0.18633954E+02</totfact>
</mgrwt>
</event>
<event>
12    6  0.1521603E-007  0.1361256E+04  0.7818608E-02  0.8982351E-01
          2   -1    0    0  501    0  0.00000000000E+00  0.00000000000E+00  0.15925689170E+04  0.15925689170E+04  0.00000000000E+00 0. -1.
         -1   -1    0    0    0  501 -0.00000000000E+00 -0.00000000000E+00 -0.29088497608E+03  0.29088497608E+03  0.00000000000E+00 0.  1.
         24    2    1    2    0    0 -0.19860792771E+03 -0.29635280689E+03  0.55796200232E+03  0.66724934846E+03  0.81424823448E+02 0.  0.
        254    2    1    2    0    0  0.19860792771E+03  0.29635280689E+03  0.74372193856E+03  0.12162045446E+04  0.89373434379E+03 0.  0.
         23    2    4    4    0    0  0.20924667535E+03  0.23223919445E+03  0.93773009774E+03  0.99276076507E+03  0.92287517347E+02 0.  0.
         23    2    4    4    0    0 -0.10638747638E+02  0.64113612447E+02 -0.19400815918E+03  0.22344377952E+03  0.89800994023E+02 0.  0.
          2    1    3    3  502    0 -0.91479684095E+02 -0.14766332542E+03  0.34521423521E+03  0.38645291882E+03  0.00000000000E+00 0. -1.
         -1    1    3    3    0  502 -0.10712824362E+03 -0.14868948148E+03  0.21274776712E+03  0.28079642964E+03  0.00000000000E+00 0.  1.
         11    1    5    5    0    0  0.17085609105E+03  0.23126268177E+03  0.82894741847E+03  0.87739845818E+03  0.00000000000E+00 0. -1.
        -11    1    5    5    0    0  0.38390584301E+02  0.97651267238E+00  0.10878267928E+03  0.11536230689E+03  0.00000000000E+00 0.  1.
          4    1    6    6  503    0 -0.49061956731E+02  0.21834348029E+02 -0.96099766399E+02  0.11008623644E+03  0.00000000000E+00 0. -1.
         -4    1    6    6    0  503  0.38423209093E+02  0.42279264418E+02 -0.97908392780E+02  0.11335754308E+03  0.00000000000E+00 0.  1.
<mgrwt>
<rscale>  0 0.13612558E+04</rscale>
<asrwt>0</asrwt>
<pdfrwt beam="1">  1        2 0.24501060E+00 0.13612558E+04</pdfrwt>
<pdfrwt beam="2">  1       -1 0.44751536E-01 0.13612558E+04</pdfrwt>
<totfact> 0.61946935E+01</totfact>
</mgrwt>
</event>
<event>
12    6  0.1521603E-007  0.1988739E+04  0.7818608E-02  0.8611904E-01
          2   -1    0    0  501    0  0.00000000000E+00  0.00000000000E+00  0.11136727364E+04  0.11136727364E+04  0.00000000000E+00 0. -1.
         -1   -1    0    0    0  501 -0.00000000000E+00 -0.00000000000E+00 -0.88784693203E+03  0.88784693203E+03  0.00000000000E+00 0.  1.
         24    2    1    2    0    0 -0.74363583084E+03 -0.11003717525E+03 -0.14697124022E+03  0.77018192034E+03  0.80481153823E+02 0.  0.
        254    2    1    2    0    0  0.74363583084E+03  0.11003717525E+03  0.37279704455E+03  0.12313377480E+04  0.90117289378E+03 0.  0.
         23    2    4    4    0    0 -0.14637705098E+03  0.14720497420E+03  0.23379363007E+03  0.32500421507E+03  0.88728421995E+02 0.  0.
         23    2    4    4    0    0  0.89001288182E+03 -0.37167798952E+02  0.13900341448E+03  0.90633353298E+03  0.92812438149E+02 0.  0.
          2    1    3    3  502    0 -0.55899182261E+03 -0.11335333264E+03 -0.94015669134E+02  0.57806555148E+03  0.00000000000E+00 0. -1.
         -1    1    3    3    0  502 -0.18464400823E+03  0.33161573873E+01 -0.52955571086E+02  0.19211636886E+03  0.00000000000E+00 0.  1.
         11    1    5    5    0    0 -0.92523283978E+02  0.31452205912E+02  0.11065016047E+03  0.14762539533E+03  0.00000000000E+00 0. -1.
        -11    1    5    5    0    0 -0.53853766998E+02  0.11575276829E+03  0.12314346960E+03  0.17737881974E+03  0.00000000000E+00 0.  1.
          4    1    6    6  503    0  0.89111614102E+03 -0.40485767376E+02  0.13920229456E+03  0.90283129817E+03  0.00000000000E+00 0.  1.
         -4    1    6    6    0  503 -0.11032592019E+01  0.33179684233E+01 -0.19888008412E+00  0.35022348025E+01  0.00000000000E+00 0. -1.
<mgrwt>
<rscale>  0 0.19887392E+04</rscale>
<asrwt>0</asrwt>
<pdfrwt beam="1">  1        2 0.17133427E+00 0.19887392E+04</pdfrwt>
<pdfrwt beam="2">  1       -1 0.13659184E+00 0.19887392E+04</pdfrwt>
<totfact> 0.10128522E+01</totfact>
</mgrwt>
</event>
<event>
12    6  0.1521603E-007  0.2550136E+04  0.7818608E-02  0.8385339E-01
          2   -1    0    0  501    0  0.00000000000E+00  0.00000000000E+00  0.27489206925E+04  0.27489206925E+04  0.00000000000E+00 0. -1.
         -1   -1    0    0    0  501 -0.00000000000E+00 -0.00000000000E+00 -0.59143171075E+03  0.59143171075E+03  0.00000000000E+00 0.  1.
         24    2    1    2    0    0  0.79797742533E+03  0.77343801094E+03  0.10470490448E+04  0.15291444572E+04  0.83646522427E+02 0.  0.
        254    2    1    2    0    0 -0.79797742533E+03 -0.77343801094E+03  0.11104399369E+04  0.18112079460E+04  0.90134512931E+03 0.  0.
         23    2    4    4    0    0 -0.26442075334E+03  0.13572228770E+03  0.52766801293E+02  0.31476230664E+03  0.89174548986E+02 0.  0.
         23    2    4    4    0    0 -0.53355667199E+03 -0.90916029864E+03  0.10576731356E+04  0.14964456394E+04  0.97066569654E+02 0.  0.
          4    1    3    3  502    0  0.66842449052E+03  0.60278196039E+03  0.85378128988E+03  0.12405965832E+04  0.00000000000E+00 0. -1.
         -3    1    3    3    0  502  0.12955293481E+03  0.17065605055E+03  0.19326775494E+03  0.28854787403E+03  0.00000000000E+00 0.  1.
         11    1    5    5    0    0 -0.49653203394E+02  0.36721022211E+02  0.48016679798E+02  0.78227077270E+02  0.00000000000E+00 0.  1.
        -11    1    5    5    0    0 -0.21476754995E+03  0.99001265492E+02  0.47501214949E+01  0.23653522937E+03  0.00000000000E+00 0. -1.
          1    1    6    6  503    0 -0.53471401583E+03 -0.88458743525E+03  0.10387810299E+04  0.14654282778E+04  0.00000000000E+00 0. -1.
         -1    1    6    6    0  503  0.11573438457E+01 -0.24572863396E+02  0.18892105764E+02  0.31017361597E+02  0.00000000000E+00 0.  1.
<mgrwt>
<rscale>  0 0.25501364E+04</rscale>
<asrwt>0</asrwt>
<pdfrwt beam="1">  1        2 0.42291087E+00 0.25501364E+04</pdfrwt>
<pdfrwt beam="2">  1       -1 0.90989496E-01 0.25501364E+04</pdfrwt>
<totfact> 0.29558007E+00</totfact>
</mgrwt>
</event>
<event>
12    6  0.1521603E-007  0.1437713E+04  0.7818608E-02  0.8926963E-01
          2   -1    0    0  501    0  0.00000000000E+00  0.00000000000E+00  0.17777655261E+04  0.17777655261E+04  0.00000000000E+00 0. -1.
         -1   -1    0    0    0  501 -0.00000000000E+00 -0.00000000000E+00 -0.29067663776E+03  0.29067663776E+03  0.00000000000E+00 0.  1.
         24    2    1    2    0    0 -0.10050411731E+03  0.36546406967E+03  0.14553421640E+03  0.41366756648E+03  0.79218581163E+02 0.  0.
        254    2    1    2    0    0  0.10050411731E+03 -0.36546406967E+03  0.13415546720E+04  0.16547745974E+04  0.89154078230E+03 0.  0.
         23    2    4    4    0    0 -0.18132936493E+03  0.22475547766E+03  0.33685298362E+03  0.45250152244E+03  0.88838797346E+02 0.  0.
         23    2    4    4    0    0  0.28183348223E+03 -0.59021954733E+03  0.10047016883E+04  0.12022730749E+04  0.90806599116E+02 0.  0.
          4    1    3    3  502    0 -0.35010978885E+02  0.10587748939E+03  0.57825532565E+01  0.11166579299E+03  0.00000000000E+00 0. -1.
         -3    1    3    3    0  502 -0.65493138421E+02  0.25958658028E+03  0.13975166314E+03  0.30200177350E+03  0.00000000000E+00 0.  1.
         11    1    5    5    0    0 -0.15582683101E+03  0.21384052701E+03  0.26068079282E+03  0.37143538872E+03  0.00000000000E+00 0.  1.
        -11    1    5    5    0    0 -0.25502533917E+02  0.10914950656E+02  0.76172190807E+02  0.81066133721E+02  0.00000000000E+00 0. -1.
          3    1    6    6  503    0  0.10133583392E+03 -0.12694679123E+03  0.27186209689E+03  0.31669139358E+03  0.00000000000E+00 0. -1.
         -3    1    6    6    0  503  0.18049764832E+03 -0.46327275611E+03  0.73283959143E+03  0.88558168137E+03  0.00000000000E+00 0.  1.
<mgrwt>
<rscale>  0 0.14377133E+04</rscale>
<asrwt>0</asrwt>
<pdfrwt beam="1">  1        2 0.27350238E+00 0.14377133E+04</pdfrwt>
<pdfrwt beam="2">  1       -1 0.44719484E-01 0.14377133E+04</pdfrwt>
<totfact> 0.48643444E+01</totfact>
</mgrwt>
</event>
<event>
12    6  0.1521603E-007  0.1612298E+04  0.7818608E-02  0.8813028E-01
          2   -1    0    0  501    0  0.00000000000E+00  0.00000000000E+00  0.22391781434E+04  0.22391781434E+04  0.00000000000E+00 0. -1.
         -1   -1    0    0    0  501 -0.00000000000E+00 -0.00000000000E+00 -0.29022969721E+03  0.29022969721E+03  0.00000000000E+00 0.  1.
         24    2    1    2    0    0  0.15161828186E+03  0.16878291331E+03  0.14649613283E+04  0.14846072575E+04  0.80444021289E+02 0.  0.
        254    2    1    2    0    0 -0.15161828186E+03 -0.16878291331E+03  0.48398711795E+03  0.10448005831E+04  0.89771317963E+03 0.  0.
         23    2    4    4    0    0 -0.25241836051E+03  0.11577519971E+03  0.63214172518E+03  0.69626524148E+03  0.89795323888E+02 0.  0.
         23    2    4    4    0    0  0.10080007864E+03 -0.28455811302E+03 -0.14815460724E+03  0.34853534162E+03  0.91613979116E+02 0.  0.
          4    1    3    3  502    0  0.15952532934E+03  0.16926398298E+03  0.14044162398E+04  0.14235461360E+04  0.00000000000E+00 0. -1.
         -3    1    3    3    0  502 -0.79070474726E+01 -0.48106966421E+00  0.60545088471E+02  0.61061121556E+02  0.00000000000E+00 0.  1.
         11    1    5    5    0    0 -0.51614712488E+02  0.19779803039E+02  0.23093548301E+03  0.23745845209E+03  0.00000000000E+00 0.  1.
        -11    1    5    5    0    0 -0.20080364802E+03  0.95995396671E+02  0.40120624217E+03  0.45880678940E+03  0.00000000000E+00 0. -1.
          2    1    6    6  503    0 -0.97454151086E+01 -0.64733705400E+02 -0.54776939743E+02  0.85357711181E+02  0.00000000000E+00 0.  1.
         -2    1    6    6    0  503  0.11054549375E+03 -0.21982440762E+03 -0.93377667493E+02  0.26317763044E+03  0.00000000000E+00 0. -1.
<mgrwt>
<rscale>  0 0.16122977E+04</rscale>
<asrwt>0</asrwt>
<pdfrwt beam="1">  1        2 0.34448893E+00 0.16122977E+04</pdfrwt>
<pdfrwt beam="2">  1       -1 0.44650724E-01 0.16122977E+04</pdfrwt>
<totfact> 0.26632667E+01</totfact>
</mgrwt>
</event>
<event>
12    6  0.1521603E-007  0.2341744E+04  0.7818608E-02  0.8461642E-01
          2   -1    0    0  501    0  0.00000000000E+00  0.00000000000E+00  0.17041761174E+04  0.17041761174E+04  0.00000000000E+00 0. -1.
         -1   -1    0    0    0  501 -0.00000000000E+00 -0.00000000000E+00 -0.80445976585E+03  0.80445976585E+03  0.00000000000E+00 0.  1.
         24    2    1    2    0    0  0.62222825936E+01 -0.86674939134E+03  0.90435967818E+03  0.12554646685E+04  0.83856318261E+02 0.  0.
        254    2    1    2    0    0 -0.62222825936E+01  0.86674939134E+03 -0.46433265955E+01  0.12531712148E+04  0.90505431270E+03 0.  0.
         23    2    4    4    0    0 -0.31286563688E+03  0.22988001811E+03  0.27966248476E+03  0.48715118123E+03  0.91517421929E+02 0.  0.
         23    2    4    4    0    0  0.30664335429E+03  0.63686937323E+03 -0.28430581136E+03  0.76602003358E+03  0.79524538225E+02 0.  0.
          2    1    3    3  502    0  0.25050841038E+02 -0.52572003467E+03  0.59827597771E+03  0.79683326048E+03  0.00000000000E+00 0. -1.
         -1    1    3    3    0  502 -0.18828558445E+02 -0.34102935667E+03  0.30608370046E+03  0.45863140801E+03  0.00000000000E+00 0.  1.
         11    1    5    5    0    0  0.36361067772E+01  0.10182837685E+02 -0.42721499731E+00  0.10820996649E+02  0.00000000000E+00 0. -1.
        -11    1    5    5    0    0 -0.31650174366E+03  0.21969718043E+03  0.28008969976E+03  0.47633018458E+03  0.00000000000E+00 0.  1.
          3    1    6    6  503    0  0.24040806295E+02  0.49891185392E+02 -0.47138826986E+02  0.72726609688E+02  0.00000000000E+00 0. -1.
         -3    1    6    6    0  503  0.28260254799E+03  0.58697818784E+03 -0.23716698437E+03  0.69329342389E+03  0.00000000000E+00 0.  1.
<mgrwt>
<rscale>  0 0.23417439E+04</rscale>
<asrwt>0</asrwt>
<pdfrwt beam="1">  1        2 0.26218094E+00 0.23417439E+04</pdfrwt>
<pdfrwt beam="2">  1       -1 0.12376304E+00 0.23417439E+04</pdfrwt>
<totfact> 0.57567465E+00</totfact>
</mgrwt>
</event>
<event>
12    6  0.1521603E-007  0.2274257E+04  0.7818608E-02  0.8488141E-01
          2   -1    0    0  501    0  0.00000000000E+00  0.00000000000E+00  0.29932688500E+04  0.29932688500E+04  0.00000000000E+00 0. -1.
         -1   -1    0    0    0  501 -0.00000000000E+00 -0.00000000000E+00 -0.43198967761E+03  0.43198967761E+03  0.00000000000E+00 0.  1.
         24    2    1    2    0    0 -0.16506913047E+03  0.40084082023E+03  0.23614796827E+04  0.24022706334E+04  0.79979518723E+02 0.  0.
        254    2    1    2    0    0  0.16506913047E+03 -0.40084082023E+03  0.19979948967E+03  0.10229878942E+04  0.90480009646E+03 0.  0.
         23    2    4    4    0    0  0.29305114926E+03 -0.25842553639E+03  0.50907798586E+03  0.64790571607E+03  0.89211475123E+02 0.  0.
         23    2    4    4    0    0 -0.12798201878E+03 -0.14241528383E+03 -0.30927849618E+03  0.37508217810E+03  0.91498316530E+02 0.  0.
          4    1    3    3  502    0 -0.13015160186E+03  0.21703395939E+03  0.12925510739E+04  0.13170920460E+04  0.00000000000E+00 0. -1.
         -3    1    3    3    0  502 -0.34917528613E+02  0.18380686083E+03  0.10689286088E+04  0.10851785874E+04  0.00000000000E+00 0.  1.
         11    1    5    5    0    0  0.50147407958E+02 -0.56129393875E+02  0.16090627214E+03  0.17764036646E+03  0.00000000000E+00 0. -1.
        -11    1    5    5    0    0  0.24290374130E+03 -0.20229614252E+03  0.34817171372E+03  0.47026534962E+03  0.00000000000E+00 0.  1.
          4    1    6    6  503    0 -0.13430827484E+02  0.39419251040E+01  0.29791343916E+00  0.14000523306E+02  0.00000000000E+00 0. -1.
         -4    1    6    6    0  503 -0.11455119130E+03 -0.14635720894E+03 -0.30957640962E+03  0.36108165480E+03  0.00000000000E+00 0.  1.
<mgrwt>
<rscale>  0 0.22742570E+04</rscale>
<asrwt>0</asrwt>
<pdfrwt beam="1">  1        2 0.46050289E+00 0.22742570E+04</pdfrwt>
<pdfrwt beam="2">  1       -1 0.66459952E-01 0.22742570E+04</pdfrwt>
<totfact> 0.41728210E+00</totfact>
</mgrwt>
</event>
<event>
12    6  0.1521603E-007  0.1718485E+04  0.7818608E-02  0.8750891E-01
          2   -1    0    0  501    0  0.00000000000E+00  0.00000000000E+00  0.14171208475E+04  0.14171208475E+04  0.00000000000E+00 0. -1.
         -1   -1    0    0    0  501 -0.00000000000E+00 -0.00000000000E+00 -0.52098427361E+03  0.52098427361E+03  0.00000000000E+00 0.  1.
         24    2    1    2    0    0  0.56508036626E+03 -0.59776593704E+02  0.38779042173E+02  0.57513933377E+03  0.79952346063E+02 0.  0.
        254    2    1    2    0    0 -0.56508036626E+03  0.59776593704E+02  0.85735753172E+03  0.13629657874E+04  0.89427330208E+03 0.  0.
         23    2    4    4    0    0  0.75449487152E+02 -0.25226704450E+03  0.51687835051E+02  0.28370724994E+03  0.92124288463E+02 0.  0.
         23    2    4    4    0    0 -0.64052985342E+03  0.31204363820E+03  0.80566969667E+03  0.10792585374E+04  0.89697297540E+02 0.  0.
          2    1    3    3  502    0  0.13263200866E+03 -0.47794185457E+02  0.24439197080E+01  0.14100179654E+03  0.00000000000E+00 0. -1.
         -1    1    3    3    0  502  0.43244835760E+03 -0.11982408246E+02  0.36335122465E+02  0.43413753722E+03  0.00000000000E+00 0.  1.
         11    1    5    5    0    0 -0.15947246883E+02 -0.14619714420E+02  0.15313100284E+02  0.26505504583E+02  0.00000000000E+00 0. -1.
        -11    1    5    5    0    0  0.91396734035E+02 -0.23764733008E+03  0.36374734767E+02  0.25720174536E+03  0.00000000000E+00 0.  1.
          3    1    6    6  503    0 -0.59504181227E+03  0.29306650677E+03  0.70993682339E+03  0.97158274426E+03  0.00000000000E+00 0.  1.
         -3    1    6    6    0  503 -0.45488041151E+02  0.18977131434E+02  0.95732873280E+02  0.10767579316E+03  0.00000000000E+00 0. -1.
<mgrwt>
<rscale>  0 0.17184850E+04</rscale>
<asrwt>0</asrwt>
<pdfrwt beam="1">  1        2 0.21801859E+00 0.17184850E+04</pdfrwt>
<pdfrwt beam="2">  1       -1 0.80151427E-01 0.17184850E+04</pdfrwt>
<totfact> 0.23802941E+01</totfact>
</mgrwt>
</event>
<event>
12    6  0.1521603E-007  0.2234128E+04  0.7818608E-02  0.8504356E-01
         -1   -1    0    0    0  501 -0.00000000000E+00  0.00000000000E+00  0.21206738583E+04  0.21206738583E+04  0.00000000000E+00 0.  1.
          2   -1    0    0  501    0  0.00000000000E+00 -0.00000000000E+00 -0.58841315959E+03  0.58841315959E+03  0.00000000000E+00 0. -1.
         24    2    1    2    0    0 -0.79757199683E+03  0.37127576393E+03  0.26428725290E+03  0.92222950360E+03  0.81809059707E+02 0.  0.
        254    2    1    2    0    0  0.79757199683E+03 -0.37127576393E+03  0.12679734458E+04  0.17868575143E+04  0.90063107546E+03 0.  0.
         23    2    4    4    0    0  0.80944307287E+03 -0.50174839572E+03  0.13109781770E+04  0.16227970727E+04  0.88639821393E+02 0.  0.
         23    2    4    4    0    0 -0.11871076041E+02  0.13047263179E+03 -0.43004731204E+02  0.16406044153E+03  0.88895396270E+02 0.  0.
          4    1    3    3  502    0 -0.64070190223E+03  0.33237613395E+03  0.20947634239E+03  0.75156713603E+03  0.00000000000E+00 0. -1.
         -3    1    3    3    0  502 -0.15687009460E+03  0.38899629982E+02  0.54810910510E+02  0.17066236757E+03  0.00000000000E+00 0.  1.
         11    1    5    5    0    0  0.49409372855E+03 -0.25725748231E+03  0.78616647233E+03  0.96351842069E+03  0.00000000000E+00 0. -1.
        -11    1    5    5    0    0  0.31534934432E+03 -0.24449091341E+03  0.52481170463E+03  0.65927865203E+03  0.00000000000E+00 0.  1.
          3    1    6    6  503    0 -0.45534374582E+02  0.36992110510E+02 -0.20863731721E+02  0.62266289514E+02  0.00000000000E+00 0. -1.
         -3    1    6    6    0  503  0.33663298541E+02  0.93480521278E+02 -0.22140999483E+02  0.10179415202E+03  0.00000000000E+00 0.  1.
<mgrwt>
<rscale>  0 0.22341284E+04</rscale>
<asrwt>0</asrwt>
<pdfrwt beam="1">  1        2 0.90525103E-01 0.22341284E+04</pdfrwt>
<pdfrwt beam="2">  1       -1 0.32625751E+00 0.22341284E+04</pdfrwt>
<totfact> 0.11776120E+00</totfact>
</mgrwt>
</event>
<event>
12    6  0.1521603E-007  0.2848256E+04  0.7818608E-02  0.8288441E-01
         -1   -1    0    0    0  501 -0.00000000000E+00  0.00000000000E+00  0.47360295981E+03  0.47360295981E+03  0.00000000000E+00 0.  1.
          2   -1    0    0  501    0  0.00000000000E+00 -0.00000000000E+00 -0.42823642220E+04  0.42823642220E+04  0.00000000000E+00 0. -1.
         24    2    1    2    0    0 -0.69799614511E+03 -0.63539637715E+03 -0.27677644301E+03  0.98684358759E+03  0.79548050165E+02 0.  0.
        254    2    1    2    0    0  0.69799614511E+03  0.63539637715E+03 -0.35319848192E+04  0.37691235942E+04  0.91675990907E+03 0.  0.
         23    2    4    4    0    0  0.56952769795E+03  0.50220743948E+03 -0.11684100048E+04  0.13965133075E+04  0.92159468923E+02 0.  0.
         23    2    4    4    0    0  0.12846844716E+03  0.13318893767E+03 -0.23635748144E+04  0.23726102868E+04  0.92467477483E+02 0.  0.
          2    1    3    3  502    0 -0.29156594674E+02 -0.81329479437E+01 -0.96928724746E+01  0.31783700729E+02  0.00000000000E+00 0. -1.
         -1    1    3    3    0  502 -0.66883955044E+03 -0.62726342920E+03 -0.26708357053E+03  0.95505988686E+03  0.00000000000E+00 0.  1.
         11    1    5    5    0    0  0.30481477594E+03  0.21081758921E+03 -0.59435907039E+03  0.70044186633E+03  0.00000000000E+00 0.  1.
        -11    1    5    5    0    0  0.26471292201E+03  0.29138985027E+03 -0.57405093438E+03  0.69607144115E+03  0.00000000000E+00 0. -1.
          4    1    6    6  503    0  0.11160554144E+03  0.50738115490E+02 -0.14394872269E+04  0.14446984563E+04  0.00000000000E+00 0. -1.
         -4    1    6    6    0  503  0.16862905719E+02  0.82450822180E+02 -0.92408758752E+03  0.92791183045E+03  0.00000000000E+00 0.  1.
<mgrwt>
<rscale>  0 0.28482559E+04</rscale>
<asrwt>0</asrwt>
<pdfrwt beam="1">  1        2 0.65882522E+00 0.28482559E+04</pdfrwt>
<pdfrwt beam="2">  1       -1 0.72861999E-01 0.28482559E+04</pdfrwt>
<totfact> 0.36827815E-01</totfact>
</mgrwt>
</event>
<event>
12    6  0.1521603E-007  0.1801927E+04  0.7818608E-02  0.8705275E-01
          2   -1    0    0  501    0  0.00000000000E+00  0.00000000000E+00  0.55786072348E+03  0.55786072348E+03  0.00000000000E+00 0. -1.
         -1   -1    0    0    0  501 -0.00000000000E+00 -0.00000000000E+00 -0.14550858104E+04  0.14550858104E+04  0.00000000000E+00 0.  1.
         24    2    1    2    0    0  0.31447644382E+03  0.91045495058E+02 -0.96486151649E+03  0.10219833807E+04  0.79420201870E+02 0.  0.
        254    2    1    2    0    0 -0.31447644382E+03 -0.91045495058E+02  0.67636429617E+02  0.99096315317E+03  0.93287114246E+03 0.  0.
         23    2    4    4    0    0 -0.44607369614E+03 -0.21135223372E+03 -0.29085770621E+03  0.58025129362E+03  0.91879537460E+02 0.  0.
         23    2    4    4    0    0  0.13159725232E+03  0.12030673866E+03  0.35849413582E+03  0.41071185955E+03  0.91513048072E+02 0.  0.
          2    1    3    3  502    0  0.22565564706E+02  0.31546868409E+02 -0.10069272882E+03  0.10790475084E+03  0.00000000000E+00 0. -1.
         -1    1    3    3    0  502  0.29191087911E+03  0.59498626649E+02 -0.86416878767E+03  0.91407862982E+03  0.00000000000E+00 0.  1.
         11    1    5    5    0    0 -0.45049901608E+02 -0.20805505341E+02 -0.65983172072E+02  0.82559927835E+02  0.00000000000E+00 0. -1.
        -11    1    5    5    0    0 -0.40102379453E+03 -0.19054672838E+03 -0.22487453413E+03  0.49769136579E+03  0.00000000000E+00 0.  1.
          4    1    6    6  503    0  0.27940896981E+02 -0.11151077115E+02  0.83665073139E+02  0.88909418558E+02  0.00000000000E+00 0. -1.
         -4    1    6    6    0  503  0.10365635534E+03  0.13145781578E+03  0.27482906268E+03  0.32180244099E+03  0.00000000000E+00 0.  1.
<mgrwt>
<rscale>  0 0.18019270E+04</rscale>
<asrwt>0</asrwt>
<pdfrwt beam="1">  1        2 0.85824727E-01 0.18019270E+04</pdfrwt>
<pdfrwt beam="2">  1       -1 0.22385935E+00 0.18019270E+04</pdfrwt>
<totfact> 0.60526046E+00</totfact>
</mgrwt>
</event>
<event>
12    6  0.1521603E-007  0.1672508E+04  0.7818608E-02  0.8777201E-01
         -1   -1    0    0    0  501 -0.00000000000E+00  0.00000000000E+00  0.74680902859E+03  0.74680902859E+03  0.00000000000E+00 0.  1.
          2   -1    0    0  501    0  0.00000000000E+00 -0.00000000000E+00 -0.93641206538E+03  0.93641206538E+03  0.00000000000E+00 0. -1.
         24    2    1    2    0    0  0.27923117798E+03 -0.14631857897E+03  0.42990173683E+03  0.53898574699E+03  0.79441518228E+02 0.  0.
        254    2    1    2    0    0 -0.27923117798E+03  0.14631857897E+03 -0.61950477363E+03  0.11442353470E+04  0.90890548871E+03 0.  0.
         23    2    4    4    0    0 -0.54421785837E+03  0.16855690020E+03 -0.14824534078E+03  0.59564484212E+03  0.90728115262E+02 0.  0.
         23    2    4    4    0    0  0.26498668039E+03 -0.22238321232E+02 -0.47125943285E+03  0.54859050486E+03  0.90297315911E+02 0.  0.
          4    1    3    3  502    0  0.67020752097E+02 -0.51914642130E+01  0.62091396586E+02  0.91509966902E+02  0.00000000000E+00 0. -1.
         -3    1    3    3    0  502  0.21221042589E+03 -0.14112711476E+03  0.36781034025E+03  0.44747578009E+03  0.00000000000E+00 0.  1.
         11    1    5    5    0    0 -0.16840058278E+03  0.96948634144E+02 -0.51585717099E+02  0.20104447307E+03  0.00000000000E+00 0. -1.
        -11    1    5    5    0    0 -0.37581727559E+03  0.71608266058E+02 -0.96659623683E+02  0.39460036905E+03  0.00000000000E+00 0.  1.
          1    1    6    6  503    0  0.21982609490E+02 -0.13327775124E+02 -0.10834359745E+02  0.27897097713E+02  0.00000000000E+00 0. -1.
         -1    1    6    6    0  503  0.24300407090E+03 -0.89105461081E+01 -0.46042507310E+03  0.52069340715E+03  0.00000000000E+00 0.  1.
<mgrwt>
<rscale>  0 0.16725083E+04</rscale>
<asrwt>0</asrwt>
<pdfrwt beam="1">  1        2 0.14406339E+00 0.16725083E+04</pdfrwt>
<pdfrwt beam="2">  1       -1 0.11489370E+00 0.16725083E+04</pdfrwt>
<totfact> 0.20753485E+01</totfact>
</mgrwt>
</event>
<event>
12    6  0.1521603E-007  0.1745625E+04  0.7818608E-02  0.8735762E-01
         -1   -1    0    0    0  501 -0.00000000000E+00  0.00000000000E+00  0.10152912630E+04  0.10152912630E+04  0.00000000000E+00 0.  1.
          2   -1    0    0  501    0  0.00000000000E+00 -0.00000000000E+00 -0.75032850527E+03  0.75032850527E+03  0.00000000000E+00 0. -1.
         24    2    1    2    0    0 -0.55286844350E+03 -0.16442208401E+03 -0.13015220825E+03  0.59754704743E+03  0.86166925503E+02 0.  0.
        254    2    1    2    0    0  0.55286844350E+03  0.16442208401E+03  0.39511496597E+03  0.11680727208E+04  0.93572426883E+03 0.  0.
         23    2    4    4    0    0  0.36943206517E+03 -0.36326618953E+03  0.25564355191E+03  0.58500876126E+03  0.91865390052E+02 0.  0.
         23    2    4    4    0    0  0.18343637833E+03  0.52768827354E+03  0.13947141406E+03  0.58306395956E+03  0.91692347988E+02 0.  0.
          2    1    3    3  502    0 -0.35001519943E+03 -0.81239585669E+02 -0.11707513315E+03  0.37791149349E+03  0.00000000000E+00 0. -1.
         -1    1    3    3    0  502 -0.20285324408E+03 -0.83182498337E+02 -0.13077075099E+02  0.21963555394E+03  0.00000000000E+00 0.  1.
         11    1    5    5    0    0  0.70693020646E+02 -0.25871656287E+02  0.30085477996E+02  0.81067760258E+02  0.00000000000E+00 0.  1.
        -11    1    5    5    0    0  0.29873904453E+03 -0.33739453324E+03  0.22555807392E+03  0.50394100101E+03  0.00000000000E+00 0. -1.
          1    1    6    6  503    0  0.14810572311E+03  0.39476726559E+03  0.14373413738E+03  0.44546156001E+03  0.00000000000E+00 0. -1.
         -1    1    6    6    0  503  0.35330655214E+02  0.13292100795E+03 -0.42627233269E+01  0.13760239955E+03  0.00000000000E+00 0.  1.
<mgrwt>
<rscale>  0 0.17456254E+04</rscale>
<asrwt>0</asrwt>
<pdfrwt beam="1">  1        2 0.11543515E+00 0.17456254E+04</pdfrwt>
<pdfrwt beam="2">  1       -1 0.15619866E+00 0.17456254E+04</pdfrwt>
<totfact> 0.12675951E+01</totfact>
</mgrwt>
</event>
<event>
12    6  0.1521603E-007  0.1863482E+04  0.7818608E-02  0.8673250E-01
          2   -1    0    0  501    0  0.00000000000E+00  0.00000000000E+00  0.85518440085E+03  0.85518440085E+03  0.00000000000E+00 0. -1.
         -1   -1    0    0    0  501 -0.00000000000E+00 -0.00000000000E+00 -0.10151509553E+04  0.10151509553E+04  0.00000000000E+00 0.  1.
         24    2    1    2    0    0  0.27304447219E+03 -0.42845218040E+03 -0.56008413894E+03  0.76027150007E+03  0.78701692749E+02 0.  0.
        254    2    1    2    0    0 -0.27304447219E+03  0.42845218040E+03  0.40011758452E+03  0.11100638560E+04  0.90223230288E+03 0.  0.
         23    2    4    4    0    0 -0.50102035547E+03  0.32827972014E+03  0.54188191100E+03  0.81162134128E+03  0.79399149254E+02 0.  0.
         23    2    4    4    0    0  0.22797588327E+03  0.10017246026E+03 -0.14176432648E+03  0.29844251476E+03  0.83446301351E+02 0.  0.
          2    1    3    3  502    0  0.11442224739E+01 -0.39270832084E+02 -0.39377580645E+02  0.55624647011E+02  0.00000000000E+00 0. -1.
         -1    1    3    3    0  502  0.27190024972E+03 -0.38918134832E+03 -0.52070655830E+03  0.70464685306E+03  0.00000000000E+00 0.  1.
         11    1    5    5    0    0 -0.49766951687E+03  0.33251985696E+03  0.53917554454E+03  0.80557722853E+03  0.00000000000E+00 0. -1.
        -11    1    5    5    0    0 -0.33508385920E+01 -0.42401368159E+01  0.27063664564E+01  0.60441127458E+01  0.00000000000E+00 0.  1.
          4    1    6    6  503    0  0.13629981991E+03  0.23421622091E+02 -0.10406521807E+03  0.17307738992E+03  0.00000000000E+00 0. -1.
         -4    1    6    6    0  503  0.91676063365E+02  0.76750838168E+02 -0.37699108409E+02  0.12536512485E+03  0.00000000000E+00 0.  1.
<mgrwt>
<rscale>  0 0.18634820E+04</rscale>
<asrwt>0</asrwt>
<pdfrwt beam="1">  1        2 0.13156683E+00 0.18634820E+04</pdfrwt>
<pdfrwt beam="2">  1       -1 0.15617707E+00 0.18634820E+04</pdfrwt>
<totfact> 0.10545860E+01</totfact>
</mgrwt>
</event>
<event>
12    6  0.1521603E-007  0.1227119E+04  0.7818608E-02  0.9089445E-01
         -1   -1    0    0    0  501 -0.00000000000E+00  0.00000000000E+00  0.26791906793E+03  0.26791906793E+03  0.00000000000E+00 0.  1.
          2   -1    0    0  501    0  0.00000000000E+00 -0.00000000000E+00 -0.14051081211E+04  0.14051081211E+04  0.00000000000E+00 0. -1.
         24    2    1    2    0    0 -0.26253129155E+03  0.39127123419E+02 -0.36858222499E+03  0.46122068962E+03  0.80112777540E+02 0.  0.
        254    2    1    2    0    0  0.26253129155E+03 -0.39127123419E+02 -0.76860682815E+03  0.12118064994E+04  0.89847922894E+03 0.  0.
         23    2    4    4    0    0  0.31826364145E+03  0.29016671563E+03 -0.89229120688E+02  0.44899891699E+03  0.90275817064E+02 0.  0.
         23    2    4    4    0    0 -0.55732349899E+02 -0.32929383905E+03 -0.67937770747E+03  0.76280758240E+03  0.93705982214E+02 0.  0.
          2    1    3    3  502    0 -0.28540243067E+02  0.70913560008E+01 -0.96757875560E+02  0.10112823190E+03  0.00000000000E+00 0. -1.
         -1    1    3    3    0  502 -0.23399104848E+03  0.32035767418E+02 -0.27182434943E+03  0.36009245772E+03  0.00000000000E+00 0.  1.
         11    1    5    5    0    0  0.19711381042E+03  0.14595014320E+03 -0.88210848560E+02  0.26064622070E+03  0.00000000000E+00 0. -1.
        -11    1    5    5    0    0  0.12114983103E+03  0.14421657243E+03 -0.10182721282E+01  0.18835269629E+03  0.00000000000E+00 0.  1.
          3    1    6    6  503    0 -0.64761701031E+02 -0.16616806822E+03 -0.28867154691E+03  0.33931868032E+03  0.00000000000E+00 0. -1.
         -3    1    6    6    0  503  0.90293511319E+01 -0.16312577083E+03 -0.39070616056E+03  0.42348890208E+03  0.00000000000E+00 0.  1.
<mgrwt>
<rscale>  0 0.12271190E+04</rscale>
<asrwt>0</asrwt>
<pdfrwt beam="1">  1        2 0.21617048E+00 0.12271190E+04</pdfrwt>
<pdfrwt beam="2">  1       -1 0.41218318E-01 0.12271190E+04</pdfrwt>
<totfact> 0.92954216E+01</totfact>
</mgrwt>
</event>
<event>
12    6  0.1521603E-007  0.1485046E+04  0.7818608E-02  0.8894459E-01
         -1   -1    0    0    0  501 -0.00000000000E+00  0.00000000000E+00  0.39084471346E+03  0.39084471346E+03  0.00000000000E+00 0.  1.
          2   -1    0    0  501    0  0.00000000000E+00 -0.00000000000E+00 -0.14106371755E+04  0.14106371755E+04  0.00000000000E+00 0. -1.
         24    2    1    2    0    0 -0.31855075775E+03 -0.23307630220E+03 -0.35971556170E+02  0.40459115151E+03  0.81245917504E+02 0.  0.
        254    2    1    2    0    0  0.31855075775E+03  0.23307630220E+03 -0.98382090584E+03  0.13968907374E+04  0.90972578814E+03 0.  0.
         23    2    4    4    0    0 -0.30170483589E+03  0.16098487683E+03 -0.28013099890E+03  0.45147887704E+03  0.91748903548E+02 0.  0.
         23    2    4    4    0    0  0.62025559365E+03  0.72091425367E+02 -0.70368990694E+03  0.94541186038E+03  0.93326981868E+02 0.  0.
          4    1    3    3  502    0 -0.11153999267E+02  0.67313147385E+01 -0.26749961202E+01  0.13299545180E+02  0.00000000000E+00 0. -1.
         -3    1    3    3    0  502 -0.30739675849E+03 -0.23980761694E+03 -0.33296560050E+02  0.39129160633E+03  0.00000000000E+00 0.  1.
         11    1    5    5    0    0 -0.67469614762E+02  0.81203435187E+02 -0.68286261679E+02  0.12573448348E+03  0.00000000000E+00 0. -1.
        -11    1    5    5    0    0 -0.23423522113E+03  0.79781441648E+02 -0.21184473722E+03  0.32574439356E+03  0.00000000000E+00 0.  1.
          2    1    6    6  503    0  0.12803201706E+03 -0.18769893940E+02 -0.17117988057E+03  0.21458578197E+03  0.00000000000E+00 0. -1.
         -2    1    6    6    0  503  0.49222357658E+03  0.90861319307E+02 -0.53251002638E+03  0.73082607841E+03  0.00000000000E+00 0.  1.
<mgrwt>
<rscale>  0 0.14850456E+04</rscale>
<asrwt>0</asrwt>
<pdfrwt beam="1">  1        2 0.21702111E+00 0.14850456E+04</pdfrwt>
<pdfrwt beam="2">  1       -1 0.60129955E-01 0.14850456E+04</pdfrwt>
<totfact> 0.44112248E+01</totfact>
</mgrwt>
</event>
<event>
12    6  0.1521603E-007  0.2382200E+04  0.7818608E-02  0.8446198E-01
          2   -1    0    0  501    0  0.00000000000E+00  0.00000000000E+00  0.23821139629E+04  0.23821139629E+04  0.00000000000E+00 0. -1.
         -1   -1    0    0    0  501 -0.00000000000E+00 -0.00000000000E+00 -0.59557128696E+03  0.59557128696E+03  0.00000000000E+00 0.  1.
         24    2    1    2    0    0 -0.95862818311E+03 -0.33278008858E+03  0.62957051022E+03  0.11968057983E+04  0.79211809079E+02 0.  0.
        254    2    1    2    0    0  0.95862818311E+03  0.33278008858E+03  0.11569721657E+04  0.17808794515E+04  0.89623459424E+03 0.  0.
         23    2    4    4    0    0  0.29650117044E+03 -0.15721370438E+03 -0.12216111004E+02  0.34783367568E+03  0.90608717286E+02 0.  0.
         23    2    4    4    0    0  0.66212701266E+03  0.48999379296E+03  0.11691882767E+04  0.14330457759E+04  0.90071478845E+02 0.  0.
          2    1    3    3  502    0 -0.10385612657E+03 -0.57767966914E+02  0.56450146403E+02  0.13156691095E+03  0.00000000000E+00 0. -1.
         -1    1    3    3    0  502 -0.85477205654E+03 -0.27501212167E+03  0.57312036382E+03  0.10652388874E+04  0.00000000000E+00 0.  1.
         11    1    5    5    0    0  0.31645519122E+02 -0.19191717277E+02 -0.31429665890E+02  0.48554966692E+02  0.00000000000E+00 0. -1.
        -11    1    5    5    0    0  0.26485565132E+03 -0.13802198710E+03  0.19213554886E+02  0.29927870899E+03  0.00000000000E+00 0.  1.
          2    1    6    6  503    0  0.62729801145E+03  0.43455703114E+03  0.10729018561E+04  0.13166096617E+04  0.00000000000E+00 0.  1.
         -2    1    6    6    0  503  0.34829001211E+02  0.55436761826E+02  0.96286420558E+02  0.11643611412E+03  0.00000000000E+00 0. -1.
<mgrwt>
<rscale>  0 0.23821996E+04</rscale>
<asrwt>0</asrwt>
<pdfrwt beam="1">  1        2 0.36647907E+00 0.23821996E+04</pdfrwt>
<pdfrwt beam="2">  1       -1 0.91626353E-01 0.23821996E+04</pdfrwt>
<totfact> 0.48406281E+00</totfact>
</mgrwt>
</event>
<event>
12    6  0.1521603E-007  0.2113785E+04  0.7818608E-02  0.8555195E-01
         -1   -1    0    0    0  501 -0.00000000000E+00  0.00000000000E+00  0.75216349054E+03  0.75216349054E+03  0.00000000000E+00 0.  1.
          2   -1    0    0  501    0  0.00000000000E+00 -0.00000000000E+00 -0.14850790224E+04  0.14850790224E+04  0.00000000000E+00 0. -1.
         24    2    1    2    0    0  0.55530721860E+03 -0.34834547419E+03  0.28878213109E+03  0.72070944769E+03  0.79475230940E+02 0.  0.
        254    2    1    2    0    0 -0.55530721860E+03  0.34834547419E+03 -0.10216976630E+04  0.15165330653E+04  0.90900811169E+03 0.  0.
         23    2    4    4    0    0  0.22431957574E+03  0.18881103567E+03 -0.39582665996E+03  0.49999143473E+03  0.85696037348E+02 0.  0.
         23    2    4    4    0    0 -0.77962679434E+03  0.15953443852E+03 -0.62587100300E+03  0.10165416305E+04  0.91505183852E+02 0.  0.
          2    1    3    3  502    0  0.33562192043E+02 -0.44224912987E+01  0.26530324430E+02  0.43009734693E+02  0.00000000000E+00 0. -1.
         -1    1    3    3    0  502  0.52174502656E+03 -0.34392298289E+03  0.26225180666E+03  0.67769971300E+03  0.00000000000E+00 0.  1.
         11    1    5    5    0    0  0.15951368273E+03  0.92890179881E+02 -0.28617084741E+03  0.34053921126E+03  0.00000000000E+00 0.  1.
        -11    1    5    5    0    0  0.64805893011E+02  0.95920855792E+02 -0.10965581255E+03  0.15945222347E+03  0.00000000000E+00 0. -1.
          2    1    6    6  503    0 -0.31587678372E+03  0.10975441238E+03 -0.27286798655E+03  0.43160295599E+03  0.00000000000E+00 0. -1.
         -2    1    6    6    0  503 -0.46375001062E+03  0.49780026136E+02 -0.35300301644E+03  0.58493867454E+03  0.00000000000E+00 0.  1.
<mgrwt>
<rscale>  0 0.21137854E+04</rscale>
<asrwt>0</asrwt>
<pdfrwt beam="1">  1        2 0.22847369E+00 0.21137854E+04</pdfrwt>
<pdfrwt beam="2">  1       -1 0.11571746E+00 0.21137854E+04</pdfrwt>
<totfact> 0.91792961E+00</totfact>
</mgrwt>
</event>
<event>
12    6  0.1521603E-007  0.2904163E+04  0.7818608E-02  0.8271640E-01
         -1   -1    0    0    0  501 -0.00000000000E+00  0.00000000000E+00  0.96732801415E+03  0.96732801415E+03  0.00000000000E+00 0.  1.
          2   -1    0    0  501    0  0.00000000000E+00 -0.00000000000E+00 -0.21797578838E+04  0.21797578838E+04  0.00000000000E+00 0. -1.
         24    2    1    2    0    0 -0.88044708227E+03 -0.63690415330E+03 -0.13438298293E+04  0.17301029383E+04  0.80892532519E+02 0.  0.
        254    2    1    2    0    0  0.88044708227E+03  0.63690415330E+03  0.13139995968E+03  0.14169829596E+04  0.89985598477E+03 0.  0.
         23    2    4    4    0    0  0.78952105502E+03  0.84475001369E+03  0.61585824726E+02  0.11614947857E+04  0.91275634293E+02 0.  0.
         23    2    4    4    0    0  0.90926027249E+02 -0.20784586039E+03  0.69814134951E+02  0.25548817395E+03  0.94513223806E+02 0.  0.
          2    1    3    3  502    0 -0.76608190919E+03 -0.54615791784E+03 -0.11180618305E+04  0.14612433814E+04  0.00000000000E+00 0. -1.
         -1    1    3    3    0  502 -0.11436517309E+03 -0.90746235456E+02 -0.22576799879E+03  0.26885955691E+03  0.00000000000E+00 0.  1.
         11    1    5    5    0    0  0.66137148292E+03  0.72581323788E+03  0.82526369778E+02  0.98540737587E+03  0.00000000000E+00 0.  1.
        -11    1    5    5    0    0  0.12814957210E+03  0.11893677581E+03 -0.20940545052E+02  0.17608740982E+03  0.00000000000E+00 0. -1.
          3    1    6    6  503    0  0.81117692881E+02 -0.74050288397E+02  0.16224052192E+02  0.11102587617E+03  0.00000000000E+00 0. -1.
         -3    1    6    6    0  503  0.98083343683E+01 -0.13379557200E+03  0.53590082759E+02  0.14446229778E+03  0.00000000000E+00 0.  1.
<mgrwt>
<rscale>  0 0.29041631E+04</rscale>
<asrwt>0</asrwt>
<pdfrwt beam="1">  1        2 0.33534736E+00 0.29041631E+04</pdfrwt>
<pdfrwt beam="2">  1       -1 0.14881970E+00 0.29041631E+04</pdfrwt>
<totfact> 0.18535726E+00</totfact>
</mgrwt>
</event>
<event>
12    6  0.1521603E-007  0.2677890E+04  0.7818608E-02  0.8342215E-01
         -1   -1    0    0    0  501 -0.00000000000E+00  0.00000000000E+00  0.84199473154E+03  0.84199473154E+03  0.00000000000E+00 0.  1.
          2   -1    0    0  501    0  0.00000000000E+00 -0.00000000000E+00 -0.21291978637E+04  0.21291978637E+04  0.00000000000E+00 0. -1.
         24    2    1    2    0    0 -0.41573098085E+03  0.10228443662E+04 -0.93100730573E+02  0.11110343559E+04  0.81772537586E+02 0.  0.
        254    2    1    2    0    0  0.41573098085E+03 -0.10228443662E+04 -0.11941024016E+04  0.18601582393E+04  0.90292041950E+03 0.  0.
         23    2    4    4    0    0  0.51750439862E+03 -0.82759911268E+03 -0.12732251956E+04  0.16065987967E+04  0.85593228296E+02 0.  0.
         23    2    4    4    0    0 -0.10177341777E+03 -0.19524525357E+03  0.79122794085E+02  0.25355944267E+03  0.97741684136E+02 0.  0.
          2    1    3    3  502    0 -0.23944656155E+03  0.66708788307E+03 -0.85751523335E+02  0.71392872426E+03  0.00000000000E+00 0. -1.
         -1    1    3    3    0  502 -0.17628441930E+03  0.35575648318E+03 -0.73492072382E+01  0.39710563161E+03  0.00000000000E+00 0.  1.
         11    1    5    5    0    0  0.50568100468E+03 -0.82482779693E+03 -0.12606529060E+04  0.15891192285E+04  0.00000000000E+00 0.  1.
        -11    1    5    5    0    0  0.11823393937E+02 -0.27713157426E+01 -0.12572289637E+02  0.17479568125E+02  0.00000000000E+00 0. -1.
          3    1    6    6  503    0 -0.19207709524E+02 -0.97405046942E+02 -0.65798201249E+01  0.99498609577E+02  0.00000000000E+00 0. -1.
         -3    1    6    6    0  503 -0.82565708244E+02 -0.97840206625E+02  0.85702614210E+02  0.15406083309E+03  0.00000000000E+00 0.  1.
<mgrwt>
<rscale>  0 0.26778898E+04</rscale>
<asrwt>0</asrwt>
<pdfrwt beam="1">  1        2 0.32756890E+00 0.26778898E+04</pdfrwt>
<pdfrwt beam="2">  1       -1 0.12953765E+00 0.26778898E+04</pdfrwt>
<totfact> 0.28947458E+00</totfact>
</mgrwt>
</event>
<event>
12    6  0.1521603E-007  0.1391002E+04  0.7818608E-02  0.8960357E-01
          4   -1    0    0  501    0  0.00000000000E+00  0.00000000000E+00  0.18096950117E+03  0.18096950117E+03  0.00000000000E+00 0. -1.
         -3   -1    0    0    0  501 -0.00000000000E+00 -0.00000000000E+00 -0.26729468706E+04  0.26729468706E+04  0.00000000000E+00 0.  1.
         24    2    1    2    0    0  0.24655912581E+03  0.50920463482E+02 -0.97017108082E+02  0.28110262101E+03  0.78880087183E+02 0.  0.
        254    2    1    2    0    0 -0.24655912581E+03 -0.50920463482E+02 -0.23949602613E+04  0.25728137507E+04  0.90562224272E+03 0.  0.
         23    2    4    4    0    0 -0.18281425874E+03  0.25341440641E+03 -0.26982330720E+03  0.42311989177E+03  0.92660191688E+02 0.  0.
         23    2    4    4    0    0 -0.63744867069E+02 -0.30433486989E+03 -0.21251369541E+04  0.21496938590E+04  0.91068613566E+02 0.  0.
          4    1    3    3  502    0  0.21649404928E+03  0.60454970740E+02 -0.10569977107E+03  0.24838864400E+03  0.00000000000E+00 0. -1.
         -3    1    3    3    0  502  0.30065076532E+02 -0.95345072572E+01  0.86826629870E+01  0.32713977014E+02  0.00000000000E+00 0.  1.
         11    1    5    5    0    0 -0.57080701311E+02  0.70136159912E+02 -0.27983181286E+02  0.94659103229E+02  0.00000000000E+00 0. -1.
        -11    1    5    5    0    0 -0.12573355743E+03  0.18327824650E+03 -0.24184012591E+03  0.32846078854E+03  0.00000000000E+00 0.  1.
          4    1    6    6  503    0 -0.64833070807E+02 -0.98821010301E+02 -0.73235254171E+03  0.74182825809E+03  0.00000000000E+00 0. -1.
         -4    1    6    6    0  503  0.10882037374E+01 -0.20551385959E+03 -0.13927844124E+04  0.14078656009E+04  0.00000000000E+00 0.  1.
<mgrwt>
<rscale>  0 0.13910023E+04</rscale>
<asrwt>0</asrwt>
<pdfrwt beam="1">  1        4 0.27841461E-01 0.13910023E+04</pdfrwt>
<pdfrwt beam="2">  1       -3 0.41122260E+00 0.13910023E+04</pdfrwt>
<totfact> 0.25827552E-01</totfact>
</mgrwt>
</event>
<event>
12    6  0.1521603E-007  0.1053314E+04  0.7818608E-02  0.9251929E-01
         -1   -1    0    0    0  501 -0.00000000000E+00  0.00000000000E+00  0.29556387400E+03  0.29556387400E+03  0.00000000000E+00 0.  1.
          2   -1    0    0  501    0  0.00000000000E+00 -0.00000000000E+00 -0.93843594021E+03  0.93843594021E+03  0.00000000000E+00 0. -1.
         24    2    1    2    0    0 -0.22330075872E+02 -0.74519390604E+02 -0.15298437275E+02  0.12804704510E+03  0.10054964800E+03 0.  0.
        254    2    1    2    0    0  0.22330075872E+02  0.74519390604E+02 -0.62757362893E+03  0.11059527691E+04  0.90732083404E+03 0.  0.
         23    2    4    4    0    0 -0.20716149012E+03  0.37929017452E+03 -0.54889547310E+03  0.70555435020E+03  0.98710593268E+02 0.  0.
         23    2    4    4    0    0  0.22949156599E+03 -0.30477078392E+03 -0.78678155833E+02  0.40039841890E+03  0.92612267312E+02 0.  0.
          2    1    3    3  502    0 -0.39546588484E+02 -0.58992274820E+02 -0.49613357037E+02  0.86634325447E+02  0.00000000000E+00 0. -1.
         -1    1    3    3    0  502  0.17216512612E+02 -0.15527115784E+02  0.34314919761E+02  0.41412719656E+02  0.00000000000E+00 0.  1.
         11    1    5    5    0    0 -0.16291189009E+03  0.27425797685E+03 -0.46557277929E+03  0.56437198249E+03  0.00000000000E+00 0. -1.
        -11    1    5    5    0    0 -0.44249600028E+02  0.10503219767E+03 -0.83322693809E+02  0.14118236772E+03  0.00000000000E+00 0.  1.
          1    1    6    6  503    0  0.22956614207E+03 -0.26896392952E+03 -0.56015321799E+02  0.35802224127E+03  0.00000000000E+00 0. -1.
         -1    1    6    6    0  503 -0.74576079873E-01 -0.35806854404E+02 -0.22662834034E+02  0.42376177628E+02  0.00000000000E+00 0.  1.
<mgrwt>
<rscale>  0 0.10533143E+04</rscale>
<asrwt>0</asrwt>
<pdfrwt beam="1">  1        2 0.14437476E+00 0.10533143E+04</pdfrwt>
<pdfrwt beam="2">  1       -1 0.45471366E-01 0.10533143E+04</pdfrwt>
<totfact> 0.15061220E+02</totfact>
</mgrwt>
</event>
<event>
12    6  0.1521603E-007  0.2034138E+04  0.7818608E-02  0.8590824E-01
         -1   -1    0    0    0  501 -0.00000000000E+00  0.00000000000E+00  0.44867917109E+03  0.44867917109E+03  0.00000000000E+00 0.  1.
          2   -1    0    0  501    0  0.00000000000E+00 -0.00000000000E+00 -0.23054991956E+04  0.23054991956E+04  0.00000000000E+00 0. -1.
         24    2    1    2    0    0 -0.41785167949E+03 -0.60570605481E+03 -0.27296644816E+03  0.78898294804E+03  0.80644650137E+02 0.  0.
        254    2    1    2    0    0  0.41785167949E+03  0.60570605481E+03 -0.15838535763E+04  0.19651954186E+04  0.90106660756E+03 0.  0.
         23    2    4    4    0    0 -0.44676508518E+01 -0.84805358500E+02 -0.88047641917E+03  0.88911993854E+03  0.89909018837E+02 0.  0.
         23    2    4    4    0    0  0.42231933034E+03  0.69051141331E+03 -0.70337715715E+03  0.10760754801E+04  0.89662617267E+02 0.  0.
          2    1    3    3  502    0 -0.36513653603E+03 -0.53620984148E+03 -0.26709160439E+03  0.70155798704E+03  0.00000000000E+00 0. -1.
         -1    1    3    3    0  502 -0.52715143460E+02 -0.69496213328E+02 -0.58748437721E+01  0.87424961002E+02  0.00000000000E+00 0.  1.
         11    1    5    5    0    0 -0.44538551150E+02 -0.29614657501E+02 -0.30990005075E+03  0.31448171955E+03  0.00000000000E+00 0.  1.
        -11    1    5    5    0    0  0.40070900298E+02 -0.55190700998E+02 -0.57057636842E+03  0.57463821899E+03  0.00000000000E+00 0. -1.
          1    1    6    6  503    0  0.11133271076E+03  0.20207666968E+03 -0.15039173912E+03  0.27540448091E+03  0.00000000000E+00 0. -1.
         -1    1    6    6    0  503  0.31098661958E+03  0.48843474363E+03 -0.55298541803E+03  0.80067099916E+03  0.00000000000E+00 0.  1.
<mgrwt>
<rscale>  0 0.20341381E+04</rscale>
<asrwt>0</asrwt>
<pdfrwt beam="1">  1        2 0.35469218E+00 0.20341381E+04</pdfrwt>
<pdfrwt beam="2">  1       -1 0.69027565E-01 0.20341381E+04</pdfrwt>
<totfact> 0.10081267E+01</totfact>
</mgrwt>
</event>
<event>
12    6  0.1521603E-007  0.1155560E+04  0.7818608E-02  0.9152669E-01
          2   -1    0    0  501    0  0.00000000000E+00  0.00000000000E+00  0.10818016024E+03  0.10818016024E+03  0.00000000000E+00 0. -1.
         -1   -1    0    0    0  501 -0.00000000000E+00 -0.00000000000E+00 -0.30858703792E+04  0.30858703792E+04  0.00000000000E+00 0.  1.
         24    2    1    2    0    0 -0.20439004914E+03 -0.45366434285E+02 -0.65148671731E+03  0.68958028210E+03  0.85162298435E+02 0.  0.
        254    2    1    2    0    0  0.20439004914E+03  0.45366434285E+02 -0.23262035017E+04  0.25044702574E+04  0.90405482872E+03 0.  0.
         23    2    4    4    0    0  0.34166887826E+03  0.39956490940E+03 -0.14010405773E+04  0.14993546723E+04  0.93594844710E+02 0.  0.
         23    2    4    4    0    0 -0.13727882912E+03 -0.35419847511E+03 -0.92516292438E+03  0.10051155851E+04  0.10014422602E+03 0.  0.
          2    1    3    3  502    0 -0.28278031181E+01 -0.22587278670E+01  0.21531805074E+01  0.42112359646E+01  0.00000000000E+00 0. -1.
         -1    1    3    3    0  502 -0.20156224602E+03 -0.43107706418E+02 -0.65363989782E+03  0.68536904613E+03  0.00000000000E+00 0.  1.
         11    1    5    5    0    0  0.61038728743E+02  0.34582438491E+02 -0.24989224788E+03  0.25955309093E+03  0.00000000000E+00 0. -1.
        -11    1    5    5    0    0  0.28063014951E+03  0.36498247091E+03 -0.11511483294E+04  0.12398015814E+04  0.00000000000E+00 0.  1.
          3    1    6    6  503    0 -0.43276256021E+02 -0.35999171663E+02 -0.86487409108E+02  0.10319324896E+03  0.00000000000E+00 0. -1.
         -3    1    6    6    0  503 -0.94002573095E+02 -0.31819930345E+03 -0.83867551527E+03  0.90192233611E+03  0.00000000000E+00 0.  1.
<mgrwt>
<rscale>  0 0.11555604E+04</rscale>
<asrwt>0</asrwt>
<pdfrwt beam="1">  1        2 0.16643102E-01 0.11555604E+04</pdfrwt>
<pdfrwt beam="2">  1       -1 0.47474929E+00 0.11555604E+04</pdfrwt>
<totfact> 0.89718886E-01</totfact>
</mgrwt>
</event>
<event>
12    6  0.1521603E-007  0.1483523E+04  0.7818608E-02  0.8895485E-01
         -1   -1    0    0    0  501 -0.00000000000E+00  0.00000000000E+00  0.33646833873E+03  0.33646833873E+03  0.00000000000E+00 0.  1.
          2   -1    0    0  501    0  0.00000000000E+00 -0.00000000000E+00 -0.16352503797E+04  0.16352503797E+04  0.00000000000E+00 0. -1.
         24    2    1    2    0    0  0.16554038405E+03  0.95188832678E+02  0.15284149689E+03  0.25715502020E+03  0.79395520166E+02 0.  0.
        254    2    1    2    0    0 -0.16554038405E+03 -0.95188832678E+02 -0.14516235379E+04  0.17145636983E+04  0.89221816114E+03 0.  0.
         23    2    4    4    0    0 -0.35535204309E+03 -0.18567528386E+03 -0.22944584784E+03  0.47084816815E+03  0.91116490249E+02 0.  0.
         23    2    4    4    0    0  0.18981165903E+03  0.90486451178E+02 -0.12221776901E+04  0.12437155301E+04  0.94306681017E+02 0.  0.
          4    1    3    3  502    0  0.28990019748E+02  0.17248680419E+02  0.73871477459E+02  0.81209195312E+02  0.00000000000E+00 0. -1.
         -3    1    3    3    0  502  0.13655036430E+03  0.77940152258E+02  0.78970019428E+02  0.17594582488E+03  0.00000000000E+00 0.  1.
         11    1    5    5    0    0 -0.30898487730E+03 -0.17546924179E+03 -0.23016794286E+03  0.42336555260E+03  0.00000000000E+00 0. -1.
        -11    1    5    5    0    0 -0.46367165786E+02 -0.10206042069E+02  0.72209501079E+00  0.47482615545E+02  0.00000000000E+00 0.  1.
          3    1    6    6  503    0  0.10621629586E+03  0.88204543189E+02 -0.91501042516E+03  0.92536804629E+03  0.00000000000E+00 0. -1.
         -3    1    6    6    0  503  0.83595363172E+02  0.22819079891E+01 -0.30716726490E+03  0.31834748385E+03  0.00000000000E+00 0.  1.
<mgrwt>
<rscale>  0 0.14835228E+04</rscale>
<asrwt>0</asrwt>
<pdfrwt beam="1">  1        2 0.25157699E+00 0.14835228E+04</pdfrwt>
<pdfrwt beam="2">  1       -1 0.51764359E-01 0.14835228E+04</pdfrwt>
<totfact> 0.44115895E+01</totfact>
</mgrwt>
</event>
<event>
12    6  0.1521603E-007  0.1070526E+04  0.7818608E-02  0.9234405E-01
         -1   -1    0    0    0  501 -0.00000000000E+00  0.00000000000E+00  0.41380062710E+03  0.41380062710E+03  0.00000000000E+00 0.  1.
          2   -1    0    0  501    0  0.00000000000E+00 -0.00000000000E+00 -0.69237870289E+03  0.69237870289E+03  0.00000000000E+00 0. -1.
         24    2    1    2    0    0 -0.35048408616E+02  0.10270024949E+02  0.95987973034E+02  0.13101421254E+03  0.81345980610E+02 0.  0.
        254    2    1    2    0    0  0.35048408616E+02 -0.10270024949E+02 -0.37456604883E+03  0.97516511745E+03  0.89961848414E+03 0.  0.
         23    2    4    4    0    0  0.22003871274E+03 -0.14389840201E+03  0.20507573638E+03  0.34552961186E+03  0.90613850000E+02 0.  0.
         23    2    4    4    0    0 -0.18499030413E+03  0.13362837706E+03 -0.57964178521E+03  0.62963550559E+03  0.91533135847E+02 0.  0.
          4    1    3    3  502    0  0.13531655090E+02 -0.22507931359E+02  0.12693032106E+02  0.29168917148E+02  0.00000000000E+00 0. -1.
         -3    1    3    3    0  502 -0.48580063706E+02  0.32777956308E+02  0.83294940927E+02  0.10184529539E+03  0.00000000000E+00 0.  1.
         11    1    5    5    0    0  0.10415609492E+03 -0.92671997472E+02  0.56923147253E+02  0.15058829941E+03  0.00000000000E+00 0. -1.
        -11    1    5    5    0    0  0.11588261782E+03 -0.51226404540E+02  0.14815258913E+03  0.19494131245E+03  0.00000000000E+00 0.  1.
          3    1    6    6  503    0 -0.16140280990E+03  0.11234748469E+03 -0.38395174604E+03  0.43138355051E+03  0.00000000000E+00 0. -1.
         -3    1    6    6    0  503 -0.23587494233E+02  0.21280892373E+02 -0.19569003917E+03  0.19825195508E+03  0.00000000000E+00 0.  1.
<mgrwt>
<rscale>  0 0.10705265E+04</rscale>
<asrwt>0</asrwt>
<pdfrwt beam="1">  1        2 0.10651980E+00 0.10705265E+04</pdfrwt>
<pdfrwt beam="2">  1       -1 0.63661635E-01 0.10705265E+04</pdfrwt>
<totfact> 0.11811826E+02</totfact>
</mgrwt>
</event>
<event>
12    6  0.1521603E-007  0.2539730E+04  0.7818608E-02  0.8388967E-01
          2   -1    0    0  501    0  0.00000000000E+00  0.00000000000E+00  0.13021142672E+04  0.13021142672E+04  0.00000000000E+00 0. -1.
         -1   -1    0    0    0  501 -0.00000000000E+00 -0.00000000000E+00 -0.12384149198E+04  0.12384149198E+04  0.00000000000E+00 0.  1.
         24    2    1    2    0    0 -0.66992255125E+03  0.31416384226E+03  0.84965952185E+03  0.11295173978E+04  0.79956890893E+02 0.  0.
        254    2    1    2    0    0  0.66992255125E+03 -0.31416384226E+03 -0.78596017446E+03  0.14110117893E+04  0.90869451916E+03 0.  0.
         23    2    4    4    0    0  0.88242122820E+03 -0.18494314852E+03 -0.61297231621E+03  0.10943828184E+04  0.95223425034E+02 0.  0.
         23    2    4    4    0    0 -0.21249867695E+03 -0.12922069374E+03 -0.17298785825E+03  0.31662897084E+03  0.92062102270E+02 0.  0.
          4    1    3    3  502    0 -0.19973391797E+03  0.97649444505E+02  0.31264399273E+03  0.38363435481E+03  0.00000000000E+00 0. -1.
         -3    1    3    3    0  502 -0.47018863328E+03  0.21651439775E+03  0.53701552911E+03  0.74588304298E+03  0.00000000000E+00 0.  1.
         11    1    5    5    0    0  0.65849094574E+03 -0.10301771474E+03 -0.42173693848E+03  0.78872366545E+03  0.00000000000E+00 0. -1.
        -11    1    5    5    0    0  0.22393028246E+03 -0.81925433774E+02 -0.19123537773E+03  0.30565915298E+03  0.00000000000E+00 0.  1.
          2    1    6    6  503    0 -0.42855464648E+02 -0.73077660062E+02 -0.73209798547E+02  0.11196700341E+03  0.00000000000E+00 0. -1.
         -2    1    6    6    0  503 -0.16964321230E+03 -0.56143033679E+02 -0.99778059703E+02  0.20466196742E+03  0.00000000000E+00 0.  1.
<mgrwt>
<rscale>  0 0.25397305E+04</rscale>
<asrwt>0</asrwt>
<pdfrwt beam="1">  1        2 0.20032527E+00 0.25397305E+04</pdfrwt>
<pdfrwt beam="2">  1       -1 0.19052537E+00 0.25397305E+04</pdfrwt>
<totfact> 0.29255275E+00</totfact>
</mgrwt>
</event>
<event>
12    6  0.1521603E-007  0.1299541E+04  0.7818608E-02  0.9029930E-01
          2   -1    0    0  501    0  0.00000000000E+00  0.00000000000E+00  0.67701587353E+03  0.67701587353E+03  0.00000000000E+00 0. -1.
         -1   -1    0    0    0  501 -0.00000000000E+00 -0.00000000000E+00 -0.62362120879E+03  0.62362120879E+03  0.00000000000E+00 0.  1.
         24    2    1    2    0    0 -0.19458341507E+03  0.27150822193E+02 -0.24951470209E+03  0.32737263876E+03  0.79469399666E+02 0.  0.
        254    2    1    2    0    0  0.19458341507E+03 -0.27150822193E+02  0.30290936682E+03  0.97326444356E+03  0.90381951740E+03 0.  0.
         23    2    4    4    0    0  0.99648535158E+02  0.38295484327E+03 -0.59321591138E+02  0.41002128471E+03  0.89521841992E+02 0.  0.
         23    2    4    4    0    0  0.94934879913E+02 -0.41010566546E+03  0.36223095796E+03  0.56324315886E+03  0.93980321490E+02 0.  0.
          2    1    3    3  502    0 -0.57900836158E+02  0.34262253618E+02 -0.43774452968E+02  0.80265880568E+02  0.00000000000E+00 0. -1.
         -1    1    3    3    0  502 -0.13668257891E+03 -0.71114314250E+01 -0.20574024912E+03  0.24710675819E+03  0.00000000000E+00 0.  1.
         11    1    5    5    0    0  0.10815156214E+02  0.21244735143E+03 -0.18926277003E+02  0.21356275119E+03  0.00000000000E+00 0. -1.
        -11    1    5    5    0    0  0.88833378944E+02  0.17050749184E+03 -0.40395314135E+02  0.19645853352E+03  0.00000000000E+00 0.  1.
          1    1    6    6  503    0  0.61456052954E+02 -0.35534898041E+03  0.33912313428E+03  0.49502953905E+03  0.00000000000E+00 0.  1.
         -1    1    6    6    0  503  0.33478826959E+02 -0.54756685056E+02  0.23107823674E+02  0.68213619812E+02  0.00000000000E+00 0. -1.
<mgrwt>
<rscale>  0 0.12995406E+04</rscale>
<asrwt>0</asrwt>
<pdfrwt beam="1">  1        2 0.10415629E+00 0.12995406E+04</pdfrwt>
<pdfrwt beam="2">  1       -1 0.95941724E-01 0.12995406E+04</pdfrwt>
<totfact> 0.50138528E+01</totfact>
</mgrwt>
</event>
<event>
12    6  0.1521603E-007  0.1742123E+04  0.7818608E-02  0.8737698E-01
          2   -1    0    0  501    0  0.00000000000E+00  0.00000000000E+00  0.14217476075E+04  0.14217476075E+04  0.00000000000E+00 0. -1.
         -1   -1    0    0    0  501 -0.00000000000E+00 -0.00000000000E+00 -0.53367270070E+03  0.53367270070E+03  0.00000000000E+00 0.  1.
         24    2    1    2    0    0 -0.27027501432E+03  0.26090901318E+03 -0.25042100054E+03  0.45748603579E+03  0.73896541921E+02 0.  0.
        254    2    1    2    0    0  0.27027501432E+03 -0.26090901318E+03  0.11384959073E+04  0.14979342724E+04  0.89806016328E+03 0.  0.
         23    2    4    4    0    0  0.55140366784E+03 -0.35317622548E+03  0.81830185295E+03  0.10520037365E+04  0.91183813471E+02 0.  0.
         23    2    4    4    0    0 -0.28112865352E+03  0.92267212299E+02  0.32019405435E+03  0.44593053590E+03  0.93719006171E+02 0.  0.
          4    1    3    3  502    0 -0.15662422545E+03  0.17550805108E+03 -0.11784866996E+03  0.26310175408E+03  0.00000000000E+00 0. -1.
         -3    1    3    3    0  502 -0.11365078888E+03  0.85400962100E+02 -0.13257233058E+03  0.19438428171E+03  0.00000000000E+00 0.  1.
         11    1    5    5    0    0  0.28652974554E+03 -0.14976761921E+03  0.45930350608E+03  0.56168438250E+03  0.00000000000E+00 0.  1.
        -11    1    5    5    0    0  0.26487392230E+03 -0.20340860626E+03  0.35899834687E+03  0.49031935396E+03  0.00000000000E+00 0. -1.
          1    1    6    6  503    0 -0.26546183285E+03  0.10668380594E+03  0.31146327215E+03  0.42291936471E+03  0.00000000000E+00 0. -1.
         -1    1    6    6    0  503 -0.15666820672E+02 -0.14416593636E+02  0.87307821980E+01  0.23011171196E+02  0.00000000000E+00 0.  1.
<mgrwt>
<rscale>  0 0.17421227E+04</rscale>
<asrwt>0</asrwt>
<pdfrwt beam="1">  1        2 0.21873040E+00 0.17421227E+04</pdfrwt>
<pdfrwt beam="2">  1       -1 0.82103493E-01 0.17421227E+04</pdfrwt>
<totfact> 0.22428127E+01</totfact>
</mgrwt>
</event>
<event>
12    6  0.1521603E-007  0.1161931E+04  0.7818608E-02  0.9146847E-01
         -1   -1    0    0    0  501 -0.00000000000E+00  0.00000000000E+00  0.27914971545E+03  0.27914971545E+03  0.00000000000E+00 0.  1.
          2   -1    0    0  501    0  0.00000000000E+00 -0.00000000000E+00 -0.12091037805E+04  0.12091037805E+04  0.00000000000E+00 0. -1.
         24    2    1    2    0    0  0.19550865420E+03  0.42019825825E+02 -0.61400089402E+02  0.22390665592E+03  0.79843095851E+02 0.  0.
        254    2    1    2    0    0 -0.19550865420E+03 -0.42019825825E+02 -0.86855397563E+03  0.12643468400E+04  0.89677066391E+03 0.  0.
         23    2    4    4    0    0 -0.23270736409E+03 -0.41298023453E+02 -0.10380216907E+04  0.10695470930E+04  0.10287715876E+03 0.  0.
         23    2    4    4    0    0  0.37198709890E+02 -0.72180237213E+00  0.16946771506E+03  0.19479974700E+03  0.88562802399E+02 0.  0.
          2    1    3    3  502    0  0.17440666368E+03  0.50787350993E+02 -0.75871148473E+02  0.19685901180E+03  0.00000000000E+00 0. -1.
         -1    1    3    3    0  502  0.21101990523E+02 -0.87675251680E+01  0.14471059071E+02  0.27047644116E+02  0.00000000000E+00 0.  1.
         11    1    5    5    0    0 -0.22220042294E+03 -0.47768187156E+02 -0.10301206237E+04  0.10548949365E+04  0.00000000000E+00 0.  1.
        -11    1    5    5    0    0 -0.10506941154E+02  0.64701637036E+01 -0.79010669460E+01  0.14652156485E+02  0.00000000000E+00 0. -1.
          3    1    6    6  503    0 -0.28196281904E+02  0.68066225495E+01  0.38334524057E+02  0.48071781311E+02  0.00000000000E+00 0. -1.
         -3    1    6    6    0  503  0.65394991794E+02 -0.75284249216E+01  0.13113319100E+03  0.14672796569E+03  0.00000000000E+00 0.  1.
<mgrwt>
<rscale>  0 0.11619311E+04</rscale>
<asrwt>0</asrwt>
<pdfrwt beam="1">  1        2 0.18601597E+00 0.11619311E+04</pdfrwt>
<pdfrwt beam="2">  1       -1 0.42946109E-01 0.11619311E+04</pdfrwt>
<totfact> 0.11261540E+02</totfact>
</mgrwt>
</event>
<event>
12    6  0.1521603E-007  0.1351257E+04  0.7818608E-02  0.8989877E-01
         -1   -1    0    0    0  501 -0.00000000000E+00  0.00000000000E+00  0.56974696098E+03  0.56974696098E+03  0.00000000000E+00 0.  1.
          2   -1    0    0  501    0  0.00000000000E+00 -0.00000000000E+00 -0.80118731936E+03  0.80118731936E+03  0.00000000000E+00 0. -1.
         24    2    1    2    0    0  0.26142165090E+03  0.50480419299E+02  0.19380483825E+03  0.33874693084E+03  0.79370117380E+02 0.  0.
        254    2    1    2    0    0 -0.26142165090E+03 -0.50480419299E+02 -0.42524519664E+03  0.10321873495E+04  0.90204639288E+03 0.  0.
         23    2    4    4    0    0  0.29542633356E+03 -0.14416723556E+03 -0.28094398922E+03  0.44217194309E+03  0.92334131322E+02 0.  0.
         23    2    4    4    0    0 -0.55684798445E+03  0.93686816259E+02 -0.14430120742E+03  0.59001540641E+03  0.91861003752E+02 0.  0.
          2    1    3    3  502    0  0.79005541340E+01 -0.15309166236E+01 -0.74008289439E+01  0.10933193970E+02  0.00000000000E+00 0. -1.
         -1    1    3    3    0  502  0.25352109676E+03  0.52011335923E+02  0.20120566720E+03  0.32781373687E+03  0.00000000000E+00 0.  1.
         11    1    5    5    0    0  0.57892279061E+01  0.21042550352E+01  0.63063872941E+01  0.88155300297E+01  0.00000000000E+00 0.  1.
        -11    1    5    5    0    0  0.28963710565E+03 -0.14627149059E+03 -0.28725037652E+03  0.43335641306E+03  0.00000000000E+00 0. -1.
          1    1    6    6  503    0 -0.51606726972E+03  0.11084912623E+03 -0.13201906692E+03  0.54409740827E+03  0.00000000000E+00 0. -1.
         -1    1    6    6    0  503 -0.40780714736E+02 -0.17162309969E+02 -0.12282140502E+02  0.45917998140E+02  0.00000000000E+00 0.  1.
<mgrwt>
<rscale>  0 0.13512573E+04</rscale>
<asrwt>0</asrwt>
<pdfrwt beam="1">  1        2 0.12325959E+00 0.13512573E+04</pdfrwt>
<pdfrwt beam="2">  1       -1 0.87653379E-01 0.13512573E+04</pdfrwt>
<totfact> 0.49100065E+01</totfact>
</mgrwt>
</event>
<event>
12    6  0.1521603E-007  0.3003643E+04  0.7818608E-02  0.8242691E-01
         -1   -1    0    0    0  501 -0.00000000000E+00  0.00000000000E+00  0.16252515075E+04  0.16252515075E+04  0.00000000000E+00 0.  1.
          2   -1    0    0  501    0  0.00000000000E+00 -0.00000000000E+00 -0.13877653324E+04  0.13877653324E+04  0.00000000000E+00 0. -1.
         24    2    1    2    0    0  0.71625668750E+03  0.11189915085E+04  0.44617931060E+03  0.14037618584E+04  0.79408686313E+02 0.  0.
        254    2    1    2    0    0 -0.71625668750E+03 -0.11189915085E+04 -0.20869313549E+03  0.16092549816E+04  0.88373250054E+03 0.  0.
         23    2    4    4    0    0  0.88225582803E+02 -0.16779910848E+03  0.20427390016E+03  0.29353605153E+03  0.92169913716E+02 0.  0.
         23    2    4    4    0    0 -0.80448227030E+03 -0.95119239997E+03 -0.41296703564E+03  0.13157189300E+04  0.92821470206E+02 0.  0.
          2    1    3    3  502    0  0.27742637902E+03  0.38013601914E+03  0.18416961676E+03  0.50535852279E+03  0.00000000000E+00 0. -1.
         -1    1    3    3    0  502  0.43883030848E+03  0.73885548932E+03  0.26200969384E+03  0.89840333559E+03  0.00000000000E+00 0.  1.
         11    1    5    5    0    0 -0.15928936565E+02 -0.36634196910E+01  0.17760445812E+02  0.24136799692E+02  0.00000000000E+00 0. -1.
        -11    1    5    5    0    0  0.10415451937E+03 -0.16413568879E+03  0.18651345435E+03  0.26939925184E+03  0.00000000000E+00 0.  1.
          2    1    6    6  503    0 -0.50701202189E+03 -0.63092272008E+03 -0.22641962766E+03  0.84047041402E+03  0.00000000000E+00 0. -1.
         -2    1    6    6    0  503 -0.29747024842E+03 -0.32026967989E+03 -0.18654740799E+03  0.47524851602E+03  0.00000000000E+00 0.  1.
<mgrwt>
<rscale>  0 0.30036429E+04</rscale>
<asrwt>0</asrwt>
<pdfrwt beam="1">  1        2 0.21350236E+00 0.30036429E+04</pdfrwt>
<pdfrwt beam="2">  1       -1 0.25003869E+00 0.30036429E+04</pdfrwt>
<totfact> 0.99867821E-01</totfact>
</mgrwt>
</event>
<event>
12    6  0.1521603E-007  0.1703802E+04  0.7818608E-02  0.8759199E-01
          2   -1    0    0  501    0  0.00000000000E+00  0.00000000000E+00  0.54586370484E+03  0.54586370484E+03  0.00000000000E+00 0. -1.
         -1   -1    0    0    0  501 -0.00000000000E+00 -0.00000000000E+00 -0.13295169628E+04  0.13295169628E+04  0.00000000000E+00 0.  1.
         24    2    1    2    0    0  0.43185497760E+03 -0.16207622956E+03 -0.72487371136E+03  0.86291761445E+03  0.80109213236E+02 0.  0.
        254    2    1    2    0    0 -0.43185497760E+03  0.16207622956E+03 -0.58779546578E+02  0.10124630532E+04  0.89936587275E+03 0.  0.
         23    2    4    4    0    0 -0.53636986735E+02  0.48304716360E+03  0.44582276205E+02  0.49645081546E+03  0.90908438591E+02 0.  0.
         23    2    4    4    0    0 -0.37821799086E+03 -0.32097093404E+03 -0.10336182278E+03  0.51601223771E+03  0.97538576710E+02 0.  0.
          4    1    3    3  502    0  0.25450457941E+03 -0.64613159772E+02 -0.35857858049E+03  0.44443901690E+03  0.00000000000E+00 0. -1.
         -3    1    3    3    0  502  0.17735039819E+03 -0.97463069792E+02 -0.36629513086E+03  0.41847859755E+03  0.00000000000E+00 0.  1.
         11    1    5    5    0    0 -0.42958365606E+02  0.47923277481E+03  0.36521708344E+02  0.48253840139E+03  0.00000000000E+00 0. -1.
        -11    1    5    5    0    0 -0.10678621129E+02  0.38143887867E+01  0.80605678608E+01  0.13912414071E+02  0.00000000000E+00 0.  1.
          2    1    6    6  503    0 -0.23216118602E+03 -0.14481893984E+03 -0.84649073579E+02  0.28642068237E+03  0.00000000000E+00 0. -1.
         -2    1    6    6    0  503 -0.14605680484E+03 -0.17615199420E+03 -0.18712749205E+02  0.22959155534E+03  0.00000000000E+00 0.  1.
<mgrwt>
<rscale>  0 0.17038017E+04</rscale>
<asrwt>0</asrwt>
<pdfrwt beam="1">  1        2 0.83979031E-01 0.17038017E+04</pdfrwt>
<pdfrwt beam="2">  1       -1 0.20454107E+00 0.17038017E+04</pdfrwt>
<totfact> 0.84554116E+00</totfact>
</mgrwt>
</event>
<event>
12    6  0.1521603E-007  0.1985611E+04  0.7818608E-02  0.8613378E-01
          2   -1    0    0  501    0  0.00000000000E+00  0.00000000000E+00  0.17507492114E+04  0.17507492114E+04  0.00000000000E+00 0. -1.
         -1   -1    0    0    0  501 -0.00000000000E+00 -0.00000000000E+00 -0.56299488433E+03  0.56299488433E+03  0.00000000000E+00 0.  1.
         24    2    1    2    0    0  0.19729238785E+03 -0.75482859192E+03  0.38451271490E+03  0.87348712659E+03  0.80244893327E+02 0.  0.
        254    2    1    2    0    0 -0.19729238785E+03  0.75482859192E+03  0.80324161218E+03  0.14402569692E+04  0.90578836390E+03 0.  0.
         23    2    4    4    0    0  0.26434250172E+03  0.25271726199E+03 -0.78940019966E+01  0.37651007018E+03  0.89188255713E+02 0.  0.
         23    2    4    4    0    0 -0.46163488956E+03  0.50211132993E+03  0.81113561417E+03  0.10637468990E+04  0.91618347470E+02 0.  0.
          4    1    3    3  502    0  0.76828705951E+02 -0.20529328309E+03  0.13980242073E+03  0.25998595920E+03  0.00000000000E+00 0. -1.
         -3    1    3    3    0  502  0.12046368189E+03 -0.54953530884E+03  0.24471029418E+03  0.61350116739E+03  0.00000000000E+00 0.  1.
         11    1    5    5    0    0  0.55005959381E+02  0.10266543519E+03  0.17177287170E+02  0.11773235046E+03  0.00000000000E+00 0. -1.
        -11    1    5    5    0    0  0.20933654233E+03  0.15005182680E+03 -0.25071289166E+02  0.25877771972E+03  0.00000000000E+00 0.  1.
          2    1    6    6  503    0 -0.16843137108E+03  0.13540726808E+03  0.21405002063E+03  0.30417374368E+03  0.00000000000E+00 0. -1.
         -2    1    6    6    0  503 -0.29320351848E+03  0.36670406185E+03  0.59708559354E+03  0.75957315530E+03  0.00000000000E+00 0.  1.
<mgrwt>
<rscale>  0 0.19856111E+04</rscale>
<asrwt>0</asrwt>
<pdfrwt beam="1">  1        2 0.26934603E+00 0.19856111E+04</pdfrwt>
<pdfrwt beam="2">  1       -1 0.86614598E-01 0.19856111E+04</pdfrwt>
<totfact> 0.12792223E+01</totfact>
</mgrwt>
</event>
<event>
12    6  0.1521603E-007  0.2653811E+04  0.7818608E-02  0.8350149E-01
         -1   -1    0    0    0  501 -0.00000000000E+00  0.00000000000E+00  0.19127756455E+04  0.19127756455E+04  0.00000000000E+00 0.  1.
          2   -1    0    0  501    0  0.00000000000E+00 -0.00000000000E+00 -0.92048323861E+03  0.92048323861E+03  0.00000000000E+00 0. -1.
         24    2    1    2    0    0 -0.89440534765E+03 -0.51122704893E+03 -0.15755540775E+03  0.10451987554E+04  0.79389610286E+02 0.  0.
        254    2    1    2    0    0  0.89440534765E+03  0.51122704893E+03  0.11498478147E+04  0.17880601288E+04  0.90205044526E+03 0.  0.
         23    2    4    4    0    0  0.97125340217E+03  0.61044725341E+03  0.78729756309E+03  0.13940514534E+04  0.86965403284E+02 0.  0.
         23    2    4    4    0    0 -0.76848054521E+02 -0.99220204479E+02  0.36255025156E+03  0.39400867541E+03  0.89721117509E+02 0.  0.
          2    1    3    3  502    0 -0.78206053496E+03 -0.41510087563E+03 -0.13572342999E+03  0.89573895011E+03  0.00000000000E+00 0. -1.
         -1    1    3    3    0  502 -0.11234481269E+03 -0.96126173301E+02 -0.21831977753E+02  0.14945980524E+03  0.00000000000E+00 0.  1.
         11    1    5    5    0    0  0.22557300418E+03  0.16211158637E+03  0.23149042667E+03  0.36159530457E+03  0.00000000000E+00 0. -1.
        -11    1    5    5    0    0  0.74568039800E+03  0.44833566704E+03  0.55580713642E+03  0.10324561488E+04  0.00000000000E+00 0.  1.
          4    1    6    6  503    0 -0.32833225510E+02  0.11598353270E+02  0.90857388725E+02  0.97301631959E+02  0.00000000000E+00 0. -1.
         -4    1    6    6    0  503 -0.44014829011E+02 -0.11081855775E+03  0.27169286284E+03  0.29670704345E+03  0.00000000000E+00 0.  1.
<mgrwt>
<rscale>  0 0.26538108E+04</rscale>
<asrwt>0</asrwt>
<pdfrwt beam="1">  1        2 0.14161281E+00 0.26538108E+04</pdfrwt>
<pdfrwt beam="2">  1       -1 0.29427318E+00 0.26538108E+04</pdfrwt>
<totfact> 0.10258610E+00</totfact>
</mgrwt>
</event>
<event>
12    6  0.1521603E-007  0.1445945E+04  0.7818608E-02  0.8921216E-01
         -1   -1    0    0    0  501 -0.00000000000E+00  0.00000000000E+00  0.20063452383E+03  0.20063452383E+03  0.00000000000E+00 0.  1.
          2   -1    0    0  501    0  0.00000000000E+00 -0.00000000000E+00 -0.26051816449E+04  0.26051816449E+04  0.00000000000E+00 0. -1.
         24    2    1    2    0    0  0.28816342802E+03  0.12201139936E+03 -0.14455163715E+03  0.35413337904E+03  0.81180856884E+02 0.  0.
        254    2    1    2    0    0 -0.28816342802E+03 -0.12201139936E+03 -0.22599954839E+04  0.24516827897E+04  0.89735387171E+03 0.  0.
         23    2    4    4    0    0  0.26047746205E+03 -0.24621785868E+03 -0.10793787536E+04  0.11406694166E+04  0.87157799643E+02 0.  0.
         23    2    4    4    0    0 -0.54864089007E+03  0.12420645932E+03 -0.11806167303E+04  0.13110133731E+04  0.92011573910E+02 0.  0.
          4    1    3    3  502    0  0.20067898754E+02  0.31010411947E+02 -0.33976201633E+02  0.50187134675E+02  0.00000000000E+00 0. -1.
         -1    1    3    3    0  502  0.26809552927E+03  0.91000987414E+02 -0.11057543552E+03  0.30394624437E+03  0.00000000000E+00 0.  1.
         11    1    5    5    0    0  0.15563621770E+03 -0.11794675271E+03 -0.69932173378E+03  0.72607503474E+03  0.00000000000E+00 0. -1.
        -11    1    5    5    0    0  0.10484124435E+03 -0.12827110597E+03 -0.38005701986E+03  0.41459438188E+03  0.00000000000E+00 0.  1.
          1    1    6    6  503    0 -0.34784465736E+03  0.34126449644E+02 -0.70007482711E+03  0.78247382306E+03  0.00000000000E+00 0. -1.
         -1    1    6    6    0  503 -0.20079623272E+03  0.90080009679E+02 -0.48054190320E+03  0.52853955003E+03  0.00000000000E+00 0.  1.
<mgrwt>
<rscale>  0 0.14459452E+04</rscale>
<asrwt>0</asrwt>
<pdfrwt beam="1">  1        2 0.40079713E+00 0.14459452E+04</pdfrwt>
<pdfrwt beam="2">  1       -1 0.30866853E-01 0.14459452E+04</pdfrwt>
<totfact> 0.32533058E+01</totfact>
</mgrwt>
</event>
<event>
12    6  0.1521603E-007  0.1835247E+04  0.7818608E-02  0.8687777E-01
          2   -1    0    0  501    0  0.00000000000E+00  0.00000000000E+00  0.85249747536E+03  0.85249747536E+03  0.00000000000E+00 0. -1.
         -1   -1    0    0    0  501 -0.00000000000E+00 -0.00000000000E+00 -0.98772426642E+03  0.98772426642E+03  0.00000000000E+00 0.  1.
         24    2    1    2    0    0 -0.65332549444E+02 -0.64893168910E+03  0.14077959795E+03  0.67205627541E+03  0.80374517028E+02 0.  0.
        254    2    1    2    0    0  0.65332549444E+02  0.64893168910E+03 -0.27600638901E+03  0.11681654664E+04  0.92900503277E+03 0.  0.
         23    2    4    4    0    0  0.24158087619E+03  0.28366633777E+03 -0.54997324158E+03  0.66997454024E+03  0.86990845485E+02 0.  0.
         23    2    4    4    0    0 -0.17624832674E+03  0.36526535133E+03  0.27396685257E+03  0.49819092613E+03  0.93027485224E+02 0.  0.
          2    1    3    3  502    0 -0.52626767661E+02 -0.43452480544E+03  0.56508684090E+02  0.44133277081E+03  0.00000000000E+00 0. -1.
         -1    1    3    3    0  502 -0.12705781783E+02 -0.21440688366E+03  0.84270913858E+02  0.23072350460E+03  0.00000000000E+00 0.  1.
         11    1    5    5    0    0  0.95588692520E+02  0.16630546563E+03 -0.23311328404E+03  0.30188823964E+03  0.00000000000E+00 0. -1.
        -11    1    5    5    0    0  0.14599218367E+03  0.11736087214E+03 -0.31685995753E+03  0.36808630060E+03  0.00000000000E+00 0.  1.
          1    1    6    6  503    0 -0.10044926506E+03  0.11852944617E+03  0.13037330025E+03  0.20282130528E+03  0.00000000000E+00 0. -1.
         -1    1    6    6    0  503 -0.75799061685E+02  0.24673590516E+03  0.14359355232E+03  0.29536962084E+03  0.00000000000E+00 0.  1.
<mgrwt>
<rscale>  0 0.18352465E+04</rscale>
<asrwt>0</asrwt>
<pdfrwt beam="1">  1        2 0.13115346E+00 0.18352465E+04</pdfrwt>
<pdfrwt beam="2">  1       -1 0.15195758E+00 0.18352465E+04</pdfrwt>
<totfact> 0.11441859E+01</totfact>
</mgrwt>
</event>
<event>
12    6  0.1521603E-007  0.1162095E+04  0.7818608E-02  0.9146697E-01
         -1   -1    0    0    0  501 -0.00000000000E+00  0.00000000000E+00  0.47572982890E+03  0.47572982890E+03  0.00000000000E+00 0.  1.
          2   -1    0    0  501    0  0.00000000000E+00 -0.00000000000E+00 -0.70968091560E+03  0.70968091560E+03  0.00000000000E+00 0. -1.
         24    2    1    2    0    0 -0.10628601383E+03 -0.59785597324E+02  0.15040487313E+03  0.20947869580E+03  0.79929117030E+02 0.  0.
        254    2    1    2    0    0  0.10628601383E+03  0.59785597324E+02 -0.38435595984E+03  0.97593204870E+03  0.88873101973E+03 0.  0.
         23    2    4    4    0    0  0.41843193169E+03 -0.52529043787E+02 -0.45225250492E+03  0.62472568336E+03  0.88911581624E+02 0.  0.
         23    2    4    4    0    0 -0.31214591786E+03  0.11231464111E+03  0.67896545083E+02  0.35120636534E+03  0.93200416173E+02 0.  0.
          4    1    3    3  502    0 -0.31804846192E+02  0.69162528760E+01  0.48727036639E+01  0.32910880209E+02  0.00000000000E+00 0. -1.
         -3    1    3    3    0  502 -0.74481167643E+02 -0.66701850200E+02  0.14553216947E+03  0.17656781560E+03  0.00000000000E+00 0.  1.
         11    1    5    5    0    0  0.37171225953E+03 -0.58371138395E+02 -0.43356416125E+03  0.57406887706E+03  0.00000000000E+00 0. -1.
        -11    1    5    5    0    0  0.46719672159E+02  0.58420946079E+01 -0.18688343669E+02  0.50656806306E+02  0.00000000000E+00 0.  1.
          3    1    6    6  503    0 -0.16901900272E+03  0.44424342360E+02  0.80267787681E+02  0.19231189046E+03  0.00000000000E+00 0. -1.
         -3    1    6    6    0  503 -0.14312691514E+03  0.67890298751E+02 -0.12371242598E+02  0.15889447487E+03  0.00000000000E+00 0.  1.
<mgrwt>
<rscale>  0 0.11620953E+04</rscale>
<asrwt>0</asrwt>
<pdfrwt beam="1">  1        2 0.10918168E+00 0.11620953E+04</pdfrwt>
<pdfrwt beam="2">  1       -1 0.73189205E-01 0.11620953E+04</pdfrwt>
<totfact> 0.85616619E+01</totfact>
</mgrwt>
</event>
<event>
12    6  0.1521603E-007  0.2111161E+04  0.7818608E-02  0.8556343E-01
          2   -1    0    0  501    0  0.00000000000E+00  0.00000000000E+00  0.58625325398E+03  0.58625325398E+03  0.00000000000E+00 0. -1.
         -1   -1    0    0    0  501 -0.00000000000E+00 -0.00000000000E+00 -0.19006293397E+04  0.19006293397E+04  0.00000000000E+00 0.  1.
         24    2    1    2    0    0 -0.50511866110E+03  0.27668239280E+03 -0.12923448486E+04  0.14173604951E+04  0.84009268306E+02 0.  0.
        254    2    1    2    0    0  0.50511866110E+03 -0.27668239280E+03 -0.22031237154E+02  0.10695220986E+04  0.90094069487E+03 0.  0.
         23    2    4    4    0    0  0.52155570093E+03 -0.37174830745E+03 -0.33577350695E+03  0.72964121706E+03  0.97032491493E+02 0.  0.
         23    2    4    4    0    0 -0.16437039834E+02  0.95065914643E+02  0.31374226980E+03  0.33988088152E+03  0.88187852673E+02 0.  0.
          2    1    3    3  502    0 -0.19059656732E+02  0.17987402844E+02 -0.28151831781E+02  0.38462225735E+02  0.00000000000E+00 0. -1.
         -1    1    3    3    0  502 -0.48605900437E+03  0.25869498996E+03 -0.12641930168E+04  0.13788982693E+04  0.00000000000E+00 0.  1.
         11    1    5    5    0    0  0.65314172365E+02 -0.50536852230E+02 -0.91209446605E+01  0.83084933511E+02  0.00000000000E+00 0. -1.
        -11    1    5    5    0    0  0.45624152857E+03 -0.32121145522E+03 -0.32665256229E+03  0.64655628355E+03  0.00000000000E+00 0.  1.
          3    1    6    6  503    0 -0.18222039947E+02  0.10810483139E+03  0.22633081801E+03  0.25148426689E+03  0.00000000000E+00 0. -1.
         -3    1    6    6    0  503  0.17850001134E+01 -0.13038916745E+02  0.87411451785E+02  0.88396614632E+02  0.00000000000E+00 0.  1.
<mgrwt>
<rscale>  0 0.21111609E+04</rscale>
<asrwt>0</asrwt>
<pdfrwt beam="1">  1        2 0.90192808E-01 0.21111609E+04</pdfrwt>
<pdfrwt beam="2">  1       -1 0.29240451E+00 0.21111609E+04</pdfrwt>
<totfact> 0.19841495E+00</totfact>
</mgrwt>
</event>
<event>
12    6  0.1521603E-007  0.1185130E+04  0.7818608E-02  0.9125972E-01
          2   -1    0    0  501    0  0.00000000000E+00  0.00000000000E+00  0.20312514741E+04  0.20312514741E+04  0.00000000000E+00 0. -1.
         -1   -1    0    0    0  501 -0.00000000000E+00 -0.00000000000E+00 -0.17286559275E+03  0.17286559275E+03  0.00000000000E+00 0.  1.
         24    2    1    2    0    0 -0.53848591695E+02 -0.55978134808E+02  0.81597317976E+03  0.82387495879E+03  0.83213551970E+02 0.  0.
        254    2    1    2    0    0  0.53848591695E+02  0.55978134808E+02  0.10424127016E+04  0.13802421081E+04  0.90133834603E+03 0.  0.
         23    2    4    4    0    0  0.56925381229E+02 -0.47258983510E+02  0.11785006187E+04  0.11843417658E+04  0.91256778042E+02 0.  0.
         23    2    4    4    0    0 -0.30767895342E+01  0.10323711832E+03 -0.13608791702E+03  0.19590034228E+03  0.95862681561E+02 0.  0.
          4    1    3    3  502    0 -0.47876786409E+00 -0.38324229912E+02  0.58133015827E+03  0.58259224911E+03  0.00000000000E+00 0. -1.
         -3    1    3    3    0  502 -0.53369823831E+02 -0.17653904896E+02  0.23464302150E+03  0.24128270968E+03  0.00000000000E+00 0.  1.
         11    1    5    5    0    0  0.58793876086E+02  0.62805512237E+01  0.44897169028E+03  0.45284847782E+03  0.00000000000E+00 0.  1.
        -11    1    5    5    0    0 -0.18684948567E+01 -0.53539534734E+02  0.72952892838E+03  0.73149328800E+03  0.00000000000E+00 0. -1.
          1    1    6    6  503    0  0.40095466494E+02  0.69175799373E+02 -0.51830423969E+02  0.95285520942E+02  0.00000000000E+00 0. -1.
         -1    1    6    6    0  503 -0.43172256029E+02  0.34061318945E+02 -0.84257493047E+02  0.10061482134E+03  0.00000000000E+00 0.  1.
<mgrwt>
<rscale>  0 0.11851304E+04</rscale>
<asrwt>0</asrwt>
<pdfrwt beam="1">  1        2 0.31250021E+00 0.11851304E+04</pdfrwt>
<pdfrwt beam="2">  1       -1 0.26594708E-01 0.11851304E+04</pdfrwt>
<totfact> 0.91079771E+01</totfact>
</mgrwt>
</event>
<event>
12    6  0.1521603E-007  0.2419629E+04  0.7818608E-02  0.8432191E-01
          2   -1    0    0  501    0  0.00000000000E+00  0.00000000000E+00  0.17110265516E+04  0.17110265516E+04  0.00000000000E+00 0. -1.
         -1   -1    0    0    0  501 -0.00000000000E+00 -0.00000000000E+00 -0.85542270927E+03  0.85542270927E+03  0.00000000000E+00 0.  1.
         24    2    1    2    0    0  0.58646447722E+02  0.13794285686E+03  0.14747522791E+04  0.14845881323E+04  0.81486197346E+02 0.  0.
        254    2    1    2    0    0 -0.58646447722E+02 -0.13794285686E+03 -0.61914843672E+03  0.10818611286E+04  0.87442042363E+03 0.  0.
         23    2    4    4    0    0 -0.43606405377E+03 -0.62157185916E+02 -0.49193419030E+03  0.66640625680E+03  0.89903708265E+02 0.  0.
         23    2    4    4    0    0  0.37741760605E+03 -0.75785670939E+02 -0.12721424641E+03  0.41545487179E+03  0.90729095259E+02 0.  0.
          2    1    3    3  502    0  0.19443496180E+02  0.12461623849E+03  0.97505300121E+03  0.98317628715E+03  0.00000000000E+00 0. -1.
         -1    1    3    3    0  502  0.39202951542E+02  0.13326618363E+02  0.49969927784E+03  0.50141184513E+03  0.00000000000E+00 0.  1.
         11    1    5    5    0    0 -0.23321155485E+03 -0.69609029293E+02 -0.30734440348E+03  0.39203778979E+03  0.00000000000E+00 0. -1.
        -11    1    5    5    0    0 -0.20285249892E+03  0.74518433771E+01 -0.18458978682E+03  0.27436846701E+03  0.00000000000E+00 0.  1.
          3    1    6    6  503    0  0.13076249158E+03  0.17215005811E+02 -0.41734527210E+02  0.13833638853E+03  0.00000000000E+00 0. -1.
         -3    1    6    6    0  503  0.24665511446E+03 -0.93000676750E+02 -0.85479719203E+02  0.27711848326E+03  0.00000000000E+00 0.  1.
<mgrwt>
<rscale>  0 0.24196289E+04</rscale>
<asrwt>0</asrwt>
<pdfrwt beam="1">  1        2 0.26323485E+00 0.24196289E+04</pdfrwt>
<pdfrwt beam="2">  1       -1 0.13160349E+00 0.24196289E+04</pdfrwt>
<totfact> 0.48590950E+00</totfact>
</mgrwt>
</event>
<event>
12    6  0.1521603E-007  0.2568143E+04  0.7818608E-02  0.8379103E-01
          2   -1    0    0  501    0  0.00000000000E+00  0.00000000000E+00  0.19703755211E+04  0.19703755211E+04  0.00000000000E+00 0. -1.
         -1   -1    0    0    0  501 -0.00000000000E+00 -0.00000000000E+00 -0.83681507348E+03  0.83681507348E+03  0.00000000000E+00 0.  1.
         24    2    1    2    0    0 -0.68281015145E+03 -0.32413985665E+03  0.13857593163E+04  0.15809700650E+04  0.88550066971E+02 0.  0.
        254    2    1    2    0    0  0.68281015145E+03  0.32413985665E+03 -0.25219886867E+03  0.12262205295E+04  0.93204944507E+03 0.  0.
         23    2    4    4    0    0  0.39720244765E+03 -0.30417709572E+02 -0.54194950991E+03  0.67844780580E+03  0.88809528963E+02 0.  0.
         23    2    4    4    0    0  0.28560770380E+03  0.35455756622E+03  0.28975064124E+03  0.54777272371E+03  0.93897255083E+02 0.  0.
          4    1    3    3  502    0 -0.35676477716E+03 -0.13273924176E+03  0.63410013862E+03  0.73958353032E+03  0.00000000000E+00 0. -1.
         -3    1    3    3    0  502 -0.32604537429E+03 -0.19140061489E+03  0.75165917764E+03  0.84138653471E+03  0.00000000000E+00 0.  1.
         11    1    5    5    0    0  0.27514122157E+03 -0.60574054385E+02 -0.35624060324E+03  0.45417978298E+03  0.00000000000E+00 0.  1.
        -11    1    5    5    0    0  0.12206122608E+03  0.30156344813E+02 -0.18570890667E+03  0.22426802282E+03  0.00000000000E+00 0. -1.
          1    1    6    6  503    0  0.16289754757E+02  0.86131340310E+00  0.26493511603E+02  0.31112764710E+02  0.00000000000E+00 0. -1.
         -1    1    6    6    0  503  0.26931794904E+03  0.35369625281E+03  0.26325712963E+03  0.51665995900E+03  0.00000000000E+00 0.  1.
<mgrwt>
<rscale>  0 0.25681432E+04</rscale>
<asrwt>0</asrwt>
<pdfrwt beam="1">  1        2 0.30313470E+00 0.25681432E+04</pdfrwt>
<pdfrwt beam="2">  1       -1 0.12874078E+00 0.25681432E+04</pdfrwt>
<totfact> 0.36398815E+00</totfact>
</mgrwt>
</event>
<event>
12    6  0.1521603E-007  0.2896887E+04  0.7818608E-02  0.8273804E-01
          2   -1    0    0  501    0  0.00000000000E+00  0.00000000000E+00  0.18840722290E+04  0.18840722290E+04  0.00000000000E+00 0. -1.
         -1   -1    0    0    0  501 -0.00000000000E+00 -0.00000000000E+00 -0.11135391646E+04  0.11135391646E+04  0.00000000000E+00 0.  1.
         24    2    1    2    0    0  0.72288854384E+03  0.10618094027E+04  0.60168425610E+03  0.14207691180E+04  0.80956086825E+02 0.  0.
        254    2    1    2    0    0 -0.72288854384E+03 -0.10618094027E+04  0.16884880833E+03  0.15768422757E+04  0.89884069099E+03 0.  0.
         23    2    4    4    0    0 -0.25667296338E+03 -0.47169088230E+03 -0.36014702561E+03  0.65296058762E+03  0.90985440309E+02 0.  0.
         23    2    4    4    0    0 -0.46621558046E+03 -0.59011852041E+03  0.52899583394E+03  0.92388168806E+03  0.90132933011E+02 0.  0.
          2    1    3    3  502    0  0.71719365069E+03  0.10419190915E+04  0.60007069170E+03  0.14000167717E+04  0.00000000000E+00 0. -1.
         -1    1    3    3    0  502  0.56948931516E+01  0.19890311170E+02  0.16135643996E+01  0.20752346290E+02  0.00000000000E+00 0.  1.
         11    1    5    5    0    0 -0.34927189289E+02 -0.14105063660E+03 -0.77230839790E+02  0.16455939126E+03  0.00000000000E+00 0.  1.
        -11    1    5    5    0    0 -0.22174577410E+03 -0.33064024571E+03 -0.28291618582E+03  0.48840119636E+03  0.00000000000E+00 0. -1.
          4    1    6    6  503    0 -0.39097497528E+03 -0.54136980614E+03  0.46699280712E+03  0.81487727923E+03  0.00000000000E+00 0. -1.
         -4    1    6    6    0  503 -0.75240605172E+02 -0.48748714264E+02  0.62003026818E+02  0.10900440883E+03  0.00000000000E+00 0.  1.
<mgrwt>
<rscale>  0 0.28968868E+04</rscale>
<asrwt>0</asrwt>
<pdfrwt beam="1">  1        2 0.28985727E+00 0.28968868E+04</pdfrwt>
<pdfrwt beam="2">  1       -1 0.17131372E+00 0.28968868E+04</pdfrwt>
<totfact> 0.18319839E+00</totfact>
</mgrwt>
</event>
<event>
12    6  0.1521603E-007  0.2086980E+04  0.7818608E-02  0.8567001E-01
          2   -1    0    0  501    0  0.00000000000E+00  0.00000000000E+00  0.15669314242E+04  0.15669314242E+04  0.00000000000E+00 0. -1.
         -1   -1    0    0    0  501 -0.00000000000E+00 -0.00000000000E+00 -0.69490668805E+03  0.69490668805E+03  0.00000000000E+00 0.  1.
         24    2    1    2    0    0  0.68111250403E+03 -0.30651801996E+03  0.78784173305E+03  0.10889400239E+04  0.85019054887E+02 0.  0.
        254    2    1    2    0    0 -0.68111250403E+03  0.30651801996E+03  0.84183003112E+02  0.11728980883E+04  0.90040857829E+03 0.  0.
         23    2    4    4    0    0 -0.68816818595E+03  0.52746765770E+03 -0.90535884443E+02  0.87651609549E+03  0.91028222019E+02 0.  0.
         23    2    4    4    0    0  0.70556819228E+01 -0.22094963774E+03  0.17471888756E+03  0.29638199283E+03  0.91907948190E+02 0.  0.
          4    1    3    3  502    0  0.29082358618E+03 -0.14828723601E+03  0.40116353608E+03  0.51720367876E+03  0.00000000000E+00 0. -1.
         -3    1    3    3    0  502  0.39028891785E+03 -0.15823078395E+03  0.38667819696E+03  0.57173634518E+03  0.00000000000E+00 0.  1.
         11    1    5    5    0    0 -0.41057314369E+03  0.36913317310E+03 -0.49823853877E+02  0.55435730555E+03  0.00000000000E+00 0. -1.
        -11    1    5    5    0    0 -0.27759504226E+03  0.15833448460E+03 -0.40712030566E+02  0.32215878994E+03  0.00000000000E+00 0.  1.
          2    1    6    6  503    0 -0.26024601927E+02 -0.22591834482E+02  0.46529241292E+02  0.57901996390E+02  0.00000000000E+00 0. -1.
         -2    1    6    6    0  503  0.33080283850E+02 -0.19835780326E+03  0.12818964626E+03  0.23847999644E+03  0.00000000000E+00 0.  1.
<mgrwt>
<rscale>  0 0.20869798E+04</rscale>
<asrwt>0</asrwt>
<pdfrwt beam="1">  1        2 0.24106637E+00 0.20869798E+04</pdfrwt>
<pdfrwt beam="2">  1       -1 0.10690872E+00 0.20869798E+04</pdfrwt>
<totfact> 0.99830590E+00</totfact>
</mgrwt>
</event>
<event>
12    6  0.1521603E-007  0.1903831E+04  0.7818608E-02  0.8652952E-01
         -1   -1    0    0    0  501 -0.00000000000E+00  0.00000000000E+00  0.56432613114E+03  0.56432613114E+03  0.00000000000E+00 0.  1.
          2   -1    0    0  501    0  0.00000000000E+00 -0.00000000000E+00 -0.16057086082E+04  0.16057086082E+04  0.00000000000E+00 0. -1.
         24    2    1    2    0    0 -0.68017229040E+03  0.24289861547E+03 -0.31285131386E+03  0.79107891442E+03  0.79346217520E+02 0.  0.
        254    2    1    2    0    0  0.68017229040E+03 -0.24289861547E+03 -0.72853116321E+03  0.13789558249E+04  0.92148110634E+03 0.  0.
         23    2    4    4    0    0  0.48847915068E+03  0.29703695810E+03 -0.26637410024E+03  0.63731787960E+03  0.91520944371E+02 0.  0.
         23    2    4    4    0    0  0.19169313972E+03 -0.53993557358E+03 -0.46215706298E+03  0.74163794533E+03  0.90338295722E+02 0.  0.
          4    1    3    3  502    0 -0.64052476881E+03  0.24321108072E+03 -0.28229713769E+03  0.74102313270E+03  0.00000000000E+00 0. -1.
         -3    1    3    3    0  502 -0.39647521582E+02 -0.31246524559E+00 -0.30554176172E+02  0.50055781721E+02  0.00000000000E+00 0.  1.
         11    1    5    5    0    0  0.35572363601E+02  0.24419883042E+01 -0.17317176095E+01  0.35698112064E+02  0.00000000000E+00 0.  1.
        -11    1    5    5    0    0  0.45290678708E+03  0.29459496980E+03 -0.26464238263E+03  0.60161976754E+03  0.00000000000E+00 0. -1.
          4    1    6    6  503    0  0.11297907495E+03 -0.33443184542E+03 -0.22761593721E+03  0.42002136312E+03  0.00000000000E+00 0. -1.
         -4    1    6    6    0  503  0.78714064770E+02 -0.20550372816E+03 -0.23454112577E+03  0.32161658221E+03  0.00000000000E+00 0.  1.
<mgrwt>
<rscale>  0 0.19038312E+04</rscale>
<asrwt>0</asrwt>
<pdfrwt beam="1">  1        2 0.24703209E+00 0.19038312E+04</pdfrwt>
<pdfrwt beam="2">  1       -1 0.86819405E-01 0.19038312E+04</pdfrwt>
<totfact> 0.15436146E+01</totfact>
</mgrwt>
</event>
<event>
12    6  0.1521603E-007  0.1976671E+04  0.7818608E-02  0.8617606E-01
          2   -1    0    0  501    0  0.00000000000E+00  0.00000000000E+00  0.18411979048E+04  0.18411979048E+04  0.00000000000E+00 0. -1.
         -1   -1    0    0    0  501 -0.00000000000E+00 -0.00000000000E+00 -0.53052779329E+03  0.53052779329E+03  0.00000000000E+00 0.  1.
         24    2    1    2    0    0  0.48312369933E+03  0.51530718744E+03  0.10272965777E+04  0.12476574765E+04  0.48589236111E+02 0.  0.
        254    2    1    2    0    0 -0.48312369933E+03 -0.51530718744E+03  0.28337353381E+03  0.11240682216E+04  0.82721146075E+03 0.  0.
         23    2    4    4    0    0 -0.51933135251E+03 -0.24640314855E+03  0.49822253926E+03  0.76612328231E+03  0.91102248922E+02 0.  0.
         23    2    4    4    0    0  0.36207653179E+02 -0.26890403889E+03 -0.21484900545E+03  0.35794493926E+03  0.91346089760E+02 0.  0.
          2    1    3    3  502    0  0.33427037626E+03  0.36193040751E+03  0.67673890492E+03  0.83708174616E+03  0.00000000000E+00 0. -1.
         -1    1    3    3    0  502  0.14885332307E+03  0.15337677994E+03  0.35055767273E+03  0.41057573032E+03  0.00000000000E+00 0.  1.
         11    1    5    5    0    0 -0.35220517048E+03 -0.17239846112E+03  0.28203938457E+03  0.48302787286E+03  0.00000000000E+00 0.  1.
        -11    1    5    5    0    0 -0.16712618202E+03 -0.74004687436E+02  0.21618315469E+03  0.28309540945E+03  0.00000000000E+00 0. -1.
          2    1    6    6  503    0 -0.49345024778E+01 -0.16201588134E+03 -0.79183941671E+02  0.18039842499E+03  0.00000000000E+00 0. -1.
         -2    1    6    6    0  503  0.41142155657E+02 -0.10688815755E+03 -0.13566506378E+03  0.17754651427E+03  0.00000000000E+00 0.  1.
<mgrwt>
<rscale>  0 0.19766706E+04</rscale>
<asrwt>0</asrwt>
<pdfrwt beam="1">  1        2 0.28326121E+00 0.19766706E+04</pdfrwt>
<pdfrwt beam="2">  1       -1 0.81619661E-01 0.19766706E+04</pdfrwt>
<totfact> 0.12966534E+01</totfact>
</mgrwt>
</event>
<event>
12    6  0.1521603E-007  0.2577714E+04  0.7818608E-02  0.8375811E-01
         -3   -1    0    0    0  501 -0.00000000000E+00  0.00000000000E+00  0.12328552556E+04  0.12328552556E+04  0.00000000000E+00 0.  1.
          4   -1    0    0  501    0  0.00000000000E+00 -0.00000000000E+00 -0.13474025088E+04  0.13474025088E+04  0.00000000000E+00 0. -1.
         24    2    1    2    0    0  0.86926648327E+03  0.74489282045E+02  0.66713028714E+03  0.11017302688E+04  0.87028117221E+02 0.  0.
        254    2    1    2    0    0 -0.86926648327E+03 -0.74489282045E+02 -0.78167754036E+03  0.14785274956E+04  0.90213685553E+03 0.  0.
         23    2    4    4    0    0 -0.85667766219E+02 -0.32001946104E+02  0.18828180495E+03  0.22760963816E+03  0.89403683284E+02 0.  0.
         23    2    4    4    0    0 -0.78359871705E+03 -0.42487335941E+02 -0.96995934531E+03  0.12509178575E+04  0.90234314244E+02 0.  0.
          2    1    3    3  502    0  0.38686559266E+03  0.99806543500E+01  0.34169677225E+03  0.51625699454E+03  0.00000000000E+00 0. -1.
         -1    1    3    3    0  502  0.48240089061E+03  0.64508627695E+02  0.32543351490E+03  0.58547327431E+03  0.00000000000E+00 0.  1.
         11    1    5    5    0    0 -0.14746846807E+02 -0.19686108214E+02 -0.14925543217E+01  0.24642241492E+02  0.00000000000E+00 0. -1.
        -11    1    5    5    0    0 -0.70920919412E+02 -0.12315837890E+02  0.18977435927E+03  0.20296739667E+03  0.00000000000E+00 0.  1.
          4    1    6    6  503    0 -0.19922386071E+03 -0.27714718217E+02 -0.30725829173E+03  0.36724094287E+03  0.00000000000E+00 0. -1.
         -4    1    6    6    0  503 -0.58437485634E+03 -0.14772617724E+02 -0.66270105358E+03  0.88367691459E+03  0.00000000000E+00 0.  1.
<mgrwt>
<rscale>  0 0.25777139E+04</rscale>
<asrwt>0</asrwt>
<pdfrwt beam="1">  1        4 0.20729269E+00 0.25777139E+04</pdfrwt>
<pdfrwt beam="2">  1       -3 0.18967004E+00 0.25777139E+04</pdfrwt>
<totfact> 0.40546021E-02</totfact>
</mgrwt>
</event>
<event>
12    6  0.1521603E-007  0.1367420E+04  0.7818608E-02  0.8977745E-01
          2   -1    0    0  501    0  0.00000000000E+00  0.00000000000E+00  0.13666394216E+04  0.13666394216E+04  0.00000000000E+00 0. -1.
         -1   -1    0    0    0  501 -0.00000000000E+00 -0.00000000000E+00 -0.34205046081E+03  0.34205046081E+03  0.00000000000E+00 0.  1.
         24    2    1    2    0    0 -0.12542842016E+02 -0.37355670842E+03  0.30315301531E+03  0.49194675857E+03  0.10201923975E+03 0.  0.
        254    2    1    2    0    0  0.12542842016E+02  0.37355670842E+03  0.72143594552E+03  0.12167431239E+04  0.90569976744E+03 0.  0.
         23    2    4    4    0    0 -0.54953176442E+02  0.61491754250E+03  0.24503993549E+03  0.67066826009E+03  0.92778819944E+02 0.  0.
         23    2    4    4    0    0  0.67496018458E+02 -0.24136083408E+03  0.47639601003E+03  0.54607486379E+03  0.91835906669E+02 0.  0.
          4    1    3    3  502    0 -0.31370983878E+02 -0.33272852361E+03  0.22867526046E+03  0.40495034733E+03  0.00000000000E+00 0. -1.
         -3    1    3    3    0  502  0.18828141862E+02 -0.40828184807E+02  0.74477754849E+02  0.86996411236E+02  0.00000000000E+00 0.  1.
         11    1    5    5    0    0 -0.69952265332E+01  0.29902855108E+01 -0.36007875116E+01  0.84166901089E+01  0.00000000000E+00 0.  1.
        -11    1    5    5    0    0 -0.47957949909E+02  0.61192725699E+03  0.24864072300E+03  0.66225156998E+03  0.00000000000E+00 0. -1.
          1    1    6    6  503    0  0.79189080204E+02 -0.19977244047E+03  0.33305669030E+03  0.39636687216E+03  0.00000000000E+00 0. -1.
         -1    1    6    6    0  503 -0.11693061746E+02 -0.41588393616E+02  0.14333931973E+03  0.14970799163E+03  0.00000000000E+00 0.  1.
<mgrwt>
<rscale>  0 0.13674204E+04</rscale>
<asrwt>0</asrwt>
<pdfrwt beam="1">  1        2 0.21025222E+00 0.13674204E+04</pdfrwt>
<pdfrwt beam="2">  1       -1 0.52623148E-01 0.13674204E+04</pdfrwt>
<totfact> 0.61188164E+01</totfact>
</mgrwt>
</event>
<event>
12    6  0.1521603E-007  0.2361115E+04  0.7818608E-02  0.8454207E-01
          2   -1    0    0  501    0  0.00000000000E+00  0.00000000000E+00  0.15718093771E+04  0.15718093771E+04  0.00000000000E+00 0. -1.
         -1   -1    0    0    0  501 -0.00000000000E+00 -0.00000000000E+00 -0.88669509387E+03  0.88669509387E+03  0.00000000000E+00 0.  1.
         24    2    1    2    0    0 -0.14931808093E+03  0.94566216831E+03 -0.12881015285E+02  0.96101125459E+03  0.82485665600E+02 0.  0.
        254    2    1    2    0    0  0.14931808093E+03 -0.94566216831E+03  0.69799529852E+03  0.14974932164E+04  0.91581421178E+03 0.  0.
         23    2    4    4    0    0  0.48145302660E+03 -0.63910801652E+03  0.22286746202E+03  0.83630517111E+03  0.97367140253E+02 0.  0.
         23    2    4    4    0    0 -0.33213494567E+03 -0.30655415179E+03  0.47512783649E+03  0.66118804527E+03  0.84463602107E+02 0.  0.
          4    1    3    3  502    0 -0.66293995722E+02  0.21203963840E+03 -0.15494808267E+02  0.22270112529E+03  0.00000000000E+00 0. -1.
         -3    1    3    3    0  502 -0.83024085213E+02  0.73362252991E+03  0.26137929820E+01  0.73831012930E+03  0.00000000000E+00 0.  1.
         11    1    5    5    0    0  0.30690197101E+03 -0.45245159653E+03  0.18925357532E+03  0.57854834092E+03  0.00000000000E+00 0. -1.
        -11    1    5    5    0    0  0.17455105560E+03 -0.18665641999E+03  0.33613886705E+02  0.25775683020E+03  0.00000000000E+00 0.  1.
          1    1    6    6  503    0 -0.14881934039E+03 -0.85155521933E+02  0.15767644605E+03  0.23293887745E+03  0.00000000000E+00 0. -1.
         -1    1    6    6    0  503 -0.18331560528E+03 -0.22139862986E+03  0.31745139044E+03  0.42824916782E+03  0.00000000000E+00 0.  1.
<mgrwt>
<rscale>  0 0.23611147E+04</rscale>
<asrwt>0</asrwt>
<pdfrwt beam="1">  1        2 0.24181683E+00 0.23611147E+04</pdfrwt>
<pdfrwt beam="2">  1       -1 0.13641463E+00 0.23611147E+04</pdfrwt>
<totfact> 0.53288145E+00</totfact>
</mgrwt>
</event>
<event>
12    6  0.1521603E-007  0.1373907E+04  0.7818608E-02  0.8972926E-01
          2   -1    0    0  501    0  0.00000000000E+00  0.00000000000E+00  0.37609811797E+03  0.37609811797E+03  0.00000000000E+00 0. -1.
         -3   -1    0    0    0  501 -0.00000000000E+00 -0.00000000000E+00 -0.12547389003E+04  0.12547389003E+04  0.00000000000E+00 0.  1.
         24    2    1    2    0    0 -0.62197950069E+02 -0.26064626995E+03  0.75809312011E+02  0.29034831910E+03  0.82158575844E+02 0.  0.
        254    2    1    2    0    0  0.62197950069E+02  0.26064626995E+03 -0.95445009430E+03  0.13404886991E+04  0.90229147562E+03 0.  0.
         23    2    4    4    0    0 -0.16126270135E+03  0.13615045178E+03  0.10071085790E+03  0.25096033821E+03  0.91081337752E+02 0.  0.
         23    2    4    4    0    0  0.22346065142E+03  0.12449581817E+03 -0.10551609522E+04  0.10895283609E+04  0.90959016818E+02 0.  0.
          4    1    3    3  502    0 -0.48140984496E+02 -0.22483052404E+03  0.93234517850E+02  0.24811085072E+03  0.00000000000E+00 0. -1.
         -3    1    3    3    0  502 -0.14056965573E+02 -0.35815745911E+02 -0.17425205839E+02  0.42237468376E+02  0.00000000000E+00 0.  1.
         11    1    5    5    0    0 -0.89105755924E+02  0.11243947560E+03  0.10022275776E+03  0.17500592157E+03  0.00000000000E+00 0. -1.
        -11    1    5    5    0    0 -0.72156945428E+02  0.23710976173E+02  0.48810014697E+00  0.75954416635E+02  0.00000000000E+00 0.  1.
          3    1    6    6  503    0  0.21737850458E+03  0.12771063227E+03 -0.10522948185E+04  0.10820756928E+04  0.00000000000E+00 0. -1.
         -3    1    6    6    0  503  0.60821468441E+01 -0.32148140968E+01 -0.28661336629E+01  0.74526681184E+01  0.00000000000E+00 0.  1.
<mgrwt>
<rscale>  0 0.13739067E+04</rscale>
<asrwt>0</asrwt>
<pdfrwt beam="1">  1        2 0.57861247E-01 0.13739067E+04</pdfrwt>
<pdfrwt beam="2">  1       -3 0.19303676E+00 0.13739067E+04</pdfrwt>
<totfact> 0.84223553E+00</totfact>
</mgrwt>
</event>
<event>
12    6  0.1521603E-007  0.2721992E+04  0.7818608E-02  0.8327904E-01
         -1   -1    0    0    0  501 -0.00000000000E+00  0.00000000000E+00  0.51885342615E+03  0.51885342615E+03  0.00000000000E+00 0.  1.
          2   -1    0    0  501    0  0.00000000000E+00 -0.00000000000E+00 -0.35700069561E+04  0.35700069561E+04  0.00000000000E+00 0. -1.
         24    2    1    2    0    0  0.84774160045E+03 -0.51567322790E+03 -0.24035828903E+04  0.26015722684E+04  0.79892789434E+02 0.  0.
        254    2    1    2    0    0 -0.84774160045E+03  0.51567322790E+03 -0.64757063958E+03  0.14872881138E+04  0.89894021001E+03 0.  0.
         23    2    4    4    0    0  0.79554009930E+02  0.17689887814E+03  0.10909484430E+03  0.24011537313E+03  0.90175682838E+02 0.  0.
         23    2    4    4    0    0 -0.92729561038E+03  0.33877434976E+03 -0.75666548389E+03  0.12471727407E+04  0.90840418123E+02 0.  0.
          4    1    3    3  502    0  0.80400827978E+03 -0.47433456335E+03 -0.22916838051E+04  0.24745175802E+04  0.00000000000E+00 0. -1.
         -3    1    3    3    0  502  0.43733320676E+02 -0.41338664552E+02 -0.11189908520E+03  0.12705468820E+03  0.00000000000E+00 0.  1.
         11    1    5    5    0    0  0.69114012596E+02  0.14054559210E+03  0.12369230122E+03  0.19957353426E+03  0.00000000000E+00 0. -1.
        -11    1    5    5    0    0  0.10439997335E+02  0.36353286044E+02 -0.14597456917E+02  0.40541838870E+02  0.00000000000E+00 0.  1.
          4    1    6    6  503    0 -0.92770349588E+03  0.34156968237E+03 -0.75447929950E+03  0.12436006745E+04  0.00000000000E+00 0. -1.
         -4    1    6    6    0  503  0.40788549972E+00 -0.27953326085E+01 -0.21861843811E+01  0.35720662258E+01  0.00000000000E+00 0.  1.
<mgrwt>
<rscale>  0 0.27219922E+04</rscale>
<asrwt>0</asrwt>
<pdfrwt beam="1">  1        2 0.54923185E+00 0.27219922E+04</pdfrwt>
<pdfrwt beam="2">  1       -1 0.79823602E-01 0.27219922E+04</pdfrwt>
<totfact> 0.11319839E+00</totfact>
</mgrwt>
</event>
<event>
12    6  0.1521603E-007  0.1492136E+04  0.7818608E-02  0.8889699E-01
         -1   -1    0    0    0  501 -0.00000000000E+00  0.00000000000E+00  0.58553068913E+03  0.58553068913E+03  0.00000000000E+00 0.  1.
          2   -1    0    0  501    0  0.00000000000E+00 -0.00000000000E+00 -0.95062043315E+03  0.95062043315E+03  0.00000000000E+00 0. -1.
         24    2    1    2    0    0 -0.10301808993E+03 -0.28571673264E+03  0.29347334719E+03  0.43025493097E+03  0.82133561666E+02 0.  0.
        254    2    1    2    0    0  0.10301808993E+03  0.28571673264E+03 -0.65856309122E+03  0.11058961913E+04  0.83489775581E+03 0.  0.
         23    2    4    4    0    0  0.45928260434E+03  0.19661553498E+03 -0.41486143816E+03  0.65548279253E+03  0.89159964069E+02 0.  0.
         23    2    4    4    0    0 -0.35626451441E+03  0.89101197656E+02 -0.24370165306E+03  0.45041339877E+03  0.92834834169E+02 0.  0.
          4    1    3    3  502    0 -0.36644521180E+02 -0.54912325507E+02  0.26443794853E+02  0.71115811964E+02  0.00000000000E+00 0. -1.
         -3    1    3    3    0  502 -0.66373568749E+02 -0.23080440713E+03  0.26702955234E+03  0.35913911901E+03  0.00000000000E+00 0.  1.
         11    1    5    5    0    0  0.54771691033E+02  0.54014200621E+02 -0.83087958553E+02  0.11323021180E+03  0.00000000000E+00 0. -1.
        -11    1    5    5    0    0  0.40451091331E+03  0.14260133436E+03 -0.33177347961E+03  0.54225258074E+03  0.00000000000E+00 0.  1.
          3    1    6    6  503    0 -0.84383459284E+02  0.21575723940E+02 -0.14159940999E+02  0.88241622794E+02  0.00000000000E+00 0. -1.
         -3    1    6    6    0  503 -0.27188105513E+03  0.67525473716E+02 -0.22954171206E+03  0.36217177598E+03  0.00000000000E+00 0.  1.
<mgrwt>
<rscale>  0 0.14921360E+04</rscale>
<asrwt>0</asrwt>
<pdfrwt beam="1">  1        2 0.14624930E+00 0.14921360E+04</pdfrwt>
<pdfrwt beam="2">  1       -1 0.90081644E-01 0.14921360E+04</pdfrwt>
<totfact> 0.36082924E+01</totfact>
</mgrwt>
</event>
<event>
12    6  0.1521603E-007  0.2867209E+04  0.7818608E-02  0.8282701E-01
          2   -1    0    0  501    0  0.00000000000E+00  0.00000000000E+00  0.31231720160E+04  0.31231720160E+04  0.00000000000E+00 0. -1.
         -1   -1    0    0    0  501 -0.00000000000E+00 -0.00000000000E+00 -0.65805597728E+03  0.65805597728E+03  0.00000000000E+00 0.  1.
         24    2    1    2    0    0  0.23993896928E+03 -0.37275338194E+03 -0.48586784324E+03  0.66276102057E+03  0.81662822446E+02 0.  0.
        254    2    1    2    0    0 -0.23993896928E+03  0.37275338194E+03  0.29509838819E+04  0.31184669727E+04  0.90554657283E+03 0.  0.
         23    2    4    4    0    0 -0.38120645541E+03  0.62102316074E+02  0.25638564859E+04  0.25943424235E+04  0.89874749947E+02 0.  0.
         23    2    4    4    0    0  0.14126748612E+03  0.31065106587E+03  0.38712739600E+03  0.52412454917E+03  0.91533245061E+02 0.  0.
          2    1    3    3  502    0  0.58187188782E+02 -0.39451573368E+02 -0.91082771826E+02  0.11505758081E+03  0.00000000000E+00 0. -1.
         -1    1    3    3    0  502  0.18175178050E+03 -0.33330180857E+03 -0.39478507141E+03  0.54770343976E+03  0.00000000000E+00 0.  1.
         11    1    5    5    0    0 -0.50352587817E+02 -0.95585347630E+01  0.53368860810E+03  0.53614389776E+03  0.00000000000E+00 0. -1.
        -11    1    5    5    0    0 -0.33085386759E+03  0.71660850837E+02  0.20301678778E+04  0.20581985257E+04  0.00000000000E+00 0.  1.
          3    1    6    6  503    0  0.15268578689E+03  0.26424631719E+03  0.34242070010E+03  0.45868398874E+03  0.00000000000E+00 0. -1.
         -3    1    6    6    0  503 -0.11418300763E+02  0.46404748670E+02  0.44706695907E+02  0.65440560437E+02  0.00000000000E+00 0.  1.
<mgrwt>
<rscale>  0 0.28672091E+04</rscale>
<asrwt>0</asrwt>
<pdfrwt beam="1">  1        2 0.48048799E+00 0.28672091E+04</pdfrwt>
<pdfrwt beam="2">  1       -1 0.10123938E+00 0.28672091E+04</pdfrwt>
<totfact> 0.13243351E+00</totfact>
</mgrwt>
</event>
<event>
12    6  0.1521603E-007  0.1399446E+04  0.7818608E-02  0.8954220E-01
         -1   -1    0    0    0  501 -0.00000000000E+00  0.00000000000E+00  0.16522486213E+03  0.16522486213E+03  0.00000000000E+00 0.  1.
          2   -1    0    0  501    0  0.00000000000E+00 -0.00000000000E+00 -0.29633082863E+04  0.29633082863E+04  0.00000000000E+00 0. -1.
         24    2    1    2    0    0 -0.20652910551E+03  0.28489533759E+03 -0.36197267369E+03  0.51071415937E+03  0.77363500964E+02 0.  0.
        254    2    1    2    0    0  0.20652910551E+03 -0.28489533759E+03 -0.24361107505E+04  0.26178189891E+04  0.89135910052E+03 0.  0.
         23    2    4    4    0    0  0.26455837732E+03 -0.22231203008E+03 -0.24640866613E+04  0.24898637747E+04  0.91020701391E+02 0.  0.
         23    2    4    4    0    0 -0.58029271810E+02 -0.62583307512E+02  0.27975910796E+02  0.12795521445E+03  0.91136263665E+02 0.  0.
          2    1    3    3  502    0 -0.19577708497E+03  0.27233089006E+03 -0.36289517246E+03  0.49415148171E+03  0.00000000000E+00 0. -1.
         -1    1    3    3    0  502 -0.10752020539E+02  0.12564447531E+02  0.92249876884E+00  0.16562677664E+02  0.00000000000E+00 0.  1.
         11    1    5    5    0    0  0.26353396686E+03 -0.20179212289E+03 -0.23915572729E+04  0.24144805657E+04  0.00000000000E+00 0. -1.
        -11    1    5    5    0    0  0.10244104576E+01 -0.20519907182E+02 -0.72529388400E+02  0.75383208934E+02  0.00000000000E+00 0.  1.
          2    1    6    6  503    0  0.81819076026E+01  0.30650826898E+00 -0.22269096310E+02  0.23726571809E+02  0.00000000000E+00 0.  1.
         -2    1    6    6    0  503 -0.66211179413E+02 -0.62889815781E+02  0.50245007107E+02  0.10422864264E+03  0.00000000000E+00 0. -1.
<mgrwt>
<rscale>  0 0.13994459E+04</rscale>
<asrwt>0</asrwt>
<pdfrwt beam="1">  1        2 0.45589360E+00 0.13994459E+04</pdfrwt>
<pdfrwt beam="2">  1       -1 0.25419209E-01 0.13994459E+04</pdfrwt>
<totfact> 0.27938614E+01</totfact>
</mgrwt>
</event>
<event>
12    6  0.1521603E-007  0.1928081E+04  0.7818608E-02  0.8641003E-01
         -1   -1    0    0    0  501 -0.00000000000E+00  0.00000000000E+00  0.54822126627E+03  0.54822126627E+03  0.00000000000E+00 0.  1.
          2   -1    0    0  501    0  0.00000000000E+00 -0.00000000000E+00 -0.16952544528E+04  0.16952544528E+04  0.00000000000E+00 0. -1.
         24    2    1    2    0    0  0.42032027109E+03 -0.36111476033E+03  0.14128742732E+03  0.57737705399E+03  0.79555797628E+02 0.  0.
        254    2    1    2    0    0 -0.42032027109E+03  0.36111476033E+03 -0.12883206139E+04  0.16660986651E+04  0.89946748539E+03 0.  0.
         23    2    4    4    0    0 -0.18553484896E+03  0.30426118462E+03 -0.13514907944E+04  0.14003557618E+04  0.86434041992E+02 0.  0.
         23    2    4    4    0    0 -0.23478542213E+03  0.56853575705E+02  0.63170180582E+02  0.26574290324E+03  0.90952159903E+02 0.  0.
          2    1    3    3  502    0  0.57763228656E+02 -0.54932843550E+02  0.50094839448E+02  0.94147229511E+02  0.00000000000E+00 0. -1.
         -1    1    3    3    0  502  0.36255704244E+03 -0.30618191678E+03  0.91192587872E+02  0.48322982448E+03  0.00000000000E+00 0.  1.
         11    1    5    5    0    0 -0.12779351054E+02  0.78878737447E+02 -0.23060345571E+03  0.24405556913E+03  0.00000000000E+00 0. -1.
        -11    1    5    5    0    0 -0.17275549791E+03  0.22538244718E+03 -0.11208873387E+04  0.11563001927E+04  0.00000000000E+00 0.  1.
          2    1    6    6  503    0 -0.22798792324E+03  0.37183615715E+02  0.73629750207E+02  0.24245093222E+03  0.00000000000E+00 0.  1.
         -2    1    6    6    0  503 -0.67974988978E+01  0.19669959989E+02 -0.10459569625E+02  0.23291971020E+02  0.00000000000E+00 0. -1.
<mgrwt>
<rscale>  0 0.19280815E+04</rscale>
<asrwt>0</asrwt>
<pdfrwt beam="1">  1        2 0.26080838E+00 0.19280815E+04</pdfrwt>
<pdfrwt beam="2">  1       -1 0.84341734E-01 0.19280815E+04</pdfrwt>
<totfact> 0.14621921E+01</totfact>
</mgrwt>
</event>
<event>
12    6  0.1521603E-007  0.2989922E+04  0.7818608E-02  0.8246614E-01
         -1   -1    0    0    0  501 -0.00000000000E+00  0.00000000000E+00  0.94495634266E+03  0.94495634266E+03  0.00000000000E+00 0.  1.
          2   -1    0    0  501    0  0.00000000000E+00 -0.00000000000E+00 -0.23650921777E+04  0.23650921777E+04  0.00000000000E+00 0. -1.
         24    2    1    2    0    0  0.61399659227E+03 -0.45378247370E+02  0.69205952747E+03  0.93000910218E+03  0.83183772000E+02 0.  0.
        254    2    1    2    0    0 -0.61399659227E+03  0.45378247370E+02 -0.21121953625E+04  0.23800394182E+04  0.90783664940E+03 0.  0.
         23    2    4    4    0    0 -0.67751109252E+03 -0.25424111382E+03 -0.17524715794E+04  0.18980362521E+04  0.87892850058E+02 0.  0.
         23    2    4    4    0    0  0.63514500255E+02  0.29961936119E+03 -0.35972378308E+03  0.48200316608E+03  0.95498684035E+02 0.  0.
          2    1    3    3  502    0  0.29772028698E+03  0.19428461447E+02  0.32571537277E+03  0.44170729953E+03  0.00000000000E+00 0. -1.
         -3    1    3    3    0  502  0.31627630528E+03 -0.64806708817E+02  0.36634415470E+03  0.48830180266E+03  0.00000000000E+00 0.  1.
         11    1    5    5    0    0 -0.13421068174E+03 -0.40363861122E+02 -0.25904099310E+03  0.29452331738E+03  0.00000000000E+00 0.  1.
        -11    1    5    5    0    0 -0.54330041079E+03 -0.21387725270E+03 -0.14934305863E+04  0.16035129347E+04  0.00000000000E+00 0. -1.
          3    1    6    6  503    0  0.29975345734E+02  0.25741741123E+03 -0.33263556306E+03  0.42167364486E+03  0.00000000000E+00 0. -1.
         -3    1    6    6    0  503  0.33539154521E+02  0.42201949968E+02 -0.27088220017E+02  0.60329521221E+02  0.00000000000E+00 0.  1.
<mgrwt>
<rscale>  0 0.29899223E+04</rscale>
<asrwt>0</asrwt>
<pdfrwt beam="1">  1        2 0.36386033E+00 0.29899223E+04</pdfrwt>
<pdfrwt beam="2">  1       -1 0.14537790E+00 0.29899223E+04</pdfrwt>
<totfact> 0.15381195E+00</totfact>
</mgrwt>
</event>
<event>
12    6  0.1521603E-007  0.1643873E+04  0.7818608E-02  0.8794040E-01
         -1   -1    0    0    0  501 -0.00000000000E+00  0.00000000000E+00  0.28568706352E+03  0.28568706352E+03  0.00000000000E+00 0.  1.
          2   -1    0    0  501    0  0.00000000000E+00 -0.00000000000E+00 -0.23647527849E+04  0.23647527849E+04  0.00000000000E+00 0. -1.
         24    2    1    2    0    0 -0.18141961983E+03  0.77844005829E+02  0.13642490162E+03  0.25215774199E+03  0.77453246290E+02 0.  0.
        254    2    1    2    0    0  0.18141961983E+03 -0.77844005829E+02 -0.22154906230E+04  0.23982821064E+04  0.89687546169E+03 0.  0.
         23    2    4    4    0    0 -0.37741354389E+02  0.22814445148E+03 -0.13626291650E+03  0.28316865944E+03  0.90236393436E+02 0.  0.
         23    2    4    4    0    0  0.21916097422E+03 -0.30598845731E+03 -0.20792277065E+04  0.21151134470E+04  0.94109349258E+02 0.  0.
          2    1    3    3  502    0 -0.13262965148E+03  0.43082080248E+02  0.52416724140E+02  0.14897718973E+03  0.00000000000E+00 0. -1.
         -1    1    3    3    0  502 -0.48789968352E+02  0.34761925581E+02  0.84008177476E+02  0.10318055226E+03  0.00000000000E+00 0.  1.
         11    1    5    5    0    0  0.24262536706E+02  0.42220835186E+02 -0.47463279407E+02  0.68000238995E+02  0.00000000000E+00 0. -1.
        -11    1    5    5    0    0 -0.62003891094E+02  0.18592361630E+03 -0.88799637096E+02  0.21516842044E+03  0.00000000000E+00 0.  1.
          3    1    6    6  503    0  0.52900895643E+02 -0.10129656844E+03 -0.86944437320E+03  0.87692246956E+03  0.00000000000E+00 0. -1.
         -3    1    6    6    0  503  0.16626007857E+03 -0.20469188887E+03 -0.12097833333E+04  0.12381909774E+04  0.00000000000E+00 0.  1.
<mgrwt>
<rscale>  0 0.16438726E+04</rscale>
<asrwt>0</asrwt>
<pdfrwt beam="1">  1        2 0.36380813E+00 0.16438726E+04</pdfrwt>
<pdfrwt beam="2">  1       -1 0.43951855E-01 0.16438726E+04</pdfrwt>
<totfact> 0.23225497E+01</totfact>
</mgrwt>
</event>
<event>
12    6  0.1521603E-007  0.1590462E+04  0.7818608E-02  0.8826429E-01
          2   -1    0    0  501    0  0.00000000000E+00  0.00000000000E+00  0.16860858351E+04  0.16860858351E+04  0.00000000000E+00 0. -1.
         -1   -1    0    0    0  501 -0.00000000000E+00 -0.00000000000E+00 -0.37506515023E+03  0.37506515023E+03  0.00000000000E+00 0.  1.
         24    2    1    2    0    0 -0.28738373211E+03  0.13083368082E+03 -0.11503485373E+03  0.34516757186E+03  0.78744990780E+02 0.  0.
        254    2    1    2    0    0  0.28738373211E+03 -0.13083368082E+03  0.14260555385E+04  0.17159834134E+04  0.90069851483E+03 0.  0.
         23    2    4    4    0    0  0.37418678043E+02  0.11752607544E+03 -0.76328619715E+02  0.16993441509E+03  0.88538756306E+02 0.  0.
         23    2    4    4    0    0  0.24996505406E+03 -0.24835975626E+03  0.15023841583E+04  0.15460489983E+04  0.94574042359E+02 0.  0.
          4    1    3    3  502    0 -0.85979408765E+02  0.79883190656E+02 -0.34164721007E+02  0.12223342850E+03  0.00000000000E+00 0. -1.
         -3    1    3    3    0  502 -0.20140432334E+03  0.50950490162E+02 -0.80870132720E+02  0.22293414336E+03  0.00000000000E+00 0.  1.
         11    1    5    5    0    0  0.46355025846E+02  0.56082098856E+02 -0.79491971794E+02  0.10776346233E+03  0.00000000000E+00 0.  1.
        -11    1    5    5    0    0 -0.89363478026E+01  0.61443976584E+02  0.31633520782E+01  0.62170952759E+02  0.00000000000E+00 0. -1.
          4    1    6    6  503    0  0.67176235430E+01 -0.24773006136E+02  0.23156611560E+03  0.23298432177E+03  0.00000000000E+00 0. -1.
         -4    1    6    6    0  503  0.24324743052E+03 -0.22358675012E+03  0.12708180427E+04  0.13130646766E+04  0.00000000000E+00 0.  1.
<mgrwt>
<rscale>  0 0.15904616E+04</rscale>
<asrwt>0</asrwt>
<pdfrwt beam="1">  1        2 0.25939782E+00 0.15904616E+04</pdfrwt>
<pdfrwt beam="2">  1       -1 0.57702332E-01 0.15904616E+04</pdfrwt>
<totfact> 0.33202254E+01</totfact>
</mgrwt>
</event>
<event>
12    6  0.1521603E-007  0.1632577E+04  0.7818608E-02  0.8800781E-01
          2   -1    0    0  501    0  0.00000000000E+00  0.00000000000E+00  0.44396873083E+03  0.44396873083E+03  0.00000000000E+00 0. -1.
         -1   -1    0    0    0  501 -0.00000000000E+00 -0.00000000000E+00 -0.15008426137E+04  0.15008426137E+04  0.00000000000E+00 0.  1.
         24    2    1    2    0    0 -0.14212980821E+03  0.45958975215E+03 -0.71863853478E+03  0.86847568696E+03  0.79906523518E+02 0.  0.
        254    2    1    2    0    0  0.14212980821E+03 -0.45958975215E+03 -0.33823534809E+03  0.10763356576E+04  0.90148304166E+03 0.  0.
         23    2    4    4    0    0  0.22723226468E+03  0.13887927325E+03  0.12528570941E+03  0.30901294969E+03  0.94183541278E+02 0.  0.
         23    2    4    4    0    0 -0.85102456469E+02 -0.59846902539E+03 -0.46352105750E+03  0.76732270787E+03  0.92329653000E+02 0.  0.
          2    1    3    3  502    0 -0.61277779042E+02  0.25716006481E+03 -0.45678187377E+03  0.52776504748E+03  0.00000000000E+00 0. -1.
         -3    1    3    3    0  502 -0.80852029166E+02  0.20242968733E+03 -0.26185666101E+03  0.34071063947E+03  0.00000000000E+00 0.  1.
         11    1    5    5    0    0  0.20269957664E+03  0.83344626970E+02  0.80150015746E+02  0.23336124408E+03  0.00000000000E+00 0.  1.
        -11    1    5    5    0    0  0.24532688036E+02  0.55534646276E+02  0.45135693663E+02  0.75651705610E+02  0.00000000000E+00 0. -1.
          4    1    6    6  503    0  0.11139030532E+02 -0.15513416623E+03 -0.14825665239E+03  0.21487373621E+03  0.00000000000E+00 0. -1.
         -4    1    6    6    0  503 -0.96241487001E+02 -0.44333485916E+03 -0.31526440511E+03  0.55244897167E+03  0.00000000000E+00 0.  1.
<mgrwt>
<rscale>  0 0.16325773E+04</rscale>
<asrwt>0</asrwt>
<pdfrwt beam="1">  1        2 0.68302881E-01 0.16325773E+04</pdfrwt>
<pdfrwt beam="2">  1       -1 0.23089887E+00 0.16325773E+04</pdfrwt>
<totfact> 0.71926937E+00</totfact>
</mgrwt>
</event>
<event>
12    6  0.1521603E-007  0.1537197E+04  0.7818608E-02  0.8860087E-01
         -1   -1    0    0    0  501 -0.00000000000E+00  0.00000000000E+00  0.39792041338E+03  0.39792041338E+03  0.00000000000E+00 0.  1.
          2   -1    0    0  501    0  0.00000000000E+00 -0.00000000000E+00 -0.14845770110E+04  0.14845770110E+04  0.00000000000E+00 0. -1.
         24    2    1    2    0    0 -0.31427075727E+03 -0.82259176659E+02 -0.87053095538E+03  0.93245751563E+03  0.78231663443E+02 0.  0.
        254    2    1    2    0    0  0.31427075727E+03  0.82259176659E+02 -0.21612564225E+03  0.95003990875E+03  0.86621755580E+03 0.  0.
         23    2    4    4    0    0 -0.41534043572E+02 -0.34271440898E+03 -0.24474385748E+02  0.35680297865E+03  0.86782066805E+02 0.  0.
         23    2    4    4    0    0  0.35580480084E+03  0.42497358564E+03 -0.19165125650E+03  0.59323693010E+03  0.89444096099E+02 0.  0.
          2    1    3    3  502    0 -0.23967032624E+03 -0.95325610038E+02 -0.69313571241E+03  0.73957146580E+03  0.00000000000E+00 0. -1.
         -1    1    3    3    0  502 -0.74600431030E+02  0.13066433380E+02 -0.17739524297E+03  0.19288604983E+03  0.00000000000E+00 0.  1.
         11    1    5    5    0    0 -0.64975006616E+02 -0.26897583661E+03 -0.39015857750E+01  0.27673990412E+03  0.00000000000E+00 0.  1.
        -11    1    5    5    0    0  0.23440963044E+02 -0.73738572376E+02 -0.20572799973E+02  0.80063074530E+02  0.00000000000E+00 0. -1.
          2    1    6    6  503    0  0.66095674283E+02  0.93385476487E+02 -0.36683990129E+01  0.11446808520E+03  0.00000000000E+00 0. -1.
         -2    1    6    6    0  503  0.28970912656E+03  0.33158810915E+03 -0.18798285748E+03  0.47876884490E+03  0.00000000000E+00 0.  1.
<mgrwt>
<rscale>  0 0.15371968E+04</rscale>
<asrwt>0</asrwt>
<pdfrwt beam="1">  1        2 0.22839646E+00 0.15371968E+04</pdfrwt>
<pdfrwt beam="2">  1       -1 0.61218526E-01 0.15371968E+04</pdfrwt>
<totfact> 0.38480571E+01</totfact>
</mgrwt>
</event>
<event>
12    6  0.1521603E-007  0.1457148E+04  0.7818608E-02  0.8913460E-01
          2   -1    0    0  501    0  0.00000000000E+00  0.00000000000E+00  0.11847179398E+04  0.11847179398E+04  0.00000000000E+00 0. -1.
         -1   -1    0    0    0  501 -0.00000000000E+00 -0.00000000000E+00 -0.44805591083E+03  0.44805591083E+03  0.00000000000E+00 0.  1.
         24    2    1    2    0    0 -0.15200146896E+03  0.10193520283E+03 -0.24067578546E+03  0.31279795145E+03  0.80140455315E+02 0.  0.
        254    2    1    2    0    0  0.15200146896E+03 -0.10193520283E+03  0.97733781446E+03  0.13199758992E+04  0.86813129120E+03 0.  0.
         23    2    4    4    0    0 -0.20428020106E+03 -0.85778093116E+02  0.91576279212E+03  0.94623427701E+03  0.87461613021E+02 0.  0.
         23    2    4    4    0    0  0.35628167002E+03 -0.16157109717E+02  0.61575022342E+02  0.37374162220E+03  0.93239670740E+02 0.  0.
          2    1    3    3  502    0  0.26182650391E+01 -0.80084376352E+01 -0.36224478881E+01  0.91712874710E+01  0.00000000000E+00 0. -1.
         -1    1    3    3    0  502 -0.15461973400E+03  0.10994364047E+03 -0.23705333757E+03  0.30362666397E+03  0.00000000000E+00 0.  1.
         11    1    5    5    0    0 -0.12200356114E+03 -0.36784403974E+02  0.35109918028E+03  0.37350849482E+03  0.00000000000E+00 0. -1.
        -11    1    5    5    0    0 -0.82276639918E+02 -0.48993689143E+02  0.56466361184E+03  0.57272578219E+03  0.00000000000E+00 0.  1.
          1    1    6    6  503    0  0.14486193453E+03  0.37091576011E+02  0.39109423096E+02  0.15456491213E+03  0.00000000000E+00 0. -1.
         -1    1    6    6    0  503  0.21141973549E+03 -0.53248685729E+02  0.22465599245E+02  0.21917671007E+03  0.00000000000E+00 0.  1.
<mgrwt>
<rscale>  0 0.14571477E+04</rscale>
<asrwt>0</asrwt>
<pdfrwt beam="1">  1        2 0.18226430E+00 0.14571477E+04</pdfrwt>
<pdfrwt beam="2">  1       -1 0.68931679E-01 0.14571477E+04</pdfrwt>
<totfact> 0.45532110E+01</totfact>
</mgrwt>
</event>
<event>
12    6  0.1521603E-007  0.1443538E+04  0.7818608E-02  0.8922893E-01
         -1   -1    0    0    0  501 -0.00000000000E+00  0.00000000000E+00  0.76037853101E+03  0.76037853101E+03  0.00000000000E+00 0.  1.
          2   -1    0    0  501    0  0.00000000000E+00 -0.00000000000E+00 -0.68512018603E+03  0.68512018603E+03  0.00000000000E+00 0. -1.
         24    2    1    2    0    0  0.23550569770E+03  0.33151153495E+03 -0.12178525442E+03  0.43193411510E+03  0.79828567175E+02 0.  0.
        254    2    1    2    0    0 -0.23550569770E+03 -0.33151153495E+03  0.19704359941E+03  0.10135646019E+04  0.90726191963E+03 0.  0.
         23    2    4    4    0    0  0.19425863559E+02 -0.22662891326E+02 -0.33097098748E+03  0.34473097225E+03  0.91687937345E+02 0.  0.
         23    2    4    4    0    0 -0.25493156126E+03 -0.30884864362E+03  0.52801458689E+03  0.66883362970E+03  0.90340658929E+02 0.  0.
          2    1    3    3  502    0  0.20859416185E+03  0.32113322897E+03 -0.12521935061E+03  0.40288703240E+03  0.00000000000E+00 0. -1.
         -1    1    3    3    0  502  0.26911535849E+02  0.10378305976E+02  0.34340961858E+01  0.29047082699E+02  0.00000000000E+00 0.  1.
         11    1    5    5    0    0  0.54369116983E+02 -0.11156357090E+02 -0.24520030149E+03  0.25140336719E+03  0.00000000000E+00 0. -1.
        -11    1    5    5    0    0 -0.34943253424E+02 -0.11506534235E+02 -0.85770685997E+02  0.93327605061E+02  0.00000000000E+00 0.  1.
          1    1    6    6  503    0 -0.25837573927E+03 -0.30526492478E+03  0.52957666752E+03  0.66362349546E+03  0.00000000000E+00 0. -1.
         -1    1    6    6    0  503  0.34441780168E+01 -0.35837188420E+01 -0.15620806242E+01  0.52101342426E+01  0.00000000000E+00 0.  1.
<mgrwt>
<rscale>  0 0.14435383E+04</rscale>
<asrwt>0</asrwt>
<pdfrwt beam="1">  1        2 0.10540311E+00 0.14435383E+04</pdfrwt>
<pdfrwt beam="2">  1       -1 0.11698131E+00 0.14435383E+04</pdfrwt>
<totfact> 0.30746511E+01</totfact>
</mgrwt>
</event>
<event>
12    6  0.1521603E-007  0.1406508E+04  0.7818608E-02  0.8949121E-01
         -1   -1    0    0    0  501 -0.00000000000E+00  0.00000000000E+00  0.16692451388E+03  0.16692451388E+03  0.00000000000E+00 0.  1.
          2   -1    0    0  501    0  0.00000000000E+00 -0.00000000000E+00 -0.29628127836E+04  0.29628127836E+04  0.00000000000E+00 0. -1.
         24    2    1    2    0    0 -0.36871223205E+03  0.17864545794E+03 -0.82773047519E+03  0.92693346869E+03  0.78771861204E+02 0.  0.
        254    2    1    2    0    0  0.36871223205E+03 -0.17864545794E+03 -0.19681577946E+04  0.22028038288E+04  0.90046471019E+03 0.  0.
         23    2    4    4    0    0  0.35501757486E+03 -0.49046240984E+03 -0.91804237120E+03  0.11035173193E+04  0.91421139579E+02 0.  0.
         23    2    4    4    0    0  0.13694657182E+02  0.31181695190E+03 -0.10501154233E+04  0.10992865095E+04  0.90945436962E+02 0.  0.
          2    1    3    3  502    0 -0.13797114671E+03  0.28883238731E+02 -0.24834566646E+03  0.28556233794E+03  0.00000000000E+00 0. -1.
         -1    1    3    3    0  502 -0.23074108534E+03  0.14976221921E+03 -0.57938480873E+03  0.64137113075E+03  0.00000000000E+00 0.  1.
         11    1    5    5    0    0  0.35326821093E+03 -0.48167211864E+03 -0.87432873745E+03  0.10588943289E+04  0.00000000000E+00 0. -1.
        -11    1    5    5    0    0  0.17493639354E+01 -0.87902911981E+01 -0.43713633757E+02  0.44622990373E+02  0.00000000000E+00 0.  1.
          3    1    6    6  503    0  0.14212586819E+02  0.27153707289E+03 -0.99189012563E+03  0.10284845166E+04  0.00000000000E+00 0. -1.
         -3    1    6    6    0  503 -0.51792963623E+00  0.40279879012E+02 -0.58225297714E+02  0.70801992897E+02  0.00000000000E+00 0.  1.
<mgrwt>
<rscale>  0 0.14065079E+04</rscale>
<asrwt>0</asrwt>
<pdfrwt beam="1">  1        2 0.45581736E+00 0.14065079E+04</pdfrwt>
<pdfrwt beam="2">  1       -1 0.25680694E-01 0.14065079E+04</pdfrwt>
<totfact> 0.27451974E+01</totfact>
</mgrwt>
</event>
<event>
12    6  0.1521603E-007  0.2344159E+04  0.7818608E-02  0.8460710E-01
          2   -1    0    0  501    0  0.00000000000E+00  0.00000000000E+00  0.16667244917E+04  0.16667244917E+04  0.00000000000E+00 0. -1.
         -1   -1    0    0    0  501 -0.00000000000E+00 -0.00000000000E+00 -0.82423387668E+03  0.82423387668E+03  0.00000000000E+00 0.  1.
         24    2    1    2    0    0  0.12451299823E+03  0.62255672079E+03 -0.45657109208E+03  0.78602568820E+03  0.79365376923E+02 0.  0.
        254    2    1    2    0    0 -0.12451299823E+03 -0.62255672079E+03  0.12990617071E+04  0.17049326802E+04  0.90341229112E+03 0.  0.
         23    2    4    4    0    0 -0.40842268858E+03 -0.65791150937E+01  0.53349150360E+03  0.67803591877E+03  0.90923844099E+02 0.  0.
         23    2    4    4    0    0  0.28390969036E+03 -0.61597760570E+03  0.76557020348E+03  0.10268967614E+04  0.91575646824E+02 0.  0.
          2    1    3    3  502    0 -0.58749338442E+01  0.10176239180E+03 -0.89679276242E+02  0.13576623962E+03  0.00000000000E+00 0. -1.
         -1    1    3    3    0  502  0.13038793207E+03  0.52079432899E+03 -0.36689181584E+03  0.65025944858E+03  0.00000000000E+00 0.  1.
         11    1    5    5    0    0 -0.19519653017E+03  0.41537665282E+02  0.24143299666E+03  0.31323626052E+03  0.00000000000E+00 0. -1.
        -11    1    5    5    0    0 -0.21322615842E+03 -0.48116780376E+02  0.29205850694E+03  0.36479965825E+03  0.00000000000E+00 0.  1.
          3    1    6    6  503    0  0.42992644576E+02 -0.54395264927E+02  0.11543775500E+03  0.13465915347E+03  0.00000000000E+00 0. -1.
         -3    1    6    6    0  503  0.24091704578E+03 -0.56158234077E+03  0.65013244848E+03  0.89223760792E+03  0.00000000000E+00 0.  1.
<mgrwt>
<rscale>  0 0.23441594E+04</rscale>
<asrwt>0</asrwt>
<pdfrwt beam="1">  1        2 0.25641915E+00 0.23441594E+04</pdfrwt>
<pdfrwt beam="2">  1       -1 0.12680521E+00 0.23441594E+04</pdfrwt>
<totfact> 0.56843867E+00</totfact>
</mgrwt>
</event>
<event>
12    6  0.1521603E-007  0.3940848E+04  0.7818608E-02  0.8016587E-01
          2   -1    0    0  501    0  0.00000000000E+00  0.00000000000E+00  0.20554005464E+04  0.20554005464E+04  0.00000000000E+00 0. -1.
         -1   -1    0    0    0  501 -0.00000000000E+00 -0.00000000000E+00 -0.18889607992E+04  0.18889607992E+04  0.00000000000E+00 0.  1.
         24    2    1    2    0    0 -0.30958184889E+03 -0.80204253568E+03  0.17365906637E+04  0.19393446477E+04  0.78723436080E+02 0.  0.
        254    2    1    2    0    0  0.30958184889E+03  0.80204253568E+03 -0.15701509164E+04  0.20050166979E+04  0.90310846976E+03 0.  0.
         23    2    4    4    0    0  0.42878153439E+02 -0.18757285272E+03 -0.20622827941E+03  0.29666693857E+03  0.91973137886E+02 0.  0.
         23    2    4    4    0    0  0.26670369545E+03  0.98961538840E+03 -0.13639226370E+04  0.17083497593E+04  0.87775065742E+02 0.  0.
          4    1    3    3  502    0 -0.29496075819E+03 -0.77435894107E+03  0.16342560812E+04  0.18323281795E+04  0.00000000000E+00 0. -1.
         -3    1    3    3    0  502 -0.14621090703E+02 -0.27683594608E+02  0.10233458249E+03  0.10701646825E+03  0.00000000000E+00 0.  1.
         11    1    5    5    0    0  0.37931929599E+02 -0.22364212511E+02 -0.68941456764E+02  0.81804118143E+02  0.00000000000E+00 0.  1.
        -11    1    5    5    0    0  0.49462238407E+01 -0.16520864021E+03 -0.13728682264E+03  0.21486282043E+03  0.00000000000E+00 0. -1.
          2    1    6    6  503    0  0.22996905782E+01  0.10594787774E+03 -0.12779929602E+03  0.16602078616E+03  0.00000000000E+00 0.  1.
         -2    1    6    6    0  503  0.26440400488E+03  0.88366751066E+03 -0.12361233410E+04  0.15423289731E+04  0.00000000000E+00 0. -1.
<mgrwt>
<rscale>  0 0.39408482E+04</rscale>
<asrwt>0</asrwt>
<pdfrwt beam="1">  1        2 0.31621547E+00 0.39408482E+04</pdfrwt>
<pdfrwt beam="2">  1       -1 0.29060935E+00 0.39408482E+04</pdfrwt>
<totfact> 0.21318229E-01</totfact>
</mgrwt>
</event>
<event>
12    6  0.1521603E-007  0.1513613E+04  0.7818608E-02  0.8875450E-01
         -1   -1    0    0    0  501 -0.00000000000E+00  0.00000000000E+00  0.23067871662E+03  0.23067871662E+03  0.00000000000E+00 0.  1.
          2   -1    0    0  501    0  0.00000000000E+00 -0.00000000000E+00 -0.24829179673E+04  0.24829179673E+04  0.00000000000E+00 0. -1.
         24    2    1    2    0    0  0.17532845095E+03 -0.19910228154E+03 -0.14745166204E+04  0.15002577765E+04  0.78691472121E+02 0.  0.
        254    2    1    2    0    0 -0.17532845095E+03  0.19910228154E+03 -0.77772263022E+03  0.12133389074E+04  0.89272449860E+03 0.  0.
         23    2    4    4    0    0  0.12250273822E+03  0.20808366805E+03 -0.85454184579E+03  0.89280966625E+03  0.92528915284E+02 0.  0.
         23    2    4    4    0    0 -0.29783118918E+03 -0.89813865042E+01  0.76819215569E+02  0.32052924114E+03  0.89742520555E+02 0.  0.
          2    1    3    3  502    0  0.18216843158E+03 -0.18856942209E+03 -0.13590414138E+04  0.13841016324E+04  0.00000000000E+00 0. -1.
         -1    1    3    3    0  502 -0.68399806243E+01 -0.10532859449E+02 -0.11547520665E+03  0.11615614411E+03  0.00000000000E+00 0.  1.
         11    1    5    5    0    0  0.55432121017E+01 -0.64156345262E+01 -0.84867040742E+02  0.85289519702E+02  0.00000000000E+00 0. -1.
        -11    1    5    5    0    0  0.11695952612E+03  0.21449930257E+03 -0.76967480505E+03  0.80752014655E+03  0.00000000000E+00 0.  1.
          1    1    6    6  503    0 -0.47153388877E+02 -0.35591015620E+02  0.13028188997E+02  0.60497075830E+02  0.00000000000E+00 0. -1.
         -1    1    6    6    0  503 -0.25067780030E+03  0.26609629116E+02  0.63791026572E+02  0.26003216531E+03  0.00000000000E+00 0.  1.
<mgrwt>
<rscale>  0 0.15136133E+04</rscale>
<asrwt>0</asrwt>
<pdfrwt beam="1">  1        2 0.38198737E+00 0.15136133E+04</pdfrwt>
<pdfrwt beam="2">  1       -1 0.35489035E-01 0.15136133E+04</pdfrwt>
<totfact> 0.29706130E+01</totfact>
</mgrwt>
</event>
<event>
12    6  0.1521603E-007  0.2178394E+04  0.7818608E-02  0.8527475E-01
         -1   -1    0    0    0  501 -0.00000000000E+00  0.00000000000E+00  0.10232024788E+04  0.10232024788E+04  0.00000000000E+00 0.  1.
          2   -1    0    0  501    0  0.00000000000E+00 -0.00000000000E+00 -0.11594483518E+04  0.11594483518E+04  0.00000000000E+00 0. -1.
         24    2    1    2    0    0  0.18502199798E+02  0.29348197389E+03 -0.91036627663E+03  0.96009497327E+03  0.80880156197E+02 0.  0.
        254    2    1    2    0    0 -0.18502199798E+02 -0.29348197389E+03  0.77412040363E+03  0.12225558573E+04  0.89939225287E+03 0.  0.
         23    2    4    4    0    0  0.14269490596E+03  0.40390943394E+02 -0.14381208886E+03  0.22800760033E+03  0.96500178295E+02 0.  0.
         23    2    4    4    0    0 -0.16119710575E+03 -0.33387291729E+03  0.91793249249E+03  0.99454825697E+03  0.95239397749E+02 0.  0.
          2    1    3    3  502    0 -0.85062614554E+01  0.22954989606E+03 -0.61005947563E+03  0.65187274454E+03  0.00000000000E+00 0. -1.
         -1    1    3    3    0  502  0.27008461253E+02  0.63932077838E+02 -0.30030680100E+03  0.30822222873E+03  0.00000000000E+00 0.  1.
         11    1    5    5    0    0  0.11273208003E+03 -0.14524118133E+02 -0.10237677475E+03  0.15297214087E+03  0.00000000000E+00 0.  1.
        -11    1    5    5    0    0  0.29962825924E+02  0.54915061527E+02 -0.41435314113E+02  0.75035459454E+02  0.00000000000E+00 0. -1.
          3    1    6    6  503    0  0.12970086998E+02 -0.22378664084E+02  0.58402388157E+02  0.63873834278E+02  0.00000000000E+00 0. -1.
         -3    1    6    6    0  503 -0.17416719275E+03 -0.31149425321E+03  0.85953010433E+03  0.93067442270E+03  0.00000000000E+00 0.  1.
<mgrwt>
<rscale>  0 0.21783943E+04</rscale>
<asrwt>0</asrwt>
<pdfrwt beam="1">  1        2 0.17837667E+00 0.21783943E+04</pdfrwt>
<pdfrwt beam="2">  1       -1 0.15741577E+00 0.21783943E+04</pdfrwt>
<totfact> 0.63964593E+00</totfact>
</mgrwt>
</event>
<event>
12    6  0.1521603E-007  0.1978074E+04  0.7818608E-02  0.8616941E-01
          2   -1    0    0  501    0  0.00000000000E+00  0.00000000000E+00  0.57393709283E+03  0.57393709283E+03  0.00000000000E+00 0. -1.
         -1   -1    0    0    0  501 -0.00000000000E+00 -0.00000000000E+00 -0.17043578925E+04  0.17043578925E+04  0.00000000000E+00 0.  1.
         24    2    1    2    0    0 -0.25532941464E+03  0.20268405724E+03  0.36938826197E+03  0.49953973727E+03  0.82573143291E+02 0.  0.
        254    2    1    2    0    0  0.25532941464E+03 -0.20268405724E+03 -0.14998090616E+04  0.17787552480E+04  0.89903786019E+03 0.  0.
         23    2    4    4    0    0  0.33743919414E+03  0.15235551265E+03 -0.21013849388E+03  0.43551716882E+03  0.91867326902E+02 0.  0.
         23    2    4    4    0    0 -0.82109779502E+02 -0.35503956989E+03 -0.12896705677E+04  0.13432380792E+04  0.90792356942E+02 0.  0.
          4    1    3    3  502    0 -0.21991942088E+03  0.19836373643E+03  0.30023157835E+03  0.42172470196E+03  0.00000000000E+00 0. -1.
         -3    1    3    3    0  502 -0.35409993760E+02  0.43203208070E+01  0.69156683621E+02  0.77815035305E+02  0.00000000000E+00 0.  1.
         11    1    5    5    0    0  0.49767401478E+02  0.35472220894E+01 -0.61398849715E+02  0.79115079351E+02  0.00000000000E+00 0.  1.
        -11    1    5    5    0    0  0.28767179266E+03  0.14880829056E+03 -0.14873964416E+03  0.35640208947E+03  0.00000000000E+00 0. -1.
          1    1    6    6  503    0 -0.28405127425E+02 -0.23954142175E+03 -0.95931690911E+03  0.98917939531E+03  0.00000000000E+00 0. -1.
         -1    1    6    6    0  503 -0.53704652078E+02 -0.11549814814E+03 -0.33035365861E+03  0.35405868388E+03  0.00000000000E+00 0.  1.
<mgrwt>
<rscale>  0 0.19780740E+04</rscale>
<asrwt>0</asrwt>
<pdfrwt beam="1">  1        2 0.88298015E-01 0.19780740E+04</pdfrwt>
<pdfrwt beam="2">  1       -1 0.26220890E+00 0.19780740E+04</pdfrwt>
<totfact> 0.32290852E+00</totfact>
</mgrwt>
</event>
<event>
12    6  0.1521603E-007  0.1536778E+04  0.7818608E-02  0.8860358E-01
          2   -1    0    0  501    0  0.00000000000E+00  0.00000000000E+00  0.23719198918E+04  0.23719198918E+04  0.00000000000E+00 0. -1.
         -1   -1    0    0    0  501 -0.00000000000E+00 -0.00000000000E+00 -0.24892148242E+03  0.24892148242E+03  0.00000000000E+00 0.  1.
         24    2    1    2    0    0  0.40848908570E+03  0.28656751918E+03  0.59935884627E+03  0.78353754432E+03  0.75602781421E+02 0.  0.
        254    2    1    2    0    0 -0.40848908570E+03 -0.28656751918E+03  0.15236395631E+04  0.18373038299E+04  0.89734250369E+03 0.  0.
         23    2    4    4    0    0 -0.17782953773E+03 -0.22431801896E+03  0.15502220350E+04  0.15790387868E+04  0.90737061010E+02 0.  0.
         23    2    4    4    0    0 -0.23065954798E+03 -0.62249500223E+02 -0.26582471932E+02  0.25826504309E+03  0.94421275764E+02 0.  0.
          2    1    3    3  502    0  0.93213766646E+02  0.55009014916E+02  0.18017443189E+03  0.21018473760E+03  0.00000000000E+00 0. -1.
         -1    1    3    3    0  502  0.31527531906E+03  0.23155850426E+03  0.41918441438E+03  0.57335280671E+03  0.00000000000E+00 0.  1.
         11    1    5    5    0    0 -0.71170816689E+02 -0.85593523903E+02  0.85115807772E+03  0.85840643622E+03  0.00000000000E+00 0. -1.
        -11    1    5    5    0    0 -0.10665872104E+03 -0.13872449505E+03  0.69906395730E+03  0.72063235057E+03  0.00000000000E+00 0.  1.
          2    1    6    6  503    0 -0.16743427391E+03 -0.74563463559E+02 -0.49572464012E+02  0.18987199732E+03  0.00000000000E+00 0. -1.
         -2    1    6    6    0  503 -0.63225274070E+02  0.12313963336E+02  0.22989992080E+02  0.68393045773E+02  0.00000000000E+00 0.  1.
<mgrwt>
<rscale>  0 0.15367782E+04</rscale>
<asrwt>0</asrwt>
<pdfrwt beam="1">  1        2 0.36491074E+00 0.15367782E+04</pdfrwt>
<pdfrwt beam="2">  1       -1 0.38295614E-01 0.15367782E+04</pdfrwt>
<totfact> 0.29908810E+01</totfact>
</mgrwt>
</event>
<event>
12    6  0.1521603E-007  0.1476579E+04  0.7818608E-02  0.8900179E-01
         -3   -1    0    0    0  501 -0.00000000000E+00  0.00000000000E+00  0.17893654129E+03  0.17893654129E+03  0.00000000000E+00 0.  1.
          2   -1    0    0  501    0  0.00000000000E+00 -0.00000000000E+00 -0.30461705341E+04  0.30461705341E+04  0.00000000000E+00 0. -1.
         24    2    1    2    0    0 -0.84376552488E+02  0.26177639921E+03 -0.17196742406E+04  0.17434997446E+04  0.82858795743E+02 0.  0.
        254    2    1    2    0    0  0.84376552488E+02 -0.26177639921E+03 -0.11475597523E+04  0.14816073308E+04  0.89589095981E+03 0.  0.
         23    2    4    4    0    0  0.30674659859E+03  0.13795907258E+03 -0.87416988222E+03  0.94102361131E+03  0.90698801570E+02 0.  0.
         23    2    4    4    0    0 -0.22237004610E+03 -0.39973547179E+03 -0.27338987007E+03  0.54058371951E+03  0.90839704631E+02 0.  0.
          2    1    3    3  502    0 -0.20239623938E+02  0.18221215641E+03 -0.11926317006E+04  0.12066404956E+04  0.00000000000E+00 0. -1.
         -1    1    3    3    0  502 -0.64136928550E+02  0.79564242792E+02 -0.52704253998E+03  0.53685924904E+03  0.00000000000E+00 0.  1.
         11    1    5    5    0    0  0.50181967741E+02  0.63303721956E+02 -0.22174157881E+03  0.23599770947E+03  0.00000000000E+00 0.  1.
        -11    1    5    5    0    0  0.25656463084E+03  0.74655350627E+02 -0.65242830341E+03  0.70502590184E+03  0.00000000000E+00 0. -1.
          1    1    6    6  503    0 -0.13129793660E+03 -0.31430096144E+03 -0.21437080199E+03  0.40246625109E+03  0.00000000000E+00 0. -1.
         -1    1    6    6    0  503 -0.91072109501E+02 -0.85434510345E+02 -0.59019068078E+02  0.13811746842E+03  0.00000000000E+00 0.  1.
<mgrwt>
<rscale>  0 0.14765788E+04</rscale>
<asrwt>0</asrwt>
<pdfrwt beam="1">  1        2 0.46864161E+00 0.14765788E+04</pdfrwt>
<pdfrwt beam="2">  1       -3 0.27528699E-01 0.14765788E+04</pdfrwt>
<totfact> 0.13190151E+01</totfact>
</mgrwt>
</event>
<event>
12    6  0.1521603E-007  0.2491526E+04  0.7818608E-02  0.8406011E-01
          2   -1    0    0  501    0  0.00000000000E+00  0.00000000000E+00  0.38525178189E+04  0.38525178189E+04  0.00000000000E+00 0. -1.
         -1   -1    0    0    0  501 -0.00000000000E+00 -0.00000000000E+00 -0.40283417374E+03  0.40283417374E+03  0.00000000000E+00 0.  1.
         24    2    1    2    0    0 -0.77478948207E+03 -0.45451732569E+03  0.48698291948E+03  0.10246404084E+04  0.76490925657E+02 0.  0.
        254    2    1    2    0    0  0.77478948207E+03  0.45451732569E+03  0.29627007256E+04  0.32307115842E+04  0.92358919978E+03 0.  0.
         23    2    4    4    0    0  0.20009338371E+03 -0.18510948499E+03  0.15339551939E+04  0.15605889762E+04  0.90091796881E+02 0.  0.
         23    2    4    4    0    0  0.57469609836E+03  0.63962681068E+03  0.14287455317E+04  0.16701226081E+04  0.92723617470E+02 0.  0.
          4    1    3    3  502    0 -0.18415376948E+03 -0.73273744827E+02  0.95701567279E+02  0.22009189552E+03  0.00000000000E+00 0. -1.
         -3    1    3    3    0  502 -0.59063571259E+03 -0.38124358086E+03  0.39128135220E+03  0.80454851284E+03  0.00000000000E+00 0.  1.
         11    1    5    5    0    0  0.25505909939E+01 -0.39581640417E+02  0.28655130229E+03  0.28928335696E+03  0.00000000000E+00 0.  1.
        -11    1    5    5    0    0  0.19754279271E+03 -0.14552784458E+03  0.12474038917E+04  0.12713056192E+04  0.00000000000E+00 0. -1.
          3    1    6    6  503    0  0.52095437737E+03  0.53521579022E+03  0.12542878563E+04  0.14598244524E+04  0.00000000000E+00 0. -1.
         -3    1    6    6    0  503  0.53741720986E+02  0.10441102046E+03  0.17445767540E+03  0.21029815566E+03  0.00000000000E+00 0.  1.
<mgrwt>
<rscale>  0 0.24915263E+04</rscale>
<asrwt>0</asrwt>
<pdfrwt beam="1">  1        2 0.59269502E+00 0.24915263E+04</pdfrwt>
<pdfrwt beam="2">  1       -1 0.61974491E-01 0.24915263E+04</pdfrwt>
<totfact> 0.12031697E+00</totfact>
</mgrwt>
</event>
<event>
12    6  0.1521603E-007  0.1845122E+04  0.7818608E-02  0.8682666E-01
         -1   -1    0    0    0  501 -0.00000000000E+00  0.00000000000E+00  0.56897938480E+03  0.56897938480E+03  0.00000000000E+00 0.  1.
          2   -1    0    0  501    0  0.00000000000E+00 -0.00000000000E+00 -0.14958690559E+04  0.14958690559E+04  0.00000000000E+00 0. -1.
         24    2    1    2    0    0  0.35768320593E+03  0.48637778985E+03  0.46956300423E+02  0.61028684571E+03  0.75792543404E+02 0.  0.
        254    2    1    2    0    0 -0.35768320593E+03 -0.48637778985E+03 -0.97384597153E+03  0.14545615950E+04  0.89603171099E+03 0.  0.
         23    2    4    4    0    0  0.82466657970E+02 -0.17287549827E+02 -0.76139819552E+03  0.77156793706E+03  0.92142608550E+02 0.  0.
         23    2    4    4    0    0 -0.44014986390E+03 -0.46909024002E+03 -0.21244777601E+03  0.68299365793E+03  0.86998409579E+02 0.  0.
          4    1    3    3  502    0  0.24888167780E+03  0.38601505060E+03  0.19260330476E+02  0.45969627926E+03  0.00000000000E+00 0. -1.
         -3    1    3    3    0  502  0.10880152813E+03  0.10036273924E+03  0.27695969947E+02  0.15059056645E+03  0.00000000000E+00 0.  1.
         11    1    5    5    0    0 -0.17440572264E+02  0.10225016543E+02 -0.16500429621E+03  0.16623820948E+03  0.00000000000E+00 0. -1.
        -11    1    5    5    0    0  0.99907230233E+02 -0.27512566370E+02 -0.59639389931E+03  0.60532972758E+03  0.00000000000E+00 0.  1.
          3    1    6    6  503    0 -0.41704139720E+02 -0.20209119646E+02 -0.31738024987E+02  0.56168906138E+02  0.00000000000E+00 0. -1.
         -3    1    6    6    0  503 -0.39844572418E+03 -0.44888112037E+03 -0.18070975103E+03  0.62682475179E+03  0.00000000000E+00 0.  1.
<mgrwt>
<rscale>  0 0.18451218E+04</rscale>
<asrwt>0</asrwt>
<pdfrwt beam="1">  1        2 0.23013370E+00 0.18451218E+04</pdfrwt>
<pdfrwt beam="2">  1       -1 0.87535291E-01 0.18451218E+04</pdfrwt>
<totfact> 0.17565121E+01</totfact>
</mgrwt>
</event>
<event>
12    6  0.1521603E-007  0.3287494E+04  0.7818608E-02  0.8166085E-01
          2   -1    0    0  501    0  0.00000000000E+00  0.00000000000E+00  0.30589691980E+04  0.30589691980E+04  0.00000000000E+00 0. -1.
         -1   -1    0    0    0  501 -0.00000000000E+00 -0.00000000000E+00 -0.88327284394E+03  0.88327284394E+03  0.00000000000E+00 0.  1.
         24    2    1    2    0    0 -0.43914530216E+03  0.98598919772E+02 -0.73215771615E+03  0.86309106242E+03  0.79378317646E+02 0.  0.
        254    2    1    2    0    0  0.43914530216E+03 -0.98598919772E+02  0.29078540702E+04  0.30791509795E+04  0.90718527200E+03 0.  0.
         23    2    4    4    0    0  0.48309320522E+03 -0.35223964395E+03  0.11482730555E+04  0.12978551742E+04  0.91897941030E+02 0.  0.
         23    2    4    4    0    0 -0.43947903054E+02  0.25364072418E+03  0.17595810147E+04  0.17812958053E+04  0.10307455339E+03 0.  0.
          2    1    3    3  502    0 -0.68308329778E+02 -0.48495071509E+01 -0.75799907776E+02  0.10215268795E+03  0.00000000000E+00 0. -1.
         -1    1    3    3    0  502 -0.37083697239E+03  0.10344842692E+03 -0.65635780837E+03  0.76093837446E+03  0.00000000000E+00 0.  1.
         11    1    5    5    0    0  0.46667981498E+03 -0.31552285170E+03  0.10912446630E+04  0.12280715102E+04  0.00000000000E+00 0. -1.
        -11    1    5    5    0    0  0.16413390240E+02 -0.36716792257E+02  0.57028392537E+02  0.69783664049E+02  0.00000000000E+00 0.  1.
          4    1    6    6  503    0 -0.21319123064E+02  0.32137129635E+02  0.55297789686E+03  0.55432107530E+03  0.00000000000E+00 0. -1.
         -4    1    6    6    0  503 -0.22628779990E+02  0.22150359455E+03  0.12066031178E+04  0.12269747300E+04  0.00000000000E+00 0.  1.
<mgrwt>
<rscale>  0 0.32874941E+04</rscale>
<asrwt>0</asrwt>
<pdfrwt beam="1">  1        2 0.47061064E+00 0.32874941E+04</pdfrwt>
<pdfrwt beam="2">  1       -1 0.13588813E+00 0.32874941E+04</pdfrwt>
<totfact> 0.68681064E-01</totfact>
</mgrwt>
</event>
<event>
12    6  0.1521603E-007  0.1467340E+04  0.7818608E-02  0.8906466E-01
          2   -1    0    0  501    0  0.00000000000E+00  0.00000000000E+00  0.34393876020E+03  0.34393876020E+03  0.00000000000E+00 0. -1.
         -1   -1    0    0    0  501 -0.00000000000E+00 -0.00000000000E+00 -0.15650225127E+04  0.15650225127E+04  0.00000000000E+00 0.  1.
         24    2    1    2    0    0 -0.28573134237E+03 -0.24113685217E+03 -0.68129518425E+03  0.78171120569E+03  0.84379497071E+02 0.  0.
        254    2    1    2    0    0  0.28573134237E+03  0.24113685217E+03 -0.53978856829E+03  0.11272500673E+04  0.91625958886E+03 0.  0.
         23    2    4    4    0    0  0.16579136178E+03  0.43924928045E+03  0.56164904678E+02  0.48133611308E+03  0.90018060518E+02 0.  0.
         23    2    4    4    0    0  0.11993998059E+03 -0.19811242829E+03 -0.59595347297E+03  0.64591395417E+03  0.91706930305E+02 0.  0.
          2    1    3    3  502    0 -0.59306453009E+02 -0.45552512900E+02 -0.76644710516E+02  0.10708267110E+03  0.00000000000E+00 0. -1.
         -1    1    3    3    0  502 -0.22642488936E+03 -0.19558433927E+03 -0.60465047373E+03  0.67462853458E+03  0.00000000000E+00 0.  1.
         11    1    5    5    0    0  0.10759057064E+03  0.35835149068E+03  0.17894271514E+02  0.37458206941E+03  0.00000000000E+00 0. -1.
        -11    1    5    5    0    0  0.58200791134E+02  0.80897789767E+02  0.38270633164E+02  0.10675404367E+03  0.00000000000E+00 0.  1.
          1    1    6    6  503    0  0.59926034386E+02 -0.17205645364E+03 -0.40592494271E+03  0.44493776188E+03  0.00000000000E+00 0. -1.
         -1    1    6    6    0  503  0.60013946207E+02 -0.26055974641E+02 -0.19002853026E+03  0.20097619229E+03  0.00000000000E+00 0.  1.
<mgrwt>
<rscale>  0 0.14673403E+04</rscale>
<asrwt>0</asrwt>
<pdfrwt beam="1">  1        2 0.52913656E-01 0.14673403E+04</pdfrwt>
<pdfrwt beam="2">  1       -1 0.24077269E+00 0.14673403E+04</pdfrwt>
<totfact> 0.83758249E+00</totfact>
</mgrwt>
</event>
<event>
12    6  0.1521603E-007  0.1351179E+04  0.7818608E-02  0.8989936E-01
          2   -1    0    0  501    0  0.00000000000E+00  0.00000000000E+00  0.32770357766E+04  0.32770357766E+04  0.00000000000E+00 0. -1.
         -1   -1    0    0    0  501 -0.00000000000E+00 -0.00000000000E+00 -0.13927873558E+03  0.13927873558E+03  0.00000000000E+00 0.  1.
         24    2    1    2    0    0  0.12303923236E+03 -0.48574180928E+02  0.11972115241E+02  0.16162511656E+03  0.92093664313E+02 0.  0.
        254    2    1    2    0    0 -0.12303923236E+03  0.48574180928E+02  0.31257849257E+04  0.32546893956E+04  0.89720318547E+03 0.  0.
         23    2    4    4    0    0  0.98007980542E+02  0.43002616011E+03  0.13895932548E+04  0.14607612447E+04  0.91246576599E+02 0.  0.
         23    2    4    4    0    0 -0.22104721290E+03 -0.38145197919E+03  0.17361916710E+04  0.17939281509E+04  0.97207043837E+02 0.  0.
          2    1    3    3  502    0  0.11254265417E+03 -0.19119873429E+02  0.38651611609E+02  0.12052122489E+03  0.00000000000E+00 0. -1.
         -1    1    3    3    0  502  0.10496578183E+02 -0.29454307499E+02 -0.26679496368E+02  0.41103891668E+02  0.00000000000E+00 0.  1.
         11    1    5    5    0    0  0.10385512796E+03  0.31437422360E+03  0.94439328326E+03  0.10007475773E+04  0.00000000000E+00 0.  1.
        -11    1    5    5    0    0 -0.58471474140E+01  0.11565193651E+03  0.44519997150E+03  0.46001366737E+03  0.00000000000E+00 0. -1.
          2    1    6    6  503    0 -0.94402769490E+02 -0.19583433717E+03  0.67271830671E+03  0.70697446254E+03  0.00000000000E+00 0. -1.
         -2    1    6    6    0  503 -0.12664444341E+03 -0.18561764201E+03  0.10634733643E+04  0.10869536883E+04  0.00000000000E+00 0.  1.
<mgrwt>
<rscale>  0 0.13511793E+04</rscale>
<asrwt>0</asrwt>
<pdfrwt beam="1">  1        2 0.50415929E+00 0.13511793E+04</pdfrwt>
<pdfrwt beam="2">  1       -1 0.21427500E-01 0.13511793E+04</pdfrwt>
<totfact> 0.23721268E+01</totfact>
</mgrwt>
</event>
<event>
12    6  0.1521603E-007  0.2598332E+04  0.7818608E-02  0.8368768E-01
          2   -1    0    0  501    0  0.00000000000E+00  0.00000000000E+00  0.69973848926E+03  0.69973848926E+03  0.00000000000E+00 0. -1.
         -1   -1    0    0    0  501 -0.00000000000E+00 -0.00000000000E+00 -0.24120897282E+04  0.24120897282E+04  0.00000000000E+00 0.  1.
         24    2    1    2    0    0  0.31252898533E+03 -0.16806148209E+03  0.54384447198E+03  0.65450076331E+03  0.81764362930E+02 0.  0.
        254    2    1    2    0    0 -0.31252898533E+03  0.16806148209E+03 -0.22561957109E+04  0.24573274541E+04  0.90670838888E+03 0.  0.
         23    2    4    4    0    0 -0.56459063799E+03  0.15009064276E+03 -0.20000209722E+04  0.20856110402E+04  0.91650051542E+02 0.  0.
         23    2    4    4    0    0  0.25206165267E+03  0.17970839333E+02 -0.25617473868E+03  0.37171641397E+03  0.93217851639E+02 0.  0.
          2    1    3    3  502    0  0.26308239572E+03 -0.11936032729E+03  0.47981730502E+03  0.56007488863E+03  0.00000000000E+00 0. -1.
         -1    1    3    3    0  502  0.49446589604E+02 -0.48701154799E+02  0.64027166956E+02  0.94425874688E+02  0.00000000000E+00 0.  1.
         11    1    5    5    0    0 -0.62410531230E+02  0.10211313866E+02 -0.33410395533E+03  0.34003646614E+03  0.00000000000E+00 0. -1.
        -11    1    5    5    0    0 -0.50218010676E+03  0.13987932889E+03 -0.16659170169E+04  0.17455745740E+04  0.00000000000E+00 0.  1.
          2    1    6    6  503    0  0.41909480485E+02  0.15483539052E+02 -0.61594892145E+01  0.45100818657E+02  0.00000000000E+00 0. -1.
         -2    1    6    6    0  503  0.21015217218E+03  0.24873002816E+01 -0.25001524947E+03  0.32661559531E+03  0.00000000000E+00 0.  1.
<mgrwt>
<rscale>  0 0.25983318E+04</rscale>
<asrwt>0</asrwt>
<pdfrwt beam="1">  1        2 0.10765207E+00 0.25983318E+04</pdfrwt>
<pdfrwt beam="2">  1       -1 0.37109073E+00 0.25983318E+04</pdfrwt>
<totfact> 0.46477104E-01</totfact>
</mgrwt>
</event>
<event>
12    6  0.1521603E-007  0.1343999E+04  0.7818608E-02  0.8995383E-01
         -1   -1    0    0    0  501 -0.00000000000E+00  0.00000000000E+00  0.25984798838E+03  0.25984798838E+03  0.00000000000E+00 0.  1.
          2   -1    0    0  501    0  0.00000000000E+00 -0.00000000000E+00 -0.17378756801E+04  0.17378756801E+04  0.00000000000E+00 0. -1.
         24    2    1    2    0    0  0.14837867311E+03  0.21454547637E+02  0.79925517140E+02  0.18746208310E+03  0.79230146154E+02 0.  0.
        254    2    1    2    0    0 -0.14837867311E+03 -0.21454547637E+02 -0.15579532088E+04  0.18102615854E+04  0.90958907108E+03 0.  0.
         23    2    4    4    0    0  0.18782140214E+03  0.35252591771E+03 -0.64828886629E+03  0.76674668789E+03  0.89836671118E+02 0.  0.
         23    2    4    4    0    0 -0.33620007525E+03 -0.37398046535E+03 -0.90966434254E+03  0.10435148975E+04  0.92424272011E+02 0.  0.
          4    1    3    3  502    0  0.26942133824E+02  0.24094795022E+02 -0.86082605051E+01  0.37155616951E+02  0.00000000000E+00 0. -1.
         -3    1    3    3    0  502  0.12143653929E+03 -0.26402473847E+01  0.88533777645E+02  0.15030646615E+03  0.00000000000E+00 0.  1.
         11    1    5    5    0    0  0.52438902749E+01  0.14260027645E+02 -0.74949401215E+02  0.76473913959E+02  0.00000000000E+00 0.  1.
        -11    1    5    5    0    0  0.18257751186E+03  0.33826589007E+03 -0.57333946508E+03  0.69027277394E+03  0.00000000000E+00 0. -1.
          2    1    6    6  503    0 -0.26785021561E+03 -0.23511150808E+03 -0.62341978298E+03  0.71810402104E+03  0.00000000000E+00 0. -1.
         -2    1    6    6    0  503 -0.68349859649E+02 -0.13886895727E+03 -0.28624455957E+03  0.32541087641E+03  0.00000000000E+00 0.  1.
<mgrwt>
<rscale>  0 0.13439993E+04</rscale>
<asrwt>0</asrwt>
<pdfrwt beam="1">  1        2 0.26736549E+00 0.13439993E+04</pdfrwt>
<pdfrwt beam="2">  1       -1 0.39976614E-01 0.13439993E+04</pdfrwt>
<totfact> 0.63416400E+01</totfact>
</mgrwt>
</event>
<event>
12    6  0.1521603E-007  0.2177188E+04  0.7818608E-02  0.8527984E-01
          2   -1    0    0  501    0  0.00000000000E+00  0.00000000000E+00  0.22386781029E+04  0.22386781029E+04  0.00000000000E+00 0. -1.
         -1   -1    0    0    0  501 -0.00000000000E+00 -0.00000000000E+00 -0.52934650438E+03  0.52934650438E+03  0.00000000000E+00 0.  1.
         24    2    1    2    0    0 -0.65576533488E+03 -0.62280109444E+03  0.72556109313E+03  0.11622743414E+04  0.80829246694E+02 0.  0.
        254    2    1    2    0    0  0.65576533488E+03  0.62280109444E+03  0.98377050539E+03  0.16057502659E+04  0.89034832030E+03 0.  0.
         23    2    4    4    0    0 -0.84245983489E+01  0.46349152119E+03  0.95713749064E+02  0.48179257740E+03  0.89819829682E+02 0.  0.
         23    2    4    4    0    0  0.66418993323E+03  0.15930957325E+03  0.88805675633E+03  0.11239576885E+04  0.90045963485E+02 0.  0.
          4    1    3    3  502    0 -0.38313494612E+03 -0.40519855218E+03  0.41347490419E+03  0.69421880558E+03  0.00000000000E+00 0. -1.
         -3    1    3    3    0  502 -0.27263038876E+03 -0.21760254226E+03  0.31208618894E+03  0.46805553581E+03  0.00000000000E+00 0.  1.
         11    1    5    5    0    0  0.83740837482E+00  0.41313893663E+03  0.55833047533E+02  0.41689544422E+03  0.00000000000E+00 0. -1.
        -11    1    5    5    0    0 -0.92620067237E+01  0.50352584557E+02  0.39880701531E+02  0.64897133178E+02  0.00000000000E+00 0.  1.
          3    1    6    6  503    0  0.19151089468E+03  0.46138176880E+02  0.32600557755E+03  0.38089997472E+03  0.00000000000E+00 0. -1.
         -3    1    6    6    0  503  0.47267903855E+03  0.11317139637E+03  0.56205117878E+03  0.74305771378E+03  0.00000000000E+00 0.  1.
<mgrwt>
<rscale>  0 0.21771876E+04</rscale>
<asrwt>0</asrwt>
<pdfrwt beam="1">  1        2 0.34441201E+00 0.21771876E+04</pdfrwt>
<pdfrwt beam="2">  1       -1 0.81437925E-01 0.21771876E+04</pdfrwt>
<totfact> 0.76850258E+00</totfact>
</mgrwt>
</event>
<event>
12    6  0.1521603E-007  0.1295777E+04  0.7818608E-02  0.9032921E-01
          2   -1    0    0  501    0  0.00000000000E+00  0.00000000000E+00  0.42552027567E+03  0.42552027567E+03  0.00000000000E+00 0. -1.
         -1   -1    0    0    0  501 -0.00000000000E+00 -0.00000000000E+00 -0.98646221289E+03  0.98646221289E+03  0.00000000000E+00 0.  1.
         24    2    1    2    0    0 -0.26814971220E+03  0.14930345125E+03 -0.31542983668E+01  0.31718057756E+03  0.79986126737E+02 0.  0.
        254    2    1    2    0    0  0.26814971220E+03 -0.14930345125E+03 -0.55778763886E+03  0.10948019110E+04  0.89065615451E+03 0.  0.
         23    2    4    4    0    0  0.14752814667E+03 -0.50531744773E+03 -0.43602649013E+03  0.68964152434E+03  0.91520789813E+02 0.  0.
         23    2    4    4    0    0  0.12062156553E+03  0.35601399647E+03 -0.12176114872E+03  0.40516038666E+03  0.89630540697E+02 0.  0.
          4    1    3    3  502    0 -0.14128822941E+03  0.12135435444E+03  0.10592646517E+02  0.18655146012E+03  0.00000000000E+00 0. -1.
         -3    1    3    3    0  502 -0.12686148280E+03  0.27949096810E+02 -0.13746944884E+02  0.13062911744E+03  0.00000000000E+00 0.  1.
         11    1    5    5    0    0  0.12092371196E+03 -0.25180513814E+03 -0.23352235272E+03  0.36408935844E+03  0.00000000000E+00 0. -1.
        -11    1    5    5    0    0  0.26604434711E+02 -0.25351230959E+03 -0.20250413741E+03  0.32555216591E+03  0.00000000000E+00 0.  1.
          3    1    6    6  503    0  0.13192762948E+03  0.32015309766E+03 -0.12319478046E+03  0.36753212008E+03  0.00000000000E+00 0. -1.
         -3    1    6    6    0  503 -0.11306063950E+02  0.35860898812E+02  0.14336317317E+01  0.37628266577E+02  0.00000000000E+00 0.  1.
<mgrwt>
<rscale>  0 0.12957773E+04</rscale>
<asrwt>0</asrwt>
<pdfrwt beam="1">  1        2 0.65464658E-01 0.12957773E+04</pdfrwt>
<pdfrwt beam="2">  1       -1 0.15176342E+00 0.12957773E+04</pdfrwt>
<totfact> 0.28114019E+01</totfact>
</mgrwt>
</event>
<event>
12    6  0.1521603E-007  0.2035973E+04  0.7818608E-02  0.8589984E-01
         -1   -1    0    0    0  501 -0.00000000000E+00  0.00000000000E+00  0.26004992857E+03  0.26004992857E+03  0.00000000000E+00 0.  1.
          2   -1    0    0  501    0  0.00000000000E+00 -0.00000000000E+00 -0.39849912332E+04  0.39849912332E+04  0.00000000000E+00 0. -1.
         24    2    1    2    0    0 -0.30375581910E+03 -0.15678488648E+03  0.44537664267E+02  0.35376962283E+03  0.79499963755E+02 0.  0.
        254    2    1    2    0    0  0.30375581910E+03  0.15678488648E+03 -0.37694789689E+04  0.38912715390E+04  0.90342315366E+03 0.  0.
         23    2    4    4    0    0  0.25799123435E+02 -0.30539110970E+03 -0.23238900725E+04  0.23457289440E+04  0.89721150370E+02 0.  0.
         23    2    4    4    0    0  0.27795669566E+03  0.46217599618E+03 -0.14455888964E+04  0.15455425950E+04  0.90044874419E+02 0.  0.
          2    1    3    3  502    0 -0.66246437641E+01 -0.21437974866E+01 -0.12187789603E+02  0.14036523361E+02  0.00000000000E+00 0. -1.
         -1    1    3    3    0  502 -0.29713117533E+03 -0.15464108899E+03  0.56725453870E+02  0.33973309947E+03  0.00000000000E+00 0.  1.
         11    1    5    5    0    0  0.80185067172E+01 -0.29478960823E+03 -0.20561734346E+04  0.20772131337E+04  0.00000000000E+00 0.  1.
        -11    1    5    5    0    0  0.17780616718E+02 -0.10601501475E+02 -0.26771663789E+03  0.26851581027E+03  0.00000000000E+00 0. -1.
          3    1    6    6  503    0  0.26870326147E+02  0.96754296599E+01 -0.59447847979E+02  0.65952065894E+02  0.00000000000E+00 0. -1.
         -3    1    6    6    0  503  0.25108636951E+03  0.45250056652E+03 -0.13861410484E+04  0.14795905291E+04  0.00000000000E+00 0.  1.
<mgrwt>
<rscale>  0 0.20359732E+04</rscale>
<asrwt>0</asrwt>
<pdfrwt beam="1">  1        2 0.61307554E+00 0.20359732E+04</pdfrwt>
<pdfrwt beam="2">  1       -1 0.40007683E-01 0.20359732E+04</pdfrwt>
<totfact> 0.22806059E+00</totfact>
</mgrwt>
</event>
<event>
12    6  0.1521603E-007  0.1408259E+04  0.7818608E-02  0.8947862E-01
          2   -1    0    0  501    0  0.00000000000E+00  0.00000000000E+00  0.26274088923E+04  0.26274088923E+04  0.00000000000E+00 0. -1.
         -1   -1    0    0    0  501 -0.00000000000E+00 -0.00000000000E+00 -0.18870239837E+03  0.18870239837E+03  0.00000000000E+00 0.  1.
         24    2    1    2    0    0 -0.30800239594E+03 -0.22371106447E+03  0.86419586799E+03  0.94757937396E+03  0.78486020565E+02 0.  0.
        254    2    1    2    0    0  0.30800239594E+03  0.22371106447E+03  0.15745106260E+04  0.18685319167E+04  0.93135154281E+03 0.  0.
         23    2    4    4    0    0 -0.33317725527E+02  0.14701455138E+03 -0.66573063479E+02  0.18744631566E+03  0.89335319563E+02 0.  0.
         23    2    4    4    0    0  0.34132012147E+03  0.76696513089E+02  0.16410836894E+04  0.16810856011E+04  0.10252483564E+03 0.  0.
          4    1    3    3  502    0 -0.22406534665E+03 -0.16223915912E+03  0.70573744235E+03  0.75801857619E+03  0.00000000000E+00 0. -1.
         -3    1    3    3    0  502 -0.83937049296E+02 -0.61471905356E+02  0.15845842564E+03  0.18956079776E+03  0.00000000000E+00 0.  1.
         11    1    5    5    0    0 -0.57014976628E+02  0.13791932218E+03 -0.62232286588E+02  0.16169509728E+03  0.00000000000E+00 0.  1.
        -11    1    5    5    0    0  0.23697251102E+02  0.90952292008E+01 -0.43407768914E+01  0.25751218379E+02  0.00000000000E+00 0. -1.
          1    1    6    6  503    0  0.70591962573E+02  0.35655103492E+02  0.57432346465E+03  0.57974300654E+03  0.00000000000E+00 0. -1.
         -1    1    6    6    0  503  0.27072815890E+03  0.41041409596E+02  0.10667602248E+04  0.11013425945E+04  0.00000000000E+00 0.  1.
<mgrwt>
<rscale>  0 0.14082590E+04</rscale>
<asrwt>0</asrwt>
<pdfrwt beam="1">  1        2 0.40421673E+00 0.14082590E+04</pdfrwt>
<pdfrwt beam="2">  1       -1 0.29031140E-01 0.14082590E+04</pdfrwt>
<totfact> 0.35277688E+01</totfact>
</mgrwt>
</event>
<event>
12    6  0.1521603E-007  0.2125656E+04  0.7818608E-02  0.8550025E-01
         -1   -1    0    0    0  501 -0.00000000000E+00  0.00000000000E+00  0.16579103199E+04  0.16579103199E+04  0.00000000000E+00 0.  1.
          2   -1    0    0  501    0  0.00000000000E+00 -0.00000000000E+00 -0.68134156790E+03  0.68134156790E+03  0.00000000000E+00 0. -1.
         24    2    1    2    0    0 -0.61999113356E+03  0.55079297384E+03  0.71455785426E+03  0.10976638771E+04  0.80691723764E+02 0.  0.
        254    2    1    2    0    0  0.61999113356E+03 -0.55079297384E+03  0.26201089776E+03  0.12415880107E+04  0.88607515038E+03 0.  0.
         23    2    4    4    0    0  0.66675055158E+03 -0.20862387002E+03  0.45277346269E+03  0.83680498368E+03  0.84608244383E+02 0.  0.
         23    2    4    4    0    0 -0.46759418023E+02 -0.34216910382E+03 -0.19076256493E+03  0.40478302705E+03  0.90514109526E+02 0.  0.
          4    1    3    3  502    0 -0.22875707860E+02  0.34454800887E+02  0.56093086371E+02  0.69691216469E+02  0.00000000000E+00 0. -1.
         -3    1    3    3    0  502 -0.59711542570E+03  0.51633817295E+03  0.65846476789E+03  0.10279726606E+04  0.00000000000E+00 0.  1.
         11    1    5    5    0    0  0.53534279089E+03 -0.13902850314E+03  0.33077095165E+03  0.64446120977E+03  0.00000000000E+00 0.  1.
        -11    1    5    5    0    0  0.13140776069E+03 -0.69595366883E+02  0.12200251105E+03  0.19234377391E+03  0.00000000000E+00 0. -1.
          3    1    6    6  503    0  0.24186092321E+02 -0.41371140484E+02 -0.27702570845E+02  0.55353145874E+02  0.00000000000E+00 0. -1.
         -3    1    6    6    0  503 -0.70945510344E+02 -0.30079796334E+03 -0.16305999409E+03  0.34942988118E+03  0.00000000000E+00 0.  1.
<mgrwt>
<rscale>  0 0.21256559E+04</rscale>
<asrwt>0</asrwt>
<pdfrwt beam="1">  1        2 0.10482178E+00 0.21256559E+04</pdfrwt>
<pdfrwt beam="2">  1       -1 0.25506313E+00 0.21256559E+04</pdfrwt>
<totfact> 0.28752886E+00</totfact>
</mgrwt>
</event>
<event>
12    6  0.1521603E-007  0.1279061E+04  0.7818608E-02  0.9046337E-01
          2   -1    0    0  501    0  0.00000000000E+00  0.00000000000E+00  0.10220118198E+04  0.10220118198E+04  0.00000000000E+00 0. -1.
         -1   -1    0    0    0  501 -0.00000000000E+00 -0.00000000000E+00 -0.40019031056E+03  0.40019031056E+03  0.00000000000E+00 0.  1.
         24    2    1    2    0    0 -0.30175697019E+03  0.31334587761E+02  0.24738672415E+03  0.39991659904E+03  0.81816681990E+02 0.  0.
        254    2    1    2    0    0  0.30175697019E+03 -0.31334587761E+02  0.37443478512E+03  0.10222855314E+04  0.90156928401E+03 0.  0.
         23    2    4    4    0    0  0.16705524676E+03 -0.10375121416E+03 -0.27451659081E+03  0.34962156212E+03  0.90576532091E+02 0.  0.
         23    2    4    4    0    0  0.13470172343E+03  0.72416626394E+02  0.64895137592E+03  0.67266396923E+03  0.89163922728E+02 0.  0.
          4    1    3    3  502    0 -0.19299536710E+03  0.20611598362E+02  0.20605369252E+03  0.28307273607E+03  0.00000000000E+00 0. -1.
         -3    1    3    3    0  502 -0.10876160309E+03  0.10722989399E+02  0.41333031635E+02  0.11684386296E+03  0.00000000000E+00 0.  1.
         11    1    5    5    0    0  0.49326068446E+02 -0.32876577797E+02 -0.16038646394E+03  0.17099049158E+03  0.00000000000E+00 0. -1.
        -11    1    5    5    0    0  0.11772917831E+03 -0.70874636359E+02 -0.11413012687E+03  0.17863107055E+03  0.00000000000E+00 0.  1.
          1    1    6    6  503    0  0.54911087823E+02  0.20230346872E+02  0.10311091843E+03  0.11855950405E+03  0.00000000000E+00 0. -1.
         -1    1    6    6    0  503  0.79790635607E+02  0.52186279523E+02  0.54584045749E+03  0.55410446518E+03  0.00000000000E+00 0.  1.
<mgrwt>
<rscale>  0 0.12790609E+04</rscale>
<asrwt>0</asrwt>
<pdfrwt beam="1">  1        2 0.15723259E+00 0.12790609E+04</pdfrwt>
<pdfrwt beam="2">  1       -1 0.61567741E-01 0.12790609E+04</pdfrwt>
<totfact> 0.73056237E+01</totfact>
</mgrwt>
</event>
<event>
12    6  0.1521603E-007  0.1921114E+04  0.7818608E-02  0.8644417E-01
          2   -1    0    0  501    0  0.00000000000E+00  0.00000000000E+00  0.17851131803E+04  0.17851131803E+04  0.00000000000E+00 0. -1.
         -1   -1    0    0    0  501 -0.00000000000E+00 -0.00000000000E+00 -0.51686914815E+03  0.51686914815E+03  0.00000000000E+00 0.  1.
         24    2    1    2    0    0 -0.62410913152E+03  0.21473959345E+03  0.71698995078E+02  0.66897565558E+03  0.82233696412E+02 0.  0.
        254    2    1    2    0    0  0.62410913152E+03 -0.21473959345E+03  0.11965450370E+04  0.16330066728E+04  0.89407240581E+03 0.  0.
         23    2    4    4    0    0 -0.55075966006E+02  0.25750209595E+03  0.31352607163E+03  0.41933967115E+03  0.90589573110E+02 0.  0.
         23    2    4    4    0    0  0.67918509753E+03 -0.47224168940E+03  0.88301896540E+03  0.12136670017E+04  0.94659853224E+02 0.  0.
          4    1    3    3  502    0 -0.35362828439E+03  0.12771529357E+03  0.81316566816E+02  0.38467719424E+03  0.00000000000E+00 0. -1.
         -3    1    3    3    0  502 -0.27048084713E+03  0.87024299883E+02 -0.96175717383E+01  0.28429846134E+03  0.00000000000E+00 0.  1.
         11    1    5    5    0    0 -0.35982817998E+02  0.22563278001E+03  0.30522838883E+03  0.38127324054E+03  0.00000000000E+00 0.  1.
        -11    1    5    5    0    0 -0.19093148008E+02  0.31869315940E+02  0.82976828043E+01  0.38066430608E+02  0.00000000000E+00 0. -1.
          3    1    6    6  503    0  0.51981462937E+03 -0.36883479878E+03  0.73474596913E+03  0.97267568945E+03  0.00000000000E+00 0. -1.
         -3    1    6    6    0  503  0.15937046816E+03 -0.10340689062E+03  0.14827299626E+03  0.24099131223E+03  0.00000000000E+00 0.  1.
<mgrwt>
<rscale>  0 0.19211142E+04</rscale>
<asrwt>0</asrwt>
<pdfrwt beam="1">  1        2 0.27463279E+00 0.19211142E+04</pdfrwt>
<pdfrwt beam="2">  1       -1 0.79518331E-01 0.19211142E+04</pdfrwt>
<totfact> 0.14796617E+01</totfact>
</mgrwt>
</event>
<event>
12    6  0.1521603E-007  0.1957362E+04  0.7818608E-02  0.8626819E-01
          2   -1    0    0  501    0  0.00000000000E+00  0.00000000000E+00  0.12892373457E+04  0.12892373457E+04  0.00000000000E+00 0. -1.
         -1   -1    0    0    0  501 -0.00000000000E+00 -0.00000000000E+00 -0.74293283793E+03  0.74293283793E+03  0.00000000000E+00 0.  1.
         24    2    1    2    0    0  0.59908742434E+02 -0.10330394368E+03  0.99809816623E+03  0.10081778662E+04  0.77213329929E+02 0.  0.
        254    2    1    2    0    0 -0.59908742434E+02  0.10330394368E+03 -0.45179365843E+03  0.10239923174E+04  0.91114323472E+03 0.  0.
         23    2    4    4    0    0  0.25474707617E+02 -0.17827562914E+03  0.21105057989E+03  0.29319489710E+03  0.94814238057E+02 0.  0.
         23    2    4    4    0    0 -0.85383450051E+02  0.28157957282E+03 -0.66284423832E+03  0.73079742034E+03  0.90138759308E+02 0.  0.
          4    1    3    3  502    0  0.55299135448E+02 -0.99334075461E+02  0.99476610922E+03  0.10012416616E+04  0.00000000000E+00 0. -1.
         -3    1    3    3    0  502  0.46096069865E+01 -0.39698682233E+01  0.33320570050E+01  0.69362045936E+01  0.00000000000E+00 0.  1.
         11    1    5    5    0    0 -0.32732421748E+02 -0.54204687633E+02  0.43929074924E+02  0.77067004733E+02  0.00000000000E+00 0.  1.
        -11    1    5    5    0    0  0.58207129366E+02 -0.12407094151E+03  0.16712150497E+03  0.21612789236E+03  0.00000000000E+00 0. -1.
          2    1    6    6  503    0  0.38047251636E+01  0.49087979092E+02 -0.19139717162E+03  0.19762839606E+03  0.00000000000E+00 0.  1.
         -2    1    6    6    0  503 -0.89188175215E+02  0.23249159373E+03 -0.47144706670E+03  0.53316902428E+03  0.00000000000E+00 0. -1.
<mgrwt>
<rscale>  0 0.19573623E+04</rscale>
<asrwt>0</asrwt>
<pdfrwt beam="1">  1        2 0.19834421E+00 0.19573623E+04</pdfrwt>
<pdfrwt beam="2">  1       -1 0.11429736E+00 0.19573623E+04</pdfrwt>
<totfact> 0.12417176E+01</totfact>
</mgrwt>
</event>
<event>
12    6  0.1521603E-007  0.1827138E+04  0.7818608E-02  0.8692000E-01
         -1   -1    0    0    0  501 -0.00000000000E+00  0.00000000000E+00  0.19503976881E+04  0.19503976881E+04  0.00000000000E+00 0.  1.
          2   -1    0    0  501    0  0.00000000000E+00 -0.00000000000E+00 -0.42791685930E+03  0.42791685930E+03  0.00000000000E+00 0. -1.
         24    2    1    2    0    0  0.25211396313E+03 -0.60462957338E+03  0.32703993410E+03  0.73639993978E+03  0.78685331567E+02 0.  0.
        254    2    1    2    0    0 -0.25211396313E+03  0.60462957338E+03  0.11954408947E+04  0.16419146076E+04  0.91524110187E+03 0.  0.
         23    2    4    4    0    0 -0.18471032944E+03 -0.19927269309E+03  0.16723927644E+03  0.33191819532E+03  0.91505195421E+02 0.  0.
         23    2    4    4    0    0 -0.67403633692E+02  0.80390226647E+03  0.10282016182E+04  0.13099964123E+04  0.89944030045E+02 0.  0.
          2    1    3    3  502    0  0.15936179407E+03 -0.40304106954E+03  0.25619612317E+03  0.50346274805E+03  0.00000000000E+00 0. -1.
         -1    1    3    3    0  502  0.92752169057E+02 -0.20158850384E+03  0.70843810932E+02  0.23293719173E+03  0.00000000000E+00 0.  1.
         11    1    5    5    0    0 -0.16518462700E+03 -0.20211019282E+03  0.17070003809E+03  0.31188618764E+03  0.00000000000E+00 0.  1.
        -11    1    5    5    0    0 -0.19525702442E+02  0.28374997280E+01 -0.34607616503E+01  0.20032007681E+02  0.00000000000E+00 0. -1.
          3    1    6    6  503    0 -0.21308915142E+02  0.13610523563E+03  0.12683292982E+03  0.18725730191E+03  0.00000000000E+00 0. -1.
         -3    1    6    6    0  503 -0.46094718549E+02  0.66779703084E+03  0.90136868843E+03  0.11227391104E+04  0.00000000000E+00 0.  1.
<mgrwt>
<rscale>  0 0.18271377E+04</rscale>
<asrwt>0</asrwt>
<pdfrwt beam="1">  1        2 0.65833364E-01 0.18271377E+04</pdfrwt>
<pdfrwt beam="2">  1       -1 0.30006118E+00 0.18271377E+04</pdfrwt>
<totfact> 0.26200613E+00</totfact>
</mgrwt>
</event>
<event>
12    6  0.1521603E-007  0.1414180E+04  0.7818608E-02  0.8943618E-01
          2   -1    0    0  501    0  0.00000000000E+00  0.00000000000E+00  0.11702346243E+04  0.11702346243E+04  0.00000000000E+00 0. -1.
         -1   -1    0    0    0  501 -0.00000000000E+00 -0.00000000000E+00 -0.42724434880E+03  0.42724434880E+03  0.00000000000E+00 0.  1.
         24    2    1    2    0    0 -0.15976506520E+03  0.16951633767E+03 -0.16261117491E+03  0.29505053946E+03  0.79697941209E+02 0.  0.
        254    2    1    2    0    0  0.15976506520E+03 -0.16951633767E+03  0.90560145046E+03  0.13024284337E+04  0.90661191975E+03 0.  0.
         23    2    4    4    0    0  0.10395063371E+03  0.23158723484E+03 -0.37374305223E+02  0.27308874659E+03  0.93499963824E+02 0.  0.
         23    2    4    4    0    0  0.55814431488E+02 -0.40110357251E+03  0.94297575568E+03  0.10293396871E+04  0.79608975584E+02 0.  0.
          4    1    3    3  502    0 -0.72395400291E+02  0.24598861431E+02 -0.59597826547E+02  0.96943792458E+02  0.00000000000E+00 0. -1.
         -3    1    3    3    0  502 -0.87369664910E+02  0.14491747624E+03 -0.10301334836E+03  0.19810674700E+03  0.00000000000E+00 0.  1.
         11    1    5    5    0    0  0.74006358586E+02  0.21297026309E+03 -0.57243942430E+02  0.23261587009E+03  0.00000000000E+00 0. -1.
        -11    1    5    5    0    0  0.29944275127E+02  0.18616971752E+02  0.19869637207E+02  0.40472876508E+02  0.00000000000E+00 0.  1.
          3    1    6    6  503    0  0.41303532002E+02 -0.38776570426E+03  0.91892814557E+03  0.99824704351E+03  0.00000000000E+00 0. -1.
         -3    1    6    6    0  503  0.14510899486E+02 -0.13337868247E+02  0.24047610112E+02  0.31092643589E+02  0.00000000000E+00 0.  1.
<mgrwt>
<rscale>  0 0.14141798E+04</rscale>
<asrwt>0</asrwt>
<pdfrwt beam="1">  1        2 0.18003609E+00 0.14141798E+04</pdfrwt>
<pdfrwt beam="2">  1       -1 0.65729900E-01 0.14141798E+04</pdfrwt>
<totfact> 0.51343678E+01</totfact>
</mgrwt>
</event>
<event>
12    6  0.1521603E-007  0.1286033E+04  0.7818608E-02  0.9040715E-01
         -1   -1    0    0    0  501 -0.00000000000E+00  0.00000000000E+00  0.40206883936E+03  0.40206883936E+03  0.00000000000E+00 0.  1.
          2   -1    0    0  501    0  0.00000000000E+00 -0.00000000000E+00 -0.10283564859E+04  0.10283564859E+04  0.00000000000E+00 0. -1.
         24    2    1    2    0    0  0.37673768726E+02 -0.20387729766E+03 -0.43387459437E+03  0.48754484209E+03  0.80421042367E+02 0.  0.
        254    2    1    2    0    0 -0.37673768726E+02  0.20387729766E+03 -0.19241305216E+03  0.94288048316E+03  0.89945292124E+03 0.  0.
         23    2    4    4    0    0 -0.30182289038E+03 -0.18077485292E+03  0.10930053286E+03  0.37996253079E+03  0.92996310190E+02 0.  0.
         23    2    4    4    0    0  0.26414912166E+03  0.38465215058E+03 -0.30171358502E+03  0.56291795237E+03  0.90074959327E+02 0.  0.
          4    1    3    3  502    0  0.22266539305E+02 -0.20555872841E+03 -0.39933336448E+03  0.44968580763E+03  0.00000000000E+00 0. -1.
         -3    1    3    3    0  502  0.15407229421E+02  0.16814307464E+01 -0.34541229890E+02  0.37859034457E+02  0.00000000000E+00 0.  1.
         11    1    5    5    0    0 -0.71194219363E+02 -0.40478491394E+01  0.58818227824E+01  0.71551364715E+02  0.00000000000E+00 0. -1.
        -11    1    5    5    0    0 -0.23062867102E+03 -0.17672700378E+03  0.10341871008E+03  0.30841116607E+03  0.00000000000E+00 0.  1.
          1    1    6    6  503    0  0.19269749268E+03  0.25226592874E+03 -0.15688284024E+03  0.35409412315E+03  0.00000000000E+00 0. -1.
         -1    1    6    6    0  503  0.71451628974E+02  0.13238622184E+03 -0.14483074478E+03  0.20882382922E+03  0.00000000000E+00 0.  1.
<mgrwt>
<rscale>  0 0.12860328E+04</rscale>
<asrwt>0</asrwt>
<pdfrwt beam="1">  1        2 0.15820869E+00 0.12860328E+04</pdfrwt>
<pdfrwt beam="2">  1       -1 0.61856745E-01 0.12860328E+04</pdfrwt>
<totfact> 0.71672169E+01</totfact>
</mgrwt>
</event>
<event>
12    6  0.1521603E-007  0.1358394E+04  0.7818608E-02  0.8984498E-01
         -1   -1    0    0    0  501 -0.00000000000E+00  0.00000000000E+00  0.15345289867E+03  0.15345289867E+03  0.00000000000E+00 0.  1.
          2   -1    0    0  501    0  0.00000000000E+00 -0.00000000000E+00 -0.30061912090E+04  0.30061912090E+04  0.00000000000E+00 0. -1.
         24    2    1    2    0    0 -0.27082447006E+03  0.23717713113E+02 -0.20526680670E+03  0.35026942825E+03  0.81521696074E+02 0.  0.
        254    2    1    2    0    0  0.27082447006E+03 -0.23717713113E+02 -0.26474715036E+04  0.28093746794E+04  0.89976235938E+03 0.  0.
         23    2    4    4    0    0 -0.24091300029E+03 -0.74653810987E+02 -0.28890077334E+03  0.39360525692E+03  0.88595576856E+02 0.  0.
         23    2    4    4    0    0  0.51173747035E+03  0.50936097873E+02 -0.23585707303E+04  0.24157694225E+04  0.92823963945E+02 0.  0.
          4    1    3    3  502    0 -0.28123658888E+02  0.63605801462E+01 -0.60806084258E+02  0.67296188984E+02  0.00000000000E+00 0. -1.
         -3    1    3    3    0  502 -0.24270081117E+03  0.17357132967E+02 -0.14446072244E+03  0.28297323926E+03  0.00000000000E+00 0.  1.
         11    1    5    5    0    0 -0.47740863477E+02 -0.11296319872E+02 -0.11880269298E+03  0.12853356273E+03  0.00000000000E+00 0. -1.
        -11    1    5    5    0    0 -0.19317213681E+03 -0.63357491114E+02 -0.17009808035E+03  0.26507169419E+03  0.00000000000E+00 0.  1.
          2    1    6    6  503    0  0.14985549107E+03  0.46426072317E+02 -0.85341536427E+03  0.86771529453E+03  0.00000000000E+00 0.  1.
         -2    1    6    6    0  503  0.36188197928E+03  0.45100255565E+01 -0.15051553660E+04  0.15480541279E+04  0.00000000000E+00 0. -1.
<mgrwt>
<rscale>  0 0.13583943E+04</rscale>
<asrwt>0</asrwt>
<pdfrwt beam="1">  1        2 0.46249095E+00 0.13583943E+04</pdfrwt>
<pdfrwt beam="2">  1       -1 0.23608138E-01 0.13583943E+04</pdfrwt>
<totfact> 0.29943994E+01</totfact>
</mgrwt>
</event>
<event>
12    6  0.1521603E-007  0.3381529E+04  0.7818608E-02  0.8142455E-01
         -1   -1    0    0    0  501 -0.00000000000E+00  0.00000000000E+00  0.11667291613E+04  0.11667291613E+04  0.00000000000E+00 0.  1.
          2   -1    0    0  501    0  0.00000000000E+00 -0.00000000000E+00 -0.24501703112E+04  0.24501703112E+04  0.00000000000E+00 0. -1.
         24    2    1    2    0    0  0.66019403098E+03  0.10451432453E+04  0.43962671853E+03  0.13144843812E+04  0.80106023188E+02 0.  0.
        254    2    1    2    0    0 -0.66019403098E+03 -0.10451432453E+04 -0.17230678684E+04  0.23024150913E+04  0.89664475214E+03 0.  0.
         23    2    4    4    0    0 -0.30703373332E+03  0.90304707754E+02 -0.33204755697E+03  0.47010016346E+03  0.91180754342E+02 0.  0.
         23    2    4    4    0    0 -0.35316029766E+03 -0.11354479531E+04 -0.13910203115E+04  0.18323149278E+04  0.92066485691E+02 0.  0.
          2    1    3    3  502    0  0.32961519859E+03  0.48752235022E+03  0.17148470434E+03  0.61296918758E+03  0.00000000000E+00 0. -1.
         -1    1    3    3    0  502  0.33057883239E+03  0.55762089511E+03  0.26814201419E+03  0.70151519361E+03  0.00000000000E+00 0.  1.
         11    1    5    5    0    0 -0.60386810782E+02  0.39998665284E+02 -0.12365928936E+03  0.14331113002E+03  0.00000000000E+00 0. -1.
        -11    1    5    5    0    0 -0.24664692254E+03  0.50306042470E+02 -0.20838826760E+03  0.32678903345E+03  0.00000000000E+00 0.  1.
          2    1    6    6  503    0 -0.31493095046E+02 -0.85632487843E+02 -0.14733601764E+03  0.17329927900E+03  0.00000000000E+00 0. -1.
         -2    1    6    6    0  503 -0.32166720261E+03 -0.10498154652E+04 -0.12436842938E+04  0.16590156488E+04  0.00000000000E+00 0.  1.
<mgrwt>
<rscale>  0 0.33815293E+04</rscale>
<asrwt>0</asrwt>
<pdfrwt beam="1">  1        2 0.37694928E+00 0.33815293E+04</pdfrwt>
<pdfrwt beam="2">  1       -1 0.17949679E+00 0.33815293E+04</pdfrwt>
<totfact> 0.73600959E-01</totfact>
</mgrwt>
</event>
<event>
12    6  0.1521603E-007  0.1730682E+04  0.7818608E-02  0.8744056E-01
         -1   -1    0    0    0  501 -0.00000000000E+00  0.00000000000E+00  0.56163463863E+03  0.56163463863E+03  0.00000000000E+00 0.  1.
          2   -1    0    0  501    0  0.00000000000E+00 -0.00000000000E+00 -0.13332784677E+04  0.13332784677E+04  0.00000000000E+00 0. -1.
         24    2    1    2    0    0 -0.49549226420E+03  0.23912977690E+03  0.41383888111E+02  0.55773641306E+03  0.81618908225E+02 0.  0.
        254    2    1    2    0    0  0.49549226420E+03 -0.23912977690E+03 -0.81302771716E+03  0.13371766933E+04  0.90792720304E+03 0.  0.
         23    2    4    4    0    0  0.44194434509E+03 -0.26187986183E+03 -0.99625655709E+03  0.11245976873E+04  0.91087675303E+02 0.  0.
         23    2    4    4    0    0  0.53547919105E+02  0.22750084928E+02  0.18322883993E+03  0.21257900593E+03  0.90730810505E+02 0.  0.
          2    1    3    3  502    0 -0.29892624834E+02  0.11430378613E+02  0.22455298920E+02  0.39095562719E+02  0.00000000000E+00 0. -1.
         -1    1    3    3    0  502 -0.46559963936E+03  0.22769939829E+03  0.18928589191E+02  0.51864085034E+03  0.00000000000E+00 0.  1.
         11    1    5    5    0    0  0.13971695063E+01  0.12950479381E+01  0.16203246126E+01  0.25009365528E+01  0.00000000000E+00 0.  1.
        -11    1    5    5    0    0  0.44054717559E+03 -0.26317490977E+03 -0.99787688171E+03  0.11220967508E+04  0.00000000000E+00 0. -1.
          4    1    6    6  503    0  0.32440610448E+02  0.98442138859E+01  0.69929733749E+01  0.34615075183E+02  0.00000000000E+00 0.  1.
         -4    1    6    6    0  503  0.21107308657E+02  0.12905871042E+02  0.17623586656E+03  0.17796393075E+03  0.00000000000E+00 0. -1.
<mgrwt>
<rscale>  0 0.17306824E+04</rscale>
<asrwt>0</asrwt>
<pdfrwt beam="1">  1        2 0.20511976E+00 0.17306824E+04</pdfrwt>
<pdfrwt beam="2">  1       -1 0.86405329E-01 0.17306824E+04</pdfrwt>
<totfact> 0.22602143E+01</totfact>
</mgrwt>
</event>
<event>
12    6  0.1521603E-007  0.6595527E+04  0.7818608E-02  0.7620651E-01
         -1   -1    0    0    0  501 -0.00000000000E+00  0.00000000000E+00  0.48595743278E+04  0.48595743278E+04  0.00000000000E+00 0.  1.
          2   -1    0    0  501    0  0.00000000000E+00 -0.00000000000E+00 -0.22379004994E+04  0.22379004994E+04  0.00000000000E+00 0. -1.
         24    2    1    2    0    0  0.51731114859E+03  0.17648341563E+04  0.41526717315E+04  0.45423760171E+04  0.79037633984E+02 0.  0.
        254    2    1    2    0    0 -0.51731114859E+03 -0.17648341563E+04 -0.15309979031E+04  0.25550988101E+04  0.89572592150E+03 0.  0.
         23    2    4    4    0    0 -0.39152710829E+03 -0.15127901024E+04 -0.16126485678E+04  0.22474451228E+04  0.92448939231E+02 0.  0.
         23    2    4    4    0    0 -0.12578404030E+03 -0.25204405392E+03  0.81650664722E+02  0.30765368731E+03  0.92930782600E+02 0.  0.
          2    1    3    3  502    0  0.13225269108E+03  0.34541382081E+03  0.86144598626E+03  0.93749169017E+03  0.00000000000E+00 0. -1.
         -1    1    3    3    0  502  0.38505845751E+03  0.14194203355E+04  0.32912257452E+04  0.36048843269E+04  0.00000000000E+00 0.  1.
         11    1    5    5    0    0 -0.21544708422E+03 -0.95931704537E+03 -0.10584812195E+04  0.14446761339E+04  0.00000000000E+00 0. -1.
        -11    1    5    5    0    0 -0.17608002408E+03 -0.55347305700E+03 -0.55416734825E+03  0.80276898891E+03  0.00000000000E+00 0.  1.
          1    1    6    6  503    0 -0.69887690442E+02 -0.18807803007E+03  0.17889311248E+02  0.20143897867E+03  0.00000000000E+00 0. -1.
         -1    1    6    6    0  503 -0.55896349857E+02 -0.63966023850E+02  0.63761353474E+02  0.10621470864E+03  0.00000000000E+00 0.  1.
<mgrwt>
<rscale>  0 0.65955269E+04</rscale>
<asrwt>0</asrwt>
<pdfrwt beam="1">  1        2 0.34429239E+00 0.65955269E+04</pdfrwt>
<pdfrwt beam="2">  1       -1 0.74762682E+00 0.65955269E+04</pdfrwt>
<totfact> 0.47895242E-04</totfact>
</mgrwt>
</event>
<event>
12    6  0.1521603E-007  0.1899996E+04  0.7818608E-02  0.8654859E-01
          2   -1    0    0  501    0  0.00000000000E+00  0.00000000000E+00  0.16387632581E+04  0.16387632581E+04  0.00000000000E+00 0. -1.
         -1   -1    0    0    0  501 -0.00000000000E+00 -0.00000000000E+00 -0.55071760869E+03  0.55071760869E+03  0.00000000000E+00 0.  1.
         24    2    1    2    0    0 -0.55604631461E+03 -0.17261401531E+03  0.93255429078E+03  0.11022827408E+04  0.79916413532E+02 0.  0.
        254    2    1    2    0    0  0.55604631461E+03  0.17261401531E+03  0.15549135864E+03  0.10871981260E+04  0.90489728714E+03 0.  0.
         23    2    4    4    0    0  0.35443265278E+03 -0.32387046234E+03 -0.80701581702E+02  0.49444889155E+03  0.86327164518E+02 0.  0.
         23    2    4    4    0    0  0.20161366183E+03  0.49648447765E+03  0.23619294034E+03  0.59274923444E+03  0.91758621831E+02 0.  0.
          2    1    3    3  502    0 -0.45754605352E+03 -0.11914851604E+03  0.70869136932E+03  0.85193204947E+03  0.00000000000E+00 0. -1.
         -1    1    3    3    0  502 -0.98500261087E+02 -0.53465499264E+02  0.22386292147E+03  0.25035069134E+03  0.00000000000E+00 0.  1.
         11    1    5    5    0    0  0.35289023950E+03 -0.31181723380E+03 -0.89630609051E+02  0.47936953858E+03  0.00000000000E+00 0.  1.
        -11    1    5    5    0    0  0.15424132790E+01 -0.12053228535E+02  0.89290273487E+01  0.15079352978E+02  0.00000000000E+00 0. -1.
          4    1    6    6  503    0  0.96799105550E+02  0.17661014736E+03  0.13031330640E+03  0.23988073872E+03  0.00000000000E+00 0. -1.
         -4    1    6    6    0  503  0.10481455628E+03  0.31987433029E+03  0.10587963394E+03  0.35286849572E+03  0.00000000000E+00 0.  1.
<mgrwt>
<rscale>  0 0.18999956E+04</rscale>
<asrwt>0</asrwt>
<pdfrwt beam="1">  1        2 0.25211742E+00 0.18999956E+04</pdfrwt>
<pdfrwt beam="2">  1       -1 0.84725787E-01 0.18999956E+04</pdfrwt>
<totfact> 0.15604587E+01</totfact>
</mgrwt>
</event>
<event>
12    6  0.1521603E-007  0.1356520E+04  0.7818608E-02  0.8985907E-01
          2   -1    0    0  501    0  0.00000000000E+00  0.00000000000E+00  0.65607293126E+03  0.65607293126E+03  0.00000000000E+00 0. -1.
         -1   -1    0    0    0  501 -0.00000000000E+00 -0.00000000000E+00 -0.70119720823E+03  0.70119720823E+03  0.00000000000E+00 0.  1.
         24    2    1    2    0    0  0.37320376241E+03  0.59255132330E+02 -0.19158949719E+02  0.38685005178E+03  0.80583361963E+02 0.  0.
        254    2    1    2    0    0 -0.37320376241E+03 -0.59255132330E+02 -0.25965327246E+02  0.97042008770E+03  0.89344766462E+03 0.  0.
         23    2    4    4    0    0  0.36117709943E+02  0.22695093826E+03 -0.30362081904E+03  0.39166955309E+03  0.91696345169E+02 0.  0.
         23    2    4    4    0    0 -0.40932147235E+03 -0.28620607059E+03  0.27765549179E+03  0.57875053461E+03  0.91660387377E+02 0.  0.
          4    1    3    3  502    0  0.19795734263E+03  0.73263916931E+01  0.22553128086E+02  0.19937258864E+03  0.00000000000E+00 0. -1.
         -3    1    3    3    0  502  0.17524641979E+03  0.51928740637E+02 -0.41712077805E+02  0.18747746314E+03  0.00000000000E+00 0.  1.
         11    1    5    5    0    0  0.13930786607E+02 -0.20984261523E+01 -0.36327030715E+02  0.38963102653E+02  0.00000000000E+00 0. -1.
        -11    1    5    5    0    0  0.22186923335E+02  0.22904936441E+03 -0.26729378832E+03  0.35270645044E+03  0.00000000000E+00 0.  1.
          2    1    6    6  503    0 -0.72486880507E+02 -0.85814548657E+02  0.91351220892E+02  0.14478787990E+03  0.00000000000E+00 0. -1.
         -2    1    6    6    0  503 -0.33683459185E+03 -0.20039152193E+03  0.18630427090E+03  0.43396265471E+03  0.00000000000E+00 0.  1.
<mgrwt>
<rscale>  0 0.13565198E+04</rscale>
<asrwt>0</asrwt>
<pdfrwt beam="1">  1        2 0.10093430E+00 0.13565198E+04</pdfrwt>
<pdfrwt beam="2">  1       -1 0.10787649E+00 0.13565198E+04</pdfrwt>
<totfact> 0.39635658E+01</totfact>
</mgrwt>
</event>
<event>
12    6  0.1521603E-007  0.1615560E+04  0.7818608E-02  0.8811045E-01
         -1   -1    0    0    0  501 -0.00000000000E+00  0.00000000000E+00  0.12598961170E+04  0.12598961170E+04  0.00000000000E+00 0.  1.
          2   -1    0    0  501    0  0.00000000000E+00 -0.00000000000E+00 -0.51790676037E+03  0.51790676037E+03  0.00000000000E+00 0. -1.
         24    2    1    2    0    0 -0.19109045905E+03 -0.18458145121E+03 -0.27592154190E+03  0.39104589553E+03  0.78729406548E+02 0.  0.
        254    2    1    2    0    0  0.19109045905E+03  0.18458145121E+03  0.10179108985E+04  0.13867569818E+04  0.90352999600E+03 0.  0.
         23    2    4    4    0    0 -0.85608411529E+02  0.27026857231E+03  0.10395065875E+04  0.10821030821E+04  0.99996167324E+02 0.  0.
         23    2    4    4    0    0  0.27669887058E+03 -0.85687121094E+02 -0.21595689015E+02  0.30465389973E+03  0.91886218403E+02 0.  0.
          2    1    3    3  502    0 -0.18963153524E+03 -0.17280244820E+03 -0.23318917464E+03  0.34669582696E+03  0.00000000000E+00 0. -1.
         -1    1    3    3    0  502 -0.14589238089E+01 -0.11779003013E+02 -0.42732367260E+02  0.44350068572E+02  0.00000000000E+00 0.  1.
         11    1    5    5    0    0 -0.53390716611E+02  0.40463888864E+02  0.18960948103E+03  0.20109612184E+03  0.00000000000E+00 0. -1.
        -11    1    5    5    0    0 -0.32217694918E+02  0.22980468344E+03  0.84989710650E+03  0.88100696027E+03  0.00000000000E+00 0.  1.
          1    1    6    6  503    0  0.25798290808E+02 -0.30822551731E+02 -0.25850602060E+02  0.47789487659E+02  0.00000000000E+00 0. -1.
         -1    1    6    6    0  503  0.25090057977E+03 -0.54864569363E+02  0.42549130455E+01  0.25686441207E+03  0.00000000000E+00 0.  1.
<mgrwt>
<rscale>  0 0.16155602E+04</rscale>
<asrwt>0</asrwt>
<pdfrwt beam="1">  1        2 0.79677963E-01 0.16155602E+04</pdfrwt>
<pdfrwt beam="2">  1       -1 0.19383017E+00 0.16155602E+04</pdfrwt>
<totfact> 0.10745114E+01</totfact>
</mgrwt>
</event>
<event>
12    6  0.1521603E-007  0.2439177E+04  0.7818608E-02  0.8424980E-01
         -1   -1    0    0    0  501 -0.00000000000E+00  0.00000000000E+00  0.77770668311E+03  0.77770668311E+03  0.00000000000E+00 0.  1.
          2   -1    0    0  501    0  0.00000000000E+00 -0.00000000000E+00 -0.19125405604E+04  0.19125405604E+04  0.00000000000E+00 0. -1.
         24    2    1    2    0    0  0.47447278570E+03  0.61584584198E+03  0.28888609040E+03  0.83298584995E+03  0.77586903070E+02 0.  0.
        254    2    1    2    0    0 -0.47447278570E+03 -0.61584584198E+03 -0.14237199677E+04  0.18572613935E+04  0.90446161453E+03 0.  0.
         23    2    4    4    0    0 -0.32873501432E+03  0.16636492960E+03 -0.33793062596E+03  0.50802039161E+03  0.90241957437E+02 0.  0.
         23    2    4    4    0    0 -0.14573777138E+03 -0.78221077158E+03 -0.10857893417E+04  0.13492410019E+04  0.91758365112E+02 0.  0.
          2    1    3    3  502    0  0.11159842439E+03  0.17903278364E+03  0.10795041299E+03  0.23698151322E+03  0.00000000000E+00 0. -1.
         -3    1    3    3    0  502  0.36287436131E+03  0.43681305834E+03  0.18093567741E+03  0.59600433672E+03  0.00000000000E+00 0.  1.
         11    1    5    5    0    0 -0.32392964957E+03  0.17333699627E+03 -0.31629668253E+03  0.48478832858E+03  0.00000000000E+00 0. -1.
        -11    1    5    5    0    0 -0.48053647516E+01 -0.69720666713E+01 -0.21633943431E+02  0.23232063026E+02  0.00000000000E+00 0.  1.
          1    1    6    6  503    0 -0.12092690148E+03 -0.72864318443E+03 -0.10340059949E+04  0.12707134229E+04  0.00000000000E+00 0. -1.
         -1    1    6    6    0  503 -0.24810869906E+02 -0.53567587153E+02 -0.51783346783E+02  0.78527578996E+02  0.00000000000E+00 0.  1.
<mgrwt>
<rscale>  0 0.24391766E+04</rscale>
<asrwt>0</asrwt>
<pdfrwt beam="1">  1        2 0.29423701E+00 0.24391766E+04</pdfrwt>
<pdfrwt beam="2">  1       -1 0.11964718E+00 0.24391766E+04</pdfrwt>
<totfact> 0.47534144E+00</totfact>
</mgrwt>
</event>
<event>
12    6  0.1521603E-007  0.1410345E+04  0.7818608E-02  0.8946364E-01
         -1   -1    0    0    0  501 -0.00000000000E+00  0.00000000000E+00  0.17905377638E+03  0.17905377638E+03  0.00000000000E+00 0.  1.
          2   -1    0    0  501    0  0.00000000000E+00 -0.00000000000E+00 -0.27771988471E+04  0.27771988471E+04  0.00000000000E+00 0. -1.
         24    2    1    2    0    0 -0.10225189162E+03  0.39643521594E+03 -0.98210612696E+03  0.10672024525E+04  0.82293986243E+02 0.  0.
        254    2    1    2    0    0  0.10225189162E+03 -0.39643521594E+03 -0.16160389438E+04  0.18890501710E+04  0.88843252478E+03 0.  0.
         23    2    4    4    0    0 -0.21041965892E+02 -0.30043915114E+03 -0.57485056071E+02  0.31962700159E+03  0.90279790697E+02 0.  0.
         23    2    4    4    0    0  0.12329385752E+03 -0.95996064797E+02 -0.15585538877E+04  0.15694231694E+04  0.97888937773E+02 0.  0.
          2    1    3    3  502    0 -0.62805807785E+02  0.32571306226E+03 -0.71720701644E+03  0.79020217214E+03  0.00000000000E+00 0. -1.
         -1    1    3    3    0  502 -0.39446083839E+02  0.70722153675E+02 -0.26489911052E+03  0.27700028034E+03  0.00000000000E+00 0.  1.
         11    1    5    5    0    0  0.50562937350E+01 -0.12157720761E+02 -0.25121394019E+02  0.28363016728E+02  0.00000000000E+00 0. -1.
        -11    1    5    5    0    0 -0.26098259627E+02 -0.28828143038E+03 -0.32363662052E+02  0.29126398486E+03  0.00000000000E+00 0.  1.
          3    1    6    6  503    0 -0.16357197387E+02 -0.69293850060E+01 -0.10922758195E+03  0.11066272607E+03  0.00000000000E+00 0. -1.
         -3    1    6    6    0  503  0.13965105490E+03 -0.89066679791E+02 -0.14493263057E+04  0.14587604434E+04  0.00000000000E+00 0.  1.
<mgrwt>
<rscale>  0 0.14103446E+04</rscale>
<asrwt>0</asrwt>
<pdfrwt beam="1">  1        2 0.42726136E+00 0.14103446E+04</pdfrwt>
<pdfrwt beam="2">  1       -1 0.27546735E-01 0.14103446E+04</pdfrwt>
<totfact> 0.31514045E+01</totfact>
</mgrwt>
</event>
<event>
12    6  0.1521603E-007  0.1095894E+04  0.7818608E-02  0.9209203E-01
         -1   -1    0    0    0  501 -0.00000000000E+00  0.00000000000E+00  0.20817067910E+04  0.20817067910E+04  0.00000000000E+00 0.  1.
          2   -1    0    0  501    0  0.00000000000E+00 -0.00000000000E+00 -0.14423055805E+03  0.14423055805E+03  0.00000000000E+00 0. -1.
         24    2    1    2    0    0  0.64331128899E+02  0.19725188231E+02  0.29692802752E+02  0.11538289937E+03  0.88904295366E+02 0.  0.
        254    2    1    2    0    0 -0.64331128899E+02 -0.19725188231E+02  0.19077834302E+04  0.21105544497E+04  0.90015270449E+03 0.  0.
         23    2    4    4    0    0  0.23093088555E+03 -0.20419215774E+03  0.23245827306E+03  0.39704953443E+03  0.92671316438E+02 0.  0.
         23    2    4    4    0    0 -0.29526201445E+03  0.18446696950E+03  0.16753251572E+04  0.17135049153E+04  0.90426724482E+02 0.  0.
          2    1    3    3  502    0  0.60324228668E+02 -0.13596896100E+02 -0.10816666961E+02  0.62776495857E+02  0.00000000000E+00 0. -1.
         -1    1    3    3    0  502  0.40069002313E+01  0.33322084331E+02  0.40509469714E+02  0.52606403509E+02  0.00000000000E+00 0.  1.
         11    1    5    5    0    0  0.20707268000E+03 -0.13677807840E+03  0.19898493949E+03  0.31809172212E+03  0.00000000000E+00 0.  1.
        -11    1    5    5    0    0  0.23858205549E+02 -0.67414079332E+02  0.33473333573E+02  0.78957812310E+02  0.00000000000E+00 0. -1.
          1    1    6    6  503    0 -0.15772193623E+03  0.48415753335E+02  0.84283422779E+03  0.85883050125E+03  0.00000000000E+00 0. -1.
         -1    1    6    6    0  503 -0.13754007822E+03  0.13605121617E+03  0.83249092936E+03  0.85467441403E+03  0.00000000000E+00 0.  1.
<mgrwt>
<rscale>  0 0.10958937E+04</rscale>
<asrwt>0</asrwt>
<pdfrwt beam="1">  1        2 0.22189318E-01 0.10958937E+04</pdfrwt>
<pdfrwt beam="2">  1       -1 0.32026256E+00 0.10958937E+04</pdfrwt>
<totfact> 0.70896777E+00</totfact>
</mgrwt>
</event>
<event>
12    6  0.1521603E-007  0.1888350E+04  0.7818608E-02  0.8660677E-01
         -1   -1    0    0    0  501 -0.00000000000E+00  0.00000000000E+00  0.52681174841E+03  0.52681174841E+03  0.00000000000E+00 0.  1.
          2   -1    0    0  501    0  0.00000000000E+00 -0.00000000000E+00 -0.16921925062E+04  0.16921925062E+04  0.00000000000E+00 0. -1.
         24    2    1    2    0    0 -0.15169247881E+03 -0.69169665454E+03 -0.63761494828E+03  0.95654666716E+03  0.83509485472E+02 0.  0.
        254    2    1    2    0    0  0.15169247881E+03  0.69169665454E+03 -0.52776580952E+03  0.12624575875E+04  0.90211282023E+03 0.  0.
         23    2    4    4    0    0 -0.35265823898E+03  0.43197502837E+03 -0.33330661879E+03  0.65592647167E+03  0.90421100656E+02 0.  0.
         23    2    4    4    0    0  0.50435071780E+03  0.25972162616E+03 -0.19445919073E+03  0.60653111580E+03  0.90778014583E+02 0.  0.
          4    1    3    3  502    0 -0.15401417245E+02 -0.57325161728E+02 -0.88317693635E+02  0.10641143185E+03  0.00000000000E+00 0. -1.
         -3    1    3    3    0  502 -0.13629106157E+03 -0.63437149281E+03 -0.54929725464E+03  0.85013523531E+03  0.00000000000E+00 0.  1.
         11    1    5    5    0    0 -0.81531208059E+02  0.13082797930E+03 -0.13444325647E+03  0.20454409614E+03  0.00000000000E+00 0. -1.
        -11    1    5    5    0    0 -0.27112703092E+03  0.30114704907E+03 -0.19886336232E+03  0.45138237552E+03  0.00000000000E+00 0.  1.
          2    1    6    6  503    0  0.23028837399E+03  0.91740859778E+02 -0.44603856901E+02  0.25187025350E+03  0.00000000000E+00 0. -1.
         -2    1    6    6    0  503  0.27406234381E+03  0.16798076639E+03 -0.14985533383E+03  0.35466086230E+03  0.00000000000E+00 0.  1.
<mgrwt>
<rscale>  0 0.18883505E+04</rscale>
<asrwt>0</asrwt>
<pdfrwt beam="1">  1        2 0.26033731E+00 0.18883505E+04</pdfrwt>
<pdfrwt beam="2">  1       -1 0.81047962E-01 0.18883505E+04</pdfrwt>
<totfact> 0.16045875E+01</totfact>
</mgrwt>
</event>
<event>
12    6  0.1521603E-007  0.2053598E+04  0.7818608E-02  0.8581964E-01
         -1   -1    0    0    0  501 -0.00000000000E+00  0.00000000000E+00  0.67237694492E+03  0.67237694492E+03  0.00000000000E+00 0.  1.
          2   -1    0    0  501    0  0.00000000000E+00 -0.00000000000E+00 -0.15680440580E+04  0.15680440580E+04  0.00000000000E+00 0. -1.
         24    2    1    2    0    0  0.72882328816E+03  0.28114717214E+03 -0.65221835316E+03  0.10208479099E+04  0.80712806844E+02 0.  0.
        254    2    1    2    0    0 -0.72882328816E+03 -0.28114717214E+03 -0.24344875994E+03  0.12195730930E+04  0.90435839842E+03 0.  0.
         23    2    4    4    0    0 -0.61255207741E+03 -0.57428576205E+03 -0.69784461042E+02  0.84808519026E+03  0.96718327713E+02 0.  0.
         23    2    4    4    0    0 -0.11627121075E+03  0.29313858991E+03 -0.17366429890E+03  0.37148790278E+03  0.91622845719E+02 0.  0.
          4    1    3    3  502    0  0.69546667433E+03  0.25587119031E+03 -0.63383792649E+03  0.97513818415E+03  0.00000000000E+00 0. -1.
         -3    1    3    3    0  502  0.33356613825E+02  0.25275981831E+02 -0.18380426670E+02  0.45709725748E+02  0.00000000000E+00 0.  1.
         11    1    5    5    0    0 -0.18428816305E+02 -0.15612788152E+02 -0.19426958195E+02  0.30996566407E+02  0.00000000000E+00 0. -1.
        -11    1    5    5    0    0 -0.59412326110E+03 -0.55867297390E+03 -0.50357502847E+02  0.81708862386E+03  0.00000000000E+00 0.  1.
          1    1    6    6  503    0  0.28082151599E+00  0.11806190421E+03 -0.61065055701E+02  0.13291964909E+03  0.00000000000E+00 0. -1.
         -1    1    6    6    0  503 -0.11655203226E+03  0.17507668570E+03 -0.11259924320E+03  0.23856825369E+03  0.00000000000E+00 0.  1.
<mgrwt>
<rscale>  0 0.20535985E+04</rscale>
<asrwt>0</asrwt>
<pdfrwt beam="1">  1        2 0.24123754E+00 0.20535985E+04</pdfrwt>
<pdfrwt beam="2">  1       -1 0.10344261E+00 0.20535985E+04</pdfrwt>
<totfact> 0.10795283E+01</totfact>
</mgrwt>
</event>
<event>
12    6  0.1521603E-007  0.3005605E+04  0.7818608E-02  0.8242132E-01
         -1   -1    0    0    0  501 -0.00000000000E+00  0.00000000000E+00  0.64311725116E+03  0.64311725116E+03  0.00000000000E+00 0.  1.
          2   -1    0    0  501    0  0.00000000000E+00 -0.00000000000E+00 -0.35116706542E+04  0.35116706542E+04  0.00000000000E+00 0. -1.
         24    2    1    2    0    0  0.45656088218E+03  0.12875022441E+04 -0.12583641397E+04  0.18589742310E+04  0.78708423775E+02 0.  0.
        254    2    1    2    0    0 -0.45656088218E+03 -0.12875022441E+04 -0.16101892633E+04  0.22958136743E+04  0.90107774116E+03 0.  0.
         23    2    4    4    0    0 -0.20323503727E+03 -0.67671139567E+03 -0.14405781975E+04  0.16071606106E+04  0.91961359963E+02 0.  0.
         23    2    4    4    0    0 -0.25332584491E+03 -0.61079084841E+03 -0.16961106582E+03  0.68865306368E+03  0.90750670899E+02 0.  0.
          4    1    3    3  502    0  0.18644288402E+03  0.42860814373E+03 -0.45518313010E+03  0.65242438014E+03  0.00000000000E+00 0. -1.
         -3    1    3    3    0  502  0.27011799816E+03  0.85889410035E+03 -0.80318100957E+03  0.12065498509E+04  0.00000000000E+00 0.  1.
         11    1    5    5    0    0 -0.16427484921E+03 -0.57920441293E+03 -0.12901458325E+04  0.14237065173E+04  0.00000000000E+00 0. -1.
        -11    1    5    5    0    0 -0.38960188064E+02 -0.97506982740E+02 -0.15043236496E+03  0.18345409334E+03  0.00000000000E+00 0.  1.
          3    1    6    6  503    0 -0.23493898377E+03 -0.47461982329E+03 -0.12440274966E+03  0.54400031882E+03  0.00000000000E+00 0. -1.
         -3    1    6    6    0  503 -0.18386861133E+02 -0.13617102513E+03 -0.45208316166E+02  0.14465274486E+03  0.00000000000E+00 0.  1.
<mgrwt>
<rscale>  0 0.30056054E+04</rscale>
<asrwt>0</asrwt>
<pdfrwt beam="1">  1        2 0.54025702E+00 0.30056054E+04</pdfrwt>
<pdfrwt beam="2">  1       -1 0.98941117E-01 0.30056054E+04</pdfrwt>
<totfact> 0.75669477E-01</totfact>
</mgrwt>
</event>
<event>
12    6  0.1521603E-007  0.1643626E+04  0.7818608E-02  0.8794186E-01
          2   -1    0    0  501    0  0.00000000000E+00  0.00000000000E+00  0.20482724345E+04  0.20482724345E+04  0.00000000000E+00 0. -1.
         -1   -1    0    0    0  501 -0.00000000000E+00 -0.00000000000E+00 -0.32973002015E+03  0.32973002015E+03  0.00000000000E+00 0.  1.
         24    2    1    2    0    0  0.23305463977E+03 -0.25034645298E+03 -0.70846206576E+02  0.35797199613E+03  0.78338709406E+02 0.  0.
        254    2    1    2    0    0 -0.23305463977E+03  0.25034645298E+03  0.17893886210E+04  0.20200304586E+04  0.87271049326E+03 0.  0.
         23    2    4    4    0    0 -0.41956692553E+03 -0.92245200079E+02  0.13714725682E+04  0.14406697355E+04  0.10023322503E+03 0.  0.
         23    2    4    4    0    0  0.18651228576E+03  0.34259165306E+03  0.41791605276E+03  0.57936072310E+03  0.94069903980E+02 0.  0.
          4    1    3    3  502    0  0.78642051921E+02 -0.66101546011E+02  0.12609057845E+02  0.10350350262E+03  0.00000000000E+00 0. -1.
         -3    1    3    3    0  502  0.15441258785E+03 -0.18424490697E+03 -0.83455264421E+02  0.25446849351E+03  0.00000000000E+00 0.  1.
         11    1    5    5    0    0 -0.21717251598E+03  0.10015784307E+01  0.72800330541E+03  0.75970633639E+03  0.00000000000E+00 0. -1.
        -11    1    5    5    0    0 -0.20239440955E+03 -0.93246778510E+02  0.64346926279E+03  0.68096339907E+03  0.00000000000E+00 0.  1.
          2    1    6    6  503    0  0.10440864956E+03  0.10516567900E+03  0.18233656100E+03  0.23496299202E+03  0.00000000000E+00 0. -1.
         -2    1    6    6    0  503  0.82103636193E+02  0.23742597406E+03  0.23557949176E+03  0.34439773108E+03  0.00000000000E+00 0.  1.
<mgrwt>
<rscale>  0 0.16436264E+04</rscale>
<asrwt>0</asrwt>
<pdfrwt beam="1">  1        2 0.31511883E+00 0.16436264E+04</pdfrwt>
<pdfrwt beam="2">  1       -1 0.50727697E-01 0.16436264E+04</pdfrwt>
<totfact> 0.26699499E+01</totfact>
</mgrwt>
</event>
<event>
12    6  0.1521603E-007  0.2413149E+04  0.7818608E-02  0.8434597E-01
         -1   -1    0    0    0  501 -0.00000000000E+00  0.00000000000E+00  0.32975240242E+03  0.32975240242E+03  0.00000000000E+00 0.  1.
          2   -1    0    0  501    0  0.00000000000E+00 -0.00000000000E+00 -0.44148954597E+04  0.44148954597E+04  0.00000000000E+00 0. -1.
         24    2    1    2    0    0 -0.65190261142E+03  0.75737762227E+03 -0.24097370799E+04  0.26099695371E+04  0.80686508014E+02 0.  0.
        254    2    1    2    0    0  0.65190261142E+03 -0.75737762227E+03 -0.16754059774E+04  0.21346783251E+04  0.86675745456E+03 0.  0.
         23    2    4    4    0    0  0.20494324454E+02  0.14760431947E+03 -0.45352803682E+03  0.48572590785E+03  0.89637742685E+02 0.  0.
         23    2    4    4    0    0  0.63140828696E+03 -0.90498194174E+03 -0.12218779405E+04  0.16489524172E+04  0.91594939512E+02 0.  0.
          4    1    3    3  502    0 -0.20716594493E+03  0.23287678470E+03 -0.85090216449E+03  0.90619193283E+03  0.00000000000E+00 0. -1.
         -3    1    3    3    0  502 -0.44473666648E+03  0.52450083758E+03 -0.15588349154E+04  0.17037776042E+04  0.00000000000E+00 0.  1.
         11    1    5    5    0    0  0.46182328570E+02  0.13886305461E+03 -0.39420102022E+03  0.42048804948E+03  0.00000000000E+00 0. -1.
        -11    1    5    5    0    0 -0.25688004116E+02  0.87412648586E+01 -0.59327016599E+02  0.65237858375E+02  0.00000000000E+00 0.  1.
          2    1    6    6  503    0  0.52578669921E+03 -0.69145087583E+03 -0.94048484076E+03  0.12802607947E+04  0.00000000000E+00 0. -1.
         -2    1    6    6    0  503  0.10562158775E+03 -0.21353106591E+03 -0.28139309978E+03  0.36869162252E+03  0.00000000000E+00 0.  1.
<mgrwt>
<rscale>  0 0.24131493E+04</rscale>
<asrwt>0</asrwt>
<pdfrwt beam="1">  1        2 0.67921471E+00 0.24131493E+04</pdfrwt>
<pdfrwt beam="2">  1       -1 0.50731137E-01 0.24131493E+04</pdfrwt>
<totfact> 0.59688816E-01</totfact>
</mgrwt>
</event>
<event>
12    6  0.1730419E-007  0.2726797E+04  0.7818608E-02  0.8326362E-01
         -1   -1    0    0    0  501 -0.00000000000E+00  0.00000000000E+00  0.93616594560E+03  0.93616594560E+03  0.00000000000E+00 0.  1.
          2   -1    0    0  501    0  0.00000000000E+00 -0.00000000000E+00 -0.19856050684E+04  0.19856050684E+04  0.00000000000E+00 0. -1.
         24    2    1    2    0    0 -0.26111211191E+03  0.97574802229E+03 -0.11946435121E+04  0.15666832689E+04  0.84021461401E+02 0.  0.
        254    2    1    2    0    0  0.26111211191E+03 -0.97574802229E+03  0.14520438934E+03  0.13550877451E+04  0.89157991464E+03 0.  0.
         23    2    4    4    0    0 -0.61835861067E+01 -0.10329210743E+04  0.11966246957E+02  0.10376170855E+04  0.97682355146E+02 0.  0.
         23    2    4    4    0    0  0.26729569801E+03  0.57173052030E+02  0.13323814238E+03  0.31747065959E+03  0.91211123567E+02 0.  0.
          2    1    3    3  502    0 -0.24708458180E+03  0.91313797264E+03 -0.10834876410E+04  0.14383383524E+04  0.00000000000E+00 0. -1.
         -1    1    3    3    0  502 -0.14027530105E+02  0.62610049655E+02 -0.11115587108E+03  0.12834491651E+03  0.00000000000E+00 0.  1.
         11    1    5    5    0    0 -0.69287413463E+01 -0.10174189764E+04  0.24393208899E+02  0.10177349407E+04  0.00000000000E+00 0.  1.
        -11    1    5    5    0    0  0.74515523959E+00 -0.15502097970E+02 -0.12426961942E+02  0.19882144776E+02  0.00000000000E+00 0. -1.
          1    1    6    6  503    0  0.98234585031E+02 -0.22503964634E+02  0.37975165479E+02  0.10769668200E+03  0.00000000000E+00 0. -1.
         -1    1    6    6    0  503  0.16906111298E+03  0.79677016664E+02  0.95262976905E+02  0.20977397760E+03  0.00000000000E+00 0.  1.
<mgrwt>
<rscale>  0 0.27267973E+04</rscale>
<asrwt>0</asrwt>
<pdfrwt beam="1">  1        2 0.30547770E+00 0.27267973E+04</pdfrwt>
<pdfrwt beam="2">  1       -1 0.14402553E+00 0.27267973E+04</pdfrwt>
<totfact> 0.26364349E+00</totfact>
</mgrwt>
</event>
<event>
12    6  0.1521603E-007  0.2981624E+04  0.7818608E-02  0.8248998E-01
         -1   -1    0    0    0  501 -0.00000000000E+00  0.00000000000E+00  0.86679471370E+03  0.86679471370E+03  0.00000000000E+00 0.  1.
          2   -1    0    0  501    0  0.00000000000E+00 -0.00000000000E+00 -0.25640674649E+04  0.25640674649E+04  0.00000000000E+00 0. -1.
         24    2    1    2    0    0  0.11986423663E+04 -0.12477776583E+03 -0.14486695442E+04  0.18864637149E+04  0.88254666298E+02 0.  0.
        254    2    1    2    0    0 -0.11986423663E+04  0.12477776583E+03 -0.24860320699E+03  0.15443984637E+04  0.93330061992E+03 0.  0.
         23    2    4    4    0    0 -0.38312650885E+02  0.21719823472E+03 -0.29075005686E+03  0.37612878950E+03  0.91073258125E+02 0.  0.
         23    2    4    4    0    0 -0.11603297154E+04 -0.92420468890E+02  0.42146849866E+02  0.11682696742E+04  0.90394044347E+02 0.  0.
          2    1    3    3  502    0  0.60667744499E+03 -0.57755761030E+02 -0.80088456334E+03  0.10063842874E+04  0.00000000000E+00 0. -1.
         -1    1    3    3    0  502  0.59196492129E+03 -0.67022004802E+02 -0.64778498086E+03  0.88007942744E+03  0.00000000000E+00 0.  1.
         11    1    5    5    0    0 -0.91317450354E+00  0.14450917388E+03 -0.23926678079E+03  0.27952160491E+03  0.00000000000E+00 0. -1.
        -11    1    5    5    0    0 -0.37399476382E+02  0.72689060845E+02 -0.51483276070E+02  0.96607184593E+02  0.00000000000E+00 0.  1.
          2    1    6    6  503    0 -0.49237343289E+03  0.53689073045E+01  0.21906339173E+02  0.49288975469E+03  0.00000000000E+00 0. -1.
         -2    1    6    6    0  503 -0.66795628251E+03 -0.97789376194E+02  0.20240510693E+02  0.67537991954E+03  0.00000000000E+00 0.  1.
<mgrwt>
<rscale>  0 0.29816238E+04</rscale>
<asrwt>0</asrwt>
<pdfrwt beam="1">  1        2 0.39447192E+00 0.29816238E+04</pdfrwt>
<pdfrwt beam="2">  1       -1 0.13335303E+00 0.29816238E+04</pdfrwt>
<totfact> 0.14792063E+00</totfact>
</mgrwt>
</event>
<event>
12    6  0.1521603E-007  0.2456604E+04  0.7818608E-02  0.8418611E-01
         -1   -1    0    0    0  501 -0.00000000000E+00  0.00000000000E+00  0.10325999615E+04  0.10325999615E+04  0.00000000000E+00 0.  1.
          2   -1    0    0  501    0  0.00000000000E+00 -0.00000000000E+00 -0.14610947117E+04  0.14610947117E+04  0.00000000000E+00 0. -1.
         24    2    1    2    0    0  0.29394180585E+03  0.60998540466E+03 -0.10194502660E+04  0.12264251141E+04  0.79722873396E+02 0.  0.
        254    2    1    2    0    0 -0.29394180585E+03 -0.60998540466E+03  0.59095551580E+03  0.12672695590E+04  0.89345382336E+03 0.  0.
         23    2    4    4    0    0 -0.24422532910E+03  0.15510804409E+03  0.33917171717E+03  0.45520445794E+03  0.92027865811E+02 0.  0.
         23    2    4    4    0    0 -0.49716476750E+02 -0.76509344875E+03  0.25178379863E+03  0.81206510110E+03  0.90636271880E+02 0.  0.
          2    1    3    3  502    0  0.29854978451E+03  0.60301483736E+03 -0.10005584334E+04  0.12057678245E+04  0.00000000000E+00 0. -1.
         -1    1    3    3    0  502 -0.46079786561E+01  0.69705673065E+01 -0.18891832607E+02  0.20657289636E+02  0.00000000000E+00 0.  1.
         11    1    5    5    0    0 -0.16293245899E+03  0.13736356145E+03  0.28519901900E+03  0.35602558145E+03  0.00000000000E+00 0.  1.
        -11    1    5    5    0    0 -0.81292870108E+02  0.17744482642E+02  0.53972698171E+02  0.99178876493E+02  0.00000000000E+00 0. -1.
          2    1    6    6  503    0 -0.36448049577E+02 -0.67941119898E+03  0.25143664875E+03  0.72536089359E+03  0.00000000000E+00 0.  1.
         -2    1    6    6    0  503 -0.13268427173E+02 -0.85682249776E+02  0.34714987870E+00  0.86704207507E+02  0.00000000000E+00 0. -1.
<mgrwt>
<rscale>  0 0.24566044E+04</rscale>
<asrwt>0</asrwt>
<pdfrwt beam="1">  1        2 0.22478380E+00 0.24566044E+04</pdfrwt>
<pdfrwt beam="2">  1       -1 0.15886153E+00 0.24566044E+04</pdfrwt>
<totfact> 0.40594899E+00</totfact>
</mgrwt>
</event>
<event>
12    6  0.1521603E-007  0.1419815E+04  0.7818608E-02  0.8939599E-01
         -1   -1    0    0    0  501 -0.00000000000E+00  0.00000000000E+00  0.40699988123E+03  0.40699988123E+03  0.00000000000E+00 0.  1.
          2   -1    0    0  501    0  0.00000000000E+00 -0.00000000000E+00 -0.12382520323E+04  0.12382520323E+04  0.00000000000E+00 0. -1.
         24    2    1    2    0    0  0.25214815573E+03 -0.12930957720E+03  0.10651941153E+03  0.31457943596E+03  0.85522963596E+02 0.  0.
        254    2    1    2    0    0 -0.25214815573E+03  0.12930957720E+03 -0.93777156261E+03  0.13306724776E+04  0.90054099282E+03 0.  0.
         23    2    4    4    0    0  0.28506184549E+03  0.27799648397E+02 -0.62587620552E+03  0.69453702671E+03  0.92884770681E+02 0.  0.
         23    2    4    4    0    0 -0.53721000122E+03  0.10150992880E+03 -0.31189535709E+03  0.63613545087E+03  0.92145249611E+02 0.  0.
          4    1    3    3  502    0  0.16510493132E+02 -0.39537231525E+02  0.66295255880E+01  0.43355964637E+02  0.00000000000E+00 0. -1.
         -3    1    3    3    0  502  0.23563766260E+03 -0.89772345672E+02  0.99889885943E+02  0.27122347132E+03  0.00000000000E+00 0.  1.
         11    1    5    5    0    0  0.30086968823E+02  0.12108434228E+02 -0.22966282903E+02  0.39740282118E+02  0.00000000000E+00 0. -1.
        -11    1    5    5    0    0  0.25497487667E+03  0.15691214168E+02 -0.60290992262E+03  0.65479674459E+03  0.00000000000E+00 0.  1.
          1    1    6    6  503    0 -0.78858824453E+01 -0.55770451503E+01 -0.20095212610E+02  0.22295922147E+02  0.00000000000E+00 0. -1.
         -1    1    6    6    0  503 -0.52932411877E+03  0.10708697395E+03 -0.29180014448E+03  0.61383952872E+03  0.00000000000E+00 0.  1.
<mgrwt>
<rscale>  0 0.14198147E+04</rscale>
<asrwt>0</asrwt>
<pdfrwt beam="1">  1        2 0.19050031E+00 0.14198147E+04</pdfrwt>
<pdfrwt beam="2">  1       -1 0.62615366E-01 0.14198147E+04</pdfrwt>
<totfact> 0.51521776E+01</totfact>
</mgrwt>
</event>
<event>
12    6  0.1521603E-007  0.1450171E+04  0.7818608E-02  0.8918282E-01
         -1   -1    0    0    0  501 -0.00000000000E+00  0.00000000000E+00  0.44234919725E+03  0.44234919725E+03  0.00000000000E+00 0.  1.
          2   -1    0    0  501    0  0.00000000000E+00 -0.00000000000E+00 -0.11885377323E+04  0.11885377323E+04  0.00000000000E+00 0. -1.
         24    2    1    2    0    0 -0.35920430500E+03 -0.73992422285E+02 -0.50024523007E+03  0.62557622724E+03  0.81226317080E+02 0.  0.
        254    2    1    2    0    0  0.35920430500E+03  0.73992422285E+02 -0.24594330494E+03  0.10053107023E+04  0.90313835462E+03 0.  0.
         23    2    4    4    0    0  0.77158552887E+02 -0.30458435037E+03  0.16959033899E+03  0.37027672523E+03  0.98075998055E+02 0.  0.
         23    2    4    4    0    0  0.28204575211E+03  0.37857677265E+03 -0.41553364393E+03  0.63503397705E+03  0.87919074670E+02 0.  0.
          4    1    3    3  502    0 -0.32916932646E+03 -0.71393850960E+02 -0.48818660744E+03  0.59310681258E+03  0.00000000000E+00 0. -1.
         -3    1    3    3    0  502 -0.30034978535E+02 -0.25985713251E+01 -0.12058622632E+02  0.32469414659E+02  0.00000000000E+00 0.  1.
         11    1    5    5    0    0  0.99900082432E+02 -0.24294088773E+03  0.12526124818E+03  0.29101663475E+03  0.00000000000E+00 0.  1.
        -11    1    5    5    0    0 -0.22741529545E+02 -0.61643462637E+02  0.44329090802E+02  0.79260090482E+02  0.00000000000E+00 0. -1.
          2    1    6    6  503    0  0.66436820117E+02  0.81077638510E+02 -0.14428239551E+03  0.17833912691E+03  0.00000000000E+00 0. -1.
         -2    1    6    6    0  503  0.21560893199E+03  0.29749913415E+03 -0.27125124842E+03  0.45669485014E+03  0.00000000000E+00 0.  1.
<mgrwt>
<rscale>  0 0.14501706E+04</rscale>
<asrwt>0</asrwt>
<pdfrwt beam="1">  1        2 0.18285196E+00 0.14501706E+04</pdfrwt>
<pdfrwt beam="2">  1       -1 0.68053723E-01 0.14501706E+04</pdfrwt>
<totfact> 0.46518601E+01</totfact>
</mgrwt>
</event>
<event>
12    6  0.1521603E-007  0.2130705E+04  0.7818608E-02  0.8547837E-01
          2   -1    0    0  501    0  0.00000000000E+00  0.00000000000E+00  0.35607721112E+04  0.35607721112E+04  0.00000000000E+00 0. -1.
         -1   -1    0    0    0  501 -0.00000000000E+00 -0.00000000000E+00 -0.31874442701E+03  0.31874442701E+03  0.00000000000E+00 0.  1.
         24    2    1    2    0    0 -0.28214180916E+03 -0.81694878058E+03  0.15138321919E+04  0.17450424080E+04  0.80472292626E+02 0.  0.
        254    2    1    2    0    0  0.28214180916E+03  0.81694878058E+03  0.17281954923E+04  0.21344741302E+04  0.90681356539E+03 0.  0.
         23    2    4    4    0    0 -0.27658105235E+03  0.54006390604E+03  0.72432818704E+03  0.94922437325E+03  0.90606219993E+02 0.  0.
         23    2    4    4    0    0  0.55872286151E+03  0.27688487454E+03  0.10038673052E+04  0.11852497569E+04  0.90724583759E+02 0.  0.
          4    1    3    3  502    0 -0.11891034680E+03 -0.46679851087E+03  0.83888028638E+03  0.96734722577E+03  0.00000000000E+00 0. -1.
         -3    1    3    3    0  502 -0.16323146236E+03 -0.35015026971E+03  0.67495190552E+03  0.77769518221E+03  0.00000000000E+00 0.  1.
         11    1    5    5    0    0 -0.12710022589E+03  0.30501464961E+03  0.33537211672E+03  0.47081085435E+03  0.00000000000E+00 0. -1.
        -11    1    5    5    0    0 -0.14948082646E+03  0.23504925643E+03  0.38895607033E+03  0.47841351891E+03  0.00000000000E+00 0.  1.
          2    1    6    6  503    0  0.40967396223E+03  0.21087561653E+03  0.81072983162E+03  0.93251495476E+03  0.00000000000E+00 0. -1.
         -2    1    6    6    0  503  0.14904889928E+03  0.66009258003E+02  0.19313747359E+03  0.25273480216E+03  0.00000000000E+00 0.  1.
<mgrwt>
<rscale>  0 0.21307053E+04</rscale>
<asrwt>0</asrwt>
<pdfrwt beam="1">  1        2 0.54781107E+00 0.21307053E+04</pdfrwt>
<pdfrwt beam="2">  1       -1 0.49037607E-01 0.21307053E+04</pdfrwt>
<totfact> 0.32237984E+00</totfact>
</mgrwt>
</event>
<event>
12    6  0.1521603E-007  0.1947011E+04  0.7818608E-02  0.8631804E-01
         -1   -1    0    0    0  501 -0.00000000000E+00  0.00000000000E+00  0.19840813746E+04  0.19840813746E+04  0.00000000000E+00 0.  1.
          2   -1    0    0  501    0  0.00000000000E+00 -0.00000000000E+00 -0.47765819096E+03  0.47765819096E+03  0.00000000000E+00 0. -1.
         24    2    1    2    0    0  0.22305541829E+02  0.27403777810E+03 -0.30630652513E+03  0.41907742111E+03  0.78790586527E+02 0.  0.
        254    2    1    2    0    0 -0.22305541829E+02 -0.27403777810E+03  0.18127297088E+04  0.20426621445E+04  0.90049175356E+03 0.  0.
         23    2    4    4    0    0  0.35755273583E+03 -0.31562910486E+03  0.13541872975E+04  0.14387838305E+04  0.93861512252E+02 0.  0.
         23    2    4    4    0    0 -0.37985827766E+03  0.41591326763E+02  0.45854241125E+03  0.60387831390E+03  0.91573607124E+02 0.  0.
          4    1    3    3  502    0 -0.77306152700E+01  0.21825277296E+03 -0.26522450406E+03  0.34356669348E+03  0.00000000000E+00 0. -1.
         -3    1    3    3    0  502  0.30036157099E+02  0.55785005140E+02 -0.41082021074E+02  0.75510727631E+02  0.00000000000E+00 0.  1.
         11    1    5    5    0    0  0.10222749821E+03 -0.10120165417E+03  0.29224877736E+03  0.32573238105E+03  0.00000000000E+00 0. -1.
        -11    1    5    5    0    0  0.25532523763E+03 -0.21442745069E+03  0.10619385202E+04  0.11130514495E+04  0.00000000000E+00 0.  1.
          4    1    6    6  503    0 -0.14016704881E+03  0.24593207840E+02  0.24026195324E+03  0.27924439765E+03  0.00000000000E+00 0. -1.
         -4    1    6    6    0  503 -0.23969122885E+03  0.16998118923E+02  0.21828045801E+03  0.32463391625E+03  0.00000000000E+00 0.  1.
<mgrwt>
<rscale>  0 0.19470108E+04</rscale>
<asrwt>0</asrwt>
<pdfrwt beam="1">  1        2 0.73485877E-01 0.19470108E+04</pdfrwt>
<pdfrwt beam="2">  1       -1 0.30524328E+00 0.19470108E+04</pdfrwt>
<totfact> 0.21157440E+00</totfact>
</mgrwt>
</event>
<event>
12    6  0.1521603E-007  0.1373293E+04  0.7818608E-02  0.8973381E-01
          2   -1    0    0  501    0  0.00000000000E+00  0.00000000000E+00  0.22964232172E+04  0.22964232172E+04  0.00000000000E+00 0. -1.
         -1   -1    0    0    0  501 -0.00000000000E+00 -0.00000000000E+00 -0.20531199503E+03  0.20531199503E+03  0.00000000000E+00 0.  1.
         24    2    1    2    0    0  0.21652882455E+03  0.28267651769E+03  0.90619925347E+03  0.97696898506E+03  0.80501958127E+02 0.  0.
        254    2    1    2    0    0 -0.21652882455E+03 -0.28267651769E+03  0.11849119687E+04  0.15247662272E+04  0.89112565245E+03 0.  0.
         23    2    4    4    0    0 -0.47627637153E+03 -0.18213628179E+02  0.96900636839E+03  0.10837946639E+04  0.92014200933E+02 0.  0.
         23    2    4    4    0    0  0.25974754697E+03 -0.26446288951E+03  0.21590560035E+03  0.44097156332E+03  0.10213365413E+03 0.  0.
          2    1    3    3  502    0  0.72370165134E+02  0.16046949263E+03  0.42960748412E+03  0.46427415315E+03  0.00000000000E+00 0. -1.
         -1    1    3    3    0  502  0.14415865942E+03  0.12220702506E+03  0.47659176935E+03  0.51269483191E+03  0.00000000000E+00 0.  1.
         11    1    5    5    0    0 -0.10992623200E+03  0.28397877413E+02  0.18309820356E+03  0.21544179740E+03  0.00000000000E+00 0. -1.
        -11    1    5    5    0    0 -0.36635013953E+03 -0.46611505593E+02  0.78590816483E+03  0.86835286649E+03  0.00000000000E+00 0.  1.
          1    1    6    6  503    0  0.54094413860E+02 -0.24930085777E+02  0.73585913165E+02  0.94671016706E+02  0.00000000000E+00 0. -1.
         -1    1    6    6    0  503  0.20565313311E+03 -0.23953280373E+03  0.14231968718E+03  0.34630054661E+03  0.00000000000E+00 0.  1.
<mgrwt>
<rscale>  0 0.13732927E+04</rscale>
<asrwt>0</asrwt>
<pdfrwt beam="1">  1        2 0.35329586E+00 0.13732927E+04</pdfrwt>
<pdfrwt beam="2">  1       -1 0.31586462E-01 0.13732927E+04</pdfrwt>
<totfact> 0.47245880E+01</totfact>
</mgrwt>
</event>
<event>
12    6  0.1521603E-007  0.2903265E+04  0.7818608E-02  0.8271907E-01
          2   -1    0    0  501    0  0.00000000000E+00  0.00000000000E+00  0.31301058266E+04  0.31301058266E+04  0.00000000000E+00 0. -1.
         -1   -1    0    0    0  501 -0.00000000000E+00 -0.00000000000E+00 -0.67321586609E+03  0.67321586609E+03  0.00000000000E+00 0.  1.
         24    2    1    2    0    0  0.98936560210E+03 -0.83487612647E+03  0.81650251700E+03  0.15326637700E+04  0.80742990892E+02 0.  0.
        254    2    1    2    0    0 -0.98936560210E+03  0.83487612647E+03  0.16403874435E+04  0.22706579227E+04  0.88834339965E+03 0.  0.
         23    2    4    4    0    0 -0.32212360861E+03  0.33127616321E+03  0.52822797375E+02  0.47398868087E+03  0.91474073579E+02 0.  0.
         23    2    4    4    0    0 -0.66724199348E+03  0.50359996326E+03  0.15875646462E+04  0.17966692418E+04  0.93989668629E+02 0.  0.
          2    1    3    3  502    0  0.12315505658E+03 -0.91688016215E+02  0.69004278585E+02  0.16833137183E+03  0.00000000000E+00 0. -1.
         -1    1    3    3    0  502  0.86621054552E+03 -0.74318811026E+03  0.74749823842E+03  0.13643323982E+04  0.00000000000E+00 0.  1.
         11    1    5    5    0    0 -0.21556106168E+03  0.27242451962E+03  0.20299538588E+02  0.34798528916E+03  0.00000000000E+00 0. -1.
        -11    1    5    5    0    0 -0.10656254693E+03  0.58851643590E+02  0.32523258788E+02  0.12600339172E+03  0.00000000000E+00 0.  1.
          1    1    6    6  503    0 -0.61608636369E+03  0.48739296616E+03  0.15132655045E+04  0.17050181225E+04  0.00000000000E+00 0. -1.
         -1    1    6    6    0  503 -0.51155629789E+02  0.16206997100E+02  0.74299141679E+02  0.91651119297E+02  0.00000000000E+00 0.  1.
<mgrwt>
<rscale>  0 0.29032650E+04</rscale>
<asrwt>0</asrwt>
<pdfrwt beam="1">  1        2 0.48155474E+00 0.29032650E+04</pdfrwt>
<pdfrwt beam="2">  1       -1 0.10357167E+00 0.29032650E+04</pdfrwt>
<totfact> 0.12396950E+00</totfact>
</mgrwt>
</event>
<event>
12    6  0.1521603E-007  0.1924147E+04  0.7818608E-02  0.8642929E-01
          2   -1    0    0  501    0  0.00000000000E+00  0.00000000000E+00  0.11337790933E+04  0.11337790933E+04  0.00000000000E+00 0. -1.
         -1   -1    0    0    0  501 -0.00000000000E+00 -0.00000000000E+00 -0.81637222802E+03  0.81637222802E+03  0.00000000000E+00 0.  1.
         24    2    1    2    0    0 -0.73315042411E+03 -0.67942408580E+02  0.27644933975E+03  0.79039074243E+03  0.78533897180E+02 0.  0.
        254    2    1    2    0    0  0.73315042411E+03  0.67942408580E+02  0.40957525490E+02  0.11597605788E+04  0.89512086675E+03 0.  0.
         23    2    4    4    0    0  0.21457226085E+03 -0.37112666514E+03  0.15476133388E+03  0.46475257510E+03  0.90926502678E+02 0.  0.
         23    2    4    4    0    0  0.51857816327E+03  0.43906907372E+03 -0.11380380839E+03  0.69500800375E+03  0.91541551001E+02 0.  0.
          2    1    3    3  502    0 -0.67488330068E+03 -0.41957634478E+02  0.26049158937E+03  0.72462664922E+03  0.00000000000E+00 0. -1.
         -1    1    3    3    0  502 -0.58267123436E+02 -0.25984774101E+02  0.15957750384E+02  0.65764093212E+02  0.00000000000E+00 0.  1.
         11    1    5    5    0    0  0.18984451327E+03 -0.34857029410E+03  0.11595578329E+03  0.41350687155E+03  0.00000000000E+00 0. -1.
        -11    1    5    5    0    0  0.24727747577E+02 -0.22556371049E+02  0.38805550587E+02  0.51245703542E+02  0.00000000000E+00 0.  1.
          1    1    6    6  503    0  0.34854967515E+03  0.34889010389E+03 -0.81978499926E+02  0.49993165042E+03  0.00000000000E+00 0. -1.
         -1    1    6    6    0  503  0.17002848812E+03  0.90178969830E+02 -0.31825308461E+02  0.19507635333E+03  0.00000000000E+00 0.  1.
<mgrwt>
<rscale>  0 0.19241474E+04</rscale>
<asrwt>0</asrwt>
<pdfrwt beam="1">  1        2 0.17442755E+00 0.19241474E+04</pdfrwt>
<pdfrwt beam="2">  1       -1 0.12559573E+00 0.19241474E+04</pdfrwt>
<totfact> 0.12245387E+01</totfact>
</mgrwt>
</event>
<event>
12    6  0.1521603E-007  0.1270160E+04  0.7818608E-02  0.9053569E-01
          2   -1    0    0  501    0  0.00000000000E+00  0.00000000000E+00  0.78624219591E+03  0.78624219591E+03  0.00000000000E+00 0. -1.
         -1   -1    0    0    0  501 -0.00000000000E+00 -0.00000000000E+00 -0.51297984257E+03  0.51297984257E+03  0.00000000000E+00 0.  1.
         24    2    1    2    0    0 -0.16488599754E+03 -0.12614984467E+03 -0.16215098874E+03  0.27530452916E+03  0.79990406497E+02 0.  0.
        254    2    1    2    0    0  0.16488599754E+03  0.12614984467E+03  0.43541334207E+03  0.10239175093E+04  0.90317280293E+03 0.  0.
         23    2    4    4    0    0  0.30225398307E+03  0.30448387350E+03 -0.86949567596E+02  0.44749847239E+03  0.92880331489E+02 0.  0.
         23    2    4    4    0    0 -0.13736798554E+03 -0.17833402883E+03  0.52236290967E+03  0.57641903693E+03  0.93396506637E+02 0.  0.
          4    1    3    3  502    0  0.53191785769E+01 -0.22048379817E+02 -0.20963592630E+02  0.30885221859E+02  0.00000000000E+00 0. -1.
         -3    1    3    3    0  502 -0.17020517611E+03 -0.10410146485E+03 -0.14118739611E+03  0.24441930730E+03  0.00000000000E+00 0.  1.
         11    1    5    5    0    0  0.92379067871E+02  0.13487491133E+03 -0.67792756135E+02  0.17697737616E+03  0.00000000000E+00 0. -1.
        -11    1    5    5    0    0  0.20987491520E+03  0.16960896217E+03 -0.19156811461E+02  0.27052109623E+03  0.00000000000E+00 0.  1.
          2    1    6    6  503    0 -0.14694360378E+03 -0.16803257549E+03  0.51316980052E+03  0.55961648768E+03  0.00000000000E+00 0.  1.
         -2    1    6    6    0  503  0.95756182366E+01 -0.10301453344E+02  0.91931091437E+01  0.16802549251E+02  0.00000000000E+00 0. -1.
<mgrwt>
<rscale>  0 0.12701597E+04</rscale>
<asrwt>0</asrwt>
<pdfrwt beam="1">  1        2 0.12096034E+00 0.12701597E+04</pdfrwt>
<pdfrwt beam="2">  1       -1 0.78919976E-01 0.12701597E+04</pdfrwt>
<totfact> 0.63496345E+01</totfact>
</mgrwt>
</event>
<event>
12    6  0.1521603E-007  0.1276228E+04  0.7818608E-02  0.9048632E-01
         -1   -1    0    0    0  501 -0.00000000000E+00  0.00000000000E+00  0.13955819773E+03  0.13955819773E+03  0.00000000000E+00 0.  1.
          2   -1    0    0  501    0  0.00000000000E+00 -0.00000000000E+00 -0.29177045869E+04  0.29177045869E+04  0.00000000000E+00 0. -1.
         24    2    1    2    0    0  0.61263023721E+02  0.30205753493E+03 -0.93393135621E+03  0.98681710774E+03  0.81168426874E+02 0.  0.
        254    2    1    2    0    0 -0.61263023721E+02 -0.30205753493E+03 -0.18442150330E+04  0.20704456769E+04  0.88917056895E+03 0.  0.
         23    2    4    4    0    0  0.17994289596E+03 -0.72116405549E+02 -0.21525578479E+02  0.21509143355E+03  0.90668365479E+02 0.  0.
         23    2    4    4    0    0 -0.24120591969E+03 -0.22994112938E+03 -0.18226894545E+04  0.18553542434E+04  0.95337831673E+02 0.  0.
          2    1    3    3  502    0  0.59672112053E+02  0.22916840207E+03 -0.80017888040E+03  0.83448496578E+03  0.00000000000E+00 0. -1.
         -1    1    3    3    0  502  0.15909116681E+01  0.72889132858E+02 -0.13375247581E+03  0.15233214196E+03  0.00000000000E+00 0.  1.
         11    1    5    5    0    0  0.10858100463E+03 -0.89197863688E+02 -0.10818723344E+02  0.14093664615E+03  0.00000000000E+00 0. -1.
        -11    1    5    5    0    0  0.71361891336E+02  0.17081458139E+02 -0.10706855135E+02  0.74154787398E+02  0.00000000000E+00 0.  1.
          3    1    6    6  503    0 -0.54135545167E+02 -0.64946179523E+02 -0.71186925822E+03  0.71687272530E+03  0.00000000000E+00 0. -1.
         -3    1    6    6    0  503 -0.18707037452E+03 -0.16499494986E+03 -0.11108201963E+04  0.11384815181E+04  0.00000000000E+00 0.  1.
<mgrwt>
<rscale>  0 0.12762282E+04</rscale>
<asrwt>0</asrwt>
<pdfrwt beam="1">  1        2 0.44887753E+00 0.12762282E+04</pdfrwt>
<pdfrwt beam="2">  1       -1 0.21470497E-01 0.12762282E+04</pdfrwt>
<totfact> 0.40194629E+01</totfact>
</mgrwt>
</event>
<event>
12    6  0.1521603E-007  0.1678479E+04  0.7818608E-02  0.8773735E-01
         -1   -1    0    0    0  501 -0.00000000000E+00  0.00000000000E+00  0.32760410296E+03  0.32760410296E+03  0.00000000000E+00 0.  1.
          2   -1    0    0  501    0  0.00000000000E+00 -0.00000000000E+00 -0.21499210126E+04  0.21499210126E+04  0.00000000000E+00 0. -1.
         24    2    1    2    0    0 -0.15503364600E+03  0.25692058472E+03  0.10656854772E+03  0.32861677255E+03  0.81169634664E+02 0.  0.
        254    2    1    2    0    0  0.15503364600E+03 -0.25692058472E+03 -0.19288854573E+04  0.21489083430E+04  0.89842325258E+03 0.  0.
         23    2    4    4    0    0  0.61207085063E+02 -0.35247910439E+03 -0.19510144630E+04  0.19857823839E+04  0.94267783267E+02 0.  0.
         23    2    4    4    0    0  0.93826560939E+02  0.95558519672E+02  0.22129005696E+02  0.16312595908E+03  0.90473926707E+02 0.  0.
          4    1    3    3  502    0 -0.39370176941E+02  0.66660440362E+02 -0.86727264264E+01  0.77902768406E+02  0.00000000000E+00 0. -1.
         -3    1    3    3    0  502 -0.11566346906E+03  0.19026014436E+03  0.11524127415E+03  0.25071400414E+03  0.00000000000E+00 0.  1.
         11    1    5    5    0    0  0.59284464533E+02 -0.23091882747E+03 -0.10578890818E+04  0.10844203346E+04  0.00000000000E+00 0.  1.
        -11    1    5    5    0    0  0.19226205301E+01 -0.12156027692E+03 -0.89312538120E+03  0.90136204931E+03  0.00000000000E+00 0. -1.
          3    1    6    6  503    0  0.49947561120E+01 -0.16901288159E+02  0.72025201900E+01  0.19038839963E+02  0.00000000000E+00 0. -1.
         -3    1    6    6    0  503  0.88831804827E+02  0.11245980783E+03  0.14926485506E+02  0.14408711912E+03  0.00000000000E+00 0.  1.
<mgrwt>
<rscale>  0 0.16784790E+04</rscale>
<asrwt>0</asrwt>
<pdfrwt beam="1">  1        2 0.33075706E+00 0.16784790E+04</pdfrwt>
<pdfrwt beam="2">  1       -1 0.50400634E-01 0.16784790E+04</pdfrwt>
<totfact> 0.23653240E+01</totfact>
</mgrwt>
</event>
<event>
12    6  0.1521603E-007  0.1927057E+04  0.7818608E-02  0.8641505E-01
         -1   -1    0    0    0  501 -0.00000000000E+00  0.00000000000E+00  0.34207672767E+03  0.34207672767E+03  0.00000000000E+00 0.  1.
          2   -1    0    0  501    0  0.00000000000E+00 -0.00000000000E+00 -0.27139722018E+04  0.27139722018E+04  0.00000000000E+00 0. -1.
         24    2    1    2    0    0  0.71843722307E+03 -0.14380411336E+03 -0.11985759854E+04  0.14070582681E+04  0.79980688527E+02 0.  0.
        254    2    1    2    0    0 -0.71843722307E+03  0.14380411336E+03 -0.11733194888E+04  0.16489906614E+04  0.89758560160E+03 0.  0.
         23    2    4    4    0    0 -0.80376927391E+03 -0.74550437708E+02 -0.56162923409E+03  0.98741852613E+03  0.89247609059E+02 0.  0.
         23    2    4    4    0    0  0.85332050841E+02  0.21835455106E+03 -0.61169025467E+03  0.66157213528E+03  0.92479476883E+02 0.  0.
          4    1    3    3  502    0  0.70712375943E+03 -0.14963394772E+03 -0.11632839704E+04  0.13695415018E+04  0.00000000000E+00 0. -1.
         -3    1    3    3    0  502  0.11313463639E+02  0.58298343651E+01 -0.35292014971E+02  0.37516766238E+02  0.00000000000E+00 0.  1.
         11    1    5    5    0    0 -0.22912657870E+02  0.10564069157E+02 -0.81190767109E+01  0.26504883596E+02  0.00000000000E+00 0. -1.
        -11    1    5    5    0    0 -0.78085661604E+03 -0.85114506864E+02 -0.55351015738E+03  0.96091364254E+03  0.00000000000E+00 0.  1.
          4    1    6    6  503    0  0.78005472808E+02  0.20580249132E+03 -0.46822269014E+03  0.51737028015E+03  0.00000000000E+00 0.  1.
         -4    1    6    6    0  503  0.73265780327E+01  0.12552059747E+02 -0.14346756454E+03  0.14420185513E+03  0.00000000000E+00 0. -1.
<mgrwt>
<rscale>  0 0.19270565E+04</rscale>
<asrwt>0</asrwt>
<pdfrwt beam="1">  1        2 0.41753420E+00 0.19270565E+04</pdfrwt>
<pdfrwt beam="2">  1       -1 0.52627187E-01 0.19270565E+04</pdfrwt>
<totfact> 0.10099089E+01</totfact>
</mgrwt>
</event>
<event>
12    6  0.1521603E-007  0.1951873E+04  0.7818608E-02  0.8629458E-01
          2   -1    0    0  501    0  0.00000000000E+00  0.00000000000E+00  0.18573028401E+04  0.18573028401E+04  0.00000000000E+00 0. -1.
         -1   -1    0    0    0  501 -0.00000000000E+00 -0.00000000000E+00 -0.51281446332E+03  0.51281446332E+03  0.00000000000E+00 0.  1.
         24    2    1    2    0    0  0.12904873618E+03 -0.66547696677E+03  0.91906973312E+02  0.68897724298E+03  0.82034017341E+02 0.  0.
        254    2    1    2    0    0 -0.12904873618E+03  0.66547696677E+03  0.12525814035E+04  0.16811400605E+04  0.89317330957E+03 0.  0.
         23    2    4    4    0    0 -0.24197004341E+03  0.77328138968E+03  0.62247554286E+03  0.10257665474E+04  0.90595799440E+02 0.  0.
         23    2    4    4    0    0  0.11292130723E+03 -0.10780442291E+03  0.63010586066E+03  0.65537351304E+03  0.90044604110E+02 0.  0.
          2    1    3    3  502    0  0.23332588086E+00 -0.82606039628E+02 -0.10669709248E+02  0.83292586221E+02  0.00000000000E+00 0. -1.
         -1    1    3    3    0  502  0.12881541030E+03 -0.58287092714E+03  0.10257668256E+03  0.60568465676E+03  0.00000000000E+00 0.  1.
         11    1    5    5    0    0 -0.54082873316E+02  0.15292469496E+03  0.81696095599E+02  0.18161820270E+03  0.00000000000E+00 0.  1.
        -11    1    5    5    0    0 -0.18788717010E+03  0.62035669472E+03  0.54077944726E+03  0.84414834475E+03  0.00000000000E+00 0. -1.
          2    1    6    6  503    0  0.49399878795E+02 -0.57838651916E+01  0.29949814350E+03  0.30359996554E+03  0.00000000000E+00 0.  1.
         -2    1    6    6    0  503  0.63521428440E+02 -0.10202055772E+03  0.33060771716E+03  0.35177354749E+03  0.00000000000E+00 0. -1.
<mgrwt>
<rscale>  0 0.19518727E+04</rscale>
<asrwt>0</asrwt>
<pdfrwt beam="1">  1        2 0.28573890E+00 0.19518727E+04</pdfrwt>
<pdfrwt beam="2">  1       -1 0.78894534E-01 0.19518727E+04</pdfrwt>
<totfact> 0.13684886E+01</totfact>
</mgrwt>
</event>
<event>
12    6  0.1521603E-007  0.2586253E+04  0.7818608E-02  0.8372886E-01
          2   -1    0    0  501    0  0.00000000000E+00  0.00000000000E+00  0.16327251025E+04  0.16327251025E+04  0.00000000000E+00 0. -1.
         -1   -1    0    0    0  501 -0.00000000000E+00 -0.00000000000E+00 -0.10241626050E+04  0.10241626050E+04  0.00000000000E+00 0.  1.
         24    2    1    2    0    0  0.43923042496E+03  0.31675840060E+03 -0.75180179319E+03  0.93002676866E+03  0.80527036457E+02 0.  0.
        254    2    1    2    0    0 -0.43923042496E+03 -0.31675840060E+03  0.13603642907E+04  0.17268609389E+04  0.91553178444E+03 0.  0.
         23    2    4    4    0    0 -0.35792421154E+03 -0.61847135014E+03  0.77731638896E+03  0.10596022494E+04  0.88992169476E+02 0.  0.
         23    2    4    4    0    0 -0.81306213427E+02  0.30171294954E+03  0.58304790169E+03  0.66725868947E+03  0.87452265518E+02 0.  0.
          2    1    3    3  502    0  0.77103892443E+02  0.24501332015E+02 -0.90302188806E+02  0.12124277629E+03  0.00000000000E+00 0. -1.
         -1    1    3    3    0  502  0.36212653252E+03  0.29225706859E+03 -0.66149960439E+03  0.80878399236E+03  0.00000000000E+00 0.  1.
         11    1    5    5    0    0 -0.32238711940E+02 -0.23296385111E+02  0.62419427056E+02  0.74015140214E+02  0.00000000000E+00 0. -1.
        -11    1    5    5    0    0 -0.32568549960E+03 -0.59517496503E+03  0.71489696190E+03  0.98558710918E+03  0.00000000000E+00 0.  1.
          2    1    6    6  503    0 -0.75893135220E+02  0.18811122097E+03  0.44002976295E+03  0.48453254970E+03  0.00000000000E+00 0.  1.
         -2    1    6    6    0  503 -0.54130782075E+01  0.11360172856E+03  0.14301813874E+03  0.18272613977E+03  0.00000000000E+00 0. -1.
<mgrwt>
<rscale>  0 0.25862529E+04</rscale>
<asrwt>0</asrwt>
<pdfrwt beam="1">  1        2 0.25118848E+00 0.25862529E+04</pdfrwt>
<pdfrwt beam="2">  1       -1 0.15756348E+00 0.25862529E+04</pdfrwt>
<totfact> 0.32881286E+00</totfact>
</mgrwt>
</event>
<event>
12    6  0.1521603E-007  0.1244150E+04  0.7818608E-02  0.9075066E-01
         -1   -1    0    0    0  501 -0.00000000000E+00  0.00000000000E+00  0.21282917768E+03  0.21282917768E+03  0.00000000000E+00 0.  1.
          2   -1    0    0  501    0  0.00000000000E+00 -0.00000000000E+00 -0.18182533784E+04  0.18182533784E+04  0.00000000000E+00 0. -1.
         24    2    1    2    0    0  0.36371112333E+02 -0.61185860990E+02  0.69212351410E+02  0.12727347674E+03  0.79634294719E+02 0.  0.
        254    2    1    2    0    0 -0.36371112333E+02  0.61185860990E+02 -0.16746365521E+04  0.19038090793E+04  0.90278173522E+03 0.  0.
         23    2    4    4    0    0 -0.35202038034E+03  0.21946112010E+03 -0.13480007572E+04  0.14132864901E+04  0.90504864118E+02 0.  0.
         23    2    4    4    0    0  0.31564926801E+03 -0.15827525911E+03 -0.32663579493E+03  0.49052258919E+03  0.96103849731E+02 0.  0.
          4    1    3    3  502    0  0.76728060397E+01 -0.46171412369E+02 -0.42409692677E+01  0.46996351912E+02  0.00000000000E+00 0. -1.
         -3    1    3    3    0  502  0.28698306294E+02 -0.15014448621E+02  0.73453320678E+02  0.80277124825E+02  0.00000000000E+00 0.  1.
         11    1    5    5    0    0 -0.30007448858E+03  0.21217285356E+03 -0.12383935838E+04  0.12917742399E+04  0.00000000000E+00 0.  1.
        -11    1    5    5    0    0 -0.51945891755E+02  0.72882665462E+01 -0.10960717337E+03  0.12151225022E+03  0.00000000000E+00 0. -1.
          1    1    6    6  503    0  0.14268394625E+02 -0.20549480135E+02  0.31143959730E+00  0.25019296825E+02  0.00000000000E+00 0. -1.
         -1    1    6    6    0  503  0.30138087338E+03 -0.13772577898E+03 -0.32694723453E+03  0.46550329236E+03  0.00000000000E+00 0.  1.
<mgrwt>
<rscale>  0 0.12441501E+04</rscale>
<asrwt>0</asrwt>
<pdfrwt beam="1">  1        2 0.27973130E+00 0.12441501E+04</pdfrwt>
<pdfrwt beam="2">  1       -1 0.32742949E-01 0.12441501E+04</pdfrwt>
<totfact> 0.82613657E+01</totfact>
</mgrwt>
</event>
<event>
12    6  0.1521603E-007  0.1325083E+04  0.7818608E-02  0.9009907E-01
         -1   -1    0    0    0  501 -0.00000000000E+00  0.00000000000E+00  0.62799387276E+03  0.62799387276E+03  0.00000000000E+00 0.  1.
          2   -1    0    0  501    0  0.00000000000E+00 -0.00000000000E+00 -0.69898946654E+03  0.69898946654E+03  0.00000000000E+00 0. -1.
         24    2    1    2    0    0 -0.10698749057E+03 -0.22596307088E+03  0.15409259094E+03  0.30527072594E+03  0.83307004471E+02 0.  0.
        254    2    1    2    0    0  0.10698749057E+03  0.22596307088E+03 -0.22508818472E+03  0.10217126134E+04  0.96474159279E+03 0.  0.
         23    2    4    4    0    0 -0.21187058537E+01  0.34259620259E+03 -0.54685006229E+03  0.65159074417E+03  0.90271038082E+02 0.  0.
         23    2    4    4    0    0  0.10910619642E+03 -0.11663313171E+03  0.32176187757E+03  0.37012186919E+03  0.89174226583E+02 0.  0.
          2    1    3    3  502    0 -0.85592512383E+02 -0.12033487414E+03  0.51274580430E+02  0.15631904141E+03  0.00000000000E+00 0. -1.
         -1    1    3    3    0  502 -0.21394978188E+02 -0.10562819674E+03  0.10281801051E+03  0.14895168453E+03  0.00000000000E+00 0.  1.
         11    1    5    5    0    0  0.22377755300E+02  0.53331393807E+02 -0.51495693316E+02  0.77439059446E+02  0.00000000000E+00 0.  1.
        -11    1    5    5    0    0 -0.24496461154E+02  0.28926480878E+03 -0.49535436897E+03  0.57415168472E+03  0.00000000000E+00 0. -1.
          4    1    6    6  503    0  0.84332722667E+02 -0.12472542240E+03  0.30187929800E+03  0.33734188840E+03  0.00000000000E+00 0. -1.
         -4    1    6    6    0  503  0.24773473757E+02  0.80922906912E+01  0.19882579568E+02  0.32779980795E+02  0.00000000000E+00 0.  1.
<mgrwt>
<rscale>  0 0.13250828E+04</rscale>
<asrwt>0</asrwt>
<pdfrwt beam="1">  1        2 0.10753684E+00 0.13250828E+04</pdfrwt>
<pdfrwt beam="2">  1       -1 0.96614442E-01 0.13250828E+04</pdfrwt>
<totfact> 0.47314668E+01</totfact>
</mgrwt>
</event>
<event>
12    6  0.1521603E-007  0.1498503E+04  0.7818608E-02  0.8885449E-01
          2   -1    0    0  501    0  0.00000000000E+00  0.00000000000E+00  0.12034074311E+04  0.12034074311E+04  0.00000000000E+00 0. -1.
         -1   -1    0    0    0  501 -0.00000000000E+00 -0.00000000000E+00 -0.46649053696E+03  0.46649053696E+03  0.00000000000E+00 0.  1.
         24    2    1    2    0    0  0.24638249167E+03 -0.36335592242E+02 -0.21714483042E+03  0.33952642645E+03  0.78113439398E+02 0.  0.
        254    2    1    2    0    0 -0.24638249167E+03  0.36335592242E+02  0.95406172459E+03  0.13303715416E+04  0.89310136996E+03 0.  0.
         23    2    4    4    0    0  0.34212492564E+02  0.33183454269E+03  0.82331661744E+03  0.89297520206E+03  0.90938443867E+02 0.  0.
         23    2    4    4    0    0 -0.28059498423E+03 -0.29549895044E+03  0.13074510715E+03  0.43739633959E+03  0.90377541187E+02 0.  0.
          2    1    3    3  502    0  0.44966178423E+02 -0.20150860755E+02 -0.10254022826E+02  0.50330501441E+02  0.00000000000E+00 0. -1.
         -1    1    3    3    0  502  0.20141631324E+03 -0.16184731487E+02 -0.20689080759E+03  0.28919592500E+03  0.00000000000E+00 0.  1.
         11    1    5    5    0    0 -0.55859910614E+01  0.34337438046E+02  0.34545213034E+02  0.49026877233E+02  0.00000000000E+00 0.  1.
        -11    1    5    5    0    0  0.39798483625E+02  0.29749710464E+03  0.78877140440E+03  0.84394832482E+03  0.00000000000E+00 0. -1.
          1    1    6    6  503    0 -0.13091047582E+03 -0.20263832213E+03  0.74810731217E+02  0.25257966621E+03  0.00000000000E+00 0. -1.
         -1    1    6    6    0  503 -0.14968450841E+03 -0.92860628314E+02  0.55934375929E+02  0.18481667338E+03  0.00000000000E+00 0.  1.
<mgrwt>
<rscale>  0 0.14985035E+04</rscale>
<asrwt>0</asrwt>
<pdfrwt beam="1">  1        2 0.18513960E+00 0.14985035E+04</pdfrwt>
<pdfrwt beam="2">  1       -1 0.71767775E-01 0.14985035E+04</pdfrwt>
<totfact> 0.40709580E+01</totfact>
</mgrwt>
</event>
<event>
12    6  0.1521603E-007  0.2281704E+04  0.7818608E-02  0.8485170E-01
          2   -1    0    0  501    0  0.00000000000E+00  0.00000000000E+00  0.31080229431E+04  0.31080229431E+04  0.00000000000E+00 0. -1.
         -3   -1    0    0    0  501 -0.00000000000E+00 -0.00000000000E+00 -0.41876869976E+03  0.41876869976E+03  0.00000000000E+00 0.  1.
         24    2    1    2    0    0  0.46763561554E+03 -0.38178205959E+03 -0.19002825227E+02  0.60910001335E+03  0.78747120305E+02 0.  0.
        254    2    1    2    0    0 -0.46763561554E+03  0.38178205959E+03  0.27082570686E+04  0.29176916295E+04  0.90212387479E+03 0.  0.
         23    2    4    4    0    0  0.22552939232E+03 -0.57383391433E+02  0.48033315281E+03  0.54173693691E+03  0.92750259891E+02 0.  0.
         23    2    4    4    0    0 -0.69316500786E+03  0.43916545102E+03  0.22279239157E+04  0.23759546926E+04  0.90397485306E+02 0.  0.
          2    1    3    3  502    0  0.13998666681E+03 -0.16118773912E+03 -0.16179917610E+02  0.21410171382E+03  0.00000000000E+00 0. -1.
         -1    1    3    3    0  502  0.32764894873E+03 -0.22059432047E+03 -0.28229076173E+01  0.39499829953E+03  0.00000000000E+00 0.  1.
         11    1    5    5    0    0  0.22812338137E+03 -0.44706599054E+02  0.47256018087E+03  0.52664227107E+03  0.00000000000E+00 0. -1.
        -11    1    5    5    0    0 -0.25939890479E+01 -0.12676792379E+02  0.77729719380E+01  0.15094665844E+02  0.00000000000E+00 0.  1.
          1    1    6    6  503    0 -0.59299759838E+03  0.40838247429E+03  0.19100113449E+04  0.20412167290E+04  0.00000000000E+00 0. -1.
         -1    1    6    6    0  503 -0.10016740948E+03  0.30782976733E+02  0.31791257085E+03  0.33473796361E+03  0.00000000000E+00 0.  1.
<mgrwt>
<rscale>  0 0.22817035E+04</rscale>
<asrwt>0</asrwt>
<pdfrwt beam="1">  1        2 0.47815736E+00 0.22817035E+04</pdfrwt>
<pdfrwt beam="2">  1       -3 0.64425956E-01 0.22817035E+04</pdfrwt>
<totfact> 0.20307185E+00</totfact>
</mgrwt>
</event>
<event>
12    6  0.1521603E-007  0.1565496E+04  0.7818608E-02  0.8842030E-01
          2   -1    0    0  501    0  0.00000000000E+00  0.00000000000E+00  0.41881928771E+03  0.41881928771E+03  0.00000000000E+00 0. -1.
         -1   -1    0    0    0  501 -0.00000000000E+00 -0.00000000000E+00 -0.14629096977E+04  0.14629096977E+04  0.00000000000E+00 0.  1.
         24    2    1    2    0    0  0.16707151990E+02 -0.32441550605E+03  0.14395316669E+03  0.36420549690E+03  0.79991126261E+02 0.  0.
        254    2    1    2    0    0 -0.16707151990E+02  0.32441550605E+03 -0.11880435767E+04  0.15175234885E+04  0.88651308426E+03 0.  0.
         23    2    4    4    0    0  0.65953068123E+02 -0.15933554137E+03  0.33922715778E+02  0.19758298546E+03  0.90281025467E+02 0.  0.
         23    2    4    4    0    0 -0.82660220112E+02  0.48375104742E+03 -0.12219662924E+04  0.13199405030E+04  0.90518085565E+02 0.  0.
          4    1    3    3  502    0  0.30720840110E+01 -0.31234248971E+03  0.14784907345E+03  0.34558156359E+03  0.00000000000E+00 0. -1.
         -1    1    3    3    0  502  0.13635067979E+02 -0.12073016345E+02 -0.38959067597E+01  0.18623933310E+02  0.00000000000E+00 0.  1.
         11    1    5    5    0    0  0.59533154935E+02 -0.15668740812E+03  0.48434980568E+01  0.16768601574E+03  0.00000000000E+00 0.  1.
        -11    1    5    5    0    0  0.64199131882E+01 -0.26481332410E+01  0.29079217722E+02  0.29896969718E+02  0.00000000000E+00 0. -1.
          1    1    6    6  503    0 -0.31431152793E+02  0.19111319990E+03 -0.60354463872E+03  0.63385984529E+03  0.00000000000E+00 0. -1.
         -1    1    6    6    0  503 -0.51229067320E+02  0.29263784752E+03 -0.61842165372E+03  0.68608065774E+03  0.00000000000E+00 0.  1.
<mgrwt>
<rscale>  0 0.15654965E+04</rscale>
<asrwt>0</asrwt>
<pdfrwt beam="1">  1        2 0.64433737E-01 0.15654965E+04</pdfrwt>
<pdfrwt beam="2">  1       -1 0.22506303E+00 0.15654965E+04</pdfrwt>
<totfact> 0.84502393E+00</totfact>
</mgrwt>
</event>
<event>
12    6  0.1521603E-007  0.2543651E+04  0.7818608E-02  0.8387598E-01
         -1   -1    0    0    0  501 -0.00000000000E+00  0.00000000000E+00  0.94594331993E+03  0.94594331993E+03  0.00000000000E+00 0.  1.
          2   -1    0    0  501    0  0.00000000000E+00 -0.00000000000E+00 -0.17099757495E+04  0.17099757495E+04  0.00000000000E+00 0. -1.
         24    2    1    2    0    0  0.71655137623E+03  0.81232367963E+03 -0.59008202307E+03  0.12359697251E+04  0.78158378489E+02 0.  0.
        254    2    1    2    0    0 -0.71655137623E+03 -0.81232367963E+03 -0.17395040654E+03  0.14199493444E+04  0.90148863631E+03 0.  0.
         23    2    4    4    0    0  0.48415642169E+02 -0.54774958241E+03 -0.23079727327E+03  0.60334221296E+03  0.91546519059E+02 0.  0.
         23    2    4    4    0    0 -0.76496701840E+03 -0.26457409722E+03  0.56846866731E+02  0.81660713142E+03  0.91878445071E+02 0.  0.
          2    1    3    3  502    0  0.69105939123E+03  0.76658460793E+03 -0.54655194433E+03  0.11678758800E+04  0.00000000000E+00 0. -1.
         -1    1    3    3    0  502  0.25491985003E+02  0.45739071701E+02 -0.43530078741E+02  0.68093845057E+02  0.00000000000E+00 0.  1.
         11    1    5    5    0    0 -0.16813104258E+02 -0.17542762855E+03 -0.10410049620E+03  0.20468132949E+03  0.00000000000E+00 0. -1.
        -11    1    5    5    0    0  0.65228746427E+02 -0.37232195386E+03 -0.12669677707E+03  0.39866088346E+03  0.00000000000E+00 0.  1.
          1    1    6    6  503    0 -0.30229918495E+02 -0.18304589440E+02  0.20475227553E+02  0.40842880777E+02  0.00000000000E+00 0. -1.
         -1    1    6    6    0  503 -0.73473709991E+03 -0.24626950778E+03  0.36371639178E+02  0.77576425064E+03  0.00000000000E+00 0.  1.
<mgrwt>
<rscale>  0 0.25436510E+04</rscale>
<asrwt>0</asrwt>
<pdfrwt beam="1">  1        2 0.26307319E+00 0.25436510E+04</pdfrwt>
<pdfrwt beam="2">  1       -1 0.14552974E+00 0.25436510E+04</pdfrwt>
<totfact> 0.37067311E+00</totfact>
</mgrwt>
</event>
<event>
12    6  0.1521603E-007  0.2426136E+04  0.7818608E-02  0.8429783E-01
          2   -1    0    0  501    0  0.00000000000E+00  0.00000000000E+00  0.12485886825E+04  0.12485886825E+04  0.00000000000E+00 0. -1.
         -1   -1    0    0    0  501 -0.00000000000E+00 -0.00000000000E+00 -0.11785580346E+04  0.11785580346E+04  0.00000000000E+00 0.  1.
         24    2    1    2    0    0 -0.18122480726E+02  0.10220644364E+03 -0.10054925308E+04  0.10154853202E+04  0.97059901479E+02 0.  0.
        254    2    1    2    0    0  0.18122480726E+02 -0.10220644364E+03  0.10755231787E+04  0.14116613970E+04  0.90843998723E+03 0.  0.
         23    2    4    4    0    0 -0.21135664312E+03  0.17214245410E+03  0.99347695365E+03  0.10342137572E+04  0.91087776512E+02 0.  0.
         23    2    4    4    0    0  0.22947912385E+03 -0.27434889774E+03  0.82046225012E+02  0.37744763977E+03  0.88358088248E+02 0.  0.
          2    1    3    3  502    0 -0.80041617952E+01 -0.18094923694E+02 -0.96223076770E+02  0.98236313920E+02  0.00000000000E+00 0. -1.
         -1    1    3    3    0  502 -0.10118318931E+02  0.12030136733E+03 -0.90926945406E+03  0.91724900624E+03  0.00000000000E+00 0.  1.
         11    1    5    5    0    0 -0.62936676708E+02  0.94076955650E+02  0.51218507434E+03  0.52454270487E+03  0.00000000000E+00 0. -1.
        -11    1    5    5    0    0 -0.14841996641E+03  0.78065498448E+02  0.48129187931E+03  0.50967105232E+03  0.00000000000E+00 0.  1.
          1    1    6    6  503    0  0.38643762591E+02 -0.10928089486E+03  0.31469283452E+02  0.12010816029E+03  0.00000000000E+00 0. -1.
         -1    1    6    6    0  503  0.19083536126E+03 -0.16506800288E+03  0.50576941560E+02  0.25733947948E+03  0.00000000000E+00 0.  1.
<mgrwt>
<rscale>  0 0.24261362E+04</rscale>
<asrwt>0</asrwt>
<pdfrwt beam="1">  1        2 0.19209057E+00 0.24261362E+04</pdfrwt>
<pdfrwt beam="2">  1       -1 0.18131662E+00 0.24261362E+04</pdfrwt>
<totfact> 0.36904070E+00</totfact>
</mgrwt>
</event>
<event>
12    6  0.1521603E-007  0.1600949E+04  0.7818608E-02  0.8819965E-01
         -1   -1    0    0    0  501 -0.00000000000E+00  0.00000000000E+00  0.21878638137E+03  0.21878638137E+03  0.00000000000E+00 0.  1.
          2   -1    0    0  501    0  0.00000000000E+00 -0.00000000000E+00 -0.29286995712E+04  0.29286995712E+04  0.00000000000E+00 0. -1.
         24    2    1    2    0    0 -0.28093264751E+03  0.16617569394E+03 -0.76688117839E+02  0.34459329840E+03  0.79535905043E+02 0.  0.
        254    2    1    2    0    0  0.28093264751E+03 -0.16617569394E+03 -0.26332250720E+04  0.28028926542E+04  0.90321394882E+03 0.  0.
         23    2    4    4    0    0  0.40742768130E+03 -0.24071122422E+02 -0.25377028444E+04  0.25719434729E+04  0.91546529128E+02 0.  0.
         23    2    4    4    0    0 -0.12649503379E+03 -0.14210457152E+03 -0.95522227602E+02  0.23094918126E+03  0.89545103379E+02 0.  0.
          2    1    3    3  502    0 -0.16076262694E+03  0.10889096604E+03 -0.83345504888E+02  0.21130153310E+03  0.00000000000E+00 0. -1.
         -3    1    3    3    0  502 -0.12017002057E+03  0.57284727902E+02  0.66573870487E+01  0.13329176530E+03  0.00000000000E+00 0.  1.
         11    1    5    5    0    0  0.98820757699E+02  0.77570707194E+01 -0.41413951697E+03  0.42583712123E+03  0.00000000000E+00 0. -1.
        -11    1    5    5    0    0  0.30860692360E+03 -0.31828193141E+02 -0.21235633274E+04  0.21461063517E+04  0.00000000000E+00 0.  1.
          1    1    6    6  503    0 -0.11051375084E+03 -0.12639620127E+03 -0.11312669623E+03  0.20245231097E+03  0.00000000000E+00 0. -1.
         -1    1    6    6    0  503 -0.15981282956E+02 -0.15708370250E+02  0.17604468623E+02  0.28496870290E+02  0.00000000000E+00 0.  1.
<mgrwt>
<rscale>  0 0.16009492E+04</rscale>
<asrwt>0</asrwt>
<pdfrwt beam="1">  1        2 0.45056913E+00 0.16009492E+04</pdfrwt>
<pdfrwt beam="2">  1       -1 0.33659446E-01 0.16009492E+04</pdfrwt>
<totfact> 0.17617687E+01</totfact>
</mgrwt>
</event>
<event>
12    6  0.1521603E-007  0.1371385E+04  0.7818608E-02  0.8974796E-01
          2   -1    0    0  501    0  0.00000000000E+00  0.00000000000E+00  0.22351661470E+04  0.22351661470E+04  0.00000000000E+00 0. -1.
         -1   -1    0    0    0  501 -0.00000000000E+00 -0.00000000000E+00 -0.21035307642E+03  0.21035307642E+03  0.00000000000E+00 0.  1.
         24    2    1    2    0    0 -0.14148037175E+03  0.15429518549E+03  0.11356964114E+04  0.11575668589E+04  0.79567544968E+02 0.  0.
        254    2    1    2    0    0  0.14148037175E+03 -0.15429518549E+03  0.88911665917E+03  0.12879523645E+04  0.90800284121E+03 0.  0.
         23    2    4    4    0    0 -0.11756206751E+03  0.75913663935E+02  0.91347229517E+03  0.92858767467E+03  0.90882954493E+02 0.  0.
         23    2    4    4    0    0  0.25904243926E+03 -0.23020884942E+03 -0.24355636002E+02  0.35936468979E+03  0.91927599599E+02 0.  0.
          2    1    3    3  502    0 -0.12730324969E+03  0.16334657278E+03  0.10446334790E+04  0.10649635326E+04  0.00000000000E+00 0. -1.
         -1    1    3    3    0  502 -0.14177122066E+02 -0.90513872970E+01  0.91062932354E+02  0.92603326349E+02  0.00000000000E+00 0.  1.
         11    1    5    5    0    0 -0.29096491032E+02  0.13616515391E+02  0.50522969526E+03  0.50624999778E+03  0.00000000000E+00 0. -1.
        -11    1    5    5    0    0 -0.88465576477E+02  0.62297148545E+02  0.40824259991E+03  0.42233767689E+03  0.00000000000E+00 0.  1.
          4    1    6    6  503    0  0.94923924839E+01 -0.44660575594E+02  0.92391240970E+01  0.46583623105E+02  0.00000000000E+00 0. -1.
         -4    1    6    6    0  503  0.24955004678E+03 -0.18554827383E+03 -0.33594760099E+02  0.31278106668E+03  0.00000000000E+00 0.  1.
<mgrwt>
<rscale>  0 0.13713848E+04</rscale>
<asrwt>0</asrwt>
<pdfrwt beam="1">  1        2 0.34387170E+00 0.13713848E+04</pdfrwt>
<pdfrwt beam="2">  1       -1 0.32362013E-01 0.13713848E+04</pdfrwt>
<totfact> 0.49006657E+01</totfact>
</mgrwt>
</event>
<event>
12    6  0.1521603E-007  0.1641367E+04  0.7818608E-02  0.8795530E-01
         -1   -1    0    0    0  501 -0.00000000000E+00  0.00000000000E+00  0.69512209770E+03  0.69512209770E+03  0.00000000000E+00 0.  1.
          2   -1    0    0  501    0  0.00000000000E+00 -0.00000000000E+00 -0.96892571948E+03  0.96892571948E+03  0.00000000000E+00 0. -1.
         24    2    1    2    0    0  0.22763495817E+03  0.38106695923E+03  0.25957910909E+03  0.52039836020E+03  0.80021483568E+02 0.  0.
        254    2    1    2    0    0 -0.22763495817E+03 -0.38106695923E+03 -0.53338273087E+03  0.11436494570E+04  0.90906943699E+03 0.  0.
         23    2    4    4    0    0  0.31148305556E+03 -0.29063572321E+03 -0.35444121781E+03  0.56137021506E+03  0.89538393846E+02 0.  0.
         23    2    4    4    0    0 -0.53911801374E+03 -0.90431236020E+02 -0.17894151306E+03  0.58227924192E+03  0.90570465865E+02 0.  0.
          2    1    3    3  502    0  0.28886263890E+02  0.68459762510E+02  0.13092854854E+02  0.75449176090E+02  0.00000000000E+00 0. -1.
         -1    1    3    3    0  502  0.19874869428E+03  0.31260719672E+03  0.24648625423E+03  0.44494918411E+03  0.00000000000E+00 0.  1.
         11    1    5    5    0    0  0.13606321264E+03 -0.18698593879E+03 -0.17765098350E+03  0.29161071839E+03  0.00000000000E+00 0. -1.
        -11    1    5    5    0    0  0.17541984292E+03 -0.10364978441E+03 -0.17679023431E+03  0.26975949668E+03  0.00000000000E+00 0.  1.
          3    1    6    6  503    0 -0.38387239177E+03 -0.29694756353E+02 -0.14934101270E+03  0.41296795250E+03  0.00000000000E+00 0. -1.
         -3    1    6    6    0  503 -0.15524562196E+03 -0.60736479667E+02 -0.29600500360E+02  0.16931128941E+03  0.00000000000E+00 0.  1.
<mgrwt>
<rscale>  0 0.16413673E+04</rscale>
<asrwt>0</asrwt>
<pdfrwt beam="1">  1        2 0.14906550E+00 0.16413673E+04</pdfrwt>
<pdfrwt beam="2">  1       -1 0.10694186E+00 0.16413673E+04</pdfrwt>
<totfact> 0.23476922E+01</totfact>
</mgrwt>
</event>
<event>
12    6  0.1521603E-007  0.2826610E+04  0.7818608E-02  0.8295054E-01
          2   -1    0    0  501    0  0.00000000000E+00  0.00000000000E+00  0.24962793932E+04  0.24962793932E+04  0.00000000000E+00 0. -1.
         -1   -1    0    0    0  501 -0.00000000000E+00 -0.00000000000E+00 -0.80016298682E+03  0.80016298682E+03  0.00000000000E+00 0.  1.
         24    2    1    2    0    0 -0.48032649031E+02 -0.22653523136E+03 -0.69376387550E+03  0.73577876558E+03  0.80229237283E+02 0.  0.
        254    2    1    2    0    0  0.48032649031E+02  0.22653523136E+03  0.23898802819E+04  0.25606636144E+04  0.88985675152E+03 0.  0.
         23    2    4    4    0    0  0.14222589443E+03  0.18279525354E+03  0.10334249050E+03  0.26994567724E+03  0.92459118289E+02 0.  0.
         23    2    4    4    0    0 -0.94193245402E+02  0.43739977826E+02  0.22865377913E+04  0.22907179372E+04  0.91367627322E+02 0.  0.
          4    1    3    3  502    0 -0.25154017774E+01 -0.58643886485E+02 -0.89952883656E+02  0.10741021342E+03  0.00000000000E+00 0. -1.
         -3    1    3    3    0  502 -0.45517247253E+02 -0.16789134488E+03 -0.60381099184E+03  0.62836855216E+03  0.00000000000E+00 0.  1.
         11    1    5    5    0    0  0.14256451102E+03  0.18577875276E+03  0.81583288145E+02  0.24798027681E+03  0.00000000000E+00 0. -1.
        -11    1    5    5    0    0 -0.33861658885E+00 -0.29834992284E+01  0.21759202359E+02  0.21965400432E+02  0.00000000000E+00 0.  1.
          2    1    6    6  503    0 -0.37308407775E+02  0.67067036015E+02  0.12268167728E+04  0.12292149115E+04  0.00000000000E+00 0. -1.
         -2    1    6    6    0  503 -0.56884837627E+02 -0.23327058189E+02  0.10597210186E+04  0.10615030257E+04  0.00000000000E+00 0.  1.
<mgrwt>
<rscale>  0 0.28266095E+04</rscale>
<asrwt>0</asrwt>
<pdfrwt beam="1">  1        2 0.38404298E+00 0.28266095E+04</pdfrwt>
<pdfrwt beam="2">  1       -1 0.12310200E+00 0.28266095E+04</pdfrwt>
<totfact> 0.20069316E+00</totfact>
</mgrwt>
</event>
<event>
12    6  0.1521603E-007  0.1336686E+04  0.7818608E-02  0.9000968E-01
          2   -1    0    0  501    0  0.00000000000E+00  0.00000000000E+00  0.42402857428E+03  0.42402857428E+03  0.00000000000E+00 0. -1.
         -1   -1    0    0    0  501 -0.00000000000E+00 -0.00000000000E+00 -0.10534252150E+04  0.10534252150E+04  0.00000000000E+00 0.  1.
         24    2    1    2    0    0  0.72855617343E+01  0.33623612568E+03 -0.45120844644E+02  0.34916253161E+03  0.82284696269E+02 0.  0.
        254    2    1    2    0    0 -0.72855617343E+01 -0.33623612568E+03 -0.58427579612E+03  0.11282912577E+04  0.90474037418E+03 0.  0.
         23    2    4    4    0    0  0.43246424532E+03 -0.12396032371E+03 -0.35840801309E+03  0.58247430055E+03  0.91806980283E+02 0.  0.
         23    2    4    4    0    0 -0.43974980705E+03 -0.21227580197E+03 -0.22586778303E+03  0.54581695716E+03  0.91972748186E+02 0.  0.
          2    1    3    3  502    0 -0.25727668434E+02  0.11004932211E+03 -0.41968238291E+02  0.12055745206E+03  0.00000000000E+00 0. -1.
         -1    1    3    3    0  502  0.33013230168E+02  0.22618680356E+03 -0.31526063526E+01  0.22860507956E+03  0.00000000000E+00 0.  1.
         11    1    5    5    0    0  0.28846730562E+03 -0.38232066808E+02 -0.24137187992E+03  0.37806806498E+03  0.00000000000E+00 0. -1.
        -11    1    5    5    0    0  0.14399693970E+03 -0.85728256900E+02 -0.11703613317E+03  0.20440623557E+03  0.00000000000E+00 0.  1.
          1    1    6    6  503    0 -0.16568320565E+03 -0.12058489527E+03 -0.64555406172E+02  0.21484655470E+03  0.00000000000E+00 0. -1.
         -1    1    6    6    0  503 -0.27406660140E+03 -0.91690906701E+02 -0.16131237686E+03  0.33097040246E+03  0.00000000000E+00 0.  1.
<mgrwt>
<rscale>  0 0.13366860E+04</rscale>
<asrwt>0</asrwt>
<pdfrwt beam="1">  1        2 0.65235166E-01 0.13366860E+04</pdfrwt>
<pdfrwt beam="2">  1       -1 0.16206542E+00 0.13366860E+04</pdfrwt>
<totfact> 0.23471615E+01</totfact>
</mgrwt>
</event>
<event>
12    6  0.1521603E-007  0.1686169E+04  0.7818608E-02  0.8769292E-01
         -3   -1    0    0    0  501 -0.00000000000E+00  0.00000000000E+00  0.34341447725E+03  0.34341447725E+03  0.00000000000E+00 0.  1.
          4   -1    0    0  501    0  0.00000000000E+00 -0.00000000000E+00 -0.20697764168E+04  0.20697764168E+04  0.00000000000E+00 0. -1.
         24    2    1    2    0    0  0.26908102376E+02 -0.51723375302E+03 -0.19484823431E+03  0.55906970884E+03  0.79613464283E+02 0.  0.
        254    2    1    2    0    0 -0.26908102376E+02  0.51723375302E+03 -0.15315137052E+04  0.18541211852E+04  0.90773142440E+03 0.  0.
         23    2    4    4    0    0  0.28102624558E+03  0.60635094960E+03 -0.77842334432E+03  0.10301329407E+04  0.92702468945E+02 0.  0.
         23    2    4    4    0    0 -0.30793434795E+03 -0.89117196582E+02 -0.75309036088E+03  0.82398824447E+03  0.95110977292E+02 0.  0.
          4    1    3    3  502    0  0.13745943375E+01 -0.13157840024E+02 -0.21811096956E+02  0.25509649432E+02  0.00000000000E+00 0. -1.
         -3    1    3    3    0  502  0.25533508038E+02 -0.50407591299E+03 -0.17303713736E+03  0.53356005941E+03  0.00000000000E+00 0.  1.
         11    1    5    5    0    0  0.44024275963E+02  0.99769980221E+02 -0.79330662849E+02  0.13485377227E+03  0.00000000000E+00 0. -1.
        -11    1    5    5    0    0  0.23700196962E+03  0.50658096938E+03 -0.69909268148E+03  0.89527916843E+03  0.00000000000E+00 0.  1.
          3    1    6    6  503    0 -0.28790132810E+03 -0.96290404547E+02 -0.63304878956E+03  0.70207534261E+03  0.00000000000E+00 0.  1.
         -3    1    6    6    0  503 -0.20033019854E+02  0.71732079653E+01 -0.12004157131E+03  0.12191290186E+03  0.00000000000E+00 0. -1.
<mgrwt>
<rscale>  0 0.16861687E+04</rscale>
<asrwt>0</asrwt>
<pdfrwt beam="1">  1        4 0.31842714E+00 0.16861687E+04</pdfrwt>
<pdfrwt beam="2">  1       -3 0.52832996E-01 0.16861687E+04</pdfrwt>
<totfact> 0.18322841E-01</totfact>
</mgrwt>
</event>
<event>
12    6  0.1521603E-007  0.1656749E+04  0.7818608E-02  0.8786424E-01
         -1   -1    0    0    0  501 -0.00000000000E+00  0.00000000000E+00  0.24083714920E+03  0.24083714920E+03  0.00000000000E+00 0.  1.
          2   -1    0    0  501    0  0.00000000000E+00 -0.00000000000E+00 -0.28492461418E+04  0.28492461418E+04  0.00000000000E+00 0. -1.
         24    2    1    2    0    0 -0.39835854826E+03  0.10525646670E+03 -0.16592719508E+03  0.45214184536E+03  0.84450917699E+02 0.  0.
        254    2    1    2    0    0  0.39835854826E+03 -0.10525646670E+03 -0.24424817975E+04  0.26379414456E+04  0.90733085622E+03 0.  0.
         23    2    4    4    0    0  0.35793257887E+03  0.25922911340E+03 -0.20254216662E+04  0.20751127413E+04  0.91893954948E+02 0.  0.
         23    2    4    4    0    0  0.40425969391E+02 -0.36448558010E+03 -0.41706013134E+03  0.56282870435E+03  0.91394749263E+02 0.  0.
          2    1    3    3  502    0 -0.14168099521E+02  0.15641868934E+02 -0.26158676383E+02  0.33610704514E+02  0.00000000000E+00 0. -1.
         -1    1    3    3    0  502 -0.38419044874E+03  0.89614597766E+02 -0.13976851869E+03  0.41853114084E+03  0.00000000000E+00 0.  1.
         11    1    5    5    0    0  0.26342682692E+03  0.19472717998E+03 -0.12953984422E+04  0.13361771933E+04  0.00000000000E+00 0. -1.
        -11    1    5    5    0    0  0.94505751950E+02  0.64501933413E+02 -0.73002322395E+03  0.73893554798E+03  0.00000000000E+00 0.  1.
          1    1    6    6  503    0  0.36542657606E+02 -0.36392775338E+03 -0.38691844130E+03  0.53243277108E+03  0.00000000000E+00 0. -1.
         -1    1    6    6    0  503  0.38833117849E+01 -0.55782671780E+00 -0.30141690039E+02  0.30395933272E+02  0.00000000000E+00 0.  1.
<mgrwt>
<rscale>  0 0.16567490E+04</rscale>
<asrwt>0</asrwt>
<pdfrwt beam="1">  1        2 0.43834560E+00 0.16567490E+04</pdfrwt>
<pdfrwt beam="2">  1       -1 0.37051866E-01 0.16567490E+04</pdfrwt>
<totfact> 0.16497610E+01</totfact>
</mgrwt>
</event>
<event>
12    6  0.1521603E-007  0.2474479E+04  0.7818608E-02  0.8412134E-01
         -1   -1    0    0    0  501 -0.00000000000E+00  0.00000000000E+00  0.15102161458E+04  0.15102161458E+04  0.00000000000E+00 0.  1.
          2   -1    0    0  501    0  0.00000000000E+00 -0.00000000000E+00 -0.10136044202E+04  0.10136044202E+04  0.00000000000E+00 0. -1.
         24    2    1    2    0    0  0.17655947853E+03 -0.48583757427E+03 -0.73877365185E+03  0.90535859799E+03  0.81708532402E+02 0.  0.
        254    2    1    2    0    0 -0.17655947853E+03  0.48583757427E+03  0.12353853774E+04  0.16184619680E+04  0.90886231804E+03 0.  0.
         23    2    4    4    0    0  0.13758170838E+03  0.13332285955E+03  0.10980210254E+04  0.11182665136E+04  0.90366542261E+02 0.  0.
         23    2    4    4    0    0 -0.31414118691E+03  0.35251471471E+03  0.13736435206E+03  0.50019545441E+03  0.91516217093E+02 0.  0.
          4    1    3    3  502    0  0.16400302755E+03 -0.47725724646E+03 -0.69407981049E+03  0.85814815485E+03  0.00000000000E+00 0. -1.
         -3    1    3    3    0  502  0.12556450984E+02 -0.85803278097E+01 -0.44693841355E+02  0.47210443142E+02  0.00000000000E+00 0.  1.
         11    1    5    5    0    0  0.79123740902E+00  0.36539039276E+02  0.10433576989E+03  0.11055170883E+03  0.00000000000E+00 0. -1.
        -11    1    5    5    0    0  0.13679047097E+03  0.96783820278E+02  0.99368525548E+03  0.10077148048E+04  0.00000000000E+00 0.  1.
          1    1    6    6  503    0 -0.47073883938E+02  0.59744820026E+02  0.58946839226E+02  0.96229537688E+02  0.00000000000E+00 0. -1.
         -1    1    6    6    0  503 -0.26706730297E+03  0.29276989469E+03  0.78417512830E+02  0.40396591672E+03  0.00000000000E+00 0.  1.
<mgrwt>
<rscale>  0 0.24744791E+04</rscale>
<asrwt>0</asrwt>
<pdfrwt beam="1">  1        2 0.15593914E+00 0.24744791E+04</pdfrwt>
<pdfrwt beam="2">  1       -1 0.23234095E+00 0.24744791E+04</pdfrwt>
<totfact> 0.22910385E+00</totfact>
</mgrwt>
</event>
<event>
12    6  0.1521603E-007  0.1633885E+04  0.7818608E-02  0.8799998E-01
          2   -1    0    0  501    0  0.00000000000E+00  0.00000000000E+00  0.13442464285E+04  0.13442464285E+04  0.00000000000E+00 0. -1.
         -1   -1    0    0    0  501 -0.00000000000E+00 -0.00000000000E+00 -0.49648237839E+03  0.49648237839E+03  0.00000000000E+00 0.  1.
         24    2    1    2    0    0 -0.46352981096E+03  0.48953851846E+02  0.68457200514E+03  0.83193635011E+03  0.78885329149E+02 0.  0.
        254    2    1    2    0    0  0.46352981096E+03 -0.48953851846E+02  0.16319204502E+03  0.10087924568E+04  0.87964436685E+03 0.  0.
         23    2    4    4    0    0 -0.15970274030E+03  0.18200615751E+03  0.21185889350E+03  0.33610838006E+03  0.97228831951E+02 0.  0.
         23    2    4    4    0    0  0.62323255126E+03 -0.23096000936E+03 -0.48666848476E+02  0.67268407677E+03  0.91509923598E+02 0.  0.
          4    1    3    3  502    0 -0.33910551270E+03  0.61061983551E+02  0.45763173096E+03  0.57284196403E+03  0.00000000000E+00 0. -1.
         -3    1    3    3    0  502 -0.12442429826E+03 -0.12108131705E+02  0.22694027418E+03  0.25909438608E+03  0.00000000000E+00 0.  1.
         11    1    5    5    0    0 -0.24715370591E+01 -0.97334274941E+01  0.12112598362E+00  0.10043046237E+02  0.00000000000E+00 0.  1.
        -11    1    5    5    0    0 -0.15723120324E+03  0.19173958500E+03  0.21173776752E+03  0.32606533383E+03  0.00000000000E+00 0. -1.
          2    1    6    6  503    0  0.61548732120E+03 -0.22446519111E+03 -0.35522997416E+02  0.65610300100E+03  0.00000000000E+00 0. -1.
         -2    1    6    6    0  503  0.77452300647E+01 -0.64948182506E+01 -0.13143851061E+02  0.16581075766E+02  0.00000000000E+00 0.  1.
<mgrwt>
<rscale>  0 0.16338845E+04</rscale>
<asrwt>0</asrwt>
<pdfrwt beam="1">  1        2 0.20680714E+00 0.16338845E+04</pdfrwt>
<pdfrwt beam="2">  1       -1 0.76381905E-01 0.16338845E+04</pdfrwt>
<totfact> 0.29229097E+01</totfact>
</mgrwt>
</event>
<event>
12    6  0.1521603E-007  0.1170166E+04  0.7818608E-02  0.9139379E-01
          2   -1    0    0  501    0  0.00000000000E+00  0.00000000000E+00  0.10836623656E+04  0.10836623656E+04  0.00000000000E+00 0. -1.
         -1   -1    0    0    0  501 -0.00000000000E+00 -0.00000000000E+00 -0.31589355397E+03  0.31589355397E+03  0.00000000000E+00 0.  1.
         24    2    1    2    0    0 -0.62282399163E+02 -0.10559522983E+01  0.35233070885E+03  0.36608588821E+03  0.77470877532E+02 0.  0.
        254    2    1    2    0    0  0.62282399163E+02  0.10559522983E+01  0.41543810273E+03  0.10334700313E+04  0.94424111124E+03 0.  0.
         23    2    4    4    0    0  0.40451096896E+03 -0.50366740852E+02 -0.77945513760E+02  0.42464433248E+03  0.89896459346E+02 0.  0.
         23    2    4    4    0    0 -0.34222856979E+03  0.51422693150E+02  0.49338361649E+03  0.60882569884E+03  0.86467630886E+02 0.  0.
          2    1    3    3  502    0 -0.14147764379E+02 -0.21337180952E+02  0.24891256838E+03  0.25022570057E+03  0.00000000000E+00 0. -1.
         -3    1    3    3    0  502 -0.48134634783E+02  0.20281228653E+02  0.10341814047E+03  0.11586018764E+03  0.00000000000E+00 0.  1.
         11    1    5    5    0    0  0.12826916986E+03  0.13430001980E+02  0.55577506247E+01  0.12909002084E+03  0.00000000000E+00 0.  1.
        -11    1    5    5    0    0  0.27624179910E+03 -0.63796742832E+02 -0.83503264385E+02  0.29555431164E+03  0.00000000000E+00 0. -1.
          3    1    6    6  503    0 -0.30539843711E+03  0.23039699343E+02  0.45529569285E+03  0.54871960149E+03  0.00000000000E+00 0. -1.
         -3    1    6    6    0  503 -0.36830132689E+02  0.28382993807E+02  0.38087923648E+02  0.60106097354E+02  0.00000000000E+00 0.  1.
<mgrwt>
<rscale>  0 0.11701657E+04</rscale>
<asrwt>0</asrwt>
<pdfrwt beam="1">  1        2 0.16671729E+00 0.11701657E+04</pdfrwt>
<pdfrwt beam="2">  1       -1 0.48599009E-01 0.11701657E+04</pdfrwt>
<totfact> 0.10647360E+02</totfact>
</mgrwt>
</event>
<event>
12    6  0.1521603E-007  0.1407584E+04  0.7818608E-02  0.8948347E-01
         -1   -1    0    0    0  501 -0.00000000000E+00  0.00000000000E+00  0.14224601503E+03  0.14224601503E+03  0.00000000000E+00 0.  1.
          2   -1    0    0  501    0  0.00000000000E+00 -0.00000000000E+00 -0.34821606515E+04  0.34821606515E+04  0.00000000000E+00 0. -1.
         24    2    1    2    0    0 -0.24724055159E+03 -0.21833299614E+03 -0.16518614907E+04  0.16863749421E+04  0.80105390015E+02 0.  0.
        254    2    1    2    0    0  0.24724055159E+03  0.21833299614E+03 -0.16880531458E+04  0.19380317244E+04  0.89311049385E+03 0.  0.
         23    2    4    4    0    0 -0.32391393310E+03  0.94811785066E+02 -0.49532943434E+03  0.60657964898E+03  0.93156381380E+02 0.  0.
         23    2    4    4    0    0  0.57115448469E+03  0.12352121107E+03 -0.11927237114E+04  0.13314520754E+04  0.93272945285E+02 0.  0.
          2    1    3    3  502    0 -0.14333820270E+03 -0.92504959471E+02 -0.99689029019E+03  0.10113818560E+04  0.00000000000E+00 0. -1.
         -1    1    3    3    0  502 -0.10390234889E+03 -0.12582803667E+03 -0.65497120047E+03  0.67499308616E+03  0.00000000000E+00 0.  1.
         11    1    5    5    0    0 -0.13871307735E+03  0.14744719427E+02 -0.13800209007E+03  0.19622258137E+03  0.00000000000E+00 0. -1.
        -11    1    5    5    0    0 -0.18520085575E+03  0.80067065639E+02 -0.35732734427E+03  0.41035706761E+03  0.00000000000E+00 0.  1.
          2    1    6    6  503    0  0.33143348034E+03  0.11817093937E+03 -0.72161326709E+03  0.80283138332E+03  0.00000000000E+00 0. -1.
         -2    1    6    6    0  503  0.23972100435E+03  0.53502717065E+01 -0.47111044436E+03  0.52862069210E+03  0.00000000000E+00 0.  1.
<mgrwt>
<rscale>  0 0.14075844E+04</rscale>
<asrwt>0</asrwt>
<pdfrwt beam="1">  1        2 0.53571703E+00 0.14075844E+04</pdfrwt>
<pdfrwt beam="2">  1       -1 0.21884002E-01 0.14075844E+04</pdfrwt>
<totfact> 0.16564338E+01</totfact>
</mgrwt>
</event>
<event>
12    6  0.1521603E-007  0.1907846E+04  0.7818608E-02  0.8650961E-01
          2   -1    0    0  501    0  0.00000000000E+00  0.00000000000E+00  0.28100277691E+04  0.28100277691E+04  0.00000000000E+00 0. -1.
         -1   -1    0    0    0  501 -0.00000000000E+00 -0.00000000000E+00 -0.32382932406E+03  0.32382932406E+03  0.00000000000E+00 0.  1.
         24    2    1    2    0    0  0.22300406410E+03  0.44515383705E+03  0.72832972677E+02  0.50934442362E+03  0.78957892068E+02 0.  0.
        254    2    1    2    0    0 -0.22300406410E+03 -0.44515383705E+03  0.24133654723E+04  0.26245126695E+04  0.90323922527E+03 0.  0.
         23    2    4    4    0    0 -0.16867312203E+03 -0.66328577746E+03  0.21727041133E+04  0.22797700551E+04  0.91157532198E+02 0.  0.
         23    2    4    4    0    0 -0.54330942072E+02  0.21813194041E+03  0.24066135906E+03  0.34474261439E+03  0.10196168760E+03 0.  0.
          4    1    3    3  502    0  0.60496825395E+02  0.63813013086E+02  0.28610584136E+02  0.92469086978E+02  0.00000000000E+00 0. -1.
         -3    1    3    3    0  502  0.16250723870E+03  0.38134082397E+03  0.44222388541E+02  0.41687533665E+03  0.00000000000E+00 0.  1.
         11    1    5    5    0    0 -0.71350334609E+02 -0.44537912543E+03  0.13703388964E+04  0.14426649391E+04  0.00000000000E+00 0. -1.
        -11    1    5    5    0    0 -0.97322787418E+02 -0.21790665203E+03  0.80236521687E+03  0.83710511598E+03  0.00000000000E+00 0.  1.
          3    1    6    6  503    0 -0.75586289741E+02  0.20301804486E+03  0.23161857098E+03  0.31713841798E+03  0.00000000000E+00 0. -1.
         -3    1    6    6    0  503  0.21255347669E+02  0.15113895550E+02  0.90427880811E+01  0.27604196411E+02  0.00000000000E+00 0.  1.
<mgrwt>
<rscale>  0 0.19078463E+04</rscale>
<asrwt>0</asrwt>
<pdfrwt beam="1">  1        2 0.43231195E+00 0.19078463E+04</pdfrwt>
<pdfrwt beam="2">  1       -1 0.49819898E-01 0.19078463E+04</pdfrwt>
<totfact> 0.98392802E+00</totfact>
</mgrwt>
</event>
<event>
12    6  0.1521603E-007  0.1534052E+04  0.7818608E-02  0.8862119E-01
          2   -1    0    0  501    0  0.00000000000E+00  0.00000000000E+00  0.23508718428E+04  0.23508718428E+04  0.00000000000E+00 0. -1.
         -1   -1    0    0    0  501 -0.00000000000E+00 -0.00000000000E+00 -0.25025981799E+03  0.25025981799E+03  0.00000000000E+00 0.  1.
         24    2    1    2    0    0  0.38890425531E+03  0.24409920548E+03  0.37316093553E+03  0.59709989687E+03  0.80301065504E+02 0.  0.
        254    2    1    2    0    0 -0.38890425531E+03 -0.24409920548E+03  0.17274510892E+04  0.20040317639E+04  0.90621471134E+03 0.  0.
         23    2    4    4    0    0 -0.37551645879E+03 -0.15846130323E+03  0.18499923242E+03  0.45649967495E+03  0.89691927099E+02 0.  0.
         23    2    4    4    0    0 -0.13387796513E+02 -0.85637902251E+02  0.15424518568E+04  0.15475320889E+04  0.90469620849E+02 0.  0.
          4    1    3    3  502    0  0.97966340628E+02  0.95930113277E+02  0.82835000904E+02  0.16019247143E+03  0.00000000000E+00 0. -1.
         -3    1    3    3    0  502  0.29093791468E+03  0.14816909220E+03  0.29032593463E+03  0.43690742543E+03  0.00000000000E+00 0.  1.
         11    1    5    5    0    0 -0.27324515802E+03 -0.88317362319E+02  0.92177692935E+02  0.30159509270E+03  0.00000000000E+00 0.  1.
        -11    1    5    5    0    0 -0.10227130077E+03 -0.70143940911E+02  0.92821539481E+02  0.15490458224E+03  0.00000000000E+00 0. -1.
          2    1    6    6  503    0 -0.88311671654E+01 -0.32041784523E+02  0.13424049367E+03  0.13829380178E+03  0.00000000000E+00 0. -1.
         -2    1    6    6    0  503 -0.45566293479E+01 -0.53596117728E+02  0.14082113631E+04  0.14092382872E+04  0.00000000000E+00 0.  1.
<mgrwt>
<rscale>  0 0.15340518E+04</rscale>
<asrwt>0</asrwt>
<pdfrwt beam="1">  1        2 0.36167258E+00 0.15340518E+04</pdfrwt>
<pdfrwt beam="2">  1       -1 0.38501512E-01 0.15340518E+04</pdfrwt>
<totfact> 0.30453011E+01</totfact>
</mgrwt>
</event>
<event>
12    6  0.1521603E-007  0.1509411E+04  0.7818608E-02  0.8878219E-01
          2   -1    0    0  501    0  0.00000000000E+00  0.00000000000E+00  0.32440164631E+04  0.32440164631E+04  0.00000000000E+00 0. -1.
         -1   -1    0    0    0  501 -0.00000000000E+00 -0.00000000000E+00 -0.17557877116E+03  0.17557877116E+03  0.00000000000E+00 0.  1.
         24    2    1    2    0    0  0.11341230402E+03 -0.45997095350E+03  0.11260628706E+04  0.12242547273E+04  0.79664421706E+02 0.  0.
        254    2    1    2    0    0 -0.11341230402E+03  0.45997095350E+03  0.19423748214E+04  0.21953405070E+04  0.90678793886E+03 0.  0.
         23    2    4    4    0    0  0.38738123707E+03  0.15411691868E+03  0.88045465464E+03  0.97860966865E+03  0.93060395654E+02 0.  0.
         23    2    4    4    0    0 -0.50079354109E+03  0.30585403481E+03  0.10619201667E+04  0.12167308383E+04  0.91753097960E+02 0.  0.
          4    1    3    3  502    0  0.25277661744E+02 -0.42153372714E+02  0.74001194236E+02  0.88837175567E+02  0.00000000000E+00 0. -1.
         -3    1    3    3    0  502  0.88134642274E+02 -0.41781758078E+03  0.10520616764E+04  0.11354175518E+04  0.00000000000E+00 0.  1.
         11    1    5    5    0    0  0.37446460228E+03  0.15263938016E+03  0.87606140883E+03  0.96488657923E+03  0.00000000000E+00 0. -1.
        -11    1    5    5    0    0  0.12916634794E+02  0.14775385247E+01  0.43932458074E+01  0.13723089419E+02  0.00000000000E+00 0.  1.
          3    1    6    6  503    0 -0.34399272079E+03  0.18679974372E+03  0.78212746631E+03  0.87461334872E+03  0.00000000000E+00 0. -1.
         -3    1    6    6    0  503 -0.15680082029E+03  0.11905429109E+03  0.27979270042E+03  0.34211748959E+03  0.00000000000E+00 0.  1.
<mgrwt>
<rscale>  0 0.15094110E+04</rscale>
<asrwt>0</asrwt>
<pdfrwt beam="1">  1        2 0.49907941E+00 0.15094110E+04</pdfrwt>
<pdfrwt beam="2">  1       -1 0.27012121E-01 0.15094110E+04</pdfrwt>
<totfact> 0.16516005E+01</totfact>
</mgrwt>
</event>
<event>
12    6  0.1521603E-007  0.1791328E+04  0.7818608E-02  0.8710925E-01
         -1   -1    0    0    0  501 -0.00000000000E+00  0.00000000000E+00  0.89823557137E+03  0.89823557137E+03  0.00000000000E+00 0.  1.
          2   -1    0    0  501    0  0.00000000000E+00 -0.00000000000E+00 -0.89309989332E+03  0.89309989332E+03  0.00000000000E+00 0. -1.
         24    2    1    2    0    0  0.28971881630E+03  0.59248778724E+03 -0.94916852194E+02  0.67109510963E+03  0.79879076048E+02 0.  0.
        254    2    1    2    0    0 -0.28971881630E+03 -0.59248778724E+03  0.10005253025E+03  0.11202403551E+04  0.89997176276E+03 0.  0.
         23    2    4    4    0    0  0.27571952027E+03 -0.35732489326E+03 -0.96988159713E+02  0.47058182968E+03  0.91313865876E+02 0.  0.
         23    2    4    4    0    0 -0.56543833658E+03 -0.23516289398E+03  0.19704068997E+03  0.64965852538E+03  0.90603901248E+02 0.  0.
          4    1    3    3  502    0  0.20720890005E+03  0.49414762378E+03 -0.82119779598E+02  0.54208953186E+03  0.00000000000E+00 0. -1.
         -3    1    3    3    0  502  0.82509916252E+02  0.98340163452E+02 -0.12797072597E+02  0.12900557777E+03  0.00000000000E+00 0.  1.
         11    1    5    5    0    0  0.23582781447E+02 -0.88739275345E+02 -0.12952803223E+02  0.92728537576E+02  0.00000000000E+00 0. -1.
        -11    1    5    5    0    0  0.25213673883E+03 -0.26858561791E+03 -0.84035356490E+02  0.37785329211E+03  0.00000000000E+00 0.  1.
          1    1    6    6  503    0 -0.21805133920E+02 -0.29318200817E+02  0.23155396130E+01  0.36611234452E+02  0.00000000000E+00 0. -1.
         -1    1    6    6    0  503 -0.54363320266E+03 -0.20584469316E+03  0.19472515035E+03  0.61304729093E+03  0.00000000000E+00 0.  1.
<mgrwt>
<rscale>  0 0.17913281E+04</rscale>
<asrwt>0</asrwt>
<pdfrwt beam="1">  1        2 0.13739998E+00 0.17913281E+04</pdfrwt>
<pdfrwt beam="2">  1       -1 0.13819009E+00 0.17913281E+04</pdfrwt>
<totfact> 0.13858796E+01</totfact>
</mgrwt>
</event>
<event>
12    6  0.1521603E-007  0.1282222E+04  0.7818608E-02  0.9043783E-01
         -1   -1    0    0    0  501 -0.00000000000E+00  0.00000000000E+00  0.41704855062E+03  0.41704855062E+03  0.00000000000E+00 0.  1.
          2   -1    0    0  501    0  0.00000000000E+00 -0.00000000000E+00 -0.98555267935E+03  0.98555267935E+03  0.00000000000E+00 0. -1.
         24    2    1    2    0    0 -0.14595277041E+03 -0.18535688549E+00  0.14870604152E+03  0.22372694195E+03  0.81473997208E+02 0.  0.
        254    2    1    2    0    0  0.14595277041E+03  0.18535688549E+00 -0.71721017025E+03  0.11788742880E+04  0.92414929157E+03 0.  0.
         23    2    4    4    0    0  0.46246601488E+03  0.18209899012E+03 -0.59630256634E+03  0.78265913984E+03  0.99718210121E+02 0.  0.
         23    2    4    4    0    0 -0.31651324447E+03 -0.18191363324E+03 -0.12090760391E+03  0.39621514818E+03  0.95365565497E+02 0.  0.
          2    1    3    3  502    0 -0.10960585596E+03  0.35762395221E+02  0.93063378660E+02  0.14816607243E+03  0.00000000000E+00 0. -1.
         -1    1    3    3    0  502 -0.36346914451E+02 -0.35947752107E+02  0.55642662865E+02  0.75560869518E+02  0.00000000000E+00 0.  1.
         11    1    5    5    0    0  0.22893291655E+03  0.74525773425E+02 -0.21510684640E+03  0.32285496210E+03  0.00000000000E+00 0.  1.
        -11    1    5    5    0    0  0.23353309833E+03  0.10757321670E+03 -0.38119571994E+03  0.45980417774E+03  0.00000000000E+00 0. -1.
          4    1    6    6  503    0 -0.12369559920E+03 -0.53468232386E+02 -0.91011279482E+02  0.16261151905E+03  0.00000000000E+00 0.  1.
         -4    1    6    6    0  503 -0.19281764528E+03 -0.12844540085E+03 -0.29896324430E+02  0.23360362913E+03  0.00000000000E+00 0. -1.
<mgrwt>
<rscale>  0 0.12822220E+04</rscale>
<asrwt>0</asrwt>
<pdfrwt beam="1">  1        2 0.15162349E+00 0.12822220E+04</pdfrwt>
<pdfrwt beam="2">  1       -1 0.64161316E-01 0.12822220E+04</pdfrwt>
<totfact> 0.70984768E+01</totfact>
</mgrwt>
</event>
<event>
12    6  0.1521603E-007  0.1213499E+04  0.7818608E-02  0.9101122E-01
         -1   -1    0    0    0  501 -0.00000000000E+00  0.00000000000E+00  0.53488273365E+03  0.53488273365E+03  0.00000000000E+00 0.  1.
          2   -1    0    0  501    0  0.00000000000E+00 -0.00000000000E+00 -0.68827201091E+03  0.68827201091E+03  0.00000000000E+00 0. -1.
         24    2    1    2    0    0 -0.44590260862E+02  0.19641826731E+03 -0.19524045468E+03  0.29046965528E+03  0.75401315642E+02 0.  0.
        254    2    1    2    0    0  0.44590260862E+02 -0.19641826731E+03  0.41851177422E+02  0.93268508928E+03  0.90971508046E+03 0.  0.
         23    2    4    4    0    0  0.44239039814E+03 -0.25390584799E+03  0.11002341619E+01  0.51834890157E+03  0.92233015970E+02 0.  0.
         23    2    4    4    0    0 -0.39780013728E+03  0.57487580678E+02  0.40750943260E+02  0.41433618771E+03  0.92000358268E+02 0.  0.
          4    1    3    3  502    0 -0.14739703109E+02  0.15566388678E+03 -0.17839051396E+03  0.23721652549E+03  0.00000000000E+00 0. -1.
         -3    1    3    3    0  502 -0.29850557752E+02  0.40754380532E+02 -0.16849940720E+02  0.53253129795E+02  0.00000000000E+00 0.  1.
         11    1    5    5    0    0  0.91098560759E+02 -0.12400993640E+02 -0.38905907366E+01  0.92021025380E+02  0.00000000000E+00 0. -1.
        -11    1    5    5    0    0  0.35129183738E+03 -0.24150485435E+03  0.49908248986E+01  0.42632787619E+03  0.00000000000E+00 0.  1.
          4    1    6    6  503    0 -0.25563273215E+03 -0.80625443071E+01  0.23509626139E+02  0.25683808302E+03  0.00000000000E+00 0. -1.
         -4    1    6    6    0  503 -0.14216740512E+03  0.65550124985E+02  0.17241317121E+02  0.15749810469E+03  0.00000000000E+00 0.  1.
<mgrwt>
<rscale>  0 0.12134988E+04</rscale>
<asrwt>0</asrwt>
<pdfrwt beam="1">  1        2 0.10588800E+00 0.12134988E+04</pdfrwt>
<pdfrwt beam="2">  1       -1 0.82289651E-01 0.12134988E+04</pdfrwt>
<totfact> 0.69253239E+01</totfact>
</mgrwt>
</event>
<event>
12    6  0.1521603E-007  0.2406239E+04  0.7818608E-02  0.8437172E-01
          2   -1    0    0  501    0  0.00000000000E+00  0.00000000000E+00  0.21486731838E+04  0.21486731838E+04  0.00000000000E+00 0. -1.
         -1   -1    0    0    0  501 -0.00000000000E+00 -0.00000000000E+00 -0.67366983440E+03  0.67366983440E+03  0.00000000000E+00 0.  1.
         24    2    1    2    0    0  0.51567889164E+03  0.68653059568E+03  0.12623408221E+04  0.15288129567E+04  0.80720056176E+02 0.  0.
        254    2    1    2    0    0 -0.51567889164E+03 -0.68653059568E+03  0.21266252732E+03  0.12935300615E+04  0.94379324608E+03 0.  0.
         23    2    4    4    0    0  0.20095749573E+03 -0.35301912200E+03 -0.11710246886E+03  0.43259903383E+03  0.91774289776E+02 0.  0.
         23    2    4    4    0    0 -0.71663638738E+03 -0.33351147368E+03  0.32976499618E+03  0.86093102766E+03  0.87519522894E+02 0.  0.
          2    1    3    3  502    0  0.48841927531E+02  0.10948456777E+03  0.18966230344E+03  0.22437511852E+03  0.00000000000E+00 0. -1.
         -1    1    3    3    0  502  0.46683696411E+03  0.57704602790E+03  0.10726785187E+04  0.13044378382E+04  0.00000000000E+00 0.  1.
         11    1    5    5    0    0  0.13567556294E+03 -0.19071071186E+03 -0.10704375366E+03  0.25736510873E+03  0.00000000000E+00 0.  1.
        -11    1    5    5    0    0  0.65281932797E+02 -0.16230841014E+03 -0.10058715207E+02  0.17523392509E+03  0.00000000000E+00 0. -1.
          3    1    6    6  503    0 -0.32140553634E+03 -0.12826537769E+03  0.10230653574E+03  0.36086029591E+03  0.00000000000E+00 0. -1.
         -3    1    6    6    0  503 -0.39523085103E+03 -0.20524609599E+03  0.22745846044E+03  0.50007073175E+03  0.00000000000E+00 0.  1.
<mgrwt>
<rscale>  0 0.24062388E+04</rscale>
<asrwt>0</asrwt>
<pdfrwt beam="1">  1        2 0.33056510E+00 0.24062388E+04</pdfrwt>
<pdfrwt beam="2">  1       -1 0.10364151E+00 0.24062388E+04</pdfrwt>
<totfact> 0.49516943E+00</totfact>
</mgrwt>
</event>
<event>
12    6  0.1521603E-007  0.1549930E+04  0.7818608E-02  0.8851913E-01
         -1   -1    0    0    0  501 -0.00000000000E+00  0.00000000000E+00  0.10942077624E+04  0.10942077624E+04  0.00000000000E+00 0.  1.
          2   -1    0    0  501    0  0.00000000000E+00 -0.00000000000E+00 -0.54886324944E+03  0.54886324944E+03  0.00000000000E+00 0. -1.
         24    2    1    2    0    0 -0.38423514026E+03 -0.17736679344E+03  0.48095888214E+03  0.64549733713E+03  0.79055319228E+02 0.  0.
        254    2    1    2    0    0  0.38423514026E+03  0.17736679344E+03  0.64385630832E+02  0.99757367473E+03  0.90106165418E+03 0.  0.
         23    2    4    4    0    0  0.52042308455E+03 -0.53302981118E+02 -0.23872046661E+03  0.58289280587E+03  0.95368586165E+02 0.  0.
         23    2    4    4    0    0 -0.13618794428E+03  0.23066977456E+03  0.30310609744E+03  0.41468086886E+03  0.91275493037E+02 0.  0.
          4    1    3    3  502    0 -0.26180349962E+02 -0.47108214259E+01  0.64545985791E+02  0.69812512090E+02  0.00000000000E+00 0. -1.
         -3    1    3    3    0  502 -0.35805479030E+03 -0.17265597202E+03  0.41641289635E+03  0.57568482504E+03  0.00000000000E+00 0.  1.
         11    1    5    5    0    0  0.22045196778E+03 -0.32701970282E+02 -0.51651130157E+02  0.22877134481E+03  0.00000000000E+00 0. -1.
        -11    1    5    5    0    0  0.29997111677E+03 -0.20601010837E+02 -0.18706933645E+03  0.35412146106E+03  0.00000000000E+00 0.  1.
          1    1    6    6  503    0 -0.36639105701E+02  0.10681583997E+03  0.18481317418E+03  0.21658244870E+03  0.00000000000E+00 0. -1.
         -1    1    6    6    0  503 -0.99548838581E+02  0.12385393459E+03  0.11829292327E+03  0.19809842016E+03  0.00000000000E+00 0.  1.
<mgrwt>
<rscale>  0 0.15499296E+04</rscale>
<asrwt>0</asrwt>
<pdfrwt beam="1">  1        2 0.84440500E-01 0.15499296E+04</pdfrwt>
<pdfrwt beam="2">  1       -1 0.16833966E+00 0.15499296E+04</pdfrwt>
<totfact> 0.15365475E+01</totfact>
</mgrwt>
</event>
<event>
12    6  0.1521603E-007  0.1608094E+04  0.7818608E-02  0.8815591E-01
         -1   -1    0    0    0  501 -0.00000000000E+00  0.00000000000E+00  0.94091556863E+03  0.94091556863E+03  0.00000000000E+00 0.  1.
          2   -1    0    0  501    0  0.00000000000E+00 -0.00000000000E+00 -0.68708811005E+03  0.68708811005E+03  0.00000000000E+00 0. -1.
         24    2    1    2    0    0 -0.50794787847E+03  0.18985734923E+03  0.16963871270E+03  0.57359435717E+03  0.78589652142E+02 0.  0.
        254    2    1    2    0    0  0.50794787847E+03 -0.18985734923E+03  0.84188745870E+02  0.10544093215E+04  0.90035238215E+03 0.  0.
         23    2    4    4    0    0 -0.47061444796E+02  0.19677837245E+03 -0.21527434353E+03  0.30915644324E+03  0.91094214797E+02 0.  0.
         23    2    4    4    0    0  0.55500932327E+03 -0.38663572168E+03  0.29946308940E+03  0.74525287826E+03  0.90560369115E+02 0.  0.
          2    1    3    3  502    0 -0.42767338563E+03  0.15848694253E+03  0.17180603973E+03  0.48738070439E+03  0.00000000000E+00 0. -1.
         -1    1    3    3    0  502 -0.80274492844E+02  0.31370406707E+02 -0.21673270265E+01  0.86213652775E+02  0.00000000000E+00 0.  1.
         11    1    5    5    0    0 -0.13140029700E+02 -0.69501335858E+01 -0.96885190349E+01  0.17743509756E+02  0.00000000000E+00 0. -1.
        -11    1    5    5    0    0 -0.33921415096E+02  0.20372850603E+03 -0.20558582449E+03  0.29141293349E+03  0.00000000000E+00 0.  1.
          2    1    6    6  503    0  0.28792315040E+03 -0.18782682219E+03  0.20018834238E+03  0.39781154847E+03  0.00000000000E+00 0. -1.
         -2    1    6    6    0  503  0.26708617287E+03 -0.19880889949E+03  0.99274747015E+02  0.34744132979E+03  0.00000000000E+00 0.  1.
<mgrwt>
<rscale>  0 0.16080944E+04</rscale>
<asrwt>0</asrwt>
<pdfrwt beam="1">  1        2 0.10570586E+00 0.16080944E+04</pdfrwt>
<pdfrwt beam="2">  1       -1 0.14475624E+00 0.16080944E+04</pdfrwt>
<totfact> 0.17624013E+01</totfact>
</mgrwt>
</event>
<event>
12    6  0.1521603E-007  0.2083536E+04  0.7818608E-02  0.8568531E-01
         -1   -1    0    0    0  501 -0.00000000000E+00  0.00000000000E+00  0.12043640646E+04  0.12043640646E+04  0.00000000000E+00 0.  1.
          2   -1    0    0  501    0  0.00000000000E+00 -0.00000000000E+00 -0.90112299300E+03  0.90112299300E+03  0.00000000000E+00 0. -1.
         24    2    1    2    0    0  0.41150678813E+03 -0.70523752745E+03  0.21430564756E+02  0.82063673500E+03  0.79294230120E+02 0.  0.
        254    2    1    2    0    0 -0.41150678813E+03  0.70523752745E+03  0.28181050684E+03  0.12848503226E+04  0.95117053303E+03 0.  0.
         23    2    4    4    0    0 -0.67016516717E+03  0.69188028089E+03  0.14764793021E+03  0.97877723356E+03  0.91571214152E+02 0.  0.
         23    2    4    4    0    0  0.25865837905E+03  0.13357246556E+02  0.13416257663E+03  0.30607308903E+03  0.92728451818E+02 0.  0.
          4    1    3    3  502    0  0.36181258033E+02 -0.34776472388E+02 -0.11795274299E+02  0.51552060681E+02  0.00000000000E+00 0. -1.
         -3    1    3    3    0  502  0.37532553009E+03 -0.67046105506E+03  0.33225839055E+02  0.76908467432E+03  0.00000000000E+00 0.  1.
         11    1    5    5    0    0 -0.43272138260E+03  0.43628422729E+03  0.13792480696E+03  0.62977374851E+03  0.00000000000E+00 0.  1.
        -11    1    5    5    0    0 -0.23744378457E+03  0.25559605360E+03  0.97231232509E+01  0.34900348505E+03  0.00000000000E+00 0. -1.
          2    1    6    6  503    0 -0.81708437998E+00 -0.90581419824E+01  0.19482112812E+02  0.21500471685E+02  0.00000000000E+00 0. -1.
         -2    1    6    6    0  503  0.25947546343E+03  0.22415388538E+02  0.11468046382E+03  0.28457261735E+03  0.00000000000E+00 0.  1.
<mgrwt>
<rscale>  0 0.20835356E+04</rscale>
<asrwt>0</asrwt>
<pdfrwt beam="1">  1        2 0.13863431E+00 0.20835356E+04</pdfrwt>
<pdfrwt beam="2">  1       -1 0.18528678E+00 0.20835356E+04</pdfrwt>
<totfact> 0.58784790E+00</totfact>
</mgrwt>
</event>
<event>
12    6  0.1521603E-007  0.3340518E+04  0.7818608E-02  0.8152662E-01
         -1   -1    0    0    0  501 -0.00000000000E+00  0.00000000000E+00  0.16230277364E+04  0.16230277364E+04  0.00000000000E+00 0.  1.
          2   -1    0    0  501    0  0.00000000000E+00 -0.00000000000E+00 -0.17188643846E+04  0.17188643846E+04  0.00000000000E+00 0. -1.
         24    2    1    2    0    0 -0.14685792502E+04 -0.19110950240E+03  0.44083663262E+03  0.15472636703E+04  0.80250062960E+02 0.  0.
        254    2    1    2    0    0  0.14685792502E+04  0.19110950240E+03 -0.53667328084E+03  0.17946284507E+04  0.85989837159E+03 0.  0.
         23    2    4    4    0    0  0.14287625427E+04  0.37945146294E+03 -0.37639535392E+03  0.15280992503E+04  0.89822270620E+02 0.  0.
         23    2    4    4    0    0  0.39816707562E+02 -0.18834196054E+03 -0.16027792692E+03  0.26652920035E+03  0.91053481447E+02 0.  0.
          2    1    3    3  502    0 -0.16111731968E+03 -0.38707673826E+02  0.30592330142E+02  0.16850212277E+03  0.00000000000E+00 0. -1.
         -1    1    3    3    0  502 -0.13074619306E+04 -0.15240182857E+03  0.41024430248E+03  0.13787615475E+04  0.00000000000E+00 0.  1.
         11    1    5    5    0    0  0.11704191036E+04  0.31325843339E+03 -0.27245263923E+03  0.12418704299E+04  0.00000000000E+00 0.  1.
        -11    1    5    5    0    0  0.25834343911E+03  0.66193029544E+02 -0.10394271469E+03  0.28622882040E+03  0.00000000000E+00 0. -1.
          2    1    6    6  503    0  0.19321681694E+02 -0.18973322625E+03 -0.13357788657E+03  0.23284131142E+03  0.00000000000E+00 0.  1.
         -2    1    6    6    0  503  0.20495025869E+02  0.13912657126E+01 -0.26700040353E+02  0.33687888929E+02  0.00000000000E+00 0. -1.
<mgrwt>
<rscale>  0 0.33405177E+04</rscale>
<asrwt>0</asrwt>
<pdfrwt beam="1">  1        2 0.26444067E+00 0.33405177E+04</pdfrwt>
<pdfrwt beam="2">  1       -1 0.24969658E+00 0.33405177E+04</pdfrwt>
<totfact> 0.63518528E-01</totfact>
</mgrwt>
</event>
<event>
12    6  0.1521603E-007  0.2279605E+04  0.7818608E-02  0.8486006E-01
          2   -1    0    0  501    0  0.00000000000E+00  0.00000000000E+00  0.10333615320E+04  0.10333615320E+04  0.00000000000E+00 0. -1.
         -1   -1    0    0    0  501 -0.00000000000E+00 -0.00000000000E+00 -0.12572071600E+04  0.12572071600E+04  0.00000000000E+00 0.  1.
         24    2    1    2    0    0 -0.48154674901E+03 -0.20930092738E+03 -0.90317606925E+03  0.10477890425E+04  0.80254070350E+02 0.  0.
        254    2    1    2    0    0  0.48154674901E+03  0.20930092738E+03  0.67933044122E+03  0.12427796495E+04  0.89850835227E+03 0.  0.
         23    2    4    4    0    0  0.22894823667E+02  0.46029097277E+03  0.49152034112E+03  0.67987567094E+03  0.90811506064E+02 0.  0.
         23    2    4    4    0    0  0.45865192535E+03 -0.25099004539E+03  0.18781010010E+03  0.56290397854E+03  0.90723006171E+02 0.  0.
          4    1    3    3  502    0 -0.30026718835E+03 -0.94736972152E+02 -0.57966806289E+03  0.65965941320E+03  0.00000000000E+00 0. -1.
         -3    1    3    3    0  502 -0.18127956066E+03 -0.11456395522E+03 -0.32350800636E+03  0.38812962928E+03  0.00000000000E+00 0.  1.
         11    1    5    5    0    0 -0.21822062743E+02  0.34894036258E+03  0.35957930924E+03  0.50153051621E+03  0.00000000000E+00 0. -1.
        -11    1    5    5    0    0  0.44716886410E+02  0.11135061019E+03  0.13194103189E+03  0.17834515473E+03  0.00000000000E+00 0.  1.
          1    1    6    6  503    0  0.35922957248E+03 -0.17193429921E+03  0.10708469398E+03  0.41240080101E+03  0.00000000000E+00 0. -1.
         -1    1    6    6    0  503  0.99422352865E+02 -0.79055746183E+02  0.80725406118E+02  0.15050317753E+03  0.00000000000E+00 0.  1.
<mgrwt>
<rscale>  0 0.22796048E+04</rscale>
<asrwt>0</asrwt>
<pdfrwt beam="1">  1        2 0.15897870E+00 0.22796048E+04</pdfrwt>
<pdfrwt beam="2">  1       -1 0.19341648E+00 0.22796048E+04</pdfrwt>
<totfact> 0.41526978E+00</totfact>
</mgrwt>
</event>
<event>
12    6  0.1521603E-007  0.2208161E+04  0.7818608E-02  0.8515039E-01
         -1   -1    0    0    0  501 -0.00000000000E+00  0.00000000000E+00  0.57563419146E+03  0.57563419146E+03  0.00000000000E+00 0.  1.
          2   -1    0    0  501    0  0.00000000000E+00 -0.00000000000E+00 -0.21176533102E+04  0.21176533102E+04  0.00000000000E+00 0. -1.
         24    2    1    2    0    0  0.35361993251E+03 -0.48134077269E+03  0.19789632066E+03  0.63424564668E+03  0.79803449089E+02 0.  0.
        254    2    1    2    0    0 -0.35361993251E+03  0.48134077269E+03 -0.17399154394E+04  0.20590418550E+04  0.92499277194E+03 0.  0.
         23    2    4    4    0    0 -0.42059654621E+03 -0.14193488175E+03 -0.55866738973E+03  0.71924671372E+03  0.90330601161E+02 0.  0.
         23    2    4    4    0    0  0.66976613707E+02  0.62327565443E+03 -0.11812480496E+04  0.13397951412E+04  0.82131951644E+02 0.  0.
          2    1    3    3  502    0  0.19301913091E+02 -0.41966484885E+02 -0.40450046243E+01  0.46369297655E+02  0.00000000000E+00 0. -1.
         -1    1    3    3    0  502  0.33431801941E+03 -0.43937428780E+03  0.20194132528E+03  0.58787634903E+03  0.00000000000E+00 0.  1.
         11    1    5    5    0    0 -0.16773126881E+03 -0.61909067102E+02 -0.29703062848E+03  0.34668963840E+03  0.00000000000E+00 0. -1.
        -11    1    5    5    0    0 -0.25286527741E+03 -0.80025814646E+02 -0.26163676126E+03  0.37255707532E+03  0.00000000000E+00 0.  1.
          1    1    6    6  503    0  0.24875850031E+02  0.66175514900E+02 -0.96486969061E+02  0.11961497350E+03  0.00000000000E+00 0. -1.
         -1    1    6    6    0  503  0.42100763676E+02  0.55710013954E+03 -0.10847610806E+04  0.12201801677E+04  0.00000000000E+00 0.  1.
<mgrwt>
<rscale>  0 0.22081609E+04</rscale>
<asrwt>0</asrwt>
<pdfrwt beam="1">  1        2 0.32579282E+00 0.22081609E+04</pdfrwt>
<pdfrwt beam="2">  1       -1 0.88559106E-01 0.22081609E+04</pdfrwt>
<totfact> 0.74733929E+00</totfact>
</mgrwt>
</event>
<event>
12    6  0.1521603E-007  0.2083850E+04  0.7818608E-02  0.8568391E-01
          2   -1    0    0  501    0  0.00000000000E+00  0.00000000000E+00  0.16218285655E+04  0.16218285655E+04  0.00000000000E+00 0. -1.
         -1   -1    0    0    0  501 -0.00000000000E+00 -0.00000000000E+00 -0.66937270826E+03  0.66937270826E+03  0.00000000000E+00 0.  1.
         24    2    1    2    0    0 -0.80704854373E+03 -0.23834989342E+03  0.44881570670E+03  0.95705453794E+03  0.79873815349E+02 0.  0.
        254    2    1    2    0    0  0.80704854373E+03  0.23834989342E+03  0.50364015050E+03  0.13341467358E+04  0.90451981060E+03 0.  0.
         23    2    4    4    0    0  0.91897090742E+03 -0.14710281079E+02  0.27256169195E+03  0.96231763865E+03  0.83913292700E+02 0.  0.
         23    2    4    4    0    0 -0.11192236369E+03  0.25306017450E+03  0.23107845855E+03  0.37182909713E+03  0.91068963176E+02 0.  0.
          4    1    3    3  502    0 -0.10441549414E+02 -0.13819559819E+02  0.13146731981E+02  0.21744947678E+02  0.00000000000E+00 0. -1.
         -3    1    3    3    0  502 -0.79660699432E+03 -0.22453033360E+03  0.43566897472E+03  0.93530959026E+03  0.00000000000E+00 0.  1.
         11    1    5    5    0    0  0.18569005128E+02 -0.10771284616E+02  0.13581882943E+02  0.25402678363E+02  0.00000000000E+00 0.  1.
        -11    1    5    5    0    0  0.90040190229E+03 -0.39389964637E+01  0.25897980901E+03  0.93691496029E+03  0.00000000000E+00 0. -1.
          1    1    6    6  503    0 -0.50111607693E+02  0.50130499201E+02  0.99624139120E+02  0.12226695903E+03  0.00000000000E+00 0. -1.
         -1    1    6    6    0  503 -0.61810755995E+02  0.20292967530E+03  0.13145431943E+03  0.24956213809E+03  0.00000000000E+00 0.  1.
<mgrwt>
<rscale>  0 0.20838501E+04</rscale>
<asrwt>0</asrwt>
<pdfrwt beam="1">  1        2 0.24951209E+00 0.20838501E+04</pdfrwt>
<pdfrwt beam="2">  1       -1 0.10298042E+00 0.20838501E+04</pdfrwt>
<totfact> 0.10150505E+01</totfact>
</mgrwt>
</event>
<event>
12    6  0.1521603E-007  0.2372982E+04  0.7818608E-02  0.8449688E-01
         -1   -1    0    0    0  501 -0.00000000000E+00  0.00000000000E+00  0.83152416100E+03  0.83152416100E+03  0.00000000000E+00 0.  1.
          2   -1    0    0  501    0  0.00000000000E+00 -0.00000000000E+00 -0.16929891677E+04  0.16929891677E+04  0.00000000000E+00 0. -1.
         24    2    1    2    0    0  0.71553345886E+03  0.33354081928E+03 -0.10461601561E+04  0.13130366031E+04  0.79852614733E+02 0.  0.
        254    2    1    2    0    0 -0.71553345886E+03 -0.33354081928E+03  0.18469514943E+03  0.12114767255E+04  0.90018106479E+03 0.  0.
         23    2    4    4    0    0 -0.58573913934E+03 -0.21789609237E+03 -0.29234611555E+03  0.69562476227E+03  0.88648249781E+02 0.  0.
         23    2    4    4    0    0 -0.12979431953E+03 -0.11564472691E+03  0.47704126498E+03  0.51585196326E+03  0.91184490257E+02 0.  0.
          4    1    3    3  502    0  0.53881245901E+03  0.25768108513E+03 -0.84468038829E+03  0.10345063393E+04  0.00000000000E+00 0. -1.
         -3    1    3    3    0  502  0.17672099985E+03  0.75859734151E+02 -0.20147976782E+03  0.27853026388E+03  0.00000000000E+00 0.  1.
         11    1    5    5    0    0 -0.13495674438E+01  0.44540460335E+01  0.13162407978E+01  0.48365636760E+01  0.00000000000E+00 0.  1.
        -11    1    5    5    0    0 -0.58438957189E+03 -0.22235013840E+03 -0.29366235635E+03  0.69078819860E+03  0.00000000000E+00 0. -1.
          2    1    6    6  503    0 -0.99236284995E+02 -0.12903798630E+03  0.38795098506E+03  0.42071915690E+03  0.00000000000E+00 0.  1.
         -2    1    6    6    0  503 -0.30558034533E+02  0.13393259386E+02  0.89090279915E+02  0.95132806364E+02  0.00000000000E+00 0. -1.
<mgrwt>
<rscale>  0 0.23729824E+04</rscale>
<asrwt>0</asrwt>
<pdfrwt beam="1">  1        2 0.26045987E+00 0.23729824E+04</pdfrwt>
<pdfrwt beam="2">  1       -1 0.12792679E+00 0.23729824E+04</pdfrwt>
<totfact> 0.53628083E+00</totfact>
</mgrwt>
</event>
<event>
12    6  0.1521603E-007  0.1730814E+04  0.7818608E-02  0.8743983E-01
         -1   -1    0    0    0  501 -0.00000000000E+00  0.00000000000E+00  0.53931789379E+03  0.53931789379E+03  0.00000000000E+00 0.  1.
          2   -1    0    0  501    0  0.00000000000E+00 -0.00000000000E+00 -0.13886595770E+04  0.13886595770E+04  0.00000000000E+00 0. -1.
         24    2    1    2    0    0  0.47049659440E+03  0.57971957830E+02  0.15575772001E+03  0.50538142557E+03  0.80138160245E+02 0.  0.
        254    2    1    2    0    0 -0.47049659440E+03 -0.57971957830E+02 -0.10050994033E+04  0.14225960453E+04  0.88815927871E+03 0.  0.
         23    2    4    4    0    0 -0.43283408379E+03 -0.43303522262E+03 -0.62917718662E+03  0.88265483757E+03  0.91382613265E+02 0.  0.
         23    2    4    4    0    0 -0.37662510608E+02  0.37506326479E+03 -0.37592221664E+03  0.53994120770E+03  0.90155851184E+02 0.  0.
          2    1    3    3  502    0  0.76754934431E+02  0.23450593996E+02 -0.77669182726E+00  0.80261158529E+02  0.00000000000E+00 0. -1.
         -1    1    3    3    0  502  0.39374165997E+03  0.34521363834E+02  0.15653441183E+03  0.42512026704E+03  0.00000000000E+00 0.  1.
         11    1    5    5    0    0 -0.34134721414E+03 -0.36592073573E+03 -0.46518891422E+03  0.68323980516E+03  0.00000000000E+00 0. -1.
        -11    1    5    5    0    0 -0.91486869652E+02 -0.67114486896E+02 -0.16398827240E+03  0.19941503242E+03  0.00000000000E+00 0.  1.
          2    1    6    6  503    0 -0.32774994053E+02  0.36939474980E+03 -0.38037178426E+03  0.53123382392E+03  0.00000000000E+00 0. -1.
         -2    1    6    6    0  503 -0.48875165550E+01  0.56685149955E+01  0.44495676170E+01  0.87073837809E+01  0.00000000000E+00 0.  1.
<mgrwt>
<rscale>  0 0.17308136E+04</rscale>
<asrwt>0</asrwt>
<pdfrwt beam="1">  1        2 0.21363993E+00 0.17308136E+04</pdfrwt>
<pdfrwt beam="2">  1       -1 0.82971985E-01 0.17308136E+04</pdfrwt>
<totfact> 0.22925943E+01</totfact>
</mgrwt>
</event>
<event>
12    6  0.1521603E-007  0.1483642E+04  0.7818608E-02  0.8895404E-01
         -1   -1    0    0    0  501 -0.00000000000E+00  0.00000000000E+00  0.22303532113E+03  0.22303532113E+03  0.00000000000E+00 0.  1.
          2   -1    0    0  501    0  0.00000000000E+00 -0.00000000000E+00 -0.24673154676E+04  0.24673154676E+04  0.00000000000E+00 0. -1.
         24    2    1    2    0    0 -0.14422025302E+03 -0.18968321207E+03  0.88046942520E+01  0.25532370015E+03  0.91287824467E+02 0.  0.
        254    2    1    2    0    0  0.14422025302E+03  0.18968321207E+03 -0.22530848407E+04  0.24350270886E+04  0.89229278846E+03 0.  0.
         23    2    4    4    0    0 -0.18030198938E+03 -0.26549505418E+03 -0.11143946227E+04  0.11632411159E+04  0.90874019694E+02 0.  0.
         23    2    4    4    0    0  0.32452224240E+03  0.45517826625E+03 -0.11386902179E+04  0.12717859726E+04  0.91226135548E+02 0.  0.
          4    1    3    3  502    0 -0.10871925777E+03 -0.15163867395E+03 -0.31856533144E+02  0.18928550697E+03  0.00000000000E+00 0. -1.
         -3    1    3    3    0  502 -0.35500995248E+02 -0.38044538118E+02  0.40661227396E+02  0.66038193173E+02  0.00000000000E+00 0.  1.
         11    1    5    5    0    0 -0.18218781850E+02 -0.47907221253E+02 -0.90484751319E+02  0.10399286553E+03  0.00000000000E+00 0. -1.
        -11    1    5    5    0    0 -0.16208320753E+03 -0.21758783293E+03 -0.10239098714E+04  0.10592482504E+04  0.00000000000E+00 0.  1.
          3    1    6    6  503    0  0.98661056838E+02  0.20613173096E+03 -0.50942334825E+03  0.55833363000E+03  0.00000000000E+00 0. -1.
         -3    1    6    6    0  503  0.22586118556E+03  0.24904653529E+03 -0.62926686969E+03  0.71345234261E+03  0.00000000000E+00 0.  1.
<mgrwt>
<rscale>  0 0.14836421E+04</rscale>
<asrwt>0</asrwt>
<pdfrwt beam="1">  1        2 0.37958700E+00 0.14836421E+04</pdfrwt>
<pdfrwt beam="2">  1       -1 0.34313126E-01 0.14836421E+04</pdfrwt>
<totfact> 0.32297287E+01</totfact>
</mgrwt>
</event>
<event>
12    6  0.1521603E-007  0.1520977E+04  0.7818608E-02  0.8870622E-01
         -1   -1    0    0    0  501 -0.00000000000E+00  0.00000000000E+00  0.42156214760E+03  0.42156214760E+03  0.00000000000E+00 0.  1.
          2   -1    0    0  501    0  0.00000000000E+00 -0.00000000000E+00 -0.13719037517E+04  0.13719037517E+04  0.00000000000E+00 0. -1.
         24    2    1    2    0    0  0.15119957868E+03  0.75839432091E+02 -0.85877190961E+03  0.88202052678E+03  0.10889483406E+03 0.  0.
        254    2    1    2    0    0 -0.15119957868E+03 -0.75839432091E+02 -0.91569694497E+02  0.91144537252E+03  0.89091791209E+03 0.  0.
         23    2    4    4    0    0  0.14647422229E+01 -0.15979058735E+03 -0.45920275421E+03  0.49442268900E+03  0.89729864868E+02 0.  0.
         23    2    4    4    0    0 -0.15266432091E+03  0.83951155263E+02  0.36763305971E+03  0.41702268352E+03  0.91649662477E+02 0.  0.
          2    1    3    3  502    0  0.10884640681E+03  0.10013782464E+03 -0.71640300568E+03  0.73151103255E+03  0.00000000000E+00 0. -1.
         -1    1    3    3    0  502  0.42353171871E+02 -0.24298392552E+02 -0.14236890393E+03  0.15050949423E+03  0.00000000000E+00 0.  1.
         11    1    5    5    0    0 -0.13869404282E+02 -0.16609522544E+03 -0.41935796891E+03  0.45126609708E+03  0.00000000000E+00 0. -1.
        -11    1    5    5    0    0  0.15334146504E+02  0.63046380850E+01 -0.39844785297E+02  0.43156591916E+02  0.00000000000E+00 0.  1.
          1    1    6    6  503    0 -0.43956229279E+02  0.75852045177E+02  0.15498246664E+03  0.17805967487E+03  0.00000000000E+00 0. -1.
         -1    1    6    6    0  503 -0.10870809163E+03  0.80991100851E+01  0.21265059307E+03  0.23896300865E+03  0.00000000000E+00 0.  1.
<mgrwt>
<rscale>  0 0.15209769E+04</rscale>
<asrwt>0</asrwt>
<pdfrwt beam="1">  1        2 0.21106211E+00 0.15209769E+04</pdfrwt>
<pdfrwt beam="2">  1       -1 0.64855715E-01 0.15209769E+04</pdfrwt>
<totfact> 0.39803920E+01</totfact>
</mgrwt>
</event>
<event>
12    6  0.1521603E-007  0.1223616E+04  0.7818608E-02  0.9092433E-01
          2   -1    0    0  501    0  0.00000000000E+00  0.00000000000E+00  0.56525181830E+03  0.56525181830E+03  0.00000000000E+00 0. -1.
         -1   -1    0    0    0  501 -0.00000000000E+00 -0.00000000000E+00 -0.66219906096E+03  0.66219906096E+03  0.00000000000E+00 0.  1.
         24    2    1    2    0    0  0.26181992302E+03  0.18167830819E+03 -0.44872773348E+02  0.33151255139E+03  0.79563346957E+02 0.  0.
        254    2    1    2    0    0 -0.26181992302E+03 -0.18167830819E+03 -0.52074469318E+02  0.89593832788E+03  0.83572546763E+03 0.  0.
         23    2    4    4    0    0 -0.41906720178E+03  0.19508521533E+03  0.23164826313E+02  0.47163548421E+03  0.90707551728E+02 0.  0.
         23    2    4    4    0    0  0.15724727875E+03 -0.37676352352E+03 -0.75239295631E+02  0.42430284367E+03  0.87718254689E+02 0.  0.
          4    1    3    3  502    0  0.25433181366E+03  0.17418382132E+03 -0.25351083170E+02  0.30930139422E+03  0.00000000000E+00 0. -1.
         -3    1    3    3    0  502  0.74881093666E+01  0.74944868772E+01 -0.19521690178E+02  0.22211157170E+02  0.00000000000E+00 0.  1.
         11    1    5    5    0    0 -0.11576193174E+03  0.77131984472E+02 -0.28867020099E+02  0.14206854936E+03  0.00000000000E+00 0. -1.
        -11    1    5    5    0    0 -0.30330527004E+03  0.11795323086E+03  0.52031846412E+02  0.32956693485E+03  0.00000000000E+00 0.  1.
          1    1    6    6  503    0  0.34914570841E+02 -0.14686216791E+03  0.72465410758E+01  0.15112920293E+03  0.00000000000E+00 0. -1.
         -1    1    6    6    0  503  0.12233270791E+03 -0.22990135561E+03 -0.82485836707E+02  0.27317364074E+03  0.00000000000E+00 0.  1.
<mgrwt>
<rscale>  0 0.12236163E+04</rscale>
<asrwt>0</asrwt>
<pdfrwt beam="1">  1        2 0.86961818E-01 0.12236163E+04</pdfrwt>
<pdfrwt beam="2">  1       -1 0.10187678E+00 0.12236163E+04</pdfrwt>
<totfact> 0.54831302E+01</totfact>
</mgrwt>
</event>
<event>
12    6  0.1521603E-007  0.1459287E+04  0.7818608E-02  0.8911987E-01
         -1   -1    0    0    0  501 -0.00000000000E+00  0.00000000000E+00  0.27012857577E+03  0.27012857577E+03  0.00000000000E+00 0.  1.
          2   -1    0    0  501    0  0.00000000000E+00 -0.00000000000E+00 -0.19708388214E+04  0.19708388214E+04  0.00000000000E+00 0. -1.
         24    2    1    2    0    0 -0.39951763520E+03  0.96732948593E+02 -0.24449925635E+03  0.48497676054E+03  0.80317916590E+02 0.  0.
        254    2    1    2    0    0  0.39951763520E+03 -0.96732948593E+02 -0.14562109893E+04  0.17559906366E+04  0.89105615225E+03 0.  0.
         23    2    4    4    0    0  0.48822903056E+03  0.25347153802E+02 -0.28812928049E+03  0.57461592952E+03  0.90304593948E+02 0.  0.
         23    2    4    4    0    0 -0.88711395359E+02 -0.12208010240E+03 -0.11680817088E+04  0.11813747071E+04  0.91967696119E+02 0.  0.
          4    1    3    3  502    0 -0.15078974792E+03 -0.13311147216E+01 -0.75036902215E+02  0.16843353775E+03  0.00000000000E+00 0. -1.
         -3    1    3    3    0  502 -0.24872788728E+03  0.98064063314E+02 -0.16946235414E+03  0.31654322279E+03  0.00000000000E+00 0.  1.
         11    1    5    5    0    0  0.27752949457E+03 -0.26266272139E+02 -0.14011454813E+03  0.31200100001E+03  0.00000000000E+00 0.  1.
        -11    1    5    5    0    0  0.21069953599E+03  0.51613425942E+02 -0.14801473236E+03  0.26261492951E+03  0.00000000000E+00 0. -1.
          2    1    6    6  503    0 -0.25260600901E+02 -0.10899879881E+03 -0.75334221603E+03  0.76160575796E+03  0.00000000000E+00 0. -1.
         -2    1    6    6    0  503 -0.63450794458E+02 -0.13081303583E+02 -0.41473949278E+03  0.41976894918E+03  0.00000000000E+00 0.  1.
<mgrwt>
<rscale>  0 0.14592873E+04</rscale>
<asrwt>0</asrwt>
<pdfrwt beam="1">  1        2 0.30320597E+00 0.14592873E+04</pdfrwt>
<pdfrwt beam="2">  1       -1 0.41558243E-01 0.14592873E+04</pdfrwt>
<totfact> 0.43485743E+01</totfact>
</mgrwt>
</event>
<event>
12    6  0.1521603E-007  0.1783716E+04  0.7818608E-02  0.8715007E-01
          2   -1    0    0  501    0  0.00000000000E+00  0.00000000000E+00  0.23746647796E+04  0.23746647796E+04  0.00000000000E+00 0. -1.
         -1   -1    0    0    0  501 -0.00000000000E+00 -0.00000000000E+00 -0.33495700490E+03  0.33495700490E+03  0.00000000000E+00 0.  1.
         24    2    1    2    0    0 -0.38323790359E+03  0.17968643719E+03  0.16017615541E+04  0.16586194157E+04  0.78865605067E+02 0.  0.
        254    2    1    2    0    0  0.38323790359E+03 -0.17968643719E+03  0.43794622066E+03  0.10510023688E+04  0.85653405103E+03 0.  0.
         23    2    4    4    0    0  0.39422420816E+03  0.21260283324E+03  0.45929310738E+03  0.64752744223E+03  0.87914384261E+02 0.  0.
         23    2    4    4    0    0 -0.10986304573E+02 -0.39228927043E+03 -0.21346886715E+02  0.40347492656E+03  0.91240101994E+02 0.  0.
          4    1    3    3  502    0 -0.37595592746E+03  0.15824338297E+03  0.15197795226E+04  0.15735671657E+04  0.00000000000E+00 0. -1.
         -3    1    3    3    0  502 -0.72819761267E+01  0.21443054220E+02  0.81982031496E+02  0.85052250052E+02  0.00000000000E+00 0.  1.
         11    1    5    5    0    0  0.37656627295E+03  0.20917066300E+03  0.40854846847E+03  0.59368878655E+03  0.00000000000E+00 0.  1.
        -11    1    5    5    0    0  0.17657935214E+02  0.34321702390E+01  0.50744638902E+02  0.53838655684E+02  0.00000000000E+00 0. -1.
          3    1    6    6  503    0 -0.47639438558E+02 -0.15905110434E+03 -0.21151060939E+02  0.16737424317E+03  0.00000000000E+00 0. -1.
         -3    1    6    6    0  503  0.36653133985E+02 -0.23323816609E+03 -0.19582577541E+00  0.23610068340E+03  0.00000000000E+00 0.  1.
<mgrwt>
<rscale>  0 0.17837159E+04</rscale>
<asrwt>0</asrwt>
<pdfrwt beam="1">  1        2 0.36533303E+00 0.17837159E+04</pdfrwt>
<pdfrwt beam="2">  1       -1 0.51531848E-01 0.17837159E+04</pdfrwt>
<totfact> 0.16776832E+01</totfact>
</mgrwt>
</event>
<event>
12    6  0.1521603E-007  0.1468526E+04  0.7818608E-02  0.8905657E-01
         -1   -1    0    0    0  501 -0.00000000000E+00  0.00000000000E+00  0.65068176675E+03  0.65068176675E+03  0.00000000000E+00 0.  1.
          2   -1    0    0  501    0  0.00000000000E+00 -0.00000000000E+00 -0.82858008125E+03  0.82858008125E+03  0.00000000000E+00 0. -1.
         24    2    1    2    0    0  0.36893333774E+03 -0.20875592088E+03  0.10685741432E+03  0.44428776190E+03  0.79260748099E+02 0.  0.
        254    2    1    2    0    0 -0.36893333774E+03  0.20875592088E+03 -0.28475572882E+03  0.10349740861E+04  0.90021924641E+03 0.  0.
         23    2    4    4    0    0 -0.49397939413E+03  0.18966047147E+03  0.16133494239E+03  0.56239921860E+03  0.10137643310E+03 0.  0.
         23    2    4    4    0    0  0.12504605639E+03  0.19095449402E+02 -0.44609067120E+03  0.47257486750E+03  0.91263169168E+02 0.  0.
          2    1    3    3  502    0  0.83143677912E+02 -0.71537857248E+02 -0.17152694317E+00  0.10968393509E+03  0.00000000000E+00 0. -1.
         -1    1    3    3    0  502  0.28578965982E+03 -0.13721806363E+03  0.10702894126E+03  0.33460382681E+03  0.00000000000E+00 0.  1.
         11    1    5    5    0    0 -0.40344077745E+03  0.13805187116E+03  0.16720883388E+03  0.45801918537E+03  0.00000000000E+00 0.  1.
        -11    1    5    5    0    0 -0.90538616674E+02  0.51608600318E+02 -0.58738914896E+01  0.10438003323E+03  0.00000000000E+00 0. -1.
          1    1    6    6  503    0  0.90367593262E+02 -0.25961815657E+02 -0.33265880516E+03  0.34569090013E+03  0.00000000000E+00 0. -1.
         -1    1    6    6    0  503  0.34678463130E+02  0.45057265059E+02 -0.11343186605E+03  0.12688396736E+03  0.00000000000E+00 0.  1.
<mgrwt>
<rscale>  0 0.14685257E+04</rscale>
<asrwt>0</asrwt>
<pdfrwt beam="1">  1        2 0.12747386E+00 0.14685257E+04</pdfrwt>
<pdfrwt beam="2">  1       -1 0.10010489E+00 0.14685257E+04</pdfrwt>
<totfact> 0.34555979E+01</totfact>
</mgrwt>
</event>
<event>
12    6  0.1521603E-007  0.1752439E+04  0.7818608E-02  0.8732009E-01
          2   -1    0    0  501    0  0.00000000000E+00  0.00000000000E+00  0.92740993095E+03  0.92740993095E+03  0.00000000000E+00 0. -1.
         -1   -1    0    0    0  501 -0.00000000000E+00 -0.00000000000E+00 -0.82785487531E+03  0.82785487531E+03  0.00000000000E+00 0.  1.
         24    2    1    2    0    0 -0.33700818066E+03 -0.53215790581E+02 -0.51038522843E+03  0.61938666619E+03  0.82099492392E+02 0.  0.
        254    2    1    2    0    0  0.33700818066E+03  0.53215790581E+02  0.60994028407E+03  0.11358781401E+04  0.89542479572E+03 0.  0.
         23    2    4    4    0    0  0.30163095606E+03 -0.31924672096E+03  0.60175250358E+03  0.75058888751E+03  0.91530869033E+02 0.  0.
         23    2    4    4    0    0  0.35377224604E+02  0.37246251154E+03  0.81877804884E+01  0.38528925258E+03  0.91656412084E+02 0.  0.
          2    1    3    3  502    0 -0.82484354032E+02  0.15498648505E+02 -0.89043888066E+02  0.12236294687E+03  0.00000000000E+00 0. -1.
         -1    1    3    3    0  502 -0.25452382663E+03 -0.68714439086E+02 -0.42134134036E+03  0.49702371931E+03  0.00000000000E+00 0.  1.
         11    1    5    5    0    0  0.27442996124E+03 -0.24408715962E+03  0.51599984695E+03  0.63336102436E+03  0.00000000000E+00 0.  1.
        -11    1    5    5    0    0  0.27200994811E+02 -0.75159561339E+02  0.85752656628E+02  0.11722786315E+03  0.00000000000E+00 0. -1.
          4    1    6    6  503    0 -0.27179597438E+02  0.80767036320E+02 -0.13028293389E+02  0.86207778660E+02  0.00000000000E+00 0. -1.
         -4    1    6    6    0  503  0.62556822042E+02  0.29169547522E+03  0.21216073877E+02  0.29908147392E+03  0.00000000000E+00 0.  1.
<mgrwt>
<rscale>  0 0.17524393E+04</rscale>
<asrwt>0</asrwt>
<pdfrwt beam="1">  1        2 0.14267845E+00 0.17524393E+04</pdfrwt>
<pdfrwt beam="2">  1       -1 0.12736229E+00 0.17524393E+04</pdfrwt>
<totfact> 0.16231384E+01</totfact>
</mgrwt>
</event>
<event>
12    6  0.1521603E-007  0.2554468E+04  0.7818608E-02  0.8383834E-01
         -1   -1    0    0    0  501 -0.00000000000E+00  0.00000000000E+00  0.92049637139E+03  0.92049637139E+03  0.00000000000E+00 0.  1.
          2   -1    0    0  501    0  0.00000000000E+00 -0.00000000000E+00 -0.17722256116E+04  0.17722256116E+04  0.00000000000E+00 0. -1.
         24    2    1    2    0    0  0.83465474749E+03 -0.23852852448E+03  0.36857327762E+03  0.94641557811E+03  0.79446718181E+02 0.  0.
        254    2    1    2    0    0 -0.83465474749E+03  0.23852852448E+03 -0.12203025178E+04  0.17463064048E+04  0.89827803055E+03 0.  0.
         23    2    4    4    0    0 -0.68403024630E+03 -0.21370413025E+03 -0.50303600992E+03  0.88030573546E+03  0.91247616238E+02 0.  0.
         23    2    4    4    0    0 -0.15062450119E+03  0.45223265473E+03 -0.71726650787E+03  0.86600066938E+03  0.91015392609E+02 0.  0.
          4    1    3    3  502    0  0.13434088889E+03 -0.12382369091E+02  0.72614802120E+02  0.15321131479E+03  0.00000000000E+00 0. -1.
         -3    1    3    3    0  502  0.70031385860E+03 -0.22614615538E+03  0.29595847550E+03  0.79320426333E+03  0.00000000000E+00 0.  1.
         11    1    5    5    0    0 -0.20618418964E+03 -0.46713433892E+02 -0.10319767821E+03  0.23525268490E+03  0.00000000000E+00 0.  1.
        -11    1    5    5    0    0 -0.47784605666E+03 -0.16699069636E+03 -0.39983833171E+03  0.64505305056E+03  0.00000000000E+00 0. -1.
          1    1    6    6  503    0 -0.64031911102E+02  0.30667556475E+03 -0.42156927601E+03  0.52523389278E+03  0.00000000000E+00 0. -1.
         -1    1    6    6    0  503 -0.86592590087E+02  0.14555708998E+03 -0.29569723186E+03  0.34076677660E+03  0.00000000000E+00 0.  1.
<mgrwt>
<rscale>  0 0.25544684E+04</rscale>
<asrwt>0</asrwt>
<pdfrwt beam="1">  1        2 0.27265009E+00 0.25544684E+04</pdfrwt>
<pdfrwt beam="2">  1       -1 0.14161483E+00 0.25544684E+04</pdfrwt>
<totfact> 0.36753466E+00</totfact>
</mgrwt>
</event>
<event>
12    6  0.1521603E-007  0.1519824E+04  0.7818608E-02  0.8871376E-01
          2   -1    0    0  501    0  0.00000000000E+00  0.00000000000E+00  0.88733690295E+03  0.88733690295E+03  0.00000000000E+00 0. -1.
         -1   -1    0    0    0  501 -0.00000000000E+00 -0.00000000000E+00 -0.65078544203E+03  0.65078544203E+03  0.00000000000E+00 0.  1.
         24    2    1    2    0    0 -0.42321893201E+03 -0.10490271898E+03  0.31431484718E+03  0.54352141482E+03  0.80640314653E+02 0.  0.
        254    2    1    2    0    0  0.42321893201E+03  0.10490271898E+03 -0.77763386267E+02  0.99460093016E+03  0.89054198169E+03 0.  0.
         23    2    4    4    0    0  0.58680324390E+03  0.25785301479E+03  0.14746635914E+03  0.66395349021E+03  0.90893816065E+02 0.  0.
         23    2    4    4    0    0 -0.16358431189E+03 -0.15295029582E+03 -0.22522974540E+03  0.33064743994E+03  0.91900333195E+02 0.  0.
          2    1    3    3  502    0 -0.19222368972E+03 -0.56393245135E+02  0.19285283955E+03  0.27806898912E+03  0.00000000000E+00 0. -1.
         -1    1    3    3    0  502 -0.23099524230E+03 -0.48509473845E+02  0.12146200764E+03  0.26545242571E+03  0.00000000000E+00 0.  1.
         11    1    5    5    0    0  0.42067507959E+03  0.20321480398E+03  0.68926319642E+02  0.47224423414E+03  0.00000000000E+00 0. -1.
        -11    1    5    5    0    0  0.16612816431E+03  0.54638210812E+02  0.78540039493E+02  0.19170925607E+03  0.00000000000E+00 0.  1.
          4    1    6    6  503    0 -0.22489242694E+02 -0.30695193112E+02 -0.96896573665E+02  0.10410046544E+03  0.00000000000E+00 0. -1.
         -4    1    6    6    0  503 -0.14109506919E+03 -0.12225510270E+03 -0.12833317174E+03  0.22654697450E+03  0.00000000000E+00 0.  1.
<mgrwt>
<rscale>  0 0.15198236E+04</rscale>
<asrwt>0</asrwt>
<pdfrwt beam="1">  1        2 0.13651337E+00 0.15198236E+04</pdfrwt>
<pdfrwt beam="2">  1       -1 0.10012084E+00 0.15198236E+04</pdfrwt>
<totfact> 0.31312563E+01</totfact>
</mgrwt>
</event>
<event>
12    6  0.1521603E-007  0.1334138E+04  0.7818608E-02  0.9002923E-01
          2   -1    0    0  501    0  0.00000000000E+00  0.00000000000E+00  0.33466754955E+03  0.33466754955E+03  0.00000000000E+00 0. -1.
         -1   -1    0    0    0  501 -0.00000000000E+00 -0.00000000000E+00 -0.13296214054E+04  0.13296214054E+04  0.00000000000E+00 0.  1.
         24    2    1    2    0    0 -0.26733721375E+02  0.30895964351E+02 -0.59070848691E+03  0.59890709894E+03  0.89910756770E+02 0.  0.
        254    2    1    2    0    0  0.26733721375E+02 -0.30895964351E+02 -0.40424536892E+03  0.10653818560E+04  0.98486289823E+03 0.  0.
         23    2    4    4    0    0  0.24306711673E+03 -0.21948936558E+03 -0.61139598193E+03  0.69971917415E+03  0.92437390198E+02 0.  0.
         23    2    4    4    0    0 -0.21633339535E+03  0.18859340123E+03  0.20715061302E+03  0.36566268185E+03  0.91816183151E+02 0.  0.
          2    1    3    3  502    0  0.57072317157E+01 -0.24842661434E+02 -0.75699173984E+02  0.79875498514E+02  0.00000000000E+00 0. -1.
         -1    1    3    3    0  502 -0.32440953091E+02  0.55738625784E+02 -0.51500931293E+03  0.51903160043E+03  0.00000000000E+00 0.  1.
         11    1    5    5    0    0  0.19330214738E+02 -0.53692655320E+02 -0.15385842493E+03  0.16410049774E+03  0.00000000000E+00 0. -1.
        -11    1    5    5    0    0  0.22373690199E+03 -0.16579671026E+03 -0.45753755701E+03  0.53561867641E+03  0.00000000000E+00 0.  1.
          2    1    6    6  503    0 -0.21974355166E+03  0.16158475994E+03  0.19760176821E+03  0.33681348242E+03  0.00000000000E+00 0.  1.
         -2    1    6    6    0  503  0.34101563037E+01  0.27008641291E+02  0.95488448063E+01  0.28849199426E+02  0.00000000000E+00 0. -1.
<mgrwt>
<rscale>  0 0.13341381E+04</rscale>
<asrwt>0</asrwt>
<pdfrwt beam="1">  1        2 0.51487316E-01 0.13341381E+04</pdfrwt>
<pdfrwt beam="2">  1       -1 0.20455714E+00 0.13341381E+04</pdfrwt>
<totfact> 0.15235356E+01</totfact>
</mgrwt>
</event>
<event>
12    6  0.1521603E-007  0.2803578E+04  0.7818608E-02  0.8302159E-01
         -1   -1    0    0    0  501 -0.00000000000E+00  0.00000000000E+00  0.67720500525E+03  0.67720500525E+03  0.00000000000E+00 0.  1.
          2   -1    0    0  501    0  0.00000000000E+00 -0.00000000000E+00 -0.29016499564E+04  0.29016499564E+04  0.00000000000E+00 0. -1.
         24    2    1    2    0    0  0.21543353023E+03 -0.23328593020E+03  0.55406260051E+03  0.64364661821E+03  0.80384530018E+02 0.  0.
        254    2    1    2    0    0 -0.21543353023E+03  0.23328593020E+03 -0.27785075517E+04  0.29352083434E+04  0.89135283336E+03 0.  0.
         23    2    4    4    0    0 -0.13826500812E+03  0.13219967190E+03 -0.74432633557E+02  0.22658455225E+03  0.95949865353E+02 0.  0.
         23    2    4    4    0    0 -0.77168522107E+02  0.10108625831E+03 -0.27040749181E+04  0.27086237912E+04  0.91914454778E+02 0.  0.
          4    1    3    3  502    0  0.46547076574E+02 -0.10091366824E+03  0.22241870610E+03  0.24863684280E+03  0.00000000000E+00 0. -1.
         -3    1    3    3    0  502  0.16888645365E+03 -0.13237226196E+03  0.33164389442E+03  0.39500977541E+03  0.00000000000E+00 0.  1.
         11    1    5    5    0    0 -0.14433639775E+03  0.94566171079E+02 -0.44732833702E+02  0.17826043543E+03  0.00000000000E+00 0. -1.
        -11    1    5    5    0    0  0.60713896258E+01  0.37633500817E+02 -0.29699799854E+02  0.48324116827E+02  0.00000000000E+00 0.  1.
          1    1    6    6  503    0 -0.46597091287E+02  0.11289702089E+03 -0.22895414389E+04  0.22927967696E+04  0.00000000000E+00 0. -1.
         -1    1    6    6    0  503 -0.30571430820E+02 -0.11810762580E+02 -0.41453347919E+03  0.41582702156E+03  0.00000000000E+00 0.  1.
<mgrwt>
<rscale>  0 0.28035776E+04</rscale>
<asrwt>0</asrwt>
<pdfrwt beam="1">  1        2 0.44640767E+00 0.28035776E+04</pdfrwt>
<pdfrwt beam="2">  1       -1 0.10418539E+00 0.28035776E+04</pdfrwt>
<totfact> 0.17173787E+00</totfact>
</mgrwt>
</event>
<event>
12    6  0.1521603E-007  0.1850959E+04  0.7818608E-02  0.8679660E-01
         -1   -1    0    0    0  501 -0.00000000000E+00  0.00000000000E+00  0.69181555743E+03  0.69181555743E+03  0.00000000000E+00 0.  1.
          2   -1    0    0  501    0  0.00000000000E+00 -0.00000000000E+00 -0.12380649390E+04  0.12380649390E+04  0.00000000000E+00 0. -1.
         24    2    1    2    0    0 -0.46441560636E+03 -0.26199914495E+02 -0.75945454232E+03  0.89414327480E+03  0.79703846046E+02 0.  0.
        254    2    1    2    0    0  0.46441560636E+03  0.26199914495E+02  0.21320516070E+03  0.10357372217E+04  0.90051477548E+03 0.  0.
         23    2    4    4    0    0  0.58581436104E+03 -0.24090280564E+03  0.31614332022E+03  0.71408653800E+03  0.93596781298E+02 0.  0.
         23    2    4    4    0    0 -0.12139875468E+03  0.26710272013E+03 -0.10293815952E+03  0.32165068367E+03  0.82349115849E+02 0.  0.
          2    1    3    3  502    0 -0.36231721149E+03  0.33323558530E+01 -0.62874895583E+03  0.72567907218E+03  0.00000000000E+00 0. -1.
         -1    1    3    3    0  502 -0.10209839487E+03 -0.29532270347E+02 -0.13070558649E+03  0.16846420262E+03  0.00000000000E+00 0.  1.
         11    1    5    5    0    0  0.10896926780E+03 -0.53309448555E+02  0.22135855022E+02  0.12331340036E+03  0.00000000000E+00 0.  1.
        -11    1    5    5    0    0  0.47684509323E+03 -0.18759335708E+03  0.29400746520E+03  0.59077313764E+03  0.00000000000E+00 0. -1.
          1    1    6    6  503    0 -0.25469125866E+02  0.86054098443E+02  0.53476183987E+01  0.89903177106E+02  0.00000000000E+00 0. -1.
         -1    1    6    6    0  503 -0.95929628811E+02  0.18104862169E+03 -0.10828577792E+03  0.23174750657E+03  0.00000000000E+00 0.  1.
<mgrwt>
<rscale>  0 0.18509593E+04</rscale>
<asrwt>0</asrwt>
<pdfrwt beam="1">  1        2 0.19047153E+00 0.18509593E+04</pdfrwt>
<pdfrwt beam="2">  1       -1 0.10643316E+00 0.18509593E+04</pdfrwt>
<totfact> 0.15896799E+01</totfact>
</mgrwt>
</event>
<event>
12    6  0.1521603E-007  0.1620956E+04  0.7818608E-02  0.8807777E-01
          2   -1    0    0  501    0  0.00000000000E+00  0.00000000000E+00  0.30051608303E+04  0.30051608303E+04  0.00000000000E+00 0. -1.
         -1   -1    0    0    0  501 -0.00000000000E+00 -0.00000000000E+00 -0.21858206050E+03  0.21858206050E+03  0.00000000000E+00 0.  1.
         24    2    1    2    0    0  0.54075402426E+03  0.12360951773E+03  0.88358883071E+03  0.10463331715E+04  0.79935325933E+02 0.  0.
        254    2    1    2    0    0 -0.54075402426E+03 -0.12360951773E+03  0.19029899391E+04  0.21774097193E+04  0.90113714270E+03 0.  0.
         23    2    4    4    0    0 -0.22159596891E+03 -0.45653847042E+02  0.18062358158E+04  0.18226023291E+04  0.90566995523E+02 0.  0.
         23    2    4    4    0    0 -0.31915805535E+03 -0.77955670690E+02  0.96754123345E+02  0.35480739026E+03  0.92671316553E+02 0.  0.
          2    1    3    3  502    0  0.30787515722E+03  0.44039003085E+02  0.54918522250E+03  0.63113465666E+03  0.00000000000E+00 0. -1.
         -1    1    3    3    0  502  0.23287886703E+03  0.79570514647E+02  0.33440360821E+03  0.41519851480E+03  0.00000000000E+00 0.  1.
         11    1    5    5    0    0 -0.28206387440E+02 -0.28158216200E+02  0.15722131877E+03  0.16219441577E+03  0.00000000000E+00 0.  1.
        -11    1    5    5    0    0 -0.19338958147E+03 -0.17495630841E+02  0.16490144970E+04  0.16604079133E+04  0.00000000000E+00 0. -1.
          3    1    6    6  503    0 -0.19061006775E+03 -0.10174438264E+02  0.85177228919E+02  0.20902362892E+03  0.00000000000E+00 0. -1.
         -3    1    6    6    0  503 -0.12854798760E+03 -0.67781232426E+02  0.11576894426E+02  0.14578376133E+03  0.00000000000E+00 0.  1.
<mgrwt>
<rscale>  0 0.16209556E+04</rscale>
<asrwt>0</asrwt>
<pdfrwt beam="1">  1        2 0.46233241E+00 0.16209556E+04</pdfrwt>
<pdfrwt beam="2">  1       -1 0.33628011E-01 0.16209556E+04</pdfrwt>
<totfact> 0.15795419E+01</totfact>
</mgrwt>
</event>
<event>
12    6  0.1521603E-007  0.1974377E+04  0.7818608E-02  0.8618695E-01
          2   -1    0    0  501    0  0.00000000000E+00  0.00000000000E+00  0.41642881183E+04  0.41642881183E+04  0.00000000000E+00 0. -1.
         -1   -1    0    0    0  501 -0.00000000000E+00 -0.00000000000E+00 -0.23402350869E+03  0.23402350869E+03  0.00000000000E+00 0.  1.
         24    2    1    2    0    0  0.66038951898E+02  0.41093987097E+03  0.30248231183E+04  0.30543772104E+04  0.80203028912E+02 0.  0.
        254    2    1    2    0    0 -0.66038951898E+02 -0.41093987097E+03  0.90544149129E+03  0.13439344165E+04  0.90172207530E+03 0.  0.
         23    2    4    4    0    0  0.50957160402E+02 -0.49811745934E+03  0.10178995518E+04  0.11378957086E+04  0.89272116377E+02 0.  0.
         23    2    4    4    0    0 -0.11699611230E+03  0.87177588367E+02 -0.11245806047E+03  0.20603870790E+03  0.92288198493E+02 0.  0.
          2    1    3    3  502    0 -0.10161660323E+02  0.16872444482E+03  0.13087173891E+04  0.13195879668E+04  0.00000000000E+00 0. -1.
         -1    1    3    3    0  502  0.76200612221E+02  0.24221542615E+03  0.17161057292E+04  0.17347892436E+04  0.00000000000E+00 0.  1.
         11    1    5    5    0    0  0.57426441946E+00  0.18879909524E+01 -0.68454160624E+00  0.20887524196E+01  0.00000000000E+00 0. -1.
        -11    1    5    5    0    0  0.50382895982E+02 -0.50000545029E+03  0.10185840934E+04  0.11358069562E+04  0.00000000000E+00 0.  1.
          1    1    6    6  503    0 -0.13270435100E+02  0.30993360933E+02  0.10824240328E+02  0.35409843947E+02  0.00000000000E+00 0. -1.
         -1    1    6    6    0  503 -0.10372567720E+03  0.56184227434E+02 -0.12328230080E+03  0.17062886395E+03  0.00000000000E+00 0.  1.
<mgrwt>
<rscale>  0 0.19743772E+04</rscale>
<asrwt>0</asrwt>
<pdfrwt beam="1">  1        2 0.64065965E+00 0.19743772E+04</pdfrwt>
<pdfrwt beam="2">  1       -1 0.36003620E-01 0.19743772E+04</pdfrwt>
<totfact> 0.19763202E+00</totfact>
</mgrwt>
</event>
<event>
12    6  0.1521603E-007  0.3486432E+04  0.7818608E-02  0.8117013E-01
         -1   -1    0    0    0  501 -0.00000000000E+00  0.00000000000E+00  0.12128122216E+04  0.12128122216E+04  0.00000000000E+00 0.  1.
          2   -1    0    0  501    0  0.00000000000E+00 -0.00000000000E+00 -0.25055837365E+04  0.25055837365E+04  0.00000000000E+00 0. -1.
         24    2    1    2    0    0 -0.83180356248E+03  0.12047026677E+04 -0.13591939367E+04  0.19991505646E+04  0.77389523858E+02 0.  0.
        254    2    1    2    0    0  0.83180356248E+03 -0.12047026677E+04  0.66422421765E+02  0.17192453935E+04  0.89899226952E+03 0.  0.
         23    2    4    4    0    0 -0.14057626755E+03 -0.11057596651E+02  0.55860317808E+02  0.17693266499E+03  0.91108920492E+02 0.  0.
         23    2    4    4    0    0  0.97237983003E+03 -0.11936450711E+04  0.10562103957E+02  0.15423127285E+04  0.91136736875E+02 0.  0.
          2    1    3    3  502    0 -0.36820316702E+03  0.48089700138E+03 -0.52950566265E+03  0.80449471404E+03  0.00000000000E+00 0. -1.
         -1    1    3    3    0  502 -0.46360039546E+03  0.72380566636E+03 -0.82968827402E+03  0.11946558506E+04  0.00000000000E+00 0.  1.
         11    1    5    5    0    0 -0.14141980427E+03  0.86016064396E+00  0.24703705431E+02  0.14356383241E+03  0.00000000000E+00 0.  1.
        -11    1    5    5    0    0  0.84353671102E+00 -0.11917757295E+02  0.31156612377E+02  0.33368832583E+02  0.00000000000E+00 0. -1.
          3    1    6    6  503    0  0.11802251754E+03 -0.10569292414E+03 -0.11179897796E+02  0.15882474295E+03  0.00000000000E+00 0. -1.
         -3    1    6    6    0  503  0.85435731250E+03 -0.10879521469E+04  0.21742001754E+02  0.13834879855E+04  0.00000000000E+00 0.  1.
<mgrwt>
<rscale>  0 0.34864323E+04</rscale>
<asrwt>0</asrwt>
<pdfrwt beam="1">  1        2 0.38547441E+00 0.34864323E+04</pdfrwt>
<pdfrwt beam="2">  1       -1 0.18658650E+00 0.34864323E+04</pdfrwt>
<totfact> 0.60319674E-01</totfact>
</mgrwt>
</event>
<event>
12    6  0.1521603E-007  0.3781073E+04  0.7818608E-02  0.8050229E-01
          2   -1    0    0  501    0  0.00000000000E+00  0.00000000000E+00  0.10549857850E+04  0.10549857850E+04  0.00000000000E+00 0. -1.
         -1   -1    0    0    0  501 -0.00000000000E+00 -0.00000000000E+00 -0.33878453940E+04  0.33878453940E+04  0.00000000000E+00 0.  1.
         24    2    1    2    0    0  0.24546138542E+03 -0.13032764820E+04  0.25945915384E+03  0.13546227416E+04  0.94354858903E+02 0.  0.
        254    2    1    2    0    0 -0.24546138542E+03  0.13032764820E+04 -0.25923187628E+04  0.30882084373E+04  0.10286563586E+04 0.  0.
         23    2    4    4    0    0 -0.38256329573E+02  0.87252333384E+03 -0.24156984795E+04  0.25703400263E+04  0.91039506471E+02 0.  0.
         23    2    4    4    0    0 -0.20720505585E+03  0.43075314816E+03 -0.17662028326E+03  0.51786841105E+03  0.92253763531E+02 0.  0.
          2    1    3    3  502    0  0.68666087259E+02 -0.19962565028E+03  0.57568186627E+02  0.21881391158E+03  0.00000000000E+00 0. -1.
         -1    1    3    3    0  502  0.17679529816E+03 -0.11036508317E+04  0.20189096721E+03  0.11358088301E+04  0.00000000000E+00 0.  1.
         11    1    5    5    0    0 -0.13825143852E+02  0.35870076820E+03 -0.11262140114E+04  0.11820386522E+04  0.00000000000E+00 0. -1.
        -11    1    5    5    0    0 -0.24431185721E+02  0.51382256564E+03 -0.12894844681E+04  0.13883013741E+04  0.00000000000E+00 0.  1.
          2    1    6    6  503    0 -0.23272646439E+02  0.14441121366E+03 -0.60217845576E+02  0.15818471364E+03  0.00000000000E+00 0. -1.
         -2    1    6    6    0  503 -0.18393240941E+03  0.28634193449E+03 -0.11640243768E+03  0.35968369741E+03  0.00000000000E+00 0.  1.
<mgrwt>
<rscale>  0 0.37810733E+04</rscale>
<asrwt>0</asrwt>
<pdfrwt beam="1">  1        2 0.16230551E+00 0.37810733E+04</pdfrwt>
<pdfrwt beam="2">  1       -1 0.52120698E+00 0.37810733E+04</pdfrwt>
<totfact> 0.23330339E-02</totfact>
</mgrwt>
</event>
<event>
12    6  0.1521603E-007  0.1647666E+04  0.7818608E-02  0.8791788E-01
          2   -1    0    0  501    0  0.00000000000E+00  0.00000000000E+00  0.10775668249E+04  0.10775668249E+04  0.00000000000E+00 0. -1.
         -1   -1    0    0    0  501 -0.00000000000E+00 -0.00000000000E+00 -0.62984582666E+03  0.62984582666E+03  0.00000000000E+00 0.  1.
         24    2    1    2    0    0 -0.37541266252E+03  0.16818395974E+03  0.57713884686E+03  0.71324479937E+03  0.80052381512E+02 0.  0.
        254    2    1    2    0    0  0.37541266252E+03 -0.16818395974E+03 -0.12941784864E+03  0.99416785217E+03  0.89576795391E+03 0.  0.
         23    2    4    4    0    0 -0.21552549641E+03 -0.21543072077E+03  0.12729657466E+03  0.34242329189E+03  0.90485677632E+02 0.  0.
         23    2    4    4    0    0  0.59093815893E+03  0.47246761029E+02 -0.25671442329E+03  0.65174456027E+03  0.86188819546E+02 0.  0.
          4    1    3    3  502    0 -0.30626530186E+03  0.16740686430E+03  0.46351798429E+03  0.58023479308E+03  0.00000000000E+00 0. -1.
         -3    1    3    3    0  502 -0.69147360659E+02  0.77709543560E+00  0.11362086257E+03  0.13301000629E+03  0.00000000000E+00 0.  1.
         11    1    5    5    0    0 -0.16263199989E+03 -0.20865724230E+03  0.10675801945E+03  0.28527931378E+03  0.00000000000E+00 0.  1.
        -11    1    5    5    0    0 -0.52893496519E+02 -0.67734784674E+01  0.20538555205E+02  0.57143978112E+02  0.00000000000E+00 0. -1.
          1    1    6    6  503    0  0.27478870794E+03 -0.78655935701E+01 -0.84814641234E+02  0.28768772122E+03  0.00000000000E+00 0. -1.
         -1    1    6    6    0  503  0.31614945099E+03  0.55112354599E+02 -0.17189978206E+03  0.36405683906E+03  0.00000000000E+00 0.  1.
<mgrwt>
<rscale>  0 0.16476662E+04</rscale>
<asrwt>0</asrwt>
<pdfrwt beam="1">  1        2 0.16577951E+00 0.16476662E+04</pdfrwt>
<pdfrwt beam="2">  1       -1 0.96899358E-01 0.16476662E+04</pdfrwt>
<totfact> 0.25108696E+01</totfact>
</mgrwt>
</event>
<event>
12    6  0.1521603E-007  0.2894969E+04  0.7818608E-02  0.8274376E-01
          2   -1    0    0  501    0  0.00000000000E+00  0.00000000000E+00  0.22569591190E+04  0.22569591190E+04  0.00000000000E+00 0. -1.
         -1   -1    0    0    0  501 -0.00000000000E+00 -0.00000000000E+00 -0.92833393551E+03  0.92833393551E+03  0.00000000000E+00 0.  1.
         24    2    1    2    0    0  0.12726395510E+04 -0.22382737475E+02  0.27622033129E+03  0.13049942859E+04  0.81240389825E+02 0.  0.
        254    2    1    2    0    0 -0.12726395510E+04  0.22382737475E+02  0.10524048522E+04  0.18802987687E+04  0.89880758377E+03 0.  0.
         23    2    4    4    0    0 -0.16655011412E+03 -0.27890417677E+03  0.25282902763E+02  0.33835436337E+03  0.91202904043E+02 0.  0.
         23    2    4    4    0    0 -0.11060894369E+04  0.30128691424E+03  0.10271219495E+04  0.15419444053E+04  0.91680983805E+02 0.  0.
          4    1    3    3  502    0  0.15432615604E+03  0.48439527160E+01  0.78152581338E+01  0.15459982075E+03  0.00000000000E+00 0. -1.
         -3    1    3    3    0  502  0.11183133950E+04 -0.27226690191E+02  0.26840507315E+03  0.11503944651E+04  0.00000000000E+00 0.  1.
         11    1    5    5    0    0 -0.71979527279E+02 -0.20335372229E+03  0.61207116963E+01  0.21580373451E+03  0.00000000000E+00 0. -1.
        -11    1    5    5    0    0 -0.94570586838E+02 -0.75550454478E+02  0.19162191067E+02  0.12255062886E+03  0.00000000000E+00 0.  1.
          2    1    6    6  503    0 -0.19809956301E+03  0.83241326543E+02  0.16356660167E+03  0.27004923346E+03  0.00000000000E+00 0.  1.
         -2    1    6    6    0  503 -0.90798987391E+03  0.21804558770E+03  0.86355534781E+03  0.12718951719E+04  0.00000000000E+00 0. -1.
<mgrwt>
<rscale>  0 0.28949693E+04</rscale>
<asrwt>0</asrwt>
<pdfrwt beam="1">  1        2 0.34722448E+00 0.28949693E+04</pdfrwt>
<pdfrwt beam="2">  1       -1 0.14282061E+00 0.28949693E+04</pdfrwt>
<totfact> 0.18723533E+00</totfact>
</mgrwt>
</event>
<event>
12    6  0.1521603E-007  0.1360555E+04  0.7818608E-02  0.8982877E-01
         -1   -1    0    0    0  501 -0.00000000000E+00  0.00000000000E+00  0.12766007371E+03  0.12766007371E+03  0.00000000000E+00 0.  1.
          2   -1    0    0  501    0  0.00000000000E+00 -0.00000000000E+00 -0.36250742743E+04  0.36250742743E+04  0.00000000000E+00 0. -1.
         24    2    1    2    0    0  0.25853216673E+03 -0.14107912010E+03 -0.17238123752E+04  0.17506432941E+04  0.80502416977E+02 0.  0.
        254    2    1    2    0    0 -0.25853216673E+03  0.14107912010E+03 -0.17736018254E+04  0.20020910539E+04  0.88088759415E+03 0.  0.
         23    2    4    4    0    0  0.68454515294E+02 -0.13632634233E+03 -0.36907049309E+01  0.17875858199E+03  0.93113463331E+02 0.  0.
         23    2    4    4    0    0 -0.32698668202E+03  0.27740546243E+03 -0.17699111205E+04  0.18233324719E+04  0.89899098042E+02 0.  0.
          2    1    3    3  502    0  0.22453969565E+03 -0.12987665181E+03 -0.16244799320E+04  0.16450595944E+04  0.00000000000E+00 0. -1.
         -1    1    3    3    0  502  0.33992471077E+02 -0.11202468286E+02 -0.99332443128E+02  0.10558369970E+03  0.00000000000E+00 0.  1.
         11    1    5    5    0    0 -0.22171782179E+02 -0.34501795138E+02 -0.10298656666E+02  0.42285034254E+02  0.00000000000E+00 0.  1.
        -11    1    5    5    0    0  0.90626297472E+02 -0.10182454719E+03  0.66079517349E+01  0.13647354773E+03  0.00000000000E+00 0. -1.
          2    1    6    6  503    0 -0.14279582672E+03  0.67752418783E+02 -0.58183047594E+03  0.60291603156E+03  0.00000000000E+00 0. -1.
         -2    1    6    6    0  503 -0.18419085531E+03  0.20965304365E+03 -0.11880806445E+04  0.12204164403E+04  0.00000000000E+00 0.  1.
<mgrwt>
<rscale>  0 0.13605547E+04</rscale>
<asrwt>0</asrwt>
<pdfrwt beam="1">  1        2 0.55770372E+00 0.13605547E+04</pdfrwt>
<pdfrwt beam="2">  1       -1 0.19640012E-01 0.13605547E+04</pdfrwt>
<totfact> 0.15854420E+01</totfact>
</mgrwt>
</event>
<event>
12    6  0.1521603E-007  0.2081087E+04  0.7818608E-02  0.8569621E-01
         -1   -1    0    0    0  501 -0.00000000000E+00  0.00000000000E+00  0.52009611810E+03  0.52009611810E+03  0.00000000000E+00 0.  1.
          2   -1    0    0  501    0  0.00000000000E+00 -0.00000000000E+00 -0.20817890262E+04  0.20817890262E+04  0.00000000000E+00 0. -1.
         24    2    1    2    0    0  0.29346579949E+02 -0.12192895154E+03  0.40724760721E+03  0.43344145864E+03  0.79328390322E+02 0.  0.
        254    2    1    2    0    0 -0.29346579949E+02  0.12192895154E+03 -0.19689405153E+04  0.21684436856E+04  0.89982963615E+03 0.  0.
         23    2    4    4    0    0  0.31119928150E+03  0.37851852499E+02 -0.16630762365E+04  0.16947283645E+04  0.89464548279E+02 0.  0.
         23    2    4    4    0    0 -0.34054586145E+03  0.84077099038E+02 -0.30586427879E+03  0.47371532118E+03  0.88390079422E+02 0.  0.
          2    1    3    3  502    0  0.35881958032E+02 -0.16702603723E+02  0.74074061457E+02  0.83984870447E+02  0.00000000000E+00 0. -1.
         -1    1    3    3    0  502 -0.65353780822E+01 -0.10522634781E+03  0.33317354575E+03  0.34945658819E+03  0.00000000000E+00 0.  1.
         11    1    5    5    0    0  0.31555985191E+03  0.42195909148E+02 -0.16475139751E+04  0.16779930909E+04  0.00000000000E+00 0. -1.
        -11    1    5    5    0    0 -0.43605704056E+01 -0.43440566497E+01 -0.15562261383E+02  0.16735273580E+02  0.00000000000E+00 0.  1.
          3    1    6    6  503    0 -0.27677761174E+03  0.96851965018E+02 -0.27386779998E+03  0.40123524440E+03  0.00000000000E+00 0. -1.
         -3    1    6    6    0  503 -0.63768249711E+02 -0.12774865980E+02 -0.31996478818E+02  0.72480076772E+02  0.00000000000E+00 0.  1.
<mgrwt>
<rscale>  0 0.20810866E+04</rscale>
<asrwt>0</asrwt>
<pdfrwt beam="1">  1        2 0.32027523E+00 0.20810866E+04</pdfrwt>
<pdfrwt beam="2">  1       -1 0.80014788E-01 0.20810866E+04</pdfrwt>
<totfact> 0.98542090E+00</totfact>
</mgrwt>
</event>
<event>
12    6  0.1521603E-007  0.1770982E+04  0.7818608E-02  0.8721885E-01
          2   -1    0    0  501    0  0.00000000000E+00  0.00000000000E+00  0.14311768652E+04  0.14311768652E+04  0.00000000000E+00 0. -1.
         -1   -1    0    0    0  501 -0.00000000000E+00 -0.00000000000E+00 -0.54786663201E+03  0.54786663201E+03  0.00000000000E+00 0.  1.
         24    2    1    2    0    0 -0.59531677705E+03  0.28037517183E+03  0.32375316186E+03  0.73776007237E+03  0.80383534142E+02 0.  0.
        254    2    1    2    0    0  0.59531677705E+03 -0.28037517183E+03  0.55955707133E+03  0.12412834248E+04  0.89144159802E+03 0.  0.
         23    2    4    4    0    0 -0.15356189020E+03 -0.44460854262E+02  0.39209905107E+03  0.43321013887E+03  0.91495010173E+02 0.  0.
         23    2    4    4    0    0  0.74887866725E+03 -0.23591431756E+03  0.16745802026E+03  0.80807328596E+03  0.92007735820E+02 0.  0.
          2    1    3    3  502    0 -0.10493315770E+03  0.30792294061E+02  0.27194986775E+02  0.11268850990E+03  0.00000000000E+00 0. -1.
         -1    1    3    3    0  502 -0.49038361935E+03  0.24958287777E+03  0.29655817509E+03  0.62507156247E+03  0.00000000000E+00 0.  1.
         11    1    5    5    0    0 -0.12542820408E+03 -0.71893271842E+02  0.31858866312E+03  0.34985656087E+03  0.00000000000E+00 0.  1.
        -11    1    5    5    0    0 -0.28133686118E+02  0.27432417580E+02  0.73510387949E+02  0.83353577999E+02  0.00000000000E+00 0. -1.
          1    1    6    6  503    0  0.12196371107E+03 -0.62525583601E+02  0.27129535332E+01  0.13708375374E+03  0.00000000000E+00 0. -1.
         -1    1    6    6    0  503  0.62691495618E+03 -0.17338873396E+03  0.16474506673E+03  0.67098953223E+03  0.00000000000E+00 0.  1.
<mgrwt>
<rscale>  0 0.17709817E+04</rscale>
<asrwt>0</asrwt>
<pdfrwt beam="1">  1        2 0.22018106E+00 0.17709817E+04</pdfrwt>
<pdfrwt beam="2">  1       -1 0.84287174E-01 0.17709817E+04</pdfrwt>
<totfact> 0.20883846E+01</totfact>
</mgrwt>
</event>
<event>
12    6  0.1521603E-007  0.1639667E+04  0.7818608E-02  0.8796543E-01
         -1   -1    0    0    0  501 -0.00000000000E+00  0.00000000000E+00  0.28330627040E+03  0.28330627040E+03  0.00000000000E+00 0.  1.
          2   -1    0    0  501    0  0.00000000000E+00 -0.00000000000E+00 -0.23724403742E+04  0.23724403742E+04  0.00000000000E+00 0. -1.
         24    2    1    2    0    0 -0.54537156897E+02 -0.40778001980E+03 -0.13697979280E+04  0.14323185903E+04  0.77015156925E+02 0.  0.
        254    2    1    2    0    0  0.54537156897E+02  0.40778001980E+03 -0.71933617582E+03  0.12234280544E+04  0.90004045705E+03 0.  0.
         23    2    4    4    0    0  0.42741040683E+02  0.27074173668E+03 -0.91979848597E+03  0.96404719319E+03  0.90718528254E+02 0.  0.
         23    2    4    4    0    0  0.11796116215E+02  0.13703828313E+03  0.20046231014E+03  0.25938086117E+03  0.90413792951E+02 0.  0.
          4    1    3    3  502    0 -0.56956585368E+02 -0.38620817681E+03 -0.13382216692E+04  0.13940007332E+04  0.00000000000E+00 0. -1.
         -3    1    3    3    0  502  0.24194284703E+01 -0.21571842989E+02 -0.31576258851E+02  0.38317857027E+02  0.00000000000E+00 0.  1.
         11    1    5    5    0    0  0.33426562793E+02  0.25290673315E+03 -0.73211048198E+03  0.77528376005E+03  0.00000000000E+00 0.  1.
        -11    1    5    5    0    0  0.93144778892E+01  0.17835003526E+02 -0.18768800398E+03  0.18876343313E+03  0.00000000000E+00 0. -1.
          2    1    6    6  503    0  0.16615034246E+02  0.96797178076E+01 -0.28347410549E+01  0.19436873634E+02  0.00000000000E+00 0. -1.
         -2    1    6    6    0  503 -0.48189180307E+01  0.12735856532E+03  0.20329705120E+03  0.23994398754E+03  0.00000000000E+00 0.  1.
<mgrwt>
<rscale>  0 0.16396673E+04</rscale>
<asrwt>0</asrwt>
<pdfrwt beam="1">  1        2 0.36499084E+00 0.16396673E+04</pdfrwt>
<pdfrwt beam="2">  1       -1 0.43585579E-01 0.16396673E+04</pdfrwt>
<totfact> 0.23361388E+01</totfact>
</mgrwt>
</event>
<event>
12    6  0.1521603E-007  0.1888568E+04  0.7818608E-02  0.8660568E-01
         -1   -1    0    0    0  501 -0.00000000000E+00  0.00000000000E+00  0.68556681075E+03  0.68556681075E+03  0.00000000000E+00 0.  1.
          2   -1    0    0  501    0  0.00000000000E+00 -0.00000000000E+00 -0.13006348251E+04  0.13006348251E+04  0.00000000000E+00 0. -1.
         24    2    1    2    0    0  0.57864585107E+03  0.40825307193E+03 -0.39178875285E+03  0.81318454965E+03  0.79177605686E+02 0.  0.
        254    2    1    2    0    0 -0.57864585107E+03 -0.40825307193E+03 -0.22327926149E+03  0.11730170862E+04  0.90808252057E+03 0.  0.
         23    2    4    4    0    0  0.29226116083E+02  0.24042387819E+03 -0.86631643376E+02  0.26908628375E+03  0.79022651187E+02 0.  0.
         23    2    4    4    0    0 -0.60787196715E+03 -0.64867695012E+03 -0.13664761811E+03  0.90393080243E+03  0.90156585932E+02 0.  0.
          4    1    3    3  502    0  0.43305065293E+03  0.28185772110E+03 -0.31817357262E+03  0.60680397597E+03  0.00000000000E+00 0. -1.
         -3    1    3    3    0  502  0.14559519814E+03  0.12639535083E+03 -0.73615180228E+02  0.20638057368E+03  0.00000000000E+00 0.  1.
         11    1    5    5    0    0  0.40699722186E+02  0.15879064380E+03 -0.24249358509E+02  0.16570747518E+03  0.00000000000E+00 0. -1.
        -11    1    5    5    0    0 -0.11473606103E+02  0.81633234394E+02 -0.62382284868E+02  0.10337880856E+03  0.00000000000E+00 0.  1.
          3    1    6    6  503    0 -0.38325713936E+03 -0.45960778415E+03 -0.11628399428E+03  0.60962883580E+03  0.00000000000E+00 0. -1.
         -3    1    6    6    0  503 -0.22461482779E+03 -0.18906916597E+03 -0.20363623833E+02  0.29430196663E+03  0.00000000000E+00 0.  1.
<mgrwt>
<rscale>  0 0.18885678E+04</rscale>
<asrwt>0</asrwt>
<pdfrwt beam="1">  1        2 0.20009766E+00 0.18885678E+04</pdfrwt>
<pdfrwt beam="2">  1       -1 0.10547182E+00 0.18885678E+04</pdfrwt>
<totfact> 0.14871494E+01</totfact>
</mgrwt>
</event>
<event>
12    6  0.1521603E-007  0.2283624E+04  0.7818608E-02  0.8484406E-01
          2   -1    0    0  501    0  0.00000000000E+00  0.00000000000E+00  0.12726276790E+04  0.12726276790E+04  0.00000000000E+00 0. -1.
         -1   -1    0    0    0  501 -0.00000000000E+00 -0.00000000000E+00 -0.10244428580E+04  0.10244428580E+04  0.00000000000E+00 0.  1.
         24    2    1    2    0    0  0.97225817826E+02 -0.26625938341E+03  0.10327987919E+04  0.10739165198E+04  0.79223910381E+02 0.  0.
        254    2    1    2    0    0 -0.97225817826E+02  0.26625938341E+03 -0.78461397088E+03  0.12231540172E+04  0.89450530882E+03 0.  0.
         23    2    4    4    0    0  0.79373710633E+02 -0.11305770533E+02 -0.86374511791E+03  0.87229357991E+03  0.91719433333E+02 0.  0.
         23    2    4    4    0    0 -0.17659952846E+03  0.27756515394E+03  0.79131147039E+02  0.35086043725E+03  0.92798167349E+02 0.  0.
          2    1    3    3  502    0  0.17872246153E+02 -0.16108809674E+03  0.60039708600E+03  0.62188861782E+03  0.00000000000E+00 0. -1.
         -1    1    3    3    0  502  0.79353571673E+02 -0.10517128667E+03  0.43240170591E+03  0.45202790196E+03  0.00000000000E+00 0.  1.
         11    1    5    5    0    0  0.88765849235E+02  0.59113198528E+01 -0.48838313972E+03  0.49641959153E+03  0.00000000000E+00 0.  1.
        -11    1    5    5    0    0 -0.93921386025E+01 -0.17217090385E+02 -0.37536197820E+03  0.37587398839E+03  0.00000000000E+00 0. -1.
          3    1    6    6  503    0 -0.11368729695E+03  0.12095394009E+03  0.38070576348E+01  0.16603960611E+03  0.00000000000E+00 0. -1.
         -3    1    6    6    0  503 -0.62912231507E+02  0.15661121386E+03  0.75324089404E+02  0.18482083114E+03  0.00000000000E+00 0.  1.
<mgrwt>
<rscale>  0 0.22836237E+04</rscale>
<asrwt>0</asrwt>
<pdfrwt beam="1">  1        2 0.19578888E+00 0.22836237E+04</pdfrwt>
<pdfrwt beam="2">  1       -1 0.15760659E+00 0.22836237E+04</pdfrwt>
<totfact> 0.54091611E+00</totfact>
</mgrwt>
</event>
<event>
12    6  0.1521603E-007  0.1741336E+04  0.7818608E-02  0.8738134E-01
          2   -1    0    0  501    0  0.00000000000E+00  0.00000000000E+00  0.98315860754E+03  0.98315860754E+03  0.00000000000E+00 0. -1.
         -1   -1    0    0    0  501 -0.00000000000E+00 -0.00000000000E+00 -0.77104865543E+03  0.77104865543E+03  0.00000000000E+00 0.  1.
         24    2    1    2    0    0 -0.63167957844E+03 -0.48576860056E+02  0.18522142594E+03  0.66453885307E+03  0.76981227995E+02 0.  0.
        254    2    1    2    0    0  0.63167957844E+03  0.48576860056E+02  0.26888526165E+02  0.10896684099E+04  0.88615768887E+03 0.  0.
         23    2    4    4    0    0  0.21748614177E+02  0.37595107111E+03  0.52717995982E+02  0.39089701544E+03  0.90603970633E+02 0.  0.
         23    2    4    4    0    0  0.60993096426E+03 -0.32737421105E+03 -0.25829469817E+02  0.69877139446E+03  0.91785864777E+02 0.  0.
          4    1    3    3  502    0 -0.28748261503E+03 -0.29048463359E+02  0.12383973746E+03  0.31436658178E+03  0.00000000000E+00 0. -1.
         -3    1    3    3    0  502 -0.34419696341E+03 -0.19528396696E+02  0.61381688476E+02  0.35017227129E+03  0.00000000000E+00 0.  1.
         11    1    5    5    0    0 -0.26636681568E+02  0.12943345192E+03  0.44861047089E+02  0.13955301798E+03  0.00000000000E+00 0.  1.
        -11    1    5    5    0    0  0.48385295745E+02  0.24651761919E+03  0.78569488927E+01  0.25134399747E+03  0.00000000000E+00 0. -1.
          2    1    6    6  503    0  0.37512860366E+02 -0.48511068089E+02  0.29023405446E+01  0.61391872431E+02  0.00000000000E+00 0. -1.
         -2    1    6    6    0  503  0.57241810390E+03 -0.27886314297E+03 -0.28731810361E+02  0.63737952203E+03  0.00000000000E+00 0.  1.
<mgrwt>
<rscale>  0 0.17413364E+04</rscale>
<asrwt>0</asrwt>
<pdfrwt beam="1">  1        2 0.15125517E+00 0.17413364E+04</pdfrwt>
<pdfrwt beam="2">  1       -1 0.11862287E+00 0.17413364E+04</pdfrwt>
<totfact> 0.17801818E+01</totfact>
</mgrwt>
</event>
<event>
12    6  0.1521603E-007  0.2057957E+04  0.7818608E-02  0.8579993E-01
         -1   -1    0    0    0  501 -0.00000000000E+00  0.00000000000E+00  0.40784912775E+03  0.40784912775E+03  0.00000000000E+00 0.  1.
          2   -1    0    0  501    0  0.00000000000E+00 -0.00000000000E+00 -0.25960500379E+04  0.25960500379E+04  0.00000000000E+00 0. -1.
         24    2    1    2    0    0  0.11826137332E+02 -0.79547156561E+03 -0.12456335896E+04  0.14799872146E+04  0.76447671226E+02 0.  0.
        254    2    1    2    0    0 -0.11826137332E+02  0.79547156561E+03 -0.94256732055E+03  0.15239119511E+04  0.89496346951E+03 0.  0.
         23    2    4    4    0    0 -0.35056574550E+03  0.14786822574E+03 -0.58897453705E+03  0.70686108553E+03  0.89444031925E+02 0.  0.
         23    2    4    4    0    0  0.33873960816E+03  0.64760333987E+03 -0.35359278350E+03  0.81705086558E+03  0.91704157229E+02 0.  0.
          4    1    3    3  502    0  0.82683848746E+01 -0.79239360326E+03 -0.12440998047E+04  0.14750390886E+04  0.00000000000E+00 0. -1.
         -3    1    3    3    0  502  0.35577524576E+01 -0.30779623510E+01 -0.15337849084E+01  0.49481260017E+01  0.00000000000E+00 0.  1.
         11    1    5    5    0    0 -0.11727780999E+03  0.84846316750E+02 -0.27380110404E+03  0.30970958454E+03  0.00000000000E+00 0. -1.
        -11    1    5    5    0    0 -0.23328793551E+03  0.63021908993E+02 -0.31517343301E+03  0.39715150100E+03  0.00000000000E+00 0.  1.
          3    1    6    6  503    0  0.62882331390E+02  0.12982810203E+03 -0.31057642967E+02  0.14756049900E+03  0.00000000000E+00 0. -1.
         -3    1    6    6    0  503  0.27585727678E+03  0.51777523784E+03 -0.32253514053E+03  0.66949036659E+03  0.00000000000E+00 0.  1.
<mgrwt>
<rscale>  0 0.20579570E+04</rscale>
<asrwt>0</asrwt>
<pdfrwt beam="1">  1        2 0.39939231E+00 0.20579570E+04</pdfrwt>
<pdfrwt beam="2">  1       -1 0.62746020E-01 0.20579570E+04</pdfrwt>
<totfact> 0.83011135E+00</totfact>
</mgrwt>
</event>
<event>
12    6  0.1521603E-007  0.2307590E+04  0.7818608E-02  0.8474935E-01
         -1   -1    0    0    0  501 -0.00000000000E+00  0.00000000000E+00  0.57811705571E+03  0.57811705571E+03  0.00000000000E+00 0.  1.
          2   -1    0    0  501    0  0.00000000000E+00 -0.00000000000E+00 -0.23027211787E+04  0.23027211787E+04  0.00000000000E+00 0. -1.
         24    2    1    2    0    0 -0.86233353375E+03 -0.44945306613E+03 -0.61979885853E+03  0.11555670188E+04  0.74547486681E+02 0.  0.
        254    2    1    2    0    0  0.86233353375E+03  0.44945306613E+03 -0.11048052645E+04  0.17252712156E+04  0.90018826533E+03 0.  0.
         23    2    4    4    0    0  0.69275696282E+02 -0.20387857919E+03 -0.43951462150E+03  0.49781162878E+03  0.90981965752E+02 0.  0.
         23    2    4    4    0    0  0.79305783747E+03  0.65333164532E+03 -0.66529064297E+03  0.12274595869E+04  0.90897884489E+02 0.  0.
          4    1    3    3  502    0 -0.70567585047E+03 -0.34853577180E+03 -0.47213568009E+03  0.91780591116E+03  0.00000000000E+00 0. -1.
         -3    1    3    3    0  502 -0.15665768328E+03 -0.10091729433E+03 -0.14766317844E+03  0.23776110761E+03  0.00000000000E+00 0.  1.
         11    1    5    5    0    0  0.71005690735E+02 -0.18570891959E+03 -0.31874107438E+03  0.37566671855E+03  0.00000000000E+00 0. -1.
        -11    1    5    5    0    0 -0.17299944524E+01 -0.18169659596E+02 -0.12077354712E+03  0.12214491023E+03  0.00000000000E+00 0.  1.
          4    1    6    6  503    0  0.64209582655E+03  0.56318458518E+03 -0.57684959886E+03  0.10306402802E+04  0.00000000000E+00 0. -1.
         -4    1    6    6    0  503  0.15096201092E+03  0.90147060136E+02 -0.88441044112E+02  0.19681930666E+03  0.00000000000E+00 0.  1.
<mgrwt>
<rscale>  0 0.23075896E+04</rscale>
<asrwt>0</asrwt>
<pdfrwt beam="1">  1        2 0.35426479E+00 0.23075896E+04</pdfrwt>
<pdfrwt beam="2">  1       -1 0.88941086E-01 0.23075896E+04</pdfrwt>
<totfact> 0.57738733E+00</totfact>
</mgrwt>
</event>
<event>
12    6  0.1521603E-007  0.1536333E+04  0.7818608E-02  0.8860645E-01
         -1   -1    0    0    0  501 -0.00000000000E+00  0.00000000000E+00  0.13615585695E+03  0.13615585695E+03  0.00000000000E+00 0.  1.
          2   -1    0    0  501    0  0.00000000000E+00 -0.00000000000E+00 -0.43338576205E+04  0.43338576205E+04  0.00000000000E+00 0. -1.
         24    2    1    2    0    0  0.37521393913E+03 -0.26471972265E+03 -0.80355708773E+03  0.92956398640E+03  0.86736266358E+02 0.  0.
        254    2    1    2    0    0 -0.37521393913E+03  0.26471972265E+03 -0.33941446759E+04  0.35404494911E+04  0.89649455467E+03 0.  0.
         23    2    4    4    0    0 -0.64026940988E+03  0.28656560935E+03 -0.20984642024E+04  0.22145476349E+04  0.92760189628E+02 0.  0.
         23    2    4    4    0    0  0.26505547075E+03 -0.21845886700E+02 -0.12956804734E+04  0.13259018562E+04  0.92174820831E+02 0.  0.
          2    1    3    3  502    0  0.34426571339E+03 -0.26121270099E+03 -0.71232049097E+03  0.83315751118E+03  0.00000000000E+00 0. -1.
         -1    1    3    3    0  502  0.30948225743E+02 -0.35070216553E+01 -0.91236596755E+02  0.96406475224E+02  0.00000000000E+00 0.  1.
         11    1    5    5    0    0 -0.59647626045E+03  0.28871406403E+03 -0.19948381083E+04  0.21020273115E+04  0.00000000000E+00 0. -1.
        -11    1    5    5    0    0 -0.43793149426E+02 -0.21484546850E+01 -0.10362609415E+03  0.11252032342E+03  0.00000000000E+00 0.  1.
          3    1    6    6  503    0  0.26759292741E+03 -0.32061725471E+02 -0.12146098281E+04  0.12441506997E+04  0.00000000000E+00 0. -1.
         -3    1    6    6    0  503 -0.25374566670E+01  0.10215838772E+02 -0.81070645358E+02  0.81751156487E+02  0.00000000000E+00 0.  1.
<mgrwt>
<rscale>  0 0.15363334E+04</rscale>
<asrwt>0</asrwt>
<pdfrwt beam="1">  1        2 0.66674727E+00 0.15363334E+04</pdfrwt>
<pdfrwt beam="2">  1       -1 0.20947057E-01 0.15363334E+04</pdfrwt>
<totfact> 0.37797871E+00</totfact>
</mgrwt>
</event>
